<event>
 5    0  0.2349231E+000  0.6439672E+03  0.7546771E-02  0.9818166E-01
         21   -1    0    0  503  501  0.00000000000E+00  0.00000000000E+00  0.76742105816E+03  0.76742105816E+03  0.00000000000E+00 0.  1.
         21   -1    0    0  504  502 -0.00000000000E+00 -0.00000000000E+00 -0.24946586197E+03  0.24946586197E+03  0.00000000000E+00 0.  1.
         25    1    1    2    0    0 -0.17202174830E+03  0.21851212211E+03 -0.41017852762E+02  0.30764670263E+03  0.12500000000E+03 0.  0.
         21    1    1    2  503  502  0.16338381128E+03 -0.24059200831E+03  0.20820162703E+03  0.35766842431E+03  0.00000000000E+00 0.  1.
         21    1    1    2  504  501  0.86379370121E+01  0.22079886200E+02  0.35077142192E+03  0.35157179319E+03  0.00000000000E+00 0.  1.
<mgrwt>
<rscale>  4 0.64396724E+03</rscale>
<asrwt>0</asrwt>
<pdfrwt beam="1">  1       21 0.11806478E+00 0.64396724E+03</pdfrwt>
<pdfrwt beam="2">  1       21 0.38379364E-01 0.64396724E+03</pdfrwt>
<totfact> 0.29501509E+03</totfact>
</mgrwt>
</event>
<event>
 5    0  0.2349231E+000  0.5881597E+03  0.7546771E-02  0.9930280E-01
         21   -1    0    0  502  501  0.00000000000E+00  0.00000000000E+00  0.18265794874E+04  0.18265794874E+04  0.00000000000E+00 0. -1.
         21   -1    0    0  504  502 -0.00000000000E+00 -0.00000000000E+00 -0.61898077524E+03  0.61898077524E+03  0.00000000000E+00 0.  1.
         25    1    1    2    0    0 -0.25876805349E+03  0.97008936047E+02 -0.39936865346E+03  0.50148974121E+03  0.12500000000E+03 0.  0.
         21    1    1    2  503  501  0.16662709460E+03  0.12646736094E+03  0.16788895564E+04  0.16918713677E+04  0.00000000000E+00 0. -1.
         21    1    1    2  504  503  0.92140958887E+02 -0.22347629699E+03 -0.71922190818E+02  0.25219915375E+03  0.00000000000E+00 0.  1.
<mgrwt>
<rscale>  4 0.58815975E+03</rscale>
<asrwt>0</asrwt>
<pdfrwt beam="1">  1       21 0.28101223E+00 0.58815975E+03</pdfrwt>
<pdfrwt beam="2">  1       21 0.95227813E-01 0.58815975E+03</pdfrwt>
<totfact> 0.28228138E+01</totfact>
</mgrwt>
</event>
<event>
 5    0  0.1021259E+001  0.5046752E+03  0.7546771E-02  0.1012566E+00
         21   -1    0    0  503  501  0.00000000000E+00  0.00000000000E+00  0.17340604986E+03  0.17340604986E+03  0.00000000000E+00 0. -1.
         21   -1    0    0  504  502 -0.00000000000E+00 -0.00000000000E+00 -0.90381309379E+03  0.90381309379E+03  0.00000000000E+00 0. -1.
         25    1    1    2    0    0 -0.24853453955E+03 -0.10904632115E+03 -0.63409568479E+03  0.70097279190E+03  0.12500000000E+03 0.  0.
         21    1    1    2  503  502  0.25974534494E+03  0.71660918995E+02 -0.15114063796E+03  0.30894404667E+03  0.00000000000E+00 0. -1.
         21    1    1    2  504  501 -0.11210805391E+02  0.37385402156E+02  0.54829278833E+02  0.67302305081E+02  0.00000000000E+00 0.  1.
<mgrwt>
<rscale>  4 0.50467520E+03</rscale>
<asrwt>0</asrwt>
<pdfrwt beam="1">  1       21 0.26677854E-01 0.50467520E+03</pdfrwt>
<pdfrwt beam="2">  1       21 0.13904817E+00 0.50467520E+03</pdfrwt>
<totfact> 0.41624916E+03</totfact>
</mgrwt>
</event>
<event>
 5    0  0.3215053E+000  0.7003931E+03  0.7546771E-02  0.9716560E-01
         21   -1    0    0  503  501  0.00000000000E+00  0.00000000000E+00  0.43555254512E+03  0.43555254512E+03  0.00000000000E+00 0.  1.
         21   -1    0    0  504  502 -0.00000000000E+00 -0.00000000000E+00 -0.66529034321E+03  0.66529034321E+03  0.00000000000E+00 0. -1.
         25    1    1    2    0    0 -0.44200857440E+02  0.21681539350E+03  0.74476491000E+02  0.26482896059E+03  0.12500000000E+03 0.  0.
         21    1    1    2  503  502  0.67611491549E+02 -0.17400073019E+03 -0.55239331891E+03  0.58308313873E+03  0.00000000000E+00 0. -1.
         21    1    1    2  504  501 -0.23410634109E+02 -0.42814663315E+02  0.24817902982E+03  0.25293078900E+03  0.00000000000E+00 0.  1.
<mgrwt>
<rscale>  4 0.70039306E+03</rscale>
<asrwt>0</asrwt>
<pdfrwt beam="1">  1       21 0.67008084E-01 0.70039306E+03</pdfrwt>
<pdfrwt beam="2">  1       21 0.10235236E+00 0.70039306E+03</pdfrwt>
<totfact> 0.12533106E+03</totfact>
</mgrwt>
</event>
