<event>
 4    0  0.1495377E-001  0.2887818E+03  0.7546771E-02  0.1090987E+00
         21   -1    0    0  503  501  0.00000000000E+00  0.00000000000E+00  0.50367621673E+03  0.50367621673E+03  0.00000000000E+00 0.  1.
         21   -1    0    0  501  502 -0.00000000000E+00 -0.00000000000E+00 -0.15976154378E+03  0.15976154378E+03  0.00000000000E+00 0. -1.
         25    1    1    2    0    0  0.14579627939E+03  0.21566960359E+03  0.96996515160E+02  0.30463626992E+03  0.12500000000E+03 0.  0.
         21    1    1    2  503  502 -0.14579627939E+03 -0.21566960359E+03  0.24691815780E+03  0.35880149059E+03  0.00000000000E+00 0.  1.
<mgrwt>
<rscale>  3 0.28878181E+03</rscale>
<asrwt>0</asrwt>
<pdfrwt beam="1">  1       21 0.77488648E-01 0.28878181E+03</pdfrwt>
<pdfrwt beam="2">  1       21 0.24578699E-01 0.28878181E+03</pdfrwt>
<totfact> 0.22036410E+04</totfact>
</mgrwt>
</event>
<event>
 4    0  0.1495377E-001  0.2830923E+03  0.7546771E-02  0.1094012E+00
         21   -1    0    0  503  501  0.00000000000E+00  0.00000000000E+00  0.51134428345E+03  0.51134428345E+03  0.00000000000E+00 0. -1.
         21   -1    0    0  501  502 -0.00000000000E+00 -0.00000000000E+00 -0.14266788569E+03  0.14266788569E+03  0.00000000000E+00 0. -1.
         25    1    1    2    0    0 -0.93250140429E+02 -0.23626393812E+03  0.22914795288E+03  0.36421150649E+03  0.12500000000E+03 0.  0.
         21    1    1    2  503  502  0.93250140429E+02  0.23626393812E+03  0.13952844488E+03  0.28980066266E+03  0.00000000000E+00 0. -1.
<mgrwt>
<rscale>  3 0.28309228E+03</rscale>
<asrwt>0</asrwt>
<pdfrwt beam="1">  1       21 0.78668350E-01 0.28309228E+03</pdfrwt>
<pdfrwt beam="2">  1       21 0.21948906E-01 0.28309228E+03</pdfrwt>
<totfact> 0.26498444E+04</totfact>
</mgrwt>
</event>
<event>
 4    0  0.1495377E-001  0.3169801E+03  0.7546771E-02  0.1077048E+00
         21   -1    0    0  503  501  0.00000000000E+00  0.00000000000E+00  0.33885431128E+03  0.33885431128E+03  0.00000000000E+00 0.  1.
         21   -1    0    0  501  502 -0.00000000000E+00 -0.00000000000E+00 -0.29743308550E+03  0.29743308550E+03  0.00000000000E+00 0.  1.
         25    1    1    2    0    0 -0.28650376064E+03  0.52601983895E+02 -0.69641613064E+02  0.32454017908E+03  0.12500000000E+03 0.  0.
         21    1    1    2  503  502  0.28650376064E+03 -0.52601983895E+02  0.11106283885E+03  0.31174721770E+03  0.00000000000E+00 0.  1.
<mgrwt>
<rscale>  3 0.31698008E+03</rscale>
<asrwt>0</asrwt>
<pdfrwt beam="1">  1       21 0.52131433E-01 0.31698008E+03</pdfrwt>
<pdfrwt beam="2">  1       21 0.45758936E-01 0.31698008E+03</pdfrwt>
<totfact> 0.15014379E+04</totfact>
</mgrwt>
</event>
<event>
 4    0  0.1495377E-001  0.4671547E+03  0.7546771E-02  0.1022726E+00
         21   -1    0    0  502  501  0.00000000000E+00  0.00000000000E+00  0.45358672322E+03  0.45358672322E+03  0.00000000000E+00 0. -1.
         21   -1    0    0  503  502 -0.00000000000E+00 -0.00000000000E+00 -0.51308047852E+03  0.51308047852E+03  0.00000000000E+00 0. -1.
         25    1    1    2    0    0  0.21897043342E+03 -0.39326893677E+03 -0.18009980133E+03  0.50066899822E+03  0.12500000000E+03 0.  0.
         21    1    1    2  503  501 -0.21897043342E+03  0.39326893677E+03  0.12060604602E+03  0.46599820352E+03  0.00000000000E+00 0. -1.
<mgrwt>
<rscale>  3 0.46715469E+03</rscale>
<asrwt>0</asrwt>
<pdfrwt beam="1">  1       21 0.69782573E-01 0.46715469E+03</pdfrwt>
<pdfrwt beam="2">  1       21 0.78935458E-01 0.46715469E+03</pdfrwt>
<totfact> 0.22759851E+03</totfact>
</mgrwt>
</event>
<event>
 4    0  0.1495377E-001  0.2927247E+03  0.7546771E-02  0.1088935E+00
         21   -1    0    0  502  501  0.00000000000E+00  0.00000000000E+00  0.34936026529E+03  0.34936026529E+03  0.00000000000E+00 0. -1.
         21   -1    0    0  503  502 -0.00000000000E+00 -0.00000000000E+00 -0.26268809711E+03  0.26268809711E+03  0.00000000000E+00 0.  1.
         25    1    1    2    0    0  0.10010060046E+03  0.24503593133E+03 -0.74617552454E+02  0.30208528099E+03  0.12500000000E+03 0.  0.
         21    1    1    2  503  501 -0.10010060046E+03 -0.24503593133E+03  0.16128972064E+03  0.30996308141E+03  0.00000000000E+00 0. -1.
<mgrwt>
<rscale>  3 0.29272468E+03</rscale>
<asrwt>0</asrwt>
<pdfrwt beam="1">  1       21 0.53747733E-01 0.29272468E+03</pdfrwt>
<pdfrwt beam="2">  1       21 0.40413553E-01 0.29272468E+03</pdfrwt>
<totfact> 0.18360632E+04</totfact>
</mgrwt>
</event>
<event>
 4    0  0.1495377E-001  0.2782202E+03  0.7546771E-02  0.1096665E+00
         21   -1    0    0  503  501  0.00000000000E+00  0.00000000000E+00  0.72690245305E+02  0.72690245305E+02  0.00000000000E+00 0. -1.
         21   -1    0    0  501  502 -0.00000000000E+00 -0.00000000000E+00 -0.12390135595E+04  0.12390135595E+04  0.00000000000E+00 0. -1.
         25    1    1    2    0    0 -0.24842712845E+03 -0.80880796277E+01 -0.92241929017E+03  0.96346447888E+03  0.12500000000E+03 0.  0.
         21    1    1    2  503  502  0.24842712845E+03  0.80880796277E+01 -0.24390402399E+03  0.34823932589E+03  0.00000000000E+00 0. -1.
<mgrwt>
<rscale>  3 0.27822016E+03</rscale>
<asrwt>0</asrwt>
<pdfrwt beam="1">  1       21 0.11183115E-01 0.27822016E+03</pdfrwt>
<pdfrwt beam="2">  1       21 0.19061747E+00 0.27822016E+03</pdfrwt>
<totfact> 0.96831080E+03</totfact>
</mgrwt>
</event>
<event>
 4    0  0.1495377E-001  0.2731108E+03  0.7546771E-02  0.1099512E+00
         21   -1    0    0  502  501  0.00000000000E+00  0.00000000000E+00  0.22022865017E+03  0.22022865017E+03  0.00000000000E+00 0. -1.
         21   -1    0    0  503  502 -0.00000000000E+00 -0.00000000000E+00 -0.65157845726E+03  0.65157845726E+03  0.00000000000E+00 0.  1.
         25    1    1    2    0    0  0.19282135710E+03 -0.14759551666E+03 -0.54049631078E+03  0.60557887534E+03  0.12500000000E+03 0.  0.
         21    1    1    2  503  501 -0.19282135710E+03  0.14759551666E+03  0.10914650369E+03  0.26622823209E+03  0.00000000000E+00 0. -1.
<mgrwt>
<rscale>  3 0.27311081E+03</rscale>
<asrwt>0</asrwt>
<pdfrwt beam="1">  1       21 0.33881331E-01 0.27311081E+03</pdfrwt>
<pdfrwt beam="2">  1       21 0.10024284E+00 0.27311081E+03</pdfrwt>
<totfact> 0.65000914E+03</totfact>
</mgrwt>
</event>
<event>
 4    0  0.1495377E-001  0.3437096E+03  0.7546771E-02  0.1065227E+00
         21   -1    0    0  503  501  0.00000000000E+00  0.00000000000E+00  0.20959977394E+03  0.20959977394E+03  0.00000000000E+00 0. -1.
         21   -1    0    0  501  502 -0.00000000000E+00 -0.00000000000E+00 -0.57054477960E+03  0.57054477960E+03  0.00000000000E+00 0. -1.
         25    1    1    2    0    0 -0.32016946239E+03 -0.16661050960E+01 -0.29567136217E+03  0.45338484201E+03  0.12500000000E+03 0.  0.
         21    1    1    2  503  502  0.32016946239E+03  0.16661050960E+01 -0.65273643490E+02  0.32675971154E+03  0.00000000000E+00 0. -1.
<mgrwt>
<rscale>  3 0.34370956E+03</rscale>
<asrwt>0</asrwt>
<pdfrwt beam="1">  1       21 0.32246119E-01 0.34370956E+03</pdfrwt>
<pdfrwt beam="2">  1       21 0.87776121E-01 0.34370956E+03</pdfrwt>
<totfact> 0.95035345E+03</totfact>
</mgrwt>
</event>
<event>
 4    0  0.1495377E-001  0.2932488E+03  0.7546771E-02  0.1088665E+00
         21   -1    0    0  502  501  0.00000000000E+00  0.00000000000E+00  0.39077603418E+03  0.39077603418E+03  0.00000000000E+00 0.  1.
         21   -1    0    0  503  502 -0.00000000000E+00 -0.00000000000E+00 -0.20343073264E+03  0.20343073264E+03  0.00000000000E+00 0.  1.
         25    1    1    2    0    0  0.26387409699E+01  0.26526002649E+03  0.13916100778E+03  0.32459302317E+03  0.12500000000E+03 0.  0.
         21    1    1    2  503  501 -0.26387409699E+01 -0.26526002649E+03  0.48184293763E+02  0.26961374366E+03  0.00000000000E+00 0.  1.
<mgrwt>
<rscale>  3 0.29324878E+03</rscale>
<asrwt>0</asrwt>
<pdfrwt beam="1">  1       21 0.60119390E-01 0.29324878E+03</pdfrwt>
<pdfrwt beam="2">  1       21 0.31297036E-01 0.29324878E+03</pdfrwt>
<totfact> 0.24114654E+04</totfact>
</mgrwt>
</event>
<event>
 4    0  0.1495377E-001  0.2594647E+03  0.7546771E-02  0.1107465E+00
         21   -1    0    0  503  501  0.00000000000E+00  0.00000000000E+00  0.46593180854E+02  0.46593180854E+02  0.00000000000E+00 0.  1.
         21   -1    0    0  501  502 -0.00000000000E+00 -0.00000000000E+00 -0.13745390938E+04  0.13745390938E+04  0.00000000000E+00 0.  1.
         25    1    1    2    0    0 -0.12362779505E+02  0.22703325718E+03 -0.51048985050E+03  0.57264458929E+03  0.12500000000E+03 0.  0.
         21    1    1    2  503  502  0.12362779505E+02 -0.22703325718E+03 -0.81745606243E+03  0.84848768535E+03  0.00000000000E+00 0.  1.
<mgrwt>
<rscale>  3 0.25946471E+03</rscale>
<asrwt>0</asrwt>
<pdfrwt beam="1">  1       21 0.71681827E-02 0.25946471E+03</pdfrwt>
<pdfrwt beam="2">  1       21 0.21146752E+00 0.25946471E+03</pdfrwt>
<totfact> 0.15724543E+04</totfact>
</mgrwt>
</event>
<event>
 4    0  0.1495377E-001  0.3417777E+03  0.7546771E-02  0.1066041E+00
         21   -1    0    0  502  501  0.00000000000E+00  0.00000000000E+00  0.41561648520E+03  0.41561648520E+03  0.00000000000E+00 0. -1.
         21   -1    0    0  503  502 -0.00000000000E+00 -0.00000000000E+00 -0.26729701546E+03  0.26729701546E+03  0.00000000000E+00 0. -1.
         25    1    1    2    0    0 -0.19087169746E+03 -0.25447006237E+03  0.12515452313E+03  0.36397207612E+03  0.12500000000E+03 0.  0.
         21    1    1    2  503  501  0.19087169746E+03  0.25447006237E+03  0.23164946607E+02  0.31894142454E+03  0.00000000000E+00 0. -1.
<mgrwt>
<rscale>  3 0.34177773E+03</rscale>
<asrwt>0</asrwt>
<pdfrwt beam="1">  1       21 0.63940998E-01 0.34177773E+03</pdfrwt>
<pdfrwt beam="2">  1       21 0.41122618E-01 0.34177773E+03</pdfrwt>
<totfact> 0.11929188E+04</totfact>
</mgrwt>
</event>
<event>
 4    0  0.1495377E-001  0.2908798E+03  0.7546771E-02  0.1089891E+00
         21   -1    0    0  503  501  0.00000000000E+00  0.00000000000E+00  0.78701779736E+03  0.78701779736E+03  0.00000000000E+00 0. -1.
         21   -1    0    0  501  502 -0.00000000000E+00 -0.00000000000E+00 -0.10742884602E+03  0.10742884602E+03  0.00000000000E+00 0. -1.
         25    1    1    2    0    0  0.25199545660E+03  0.74056261832E+02  0.21852584232E+03  0.36381943849E+03  0.12500000000E+03 0.  0.
         21    1    1    2  503  502 -0.25199545660E+03 -0.74056261832E+02  0.46106310902E+03  0.53062720488E+03  0.00000000000E+00 0. -1.
<mgrwt>
<rscale>  3 0.29087977E+03</rscale>
<asrwt>0</asrwt>
<pdfrwt beam="1">  1       21 0.12107966E+00 0.29087977E+03</pdfrwt>
<pdfrwt beam="2">  1       21 0.16527515E-01 0.29087977E+03</pdfrwt>
<totfact> 0.16068930E+04</totfact>
</mgrwt>
</event>
<event>
 4    0  0.1495377E-001  0.3125566E+03  0.7546771E-02  0.1079127E+00
         21   -1    0    0  503  501  0.00000000000E+00  0.00000000000E+00  0.13229433272E+04  0.13229433272E+04  0.00000000000E+00 0.  1.
         21   -1    0    0  501  502 -0.00000000000E+00 -0.00000000000E+00 -0.88527754326E+02  0.88527754326E+02  0.00000000000E+00 0.  1.
         25    1    1    2    0    0 -0.28475703081E+03  0.31305589811E+02  0.29663522147E+03  0.43091073457E+03  0.12500000000E+03 0.  0.
         21    1    1    2  503  502  0.28475703081E+03 -0.31305589811E+02  0.93778035145E+03  0.98056034700E+03  0.00000000000E+00 0.  1.
<mgrwt>
<rscale>  3 0.31255657E+03</rscale>
<asrwt>0</asrwt>
<pdfrwt beam="1">  1       21 0.20352973E+00 0.31255657E+03</pdfrwt>
<pdfrwt beam="2">  1       21 0.13619655E-01 0.31255657E+03</pdfrwt>
<totfact> 0.54606952E+03</totfact>
</mgrwt>
</event>
<event>
 4    0  0.1495377E-001  0.3655175E+03  0.7546771E-02  0.1056420E+00
         21   -1    0    0  503  501  0.00000000000E+00  0.00000000000E+00  0.69200076340E+03  0.69200076340E+03  0.00000000000E+00 0.  1.
         21   -1    0    0  501  502 -0.00000000000E+00 -0.00000000000E+00 -0.21153933058E+03  0.21153933058E+03  0.00000000000E+00 0.  1.
         25    1    1    2    0    0  0.33715651797E+03  0.65601194709E+02  0.76760472308E+02  0.37349056811E+03  0.12500000000E+03 0.  0.
         21    1    1    2  503  502 -0.33715651797E+03 -0.65601194709E+02  0.40370096051E+03  0.53004952587E+03  0.00000000000E+00 0.  1.
<mgrwt>
<rscale>  3 0.36551749E+03</rscale>
<asrwt>0</asrwt>
<pdfrwt beam="1">  1       21 0.10646165E+00 0.36551749E+03</pdfrwt>
<pdfrwt beam="2">  1       21 0.32544513E-01 0.36551749E+03</pdfrwt>
<totfact> 0.58258903E+03</totfact>
</mgrwt>
</event>
<event>
 4    0  0.1495377E-001  0.2361223E+03  0.7546771E-02  0.1122403E+00
         21   -1    0    0  503  501  0.00000000000E+00  0.00000000000E+00  0.30952707666E+02  0.30952707666E+02  0.00000000000E+00 0.  1.
         21   -1    0    0  501  502 -0.00000000000E+00 -0.00000000000E+00 -0.15841108717E+04  0.15841108717E+04  0.00000000000E+00 0.  1.
         25    1    1    2    0    0 -0.19746040244E+03 -0.33736231248E+02 -0.70187339551E+03  0.74052684431E+03  0.12500000000E+03 0.  0.
         21    1    1    2  503  502  0.19746040244E+03  0.33736231248E+02 -0.85128476856E+03  0.87453673508E+03  0.00000000000E+00 0.  1.
<mgrwt>
<rscale>  3 0.23612231E+03</rscale>
<asrwt>0</asrwt>
<pdfrwt beam="1">  1       21 0.47619545E-02 0.23612231E+03</pdfrwt>
<pdfrwt beam="2">  1       21 0.24370939E+00 0.23612231E+03</pdfrwt>
<totfact> 0.20440740E+04</totfact>
</mgrwt>
</event>
<event>
 4    0  0.1495377E-001  0.3064394E+03  0.7546771E-02  0.1082065E+00
         21   -1    0    0  502  501  0.00000000000E+00  0.00000000000E+00  0.57415543930E+02  0.57415543930E+02  0.00000000000E+00 0.  1.
         21   -1    0    0  503  502 -0.00000000000E+00 -0.00000000000E+00 -0.14988893031E+04  0.14988893031E+04  0.00000000000E+00 0.  1.
         25    1    1    2    0    0  0.13033584657E+03 -0.24757360533E+03 -0.78530694755E+03  0.84297812832E+03  0.12500000000E+03 0.  0.
         21    1    1    2  503  501 -0.13033584657E+03  0.24757360533E+03 -0.65616681164E+03  0.71332671873E+03  0.00000000000E+00 0.  1.
<mgrwt>
<rscale>  3 0.30643943E+03</rscale>
<asrwt>0</asrwt>
<pdfrwt beam="1">  1       21 0.88331612E-02 0.30643943E+03</pdfrwt>
<pdfrwt beam="2">  1       21 0.23059834E+00 0.30643943E+03</pdfrwt>
<totfact> 0.80446663E+03</totfact>
</mgrwt>
</event>
<event>
 4    0  0.1495377E-001  0.2525674E+03  0.7546771E-02  0.1111693E+00
         21   -1    0    0  503  501  0.00000000000E+00  0.00000000000E+00  0.13959377489E+03  0.13959377489E+03  0.00000000000E+00 0.  1.
         21   -1    0    0  501  502 -0.00000000000E+00 -0.00000000000E+00 -0.41243270152E+03  0.41243270152E+03  0.00000000000E+00 0.  1.
         25    1    1    2    0    0 -0.17385685459E+03  0.13393694437E+03 -0.19528967108E+03  0.31926222230E+03  0.12500000000E+03 0.  0.
         21    1    1    2  503  502  0.17385685459E+03 -0.13393694437E+03 -0.77549255541E+02  0.23276425411E+03  0.00000000000E+00 0.  1.
<mgrwt>
<rscale>  3 0.25256744E+03</rscale>
<asrwt>0</asrwt>
<pdfrwt beam="1">  1       21 0.21475966E-01 0.25256744E+03</pdfrwt>
<pdfrwt beam="2">  1       21 0.63451184E-01 0.25256744E+03</pdfrwt>
<totfact> 0.45139196E+04</totfact>
</mgrwt>
</event>
<event>
 4    0  0.1495377E-001  0.2771619E+03  0.7546771E-02  0.1097249E+00
         21   -1    0    0  502  501  0.00000000000E+00  0.00000000000E+00  0.57787518014E+03  0.57787518014E+03  0.00000000000E+00 0.  1.
         21   -1    0    0  503  502 -0.00000000000E+00 -0.00000000000E+00 -0.12127447661E+03  0.12127447661E+03  0.00000000000E+00 0.  1.
         25    1    1    2    0    0  0.21570751834E+03 -0.12109486562E+03  0.28850917943E+03  0.40007030203E+03  0.12500000000E+03 0.  0.
         21    1    1    2  503  501 -0.21570751834E+03  0.12109486562E+03  0.16809152409E+03  0.29907935472E+03  0.00000000000E+00 0.  1.
<mgrwt>
<rscale>  3 0.27716187E+03</rscale>
<asrwt>0</asrwt>
<pdfrwt beam="1">  1       21 0.88903872E-01 0.27716187E+03</pdfrwt>
<pdfrwt beam="2">  1       21 0.18657612E-01 0.27716187E+03</pdfrwt>
<totfact> 0.27226887E+04</totfact>
</mgrwt>
</event>
<event>
 4    0  0.1495377E-001  0.4112722E+03  0.7546771E-02  0.1039945E+00
         21   -1    0    0  503  501  0.00000000000E+00  0.00000000000E+00  0.39001753103E+03  0.39001753103E+03  0.00000000000E+00 0. -1.
         21   -1    0    0  501  502 -0.00000000000E+00 -0.00000000000E+00 -0.46334877763E+03  0.46334877763E+03  0.00000000000E+00 0. -1.
         25    1    1    2    0    0 -0.34198692580E+03 -0.19121922268E+03 -0.17749762147E+03  0.44794001179E+03  0.12500000000E+03 0.  0.
         21    1    1    2  503  502  0.34198692580E+03  0.19121922268E+03  0.10416637488E+03  0.40542629687E+03  0.00000000000E+00 0. -1.
<mgrwt>
<rscale>  3 0.41127223E+03</rscale>
<asrwt>0</asrwt>
<pdfrwt beam="1">  1       21 0.60002697E-01 0.41127223E+03</pdfrwt>
<pdfrwt beam="2">  1       21 0.71284427E-01 0.41127223E+03</pdfrwt>
<totfact> 0.40967630E+03</totfact>
</mgrwt>
</event>
<event>
 4    0  0.1495377E-001  0.3041842E+03  0.7546771E-02  0.1083168E+00
         21   -1    0    0  503  501  0.00000000000E+00  0.00000000000E+00  0.64411998174E+02  0.64411998174E+02  0.00000000000E+00 0. -1.
         21   -1    0    0  501  502 -0.00000000000E+00 -0.00000000000E+00 -0.19143003188E+04  0.19143003188E+04  0.00000000000E+00 0. -1.
         25    1    1    2    0    0 -0.20692324650E+03  0.18462331178E+03 -0.15086012291E+04  0.15389625290E+04  0.12500000000E+03 0.  0.
         21    1    1    2  503  502  0.20692324650E+03 -0.18462331178E+03 -0.34128709155E+03  0.43974978801E+03  0.00000000000E+00 0. -1.
<mgrwt>
<rscale>  3 0.30418415E+03</rscale>
<asrwt>0</asrwt>
<pdfrwt beam="1">  1       21 0.99095386E-02 0.30418415E+03</pdfrwt>
<pdfrwt beam="2">  1       21 0.29450773E+00 0.30418415E+03</pdfrwt>
<totfact> 0.27207748E+03</totfact>
</mgrwt>
</event>
<event>
 4    0  0.1495377E-001  0.3279447E+03  0.7546771E-02  0.1072050E+00
         21   -1    0    0  502  501  0.00000000000E+00  0.00000000000E+00  0.92919704501E+03  0.92919704501E+03  0.00000000000E+00 0.  1.
         21   -1    0    0  503  502 -0.00000000000E+00 -0.00000000000E+00 -0.11504741618E+03  0.11504741618E+03  0.00000000000E+00 0.  1.
         25    1    1    2    0    0 -0.16627681555E+03 -0.25352463290E+03  0.28542340631E+03  0.43475767934E+03  0.12500000000E+03 0.  0.
         21    1    1    2  503  501  0.16627681555E+03  0.25352463290E+03  0.52872622252E+03  0.60948678185E+03  0.00000000000E+00 0.  1.
<mgrwt>
<rscale>  3 0.32794469E+03</rscale>
<asrwt>0</asrwt>
<pdfrwt beam="1">  1       21 0.14295339E+00 0.32794469E+03</pdfrwt>
<pdfrwt beam="2">  1       21 0.17699603E-01 0.32794469E+03</pdfrwt>
<totfact> 0.90668104E+03</totfact>
</mgrwt>
</event>
<event>
 4    0  0.1495377E-001  0.2988509E+03  0.7546771E-02  0.1085816E+00
         21   -1    0    0  503  501  0.00000000000E+00  0.00000000000E+00  0.79708818382E+03  0.79708818382E+03  0.00000000000E+00 0. -1.
         21   -1    0    0  501  502 -0.00000000000E+00 -0.00000000000E+00 -0.12658899473E+03  0.12658899473E+03  0.00000000000E+00 0. -1.
         25    1    1    2    0    0 -0.22749963474E+03 -0.14809051930E+03  0.14491678676E+03  0.33213364900E+03  0.12500000000E+03 0.  0.
         21    1    1    2  503  502  0.22749963474E+03  0.14809051930E+03  0.52558240233E+03  0.59154352955E+03  0.00000000000E+00 0. -1.
<mgrwt>
<rscale>  3 0.29885094E+03</rscale>
<asrwt>0</asrwt>
<pdfrwt beam="1">  1       21 0.12262895E+00 0.29885094E+03</pdfrwt>
<pdfrwt beam="2">  1       21 0.19475231E-01 0.29885094E+03</pdfrwt>
<totfact> 0.11412983E+04</totfact>
</mgrwt>
</event>
<event>
 4    0  0.1495377E-001  0.2557751E+03  0.7546771E-02  0.1109709E+00
         21   -1    0    0  503  501  0.00000000000E+00  0.00000000000E+00  0.20501655450E+03  0.20501655450E+03  0.00000000000E+00 0. -1.
         21   -1    0    0  501  502 -0.00000000000E+00 -0.00000000000E+00 -0.35663367077E+03  0.35663367077E+03  0.00000000000E+00 0. -1.
         25    1    1    2    0    0 -0.17085872740E+02  0.22249489227E+03 -0.21005616736E+03  0.33097507094E+03  0.12500000000E+03 0.  0.
         21    1    1    2  503  502  0.17085872740E+02 -0.22249489227E+03  0.58439051091E+02  0.23067515433E+03  0.00000000000E+00 0. -1.
<mgrwt>
<rscale>  3 0.25577510E+03</rscale>
<asrwt>0</asrwt>
<pdfrwt beam="1">  1       21 0.31541008E-01 0.25577510E+03</pdfrwt>
<pdfrwt beam="2">  1       21 0.54866719E-01 0.25577510E+03</pdfrwt>
<totfact> 0.29357355E+04</totfact>
</mgrwt>
</event>
<event>
 4    0  0.1495377E-001  0.3397284E+03  0.7546771E-02  0.1066912E+00
         21   -1    0    0  502  501  0.00000000000E+00  0.00000000000E+00  0.52766637876E+03  0.52766637876E+03  0.00000000000E+00 0.  1.
         21   -1    0    0  503  502 -0.00000000000E+00 -0.00000000000E+00 -0.20442594793E+03  0.20442594793E+03  0.00000000000E+00 0.  1.
         25    1    1    2    0    0 -0.21531922019E+03 -0.23114498888E+03  0.18996542923E+03  0.38923288243E+03  0.12500000000E+03 0.  0.
         21    1    1    2  503  501  0.21531922019E+03  0.23114498888E+03  0.13327500160E+03  0.34285944426E+03  0.00000000000E+00 0.  1.
<mgrwt>
<rscale>  3 0.33972838E+03</rscale>
<asrwt>0</asrwt>
<pdfrwt beam="1">  1       21 0.81179442E-01 0.33972838E+03</pdfrwt>
<pdfrwt beam="2">  1       21 0.31450146E-01 0.33972838E+03</pdfrwt>
<totfact> 0.11991583E+04</totfact>
</mgrwt>
</event>
<event>
 4    0  0.1495377E-001  0.3016294E+03  0.7546771E-02  0.1084429E+00
         21   -1    0    0  502  501  0.00000000000E+00  0.00000000000E+00  0.19859480651E+03  0.19859480651E+03  0.00000000000E+00 0. -1.
         21   -1    0    0  503  502 -0.00000000000E+00 -0.00000000000E+00 -0.56625005938E+03  0.56625005938E+03  0.00000000000E+00 0. -1.
         25    1    1    2    0    0 -0.22591118772E+02  0.27357807346E+03 -0.38582389868E+03  0.48973503216E+03  0.12500000000E+03 0.  0.
         21    1    1    2  503  501  0.22591118772E+02 -0.27357807346E+03  0.18168645811E+02  0.27510983373E+03  0.00000000000E+00 0. -1.
<mgrwt>
<rscale>  3 0.30162944E+03</rscale>
<asrwt>0</asrwt>
<pdfrwt beam="1">  1       21 0.30553047E-01 0.30162944E+03</pdfrwt>
<pdfrwt beam="2">  1       21 0.87115394E-01 0.30162944E+03</pdfrwt>
<totfact> 0.10958226E+04</totfact>
</mgrwt>
</event>
<event>
 4    0  0.1495377E-001  0.2928681E+03  0.7546771E-02  0.1088861E+00
         21   -1    0    0  503  501  0.00000000000E+00  0.00000000000E+00  0.11442921077E+03  0.11442921077E+03  0.00000000000E+00 0. -1.
         21   -1    0    0  501  502 -0.00000000000E+00 -0.00000000000E+00 -0.88234940354E+03  0.88234940354E+03  0.00000000000E+00 0. -1.
         25    1    1    2    0    0 -0.19801986920E+03 -0.17588299985E+03 -0.63750535379E+03  0.70155881745E+03  0.12500000000E+03 0.  0.
         21    1    1    2  503  502  0.19801986920E+03  0.17588299985E+03 -0.13041483897E+03  0.29521979686E+03  0.00000000000E+00 0. -1.
<mgrwt>
<rscale>  3 0.29286806E+03</rscale>
<asrwt>0</asrwt>
<pdfrwt beam="1">  1       21 0.17604494E-01 0.29286806E+03</pdfrwt>
<pdfrwt beam="2">  1       21 0.13574606E+00 0.29286806E+03</pdfrwt>
<totfact> 0.10664543E+04</totfact>
</mgrwt>
</event>
<event>
 4    0  0.1495377E-001  0.2408192E+03  0.7546771E-02  0.1119248E+00
         21   -1    0    0  503  501  0.00000000000E+00  0.00000000000E+00  0.76567927784E+03  0.76567927784E+03  0.00000000000E+00 0. -1.
         21   -1    0    0  501  502 -0.00000000000E+00 -0.00000000000E+00 -0.77797697382E+02  0.77797697382E+02  0.00000000000E+00 0. -1.
         25    1    1    2    0    0  0.53615343798E+02  0.19873165378E+03  0.19681167390E+03  0.31101239572E+03  0.12500000000E+03 0.  0.
         21    1    1    2  503  502 -0.53615343798E+02 -0.19873165378E+03  0.49106990656E+03  0.53246457951E+03  0.00000000000E+00 0. -1.
<mgrwt>
<rscale>  3 0.24081918E+03</rscale>
<asrwt>0</asrwt>
<pdfrwt beam="1">  1       21 0.11779681E+00 0.24081918E+03</pdfrwt>
<pdfrwt beam="2">  1       21 0.11968877E-01 0.24081918E+03</pdfrwt>
<totfact> 0.31755657E+04</totfact>
</mgrwt>
</event>
<event>
 4    0  0.1495377E-001  0.2724903E+03  0.7546771E-02  0.1099863E+00
         21   -1    0    0  502  501  0.00000000000E+00  0.00000000000E+00  0.15823634222E+04  0.15823634222E+04  0.00000000000E+00 0. -1.
         21   -1    0    0  503  502 -0.00000000000E+00 -0.00000000000E+00 -0.45890215940E+02  0.45890215940E+02  0.00000000000E+00 0. -1.
         25    1    1    2    0    0  0.35051197026E+02 -0.23957754125E+03  0.56811969946E+03  0.63008807130E+03  0.12500000000E+03 0.  0.
         21    1    1    2  503  501 -0.35051197026E+02  0.23957754125E+03  0.96835350676E+03  0.99816556680E+03  0.00000000000E+00 0. -1.
<mgrwt>
<rscale>  3 0.27249034E+03</rscale>
<asrwt>0</asrwt>
<pdfrwt beam="1">  1       21 0.24344048E+00 0.27249034E+03</pdfrwt>
<pdfrwt beam="2">  1       21 0.70600344E-02 0.27249034E+03</pdfrwt>
<totfact> 0.10165980E+04</totfact>
</mgrwt>
</event>
<event>
 4    0  0.1495377E-001  0.2549685E+03  0.7546771E-02  0.1110204E+00
         21   -1    0    0  502  501  0.00000000000E+00  0.00000000000E+00  0.30350032656E+03  0.30350032656E+03  0.00000000000E+00 0.  1.
         21   -1    0    0  503  502 -0.00000000000E+00 -0.00000000000E+00 -0.20842414823E+03  0.20842414823E+03  0.00000000000E+00 0.  1.
         25    1    1    2    0    0  0.17125653067E+03  0.14161620915E+03 -0.30314273438E+02  0.25676429885E+03  0.12500000000E+03 0.  0.
         21    1    1    2  503  501 -0.17125653067E+03 -0.14161620915E+03  0.12539045177E+03  0.25516017594E+03  0.00000000000E+00 0.  1.
<mgrwt>
<rscale>  3 0.25496853E+03</rscale>
<asrwt>0</asrwt>
<pdfrwt beam="1">  1       21 0.46692358E-01 0.25496853E+03</pdfrwt>
<pdfrwt beam="2">  1       21 0.32065254E-01 0.25496853E+03</pdfrwt>
<totfact> 0.39913380E+04</totfact>
</mgrwt>
</event>
<event>
 4    0  0.1495377E-001  0.4209822E+03  0.7546771E-02  0.1036747E+00
         21   -1    0    0  503  501  0.00000000000E+00  0.00000000000E+00  0.65941897067E+03  0.65941897067E+03  0.00000000000E+00 0. -1.
         21   -1    0    0  501  502 -0.00000000000E+00 -0.00000000000E+00 -0.52389034986E+03  0.52389034986E+03  0.00000000000E+00 0.  1.
         25    1    1    2    0    0  0.35331259193E+03 -0.19175831618E+03 -0.35388460807E+03  0.54996395816E+03  0.12500000000E+03 0.  0.
         21    1    1    2  503  502 -0.35331259193E+03  0.19175831618E+03  0.48941322887E+03  0.63334536237E+03  0.00000000000E+00 0. -1.
<mgrwt>
<rscale>  3 0.42098223E+03</rscale>
<asrwt>0</asrwt>
<pdfrwt beam="1">  1       21 0.10144907E+00 0.42098223E+03</pdfrwt>
<pdfrwt beam="2">  1       21 0.80598516E-01 0.42098223E+03</pdfrwt>
<totfact> 0.92162238E+02</totfact>
</mgrwt>
</event>
<event>
 4    0  0.1495377E-001  0.2888007E+03  0.7546771E-02  0.1090977E+00
         21   -1    0    0  502  501  0.00000000000E+00  0.00000000000E+00  0.23732656514E+03  0.23732656514E+03  0.00000000000E+00 0.  1.
         21   -1    0    0  503  502 -0.00000000000E+00 -0.00000000000E+00 -0.73765884150E+03  0.73765884150E+03  0.00000000000E+00 0. -1.
         25    1    1    2    0    0  0.10313753308E+03 -0.23904700702E+03 -0.62337674138E+03  0.68702575206E+03  0.12500000000E+03 0.  0.
         21    1    1    2  503  501 -0.10313753308E+03  0.23904700702E+03  0.12304446502E+03  0.28795965458E+03  0.00000000000E+00 0.  1.
<mgrwt>
<rscale>  3 0.28880066E+03</rscale>
<asrwt>0</asrwt>
<pdfrwt beam="1">  1       21 0.36511780E-01 0.28880066E+03</pdfrwt>
<pdfrwt beam="2">  1       21 0.11348597E+00 0.28880066E+03</pdfrwt>
<totfact> 0.41007027E+03</totfact>
</mgrwt>
</event>
<event>
 4    0  0.1495377E-001  0.2826161E+03  0.7546771E-02  0.1094269E+00
         21   -1    0    0  503  501  0.00000000000E+00  0.00000000000E+00  0.84393134017E+03  0.84393134017E+03  0.00000000000E+00 0.  1.
         21   -1    0    0  501  502 -0.00000000000E+00 -0.00000000000E+00 -0.90020918014E+02  0.90020918014E+02  0.00000000000E+00 0.  1.
         25    1    1    2    0    0 -0.15721278499E+03  0.19882398863E+03  0.28768268143E+03  0.40327802248E+03  0.12500000000E+03 0.  0.
         21    1    1    2  503  502  0.15721278499E+03 -0.19882398863E+03  0.46622774073E+03  0.53067423571E+03  0.00000000000E+00 0.  1.
<mgrwt>
<rscale>  3 0.28261606E+03</rscale>
<asrwt>0</asrwt>
<pdfrwt beam="1">  1       21 0.12983559E+00 0.28261606E+03</pdfrwt>
<pdfrwt beam="2">  1       21 0.13849373E-01 0.28261606E+03</pdfrwt>
<totfact> 0.18700509E+04</totfact>
</mgrwt>
</event>
<event>
 4    0  0.1495377E-001  0.2512226E+03  0.7546771E-02  0.1112535E+00
         21   -1    0    0  503  501  0.00000000000E+00  0.00000000000E+00  0.59951911341E+03  0.59951911341E+03  0.00000000000E+00 0.  1.
         21   -1    0    0  501  502 -0.00000000000E+00 -0.00000000000E+00 -0.27165520511E+03  0.27165520511E+03  0.00000000000E+00 0. -1.
         25    1    1    2    0    0  0.21291598576E+03 -0.46417668617E+02 -0.18628299031E+03  0.31275256902E+03  0.12500000000E+03 0.  0.
         21    1    1    2  503  502 -0.21291598576E+03  0.46417668617E+02  0.51414689861E+03  0.55842174949E+03  0.00000000000E+00 0.  1.
<mgrwt>
<rscale>  3 0.25122264E+03</rscale>
<asrwt>0</asrwt>
<pdfrwt beam="1">  1       21 0.92233709E-01 0.25122264E+03</pdfrwt>
<pdfrwt beam="2">  1       21 0.41793109E-01 0.25122264E+03</pdfrwt>
<totfact> 0.52495857E+03</totfact>
</mgrwt>
</event>
<event>
 4    0  0.1495377E-001  0.4140843E+03  0.7546771E-02  0.1039009E+00
         21   -1    0    0  502  501  0.00000000000E+00  0.00000000000E+00  0.95910152943E+03  0.95910152943E+03  0.00000000000E+00 0. -1.
         21   -1    0    0  503  502 -0.00000000000E+00 -0.00000000000E+00 -0.20919105568E+03  0.20919105568E+03  0.00000000000E+00 0.  1.
         25    1    1    2    0    0 -0.35937903774E+03 -0.16336314132E+03  0.13120553605E+03  0.43437391887E+03  0.12500000000E+03 0.  0.
         21    1    1    2  503  501  0.35937903774E+03  0.16336314132E+03  0.61870493770E+03  0.73391866623E+03  0.00000000000E+00 0. -1.
<mgrwt>
<rscale>  3 0.41408430E+03</rscale>
<asrwt>0</asrwt>
<pdfrwt beam="1">  1       21 0.14755408E+00 0.41408430E+03</pdfrwt>
<pdfrwt beam="2">  1       21 0.32183240E-01 0.41408430E+03</pdfrwt>
<totfact> 0.25293768E+03</totfact>
</mgrwt>
</event>
<event>
 4    0  0.1495377E-001  0.2516334E+03  0.7546771E-02  0.1112277E+00
         21   -1    0    0  502  501  0.00000000000E+00  0.00000000000E+00  0.46191019629E+03  0.46191019629E+03  0.00000000000E+00 0. -1.
         21   -1    0    0  503  502 -0.00000000000E+00 -0.00000000000E+00 -0.12568012196E+03  0.12568012196E+03  0.00000000000E+00 0. -1.
         25    1    1    2    0    0 -0.17952203083E+03  0.12436326296E+03  0.11480218942E+03  0.27658438753E+03  0.12500000000E+03 0.  0.
         21    1    1    2  503  501  0.17952203083E+03 -0.12436326296E+03  0.22142788491E+03  0.31100593072E+03  0.00000000000E+00 0. -1.
<mgrwt>
<rscale>  3 0.25163343E+03</rscale>
<asrwt>0</asrwt>
<pdfrwt beam="1">  1       21 0.71063106E-01 0.25163343E+03</pdfrwt>
<pdfrwt beam="2">  1       21 0.19335404E-01 0.25163343E+03</pdfrwt>
<totfact> 0.42867877E+04</totfact>
</mgrwt>
</event>
<event>
 4    0  0.1495377E-001  0.3104022E+03  0.7546771E-02  0.1080153E+00
         21   -1    0    0  502  501  0.00000000000E+00  0.00000000000E+00  0.36351835050E+02  0.36351835050E+02  0.00000000000E+00 0.  1.
         21   -1    0    0  503  502 -0.00000000000E+00 -0.00000000000E+00 -0.26957891006E+04  0.26957891006E+04  0.00000000000E+00 0.  1.
         25    1    1    2    0    0 -0.27576068930E+03 -0.68414679534E+02 -0.18106343351E+04  0.18370482360E+04  0.12500000000E+03 0.  0.
         21    1    1    2  503  501  0.27576068930E+03  0.68414679534E+02 -0.84880293051E+03  0.89509269966E+03  0.00000000000E+00 0.  1.
<mgrwt>
<rscale>  3 0.31040220E+03</rscale>
<asrwt>0</asrwt>
<pdfrwt beam="1">  1       21 0.55925901E-02 0.31040220E+03</pdfrwt>
<pdfrwt beam="2">  1       21 0.41473678E+00 0.31040220E+03</pdfrwt>
<totfact> 0.13638987E+03</totfact>
</mgrwt>
</event>
<event>
 4    0  0.1495377E-001  0.2492697E+03  0.7546771E-02  0.1113767E+00
         21   -1    0    0  502  501  0.00000000000E+00  0.00000000000E+00  0.88831056305E+03  0.88831056305E+03  0.00000000000E+00 0.  1.
         21   -1    0    0  503  502 -0.00000000000E+00 -0.00000000000E+00 -0.34267172153E+03  0.34267172153E+03  0.00000000000E+00 0.  1.
         25    1    1    2    0    0  0.21360075323E+03  0.29750819235E+02 -0.28160969539E+03  0.37608431709E+03  0.12500000000E+03 0.  0.
         21    1    1    2  503  501 -0.21360075323E+03 -0.29750819235E+02  0.82724853690E+03  0.85489796749E+03  0.00000000000E+00 0.  1.
<mgrwt>
<rscale>  3 0.24926972E+03</rscale>
<asrwt>0</asrwt>
<pdfrwt beam="1">  1       21 0.13666316E+00 0.24926972E+03</pdfrwt>
<pdfrwt beam="2">  1       21 0.52718727E-01 0.24926972E+03</pdfrwt>
<totfact> 0.12343339E+03</totfact>
</mgrwt>
</event>
<event>
 4    0  0.1495377E-001  0.3042579E+03  0.7546771E-02  0.1083131E+00
         21   -1    0    0  503  501  0.00000000000E+00  0.00000000000E+00  0.25400150387E+03  0.25400150387E+03  0.00000000000E+00 0. -1.
         21   -1    0    0  501  502 -0.00000000000E+00 -0.00000000000E+00 -0.45601782355E+03  0.45601782355E+03  0.00000000000E+00 0. -1.
         25    1    1    2    0    0  0.13728971240E+03 -0.24103819543E+03  0.79837497435E+02  0.31455826611E+03  0.12500000000E+03 0.  0.
         21    1    1    2  503  502 -0.13728971240E+03  0.24103819543E+03 -0.28185381712E+03  0.39546106131E+03  0.00000000000E+00 0. -1.
<mgrwt>
<rscale>  3 0.30425791E+03</rscale>
<asrwt>0</asrwt>
<pdfrwt beam="1">  1       21 0.39077155E-01 0.30425791E+03</pdfrwt>
<pdfrwt beam="2">  1       21 0.70156588E-01 0.30425791E+03</pdfrwt>
<totfact> 0.10947947E+04</totfact>
</mgrwt>
</event>
<event>
 4    0  0.1495377E-001  0.2566689E+03  0.7546771E-02  0.1109161E+00
         21   -1    0    0  502  501  0.00000000000E+00  0.00000000000E+00  0.13384446037E+04  0.13384446037E+04  0.00000000000E+00 0. -1.
         21   -1    0    0  503  502 -0.00000000000E+00 -0.00000000000E+00 -0.54123820630E+02  0.54123820630E+02  0.00000000000E+00 0. -1.
         25    1    1    2    0    0  0.18944149508E+03  0.11985763380E+03  0.36435264096E+03  0.44568125315E+03  0.12500000000E+03 0.  0.
         21    1    1    2  503  501 -0.18944149508E+03 -0.11985763380E+03  0.91996814210E+03  0.94688717117E+03  0.00000000000E+00 0. -1.
<mgrwt>
<rscale>  3 0.25666892E+03</rscale>
<asrwt>0</asrwt>
<pdfrwt beam="1">  1       21 0.20591453E+00 0.25666892E+03</pdfrwt>
<pdfrwt beam="2">  1       21 0.83267426E-02 0.25666892E+03</pdfrwt>
<totfact> 0.13150867E+04</totfact>
</mgrwt>
</event>
<event>
 4    0  0.1495377E-001  0.2422443E+03  0.7546771E-02  0.1118307E+00
         21   -1    0    0  503  501  0.00000000000E+00  0.00000000000E+00  0.12200329667E+04  0.12200329667E+04  0.00000000000E+00 0. -1.
         21   -1    0    0  501  502 -0.00000000000E+00 -0.00000000000E+00 -0.12520930749E+03  0.12520930749E+03  0.00000000000E+00 0. -1.
         25    1    1    2    0    0 -0.56094301352E+02  0.19977675002E+03  0.11812950508E+02  0.24253219640E+03  0.12500000000E+03 0.  0.
         21    1    1    2  503  502  0.56094301352E+02 -0.19977675002E+03  0.10830107087E+04  0.11027100778E+04  0.00000000000E+00 0. -1.
<mgrwt>
<rscale>  3 0.24224434E+03</rscale>
<asrwt>0</asrwt>
<pdfrwt beam="1">  1       21 0.18769737E+00 0.24224434E+03</pdfrwt>
<pdfrwt beam="2">  1       21 0.19262971E-01 0.24224434E+03</pdfrwt>
<totfact> 0.38335841E+03</totfact>
</mgrwt>
</event>
<event>
 4    0  0.1495377E-001  0.3230792E+03  0.7546771E-02  0.1074241E+00
         21   -1    0    0  502  501  0.00000000000E+00  0.00000000000E+00  0.13385908257E+03  0.13385908257E+03  0.00000000000E+00 0.  1.
         21   -1    0    0  503  502 -0.00000000000E+00 -0.00000000000E+00 -0.77674492461E+03  0.77674492461E+03  0.00000000000E+00 0.  1.
         25    1    1    2    0    0 -0.19807019770E+03  0.22253844166E+03 -0.45623761914E+03  0.55904644383E+03  0.12500000000E+03 0.  0.
         21    1    1    2  503  501  0.19807019770E+03 -0.22253844166E+03 -0.18664822291E+03  0.35155756335E+03  0.00000000000E+00 0.  1.
<mgrwt>
<rscale>  3 0.32307919E+03</rscale>
<asrwt>0</asrwt>
<pdfrwt beam="1">  1       21 0.20593705E-01 0.32307919E+03</pdfrwt>
<pdfrwt beam="2">  1       21 0.11949922E+00 0.32307919E+03</pdfrwt>
<totfact> 0.10844309E+04</totfact>
</mgrwt>
</event>
<event>
 4    0  0.1495377E-001  0.4169565E+03  0.7546771E-02  0.1038061E+00
         21   -1    0    0  503  501  0.00000000000E+00  0.00000000000E+00  0.11821433567E+03  0.11821433567E+03  0.00000000000E+00 0.  1.
         21   -1    0    0  501  502 -0.00000000000E+00 -0.00000000000E+00 -0.23512472829E+04  0.23512472829E+04  0.00000000000E+00 0. -1.
         25    1    1    2    0    0 -0.26172419520E+03  0.29954658926E+03 -0.19158733059E+04  0.19607200815E+04  0.12500000000E+03 0.  0.
         21    1    1    2  503  502  0.26172419520E+03 -0.29954658926E+03 -0.31715964129E+03  0.50874153708E+03  0.00000000000E+00 0.  1.
<mgrwt>
<rscale>  3 0.41695649E+03</rscale>
<asrwt>0</asrwt>
<pdfrwt beam="1">  1       21 0.18186822E-01 0.41695649E+03</pdfrwt>
<pdfrwt beam="2">  1       21 0.36173032E+00 0.41695649E+03</pdfrwt>
<totfact> 0.32535954E+02</totfact>
</mgrwt>
</event>
<event>
 4    0  0.1495377E-001  0.3718288E+03  0.7546771E-02  0.1053996E+00
         21   -1    0    0  502  501  0.00000000000E+00  0.00000000000E+00  0.97085099510E+03  0.97085099510E+03  0.00000000000E+00 0. -1.
         21   -1    0    0  503  502 -0.00000000000E+00 -0.00000000000E+00 -0.43908394067E+03  0.43908394067E+03  0.00000000000E+00 0. -1.
         25    1    1    2    0    0 -0.34998642198E+03  0.11881822166E+02 -0.31899952198E+03  0.48991567467E+03  0.12500000000E+03 0.  0.
         21    1    1    2  503  501  0.34998642198E+03 -0.11881822166E+02  0.85076657641E+03  0.92001926110E+03  0.00000000000E+00 0. -1.
<mgrwt>
<rscale>  3 0.37182882E+03</rscale>
<asrwt>0</asrwt>
<pdfrwt beam="1">  1       21 0.14936169E+00 0.37182882E+03</pdfrwt>
<pdfrwt beam="2">  1       21 0.67551376E-01 0.37182882E+03</pdfrwt>
<totfact> 0.52527637E+02</totfact>
</mgrwt>
</event>
<event>
 4    0  0.1495377E-001  0.2585578E+03  0.7546771E-02  0.1108013E+00
         21   -1    0    0  502  501  0.00000000000E+00  0.00000000000E+00  0.50071402391E+03  0.50071402391E+03  0.00000000000E+00 0.  1.
         21   -1    0    0  503  502 -0.00000000000E+00 -0.00000000000E+00 -0.24033095722E+03  0.24033095722E+03  0.00000000000E+00 0.  1.
         25    1    1    2    0    0  0.22137056014E+03  0.47140098176E+02 -0.13030116015E+03  0.28953498250E+03  0.12500000000E+03 0.  0.
         21    1    1    2  503  501 -0.22137056014E+03 -0.47140098176E+02  0.39068422684E+03  0.45150999862E+03  0.00000000000E+00 0.  1.
<mgrwt>
<rscale>  3 0.25855776E+03</rscale>
<asrwt>0</asrwt>
<pdfrwt beam="1">  1       21 0.77032927E-01 0.25855776E+03</pdfrwt>
<pdfrwt beam="2">  1       21 0.36973993E-01 0.25855776E+03</pdfrwt>
<totfact> 0.10146171E+04</totfact>
</mgrwt>
</event>
<event>
 4    0  0.1495377E-001  0.2948301E+03  0.7546771E-02  0.1087854E+00
         21   -1    0    0  503  501  0.00000000000E+00  0.00000000000E+00  0.12846857324E+04  0.12846857324E+04  0.00000000000E+00 0.  1.
         21   -1    0    0  501  502 -0.00000000000E+00 -0.00000000000E+00 -0.18832935374E+03  0.18832935374E+03  0.00000000000E+00 0. -1.
         25    1    1    2    0    0 -0.24773798430E+03  0.99627602141E+02 -0.47300274056E+02  0.29860020746E+03  0.12500000000E+03 0.  0.
         21    1    1    2  503  502  0.24773798430E+03 -0.99627602141E+02  0.11436566527E+04  0.11744148787E+04  0.00000000000E+00 0.  1.
<mgrwt>
<rscale>  3 0.29483007E+03</rscale>
<asrwt>0</asrwt>
<pdfrwt beam="1">  1       21 0.19764395E+00 0.29483007E+03</pdfrwt>
<pdfrwt beam="2">  1       21 0.28973748E-01 0.29483007E+03</pdfrwt>
<totfact> 0.14505855E+03</totfact>
</mgrwt>
</event>
<event>
 4    0  0.1495377E-001  0.3315037E+03  0.7546771E-02  0.1070473E+00
         21   -1    0    0  502  501  0.00000000000E+00  0.00000000000E+00  0.76971764975E+03  0.76971764975E+03  0.00000000000E+00 0.  1.
         21   -1    0    0  503  502 -0.00000000000E+00 -0.00000000000E+00 -0.39578661686E+03  0.39578661686E+03  0.00000000000E+00 0. -1.
         25    1    1    2    0    0 -0.29341524705E+02 -0.30562845272E+03 -0.28588484742E+03  0.43774972550E+03  0.12500000000E+03 0.  0.
         21    1    1    2  503  501  0.29341524705E+02  0.30562845272E+03  0.65981588032E+03  0.72775454111E+03  0.00000000000E+00 0.  1.
<mgrwt>
<rscale>  3 0.33150366E+03</rscale>
<asrwt>0</asrwt>
<pdfrwt beam="1">  1       21 0.11841810E+00 0.33150366E+03</pdfrwt>
<pdfrwt beam="2">  1       21 0.60890249E-01 0.33150366E+03</pdfrwt>
<totfact> 0.12348940E+03</totfact>
</mgrwt>
</event>
<event>
 4    0  0.1495377E-001  0.2942600E+03  0.7546771E-02  0.1088146E+00
         21   -1    0    0  502  501  0.00000000000E+00  0.00000000000E+00  0.10359409900E+03  0.10359409900E+03  0.00000000000E+00 0. -1.
         21   -1    0    0  503  502 -0.00000000000E+00 -0.00000000000E+00 -0.14261027927E+04  0.14261027927E+04  0.00000000000E+00 0.  1.
         25    1    1    2    0    0  0.21662417887E+03 -0.15504171180E+03 -0.12016811028E+04  0.12371848851E+04  0.12500000000E+03 0.  0.
         21    1    1    2  503  501 -0.21662417887E+03  0.15504171180E+03 -0.12082759097E+03  0.29251200661E+03  0.00000000000E+00 0. -1.
<mgrwt>
<rscale>  3 0.29426003E+03</rscale>
<asrwt>0</asrwt>
<pdfrwt beam="1">  1       21 0.15937554E-01 0.29426003E+03</pdfrwt>
<pdfrwt beam="2">  1       21 0.21940043E+00 0.29426003E+03</pdfrwt>
<totfact> 0.32759375E+03</totfact>
</mgrwt>
</event>
<event>
 4    0  0.1495377E-001  0.4484768E+03  0.7546771E-02  0.1028177E+00
         21   -1    0    0  502  501  0.00000000000E+00  0.00000000000E+00  0.34511379669E+03  0.34511379669E+03  0.00000000000E+00 0. -1.
         21   -1    0    0  503  502 -0.00000000000E+00 -0.00000000000E+00 -0.60886273288E+03  0.60886273288E+03  0.00000000000E+00 0.  1.
         25    1    1    2    0    0 -0.32301789488E+03  0.28489620330E+03 -0.26952121164E+03  0.52323330417E+03  0.12500000000E+03 0.  0.
         21    1    1    2  503  501  0.32301789488E+03 -0.28489620330E+03  0.57722754526E+01  0.43074322540E+03  0.00000000000E+00 0. -1.
<mgrwt>
<rscale>  3 0.44847676E+03</rscale>
<asrwt>0</asrwt>
<pdfrwt beam="1">  1       21 0.53094431E-01 0.44847676E+03</pdfrwt>
<pdfrwt beam="2">  1       21 0.93671189E-01 0.44847676E+03</pdfrwt>
<totfact> 0.27961360E+03</totfact>
</mgrwt>
</event>
<event>
 4    0  0.1495377E-001  0.2377979E+03  0.7546771E-02  0.1121269E+00
         21   -1    0    0  503  501  0.00000000000E+00  0.00000000000E+00  0.59247764503E+03  0.59247764503E+03  0.00000000000E+00 0. -1.
         21   -1    0    0  501  502 -0.00000000000E+00 -0.00000000000E+00 -0.87793847059E+02  0.87793847059E+02  0.00000000000E+00 0. -1.
         25    1    1    2    0    0  0.18320777933E+03  0.85777209844E+02  0.18213482674E+03  0.29953449760E+03  0.12500000000E+03 0.  0.
         21    1    1    2  503  502 -0.18320777933E+03 -0.85777209844E+02  0.32254897123E+03  0.38073699449E+03  0.00000000000E+00 0. -1.
<mgrwt>
<rscale>  3 0.23779786E+03</rscale>
<asrwt>0</asrwt>
<pdfrwt beam="1">  1       21 0.91150404E-01 0.23779786E+03</pdfrwt>
<pdfrwt beam="2">  1       21 0.13506746E-01 0.23779786E+03</pdfrwt>
<totfact> 0.47360595E+04</totfact>
</mgrwt>
</event>
<event>
 4    0  0.1495377E-001  0.2781161E+03  0.7546771E-02  0.1096722E+00
         21   -1    0    0  502  501  0.00000000000E+00  0.00000000000E+00  0.11029165741E+03  0.11029165741E+03  0.00000000000E+00 0. -1.
         21   -1    0    0  503  502 -0.00000000000E+00 -0.00000000000E+00 -0.62931602954E+03  0.62931602954E+03  0.00000000000E+00 0. -1.
         25    1    1    2    0    0 -0.22339105914E+03 -0.10871986335E+03 -0.28758637678E+03  0.40006811683E+03  0.12500000000E+03 0.  0.
         21    1    1    2  503  501  0.22339105914E+03  0.10871986335E+03 -0.23143799535E+03  0.33953957013E+03  0.00000000000E+00 0. -1.
<mgrwt>
<rscale>  3 0.27811612E+03</rscale>
<asrwt>0</asrwt>
<pdfrwt beam="1">  1       21 0.16967947E-01 0.27811612E+03</pdfrwt>
<pdfrwt beam="2">  1       21 0.96817851E-01 0.27811612E+03</pdfrwt>
<totfact> 0.26572970E+04</totfact>
</mgrwt>
</event>
<event>
 4    0  0.1495377E-001  0.2438164E+03  0.7546771E-02  0.1117276E+00
         21   -1    0    0  502  501  0.00000000000E+00  0.00000000000E+00  0.39186243846E+03  0.39186243846E+03  0.00000000000E+00 0. -1.
         21   -1    0    0  503  502 -0.00000000000E+00 -0.00000000000E+00 -0.13985290044E+03  0.13985290044E+03  0.00000000000E+00 0. -1.
         25    1    1    2    0    0 -0.20800594191E+03  0.23557903895E+02  0.68304850963E+02  0.25320347424E+03  0.12500000000E+03 0.  0.
         21    1    1    2  503  501  0.20800594191E+03 -0.23557903895E+02  0.18370468706E+03  0.27851186465E+03  0.00000000000E+00 0. -1.
<mgrwt>
<rscale>  3 0.24381642E+03</rscale>
<asrwt>0</asrwt>
<pdfrwt beam="1">  1       21 0.60286529E-01 0.24381642E+03</pdfrwt>
<pdfrwt beam="2">  1       21 0.21515831E-01 0.24381642E+03</pdfrwt>
<totfact> 0.50446166E+04</totfact>
</mgrwt>
</event>
<event>
 4    0  0.1495377E-001  0.2793913E+03  0.7546771E-02  0.1096022E+00
         21   -1    0    0  502  501  0.00000000000E+00  0.00000000000E+00  0.45567790616E+02  0.45567790616E+02  0.00000000000E+00 0.  1.
         21   -1    0    0  503  502 -0.00000000000E+00 -0.00000000000E+00 -0.15389220739E+04  0.15389220739E+04  0.00000000000E+00 0.  1.
         25    1    1    2    0    0 -0.14236772505E+03 -0.20534343909E+03 -0.81756369682E+03  0.86398489308E+03  0.12500000000E+03 0.  0.
         21    1    1    2  503  501  0.14236772505E+03  0.20534343909E+03 -0.67579058645E+03  0.72050497142E+03  0.00000000000E+00 0.  1.
<mgrwt>
<rscale>  3 0.27939130E+03</rscale>
<asrwt>0</asrwt>
<pdfrwt beam="1">  1       21 0.70104301E-02 0.27939130E+03</pdfrwt>
<pdfrwt beam="2">  1       21 0.23675722E+00 0.27939130E+03</pdfrwt>
<totfact> 0.11245926E+04</totfact>
</mgrwt>
</event>
<event>
 4    0  0.1495377E-001  0.5184402E+03  0.7546771E-02  0.1009075E+00
         21   -1    0    0  503  501  0.00000000000E+00  0.00000000000E+00  0.19970738974E+03  0.19970738974E+03  0.00000000000E+00 0. -1.
         21   -1    0    0  501  502 -0.00000000000E+00 -0.00000000000E+00 -0.13931079858E+04  0.13931079858E+04  0.00000000000E+00 0.  1.
         25    1    1    2    0    0 -0.48987316149E+03  0.11480221146E+03 -0.40647692239E+03  0.65878961022E+03  0.12500000000E+03 0.  0.
         21    1    1    2  503  502  0.48987316149E+03 -0.11480221146E+03 -0.78692367369E+03  0.93402576534E+03  0.00000000000E+00 0. -1.
<mgrwt>
<rscale>  3 0.51844022E+03</rscale>
<asrwt>0</asrwt>
<pdfrwt beam="1">  1       21 0.30724215E-01 0.51844022E+03</pdfrwt>
<pdfrwt beam="2">  1       21 0.21432430E+00 0.51844022E+03</pdfrwt>
<totfact> 0.89297053E+02</totfact>
</mgrwt>
</event>
<event>
 4    0  0.1495377E-001  0.3027574E+03  0.7546771E-02  0.1083870E+00
         21   -1    0    0  502  501  0.00000000000E+00  0.00000000000E+00  0.22108596617E+04  0.22108596617E+04  0.00000000000E+00 0. -1.
         21   -1    0    0  503  502 -0.00000000000E+00 -0.00000000000E+00 -0.45529677011E+02  0.45529677011E+02  0.00000000000E+00 0. -1.
         25    1    1    2    0    0  0.27457467927E+03  0.25412391686E+02  0.66156131256E+03  0.72754753414E+03  0.12500000000E+03 0.  0.
         21    1    1    2  503  501 -0.27457467927E+03 -0.25412391686E+02  0.15037686721E+04  0.15288418046E+04  0.00000000000E+00 0. -1.
<mgrwt>
<rscale>  3 0.30275740E+03</rscale>
<asrwt>0</asrwt>
<pdfrwt beam="1">  1       21 0.34013217E+00 0.30275740E+03</pdfrwt>
<pdfrwt beam="2">  1       21 0.70045674E-02 0.30275740E+03</pdfrwt>
<totfact> 0.26938685E+03</totfact>
</mgrwt>
</event>
<event>
 4    0  0.1495377E-001  0.2609787E+03  0.7546771E-02  0.1106557E+00
         21   -1    0    0  503  501  0.00000000000E+00  0.00000000000E+00  0.45576716912E+03  0.45576716912E+03  0.00000000000E+00 0.  1.
         21   -1    0    0  501  502 -0.00000000000E+00 -0.00000000000E+00 -0.25385036381E+03  0.25385036381E+03  0.00000000000E+00 0.  1.
         25    1    1    2    0    0  0.54759571308E+02  0.22245505669E+03 -0.14144456692E+03  0.29684411466E+03  0.12500000000E+03 0.  0.
         21    1    1    2  503  502 -0.54759571308E+02 -0.22245505669E+03  0.34336137222E+03  0.41277341827E+03  0.00000000000E+00 0.  1.
<mgrwt>
<rscale>  3 0.26097866E+03</rscale>
<asrwt>0</asrwt>
<pdfrwt beam="1">  1       21 0.70118026E-01 0.26097866E+03</pdfrwt>
<pdfrwt beam="2">  1       21 0.39053902E-01 0.26097866E+03</pdfrwt>
<totfact> 0.11202647E+04</totfact>
</mgrwt>
</event>
<event>
 4    0  0.1495377E-001  0.2891032E+03  0.7546771E-02  0.1090818E+00
         21   -1    0    0  502  501  0.00000000000E+00  0.00000000000E+00  0.76918822044E+02  0.76918822044E+02  0.00000000000E+00 0. -1.
         21   -1    0    0  503  502 -0.00000000000E+00 -0.00000000000E+00 -0.12046981727E+04  0.12046981727E+04  0.00000000000E+00 0. -1.
         25    1    1    2    0    0  0.13829205048E+03  0.22097731667E+03 -0.86261966167E+03  0.90977653653E+03  0.12500000000E+03 0.  0.
         21    1    1    2  503  501 -0.13829205048E+03 -0.22097731667E+03 -0.26515968899E+03  0.37184045822E+03  0.00000000000E+00 0. -1.
<mgrwt>
<rscale>  3 0.28910321E+03</rscale>
<asrwt>0</asrwt>
<pdfrwt beam="1">  1       21 0.11833666E-01 0.28910321E+03</pdfrwt>
<pdfrwt beam="2">  1       21 0.18533816E+00 0.28910321E+03</pdfrwt>
<totfact> 0.94355222E+03</totfact>
</mgrwt>
</event>
<event>
 4    0  0.1495377E-001  0.2420375E+03  0.7546771E-02  0.1118443E+00
         21   -1    0    0  503  501  0.00000000000E+00  0.00000000000E+00  0.50612695617E+02  0.50612695617E+02  0.00000000000E+00 0.  1.
         21   -1    0    0  501  502 -0.00000000000E+00 -0.00000000000E+00 -0.10265070549E+04  0.10265070549E+04  0.00000000000E+00 0. -1.
         25    1    1    2    0    0  0.22802816684E+02  0.20600284779E+03 -0.43378702721E+03  0.49674271683E+03  0.12500000000E+03 0.  0.
         21    1    1    2  503  502 -0.22802816684E+02 -0.20600284779E+03 -0.54210733204E+03  0.58037703365E+03  0.00000000000E+00 0.  1.
<mgrwt>
<rscale>  3 0.24203748E+03</rscale>
<asrwt>0</asrwt>
<pdfrwt beam="1">  1       21 0.77865693E-02 0.24203748E+03</pdfrwt>
<pdfrwt beam="2">  1       21 0.15792415E+00 0.24203748E+03</pdfrwt>
<totfact> 0.31858311E+04</totfact>
</mgrwt>
</event>
<event>
 4    0  0.1495377E-001  0.2393599E+03  0.7546771E-02  0.1120220E+00
         21   -1    0    0  502  501  0.00000000000E+00  0.00000000000E+00  0.53645263070E+03  0.53645263070E+03  0.00000000000E+00 0.  1.
         21   -1    0    0  503  502 -0.00000000000E+00 -0.00000000000E+00 -0.11626145036E+03  0.11626145036E+03  0.00000000000E+00 0.  1.
         25    1    1    2    0    0 -0.10875902130E+03 -0.17274151375E+03  0.73497091866E+02  0.25038965194E+03  0.12500000000E+03 0.  0.
         21    1    1    2  503  501  0.10875902130E+03  0.17274151375E+03  0.34669408848E+03  0.40232442912E+03  0.00000000000E+00 0.  1.
<mgrwt>
<rscale>  3 0.23935989E+03</rscale>
<asrwt>0</asrwt>
<pdfrwt beam="1">  1       21 0.82531172E-01 0.23935989E+03</pdfrwt>
<pdfrwt beam="2">  1       21 0.17886377E-01 0.23935989E+03</pdfrwt>
<totfact> 0.35557880E+04</totfact>
</mgrwt>
</event>
<event>
 4    0  0.1495377E-001  0.3145164E+03  0.7546771E-02  0.1078201E+00
         21   -1    0    0  503  501  0.00000000000E+00  0.00000000000E+00  0.36309835608E+03  0.36309835608E+03  0.00000000000E+00 0. -1.
         21   -1    0    0  501  502 -0.00000000000E+00 -0.00000000000E+00 -0.25354004098E+03  0.25354004098E+03  0.00000000000E+00 0. -1.
         25    1    1    2    0    0 -0.75607876390E+02 -0.27853005918E+03  0.91075673797E+02  0.32743751037E+03  0.12500000000E+03 0.  0.
         21    1    1    2  503  502  0.75607876390E+02  0.27853005918E+03  0.18482641302E+02  0.28920088670E+03  0.00000000000E+00 0. -1.
<mgrwt>
<rscale>  3 0.31451637E+03</rscale>
<asrwt>0</asrwt>
<pdfrwt beam="1">  1       21 0.55861286E-01 0.31451637E+03</pdfrwt>
<pdfrwt beam="2">  1       21 0.39006160E-01 0.31451637E+03</pdfrwt>
<totfact> 0.18017734E+04</totfact>
</mgrwt>
</event>
<event>
 4    0  0.1495377E-001  0.6753170E+03  0.7546771E-02  0.9760400E-01
         21   -1    0    0  503  501  0.00000000000E+00  0.00000000000E+00  0.29842798209E+04  0.29842798209E+04  0.00000000000E+00 0. -1.
         21   -1    0    0  501  502 -0.00000000000E+00 -0.00000000000E+00 -0.25012173599E+03  0.25012173599E+03  0.00000000000E+00 0. -1.
         25    1    1    2    0    0  0.60774627658E+03  0.26659439273E+03  0.35204286157E+03  0.76156896163E+03  0.12500000000E+03 0.  0.
         21    1    1    2  503  502 -0.60774627658E+03 -0.26659439273E+03  0.23821152233E+04  0.24728325952E+04  0.00000000000E+00 0. -1.
<mgrwt>
<rscale>  3 0.67531704E+03</rscale>
<asrwt>0</asrwt>
<pdfrwt beam="1">  1       21 0.45911995E+00 0.67531704E+03</pdfrwt>
<pdfrwt beam="2">  1       21 0.38480269E-01 0.67531704E+03</pdfrwt>
<totfact> 0.14813130E+01</totfact>
</mgrwt>
</event>
<event>
 4    0  0.1495377E-001  0.3054973E+03  0.7546771E-02  0.1082524E+00
         21   -1    0    0  503  501  0.00000000000E+00  0.00000000000E+00  0.10046766855E+04  0.10046766855E+04  0.00000000000E+00 0. -1.
         21   -1    0    0  501  502 -0.00000000000E+00 -0.00000000000E+00 -0.13479188376E+03  0.13479188376E+03  0.00000000000E+00 0. -1.
         25    1    1    2    0    0 -0.21271040620E+02  0.27794085372E+03  0.10123475148E+03  0.32183388610E+03  0.12500000000E+03 0.  0.
         21    1    1    2  503  502  0.21271040620E+02 -0.27794085372E+03  0.76865005022E+03  0.81763468312E+03  0.00000000000E+00 0. -1.
<mgrwt>
<rscale>  3 0.30549726E+03</rscale>
<asrwt>0</asrwt>
<pdfrwt beam="1">  1       21 0.15456564E+00 0.30549726E+03</pdfrwt>
<pdfrwt beam="2">  1       21 0.20737213E-01 0.30549726E+03</pdfrwt>
<totfact> 0.55220889E+03</totfact>
</mgrwt>
</event>
<event>
 4    0  0.1495377E-001  0.2466327E+03  0.7546771E-02  0.1115452E+00
         21   -1    0    0  503  501  0.00000000000E+00  0.00000000000E+00  0.44077837639E+03  0.44077837639E+03  0.00000000000E+00 0. -1.
         21   -1    0    0  501  502 -0.00000000000E+00 -0.00000000000E+00 -0.50918791995E+03  0.50918791995E+03  0.00000000000E+00 0.  1.
         25    1    1    2    0    0 -0.56959129033E+02 -0.20483742212E+03 -0.44999373008E+03  0.51314916837E+03  0.12500000000E+03 0.  0.
         21    1    1    2  503  502  0.56959129033E+02  0.20483742212E+03  0.38158418652E+03  0.43681712797E+03  0.00000000000E+00 0. -1.
<mgrwt>
<rscale>  3 0.24663275E+03</rscale>
<asrwt>0</asrwt>
<pdfrwt beam="1">  1       21 0.67812058E-01 0.24663275E+03</pdfrwt>
<pdfrwt beam="2">  1       21 0.78336603E-01 0.24663275E+03</pdfrwt>
<totfact> 0.27473839E+03</totfact>
</mgrwt>
</event>
<event>
 4    0  0.1495377E-001  0.2571875E+03  0.7546771E-02  0.1108845E+00
         21   -1    0    0  503  501  0.00000000000E+00  0.00000000000E+00  0.68555891394E+02  0.68555891394E+02  0.00000000000E+00 0.  1.
         21   -1    0    0  501  502 -0.00000000000E+00 -0.00000000000E+00 -0.14347997792E+04  0.14347997792E+04  0.00000000000E+00 0.  1.
         25    1    1    2    0    0  0.14627112162E+03  0.17066098931E+03 -0.11907045539E+04  0.12181636790E+04  0.12500000000E+03 0.  0.
         21    1    1    2  503  502 -0.14627112162E+03 -0.17066098931E+03 -0.17553933391E+03  0.28519199154E+03  0.00000000000E+00 0.  1.
<mgrwt>
<rscale>  3 0.25718751E+03</rscale>
<asrwt>0</asrwt>
<pdfrwt beam="1">  1       21 0.10547060E-01 0.25718751E+03</pdfrwt>
<pdfrwt beam="2">  1       21 0.22073843E+00 0.25718751E+03</pdfrwt>
<totfact> 0.69738644E+03</totfact>
</mgrwt>
</event>
<event>
 4    0  0.1495377E-001  0.2368690E+03  0.7546771E-02  0.1121896E+00
         21   -1    0    0  503  501  0.00000000000E+00  0.00000000000E+00  0.46596959641E+03  0.46596959641E+03  0.00000000000E+00 0.  1.
         21   -1    0    0  501  502 -0.00000000000E+00 -0.00000000000E+00 -0.10296660638E+03  0.10296660638E+03  0.00000000000E+00 0.  1.
         25    1    1    2    0    0 -0.20010664944E+03  0.20958895052E+02  0.19848631910E+03  0.30903683486E+03  0.12500000000E+03 0.  0.
         21    1    1    2  503  502  0.20010664944E+03 -0.20958895052E+02  0.16451667093E+03  0.25989936792E+03  0.00000000000E+00 0.  1.
<mgrwt>
<rscale>  3 0.23686905E+03</rscale>
<asrwt>0</asrwt>
<pdfrwt beam="1">  1       21 0.71687629E-01 0.23686905E+03</pdfrwt>
<pdfrwt beam="2">  1       21 0.15841017E-01 0.23686905E+03</pdfrwt>
<totfact> 0.61215465E+04</totfact>
</mgrwt>
</event>
<event>
 4    0  0.1495377E-001  0.4099792E+03  0.7546771E-02  0.1040378E+00
         21   -1    0    0  502  501  0.00000000000E+00  0.00000000000E+00  0.37959257454E+03  0.37959257454E+03  0.00000000000E+00 0.  1.
         21   -1    0    0  503  502 -0.00000000000E+00 -0.00000000000E+00 -0.77185022140E+03  0.77185022140E+03  0.00000000000E+00 0.  1.
         25    1    1    2    0    0 -0.32922141248E+03 -0.20993141955E+03 -0.58630230948E+03  0.71542528433E+03  0.12500000000E+03 0.  0.
         21    1    1    2  503  501  0.32922141248E+03  0.20993141955E+03  0.19404466262E+03  0.43601751162E+03  0.00000000000E+00 0.  1.
<mgrwt>
<rscale>  3 0.40997919E+03</rscale>
<asrwt>0</asrwt>
<pdfrwt beam="1">  1       21 0.58398858E-01 0.40997919E+03</pdfrwt>
<pdfrwt beam="2">  1       21 0.11874619E+00 0.40997919E+03</pdfrwt>
<totfact> 0.12911287E+03</totfact>
</mgrwt>
</event>
<event>
 4    0  0.1495377E-001  0.2581432E+03  0.7546771E-02  0.1108264E+00
         21   -1    0    0  503  501  0.00000000000E+00  0.00000000000E+00  0.35123585423E+03  0.35123585423E+03  0.00000000000E+00 0.  1.
         21   -1    0    0  501  502 -0.00000000000E+00 -0.00000000000E+00 -0.30841903356E+03  0.30841903356E+03  0.00000000000E+00 0. -1.
         25    1    1    2    0    0  0.17395800042E+03 -0.14405386058E+03 -0.20109816821E+03  0.32722832077E+03  0.12500000000E+03 0.  0.
         21    1    1    2  503  502 -0.17395800042E+03  0.14405386058E+03  0.24391498888E+03  0.33242656702E+03  0.00000000000E+00 0.  1.
<mgrwt>
<rscale>  3 0.25814318E+03</rscale>
<asrwt>0</asrwt>
<pdfrwt beam="1">  1       21 0.54036285E-01 0.25814318E+03</pdfrwt>
<pdfrwt beam="2">  1       21 0.47449082E-01 0.25814318E+03</pdfrwt>
<totfact> 0.13242123E+04</totfact>
</mgrwt>
</event>
<event>
 4    0  0.1495377E-001  0.2455161E+03  0.7546771E-02  0.1116172E+00
         21   -1    0    0  503  501  0.00000000000E+00  0.00000000000E+00  0.10850919646E+03  0.10850919646E+03  0.00000000000E+00 0. -1.
         21   -1    0    0  501  502 -0.00000000000E+00 -0.00000000000E+00 -0.50701445782E+03  0.50701445782E+03  0.00000000000E+00 0. -1.
         25    1    1    2    0    0  0.18627338452E+03 -0.99776576034E+02 -0.28317000439E+03  0.37478445845E+03  0.12500000000E+03 0.  0.
         21    1    1    2  503  502 -0.18627338452E+03  0.99776576034E+02 -0.11533525697E+03  0.24073919583E+03  0.00000000000E+00 0. -1.
<mgrwt>
<rscale>  3 0.24551607E+03</rscale>
<asrwt>0</asrwt>
<pdfrwt beam="1">  1       21 0.16693722E-01 0.24551607E+03</pdfrwt>
<pdfrwt beam="2">  1       21 0.78002226E-01 0.24551607E+03</pdfrwt>
<totfact> 0.45820786E+04</totfact>
</mgrwt>
</event>
<event>
 4    0  0.1495377E-001  0.2606670E+03  0.7546771E-02  0.1106743E+00
         21   -1    0    0  503  501  0.00000000000E+00  0.00000000000E+00  0.11817445298E+03  0.11817445298E+03  0.00000000000E+00 0. -1.
         21   -1    0    0  501  502 -0.00000000000E+00 -0.00000000000E+00 -0.57869138837E+03  0.57869138837E+03  0.00000000000E+00 0. -1.
         25    1    1    2    0    0  0.22691326294E+03  0.28855395580E+02 -0.36607036861E+03  0.44939378893E+03  0.12500000000E+03 0.  0.
         21    1    1    2  503  502 -0.22691326294E+03 -0.28855395580E+02 -0.94446566782E+02  0.24747205242E+03  0.00000000000E+00 0. -1.
<mgrwt>
<rscale>  3 0.26066696E+03</rscale>
<asrwt>0</asrwt>
<pdfrwt beam="1">  1       21 0.18180685E-01 0.26066696E+03</pdfrwt>
<pdfrwt beam="2">  1       21 0.89029446E-01 0.26066696E+03</pdfrwt>
<totfact> 0.28684107E+04</totfact>
</mgrwt>
</event>
<event>
 4    0  0.1495377E-001  0.3034554E+03  0.7546771E-02  0.1083526E+00
         21   -1    0    0  503  501  0.00000000000E+00  0.00000000000E+00  0.54381205318E+03  0.54381205318E+03  0.00000000000E+00 0.  1.
         21   -1    0    0  501  502 -0.00000000000E+00 -0.00000000000E+00 -0.18849473199E+03  0.18849473199E+03  0.00000000000E+00 0.  1.
         25    1    1    2    0    0  0.25767136113E+03  0.10032772470E+03  0.33948318938E+03  0.45533945421E+03  0.12500000000E+03 0.  0.
         21    1    1    2  503  502 -0.25767136113E+03 -0.10032772470E+03  0.15834131812E+02  0.27696733096E+03  0.00000000000E+00 0.  1.
<mgrwt>
<rscale>  3 0.30345540E+03</rscale>
<asrwt>0</asrwt>
<pdfrwt beam="1">  1       21 0.83663392E-01 0.30345540E+03</pdfrwt>
<pdfrwt beam="2">  1       21 0.28999190E-01 0.30345540E+03</pdfrwt>
<totfact> 0.13326462E+04</totfact>
</mgrwt>
</event>
<event>
 4    0  0.1495377E-001  0.2606340E+03  0.7546771E-02  0.1106763E+00
         21   -1    0    0  502  501  0.00000000000E+00  0.00000000000E+00  0.37588079335E+03  0.37588079335E+03  0.00000000000E+00 0. -1.
         21   -1    0    0  503  502 -0.00000000000E+00 -0.00000000000E+00 -0.24714642597E+03  0.24714642597E+03  0.00000000000E+00 0.  1.
         25    1    1    2    0    0  0.10235793395E+02  0.22847387654E+03 -0.11843512010E+03  0.28628126275E+03  0.12500000000E+03 0.  0.
         21    1    1    2  503  501 -0.10235793395E+02 -0.22847387654E+03  0.24716948748E+03  0.33674595657E+03  0.00000000000E+00 0. -1.
<mgrwt>
<rscale>  3 0.26063400E+03</rscale>
<asrwt>0</asrwt>
<pdfrwt beam="1">  1       21 0.57827814E-01 0.26063400E+03</pdfrwt>
<pdfrwt beam="2">  1       21 0.38022527E-01 0.26063400E+03</pdfrwt>
<totfact> 0.18024934E+04</totfact>
</mgrwt>
</event>
<event>
 4    0  0.1495377E-001  0.2483548E+03  0.7546771E-02  0.1114349E+00
         21   -1    0    0  503  501  0.00000000000E+00  0.00000000000E+00  0.11333345006E+03  0.11333345006E+03  0.00000000000E+00 0.  1.
         21   -1    0    0  501  502 -0.00000000000E+00 -0.00000000000E+00 -0.79857648715E+03  0.79857648715E+03  0.00000000000E+00 0.  1.
         25    1    1    2    0    0 -0.87084416247E+02 -0.19614130589E+03 -0.64817706190E+03  0.69412795002E+03  0.12500000000E+03 0.  0.
         21    1    1    2  503  502  0.87084416247E+02  0.19614130589E+03 -0.37065975187E+02  0.21778198719E+03  0.00000000000E+00 0.  1.
<mgrwt>
<rscale>  3 0.24835480E+03</rscale>
<asrwt>0</asrwt>
<pdfrwt beam="1">  1       21 0.17435915E-01 0.24835480E+03</pdfrwt>
<pdfrwt beam="2">  1       21 0.12285792E+00 0.24835480E+03</pdfrwt>
<totfact> 0.14327799E+04</totfact>
</mgrwt>
</event>
<event>
 4    0  0.1495377E-001  0.2845041E+03  0.7546771E-02  0.1093254E+00
         21   -1    0    0  502  501  0.00000000000E+00  0.00000000000E+00  0.22086410818E+03  0.22086410818E+03  0.00000000000E+00 0. -1.
         21   -1    0    0  503  502 -0.00000000000E+00 -0.00000000000E+00 -0.34471154702E+03  0.34471154702E+03  0.00000000000E+00 0. -1.
         25    1    1    2    0    0 -0.18169195115E+03 -0.17973760389E+03 -0.12311952056E+03  0.31000159308E+03  0.12500000000E+03 0.  0.
         21    1    1    2  503  501  0.18169195115E+03  0.17973760389E+03 -0.72791827291E+00  0.25557406212E+03  0.00000000000E+00 0. -1.
<mgrwt>
<rscale>  3 0.28450408E+03</rscale>
<asrwt>0</asrwt>
<pdfrwt beam="1">  1       21 0.33979094E-01 0.28450408E+03</pdfrwt>
<pdfrwt beam="2">  1       21 0.53032546E-01 0.28450408E+03</pdfrwt>
<totfact> 0.26900291E+04</totfact>
</mgrwt>
</event>
<event>
 4    0  0.1495377E-001  0.2548909E+03  0.7546771E-02  0.1110252E+00
         21   -1    0    0  503  501  0.00000000000E+00  0.00000000000E+00  0.26085089457E+03  0.26085089457E+03  0.00000000000E+00 0.  1.
         21   -1    0    0  501  502 -0.00000000000E+00 -0.00000000000E+00 -0.33142884476E+03  0.33142884476E+03  0.00000000000E+00 0.  1.
         25    1    1    2    0    0 -0.45479687209E+02  0.21743039990E+03 -0.20979287237E+03  0.33012487039E+03  0.12500000000E+03 0.  0.
         21    1    1    2  503  502  0.45479687209E+02 -0.21743039990E+03  0.13921492219E+03  0.26215486894E+03  0.00000000000E+00 0.  1.
<mgrwt>
<rscale>  3 0.25489092E+03</rscale>
<asrwt>0</asrwt>
<pdfrwt beam="1">  1       21 0.40130907E-01 0.25489092E+03</pdfrwt>
<pdfrwt beam="2">  1       21 0.50989053E-01 0.25489092E+03</pdfrwt>
<totfact> 0.21173194E+04</totfact>
</mgrwt>
</event>
<event>
 4    0  0.1495377E-001  0.2857541E+03  0.7546771E-02  0.1092587E+00
         21   -1    0    0  502  501  0.00000000000E+00  0.00000000000E+00  0.91671404407E+03  0.91671404407E+03  0.00000000000E+00 0. -1.
         21   -1    0    0  503  502 -0.00000000000E+00 -0.00000000000E+00 -0.88887033597E+02  0.88887033597E+02  0.00000000000E+00 0. -1.
         25    1    1    2    0    0 -0.79979158163E+02  0.24420023593E+03  0.27791056856E+03  0.39860971524E+03  0.12500000000E+03 0.  0.
         21    1    1    2  503  501  0.79979158163E+02 -0.24420023593E+03  0.54991644192E+03  0.60699136243E+03  0.00000000000E+00 0. -1.
<mgrwt>
<rscale>  3 0.28575413E+03</rscale>
<asrwt>0</asrwt>
<pdfrwt beam="1">  1       21 0.14103292E+00 0.28575413E+03</pdfrwt>
<pdfrwt beam="2">  1       21 0.13674929E-01 0.28575413E+03</pdfrwt>
<totfact> 0.15427442E+04</totfact>
</mgrwt>
</event>
<event>
 4    0  0.1495377E-001  0.2585663E+03  0.7546771E-02  0.1108008E+00
         21   -1    0    0  502  501  0.00000000000E+00  0.00000000000E+00  0.18920239237E+04  0.18920239237E+04  0.00000000000E+00 0. -1.
         21   -1    0    0  503  502 -0.00000000000E+00 -0.00000000000E+00 -0.31071873531E+02  0.31071873531E+02  0.00000000000E+00 0. -1.
         25    1    1    2    0    0 -0.90298879294E+02  0.20755156017E+03  0.10004711691E+04  0.10333436495E+04  0.12500000000E+03 0.  0.
         21    1    1    2  503  501  0.90298879294E+02 -0.20755156017E+03  0.86048088109E+03  0.88975214777E+03  0.00000000000E+00 0. -1.
<mgrwt>
<rscale>  3 0.25856631E+03</rscale>
<asrwt>0</asrwt>
<pdfrwt beam="1">  1       21 0.29108051E+00 0.25856631E+03</pdfrwt>
<pdfrwt beam="2">  1       21 0.47802897E-02 0.25856631E+03</pdfrwt>
<totfact> 0.10500351E+04</totfact>
</mgrwt>
</event>
<event>
 4    0  0.1495377E-001  0.7617466E+03  0.7546771E-02  0.9617100E-01
         21   -1    0    0  502  501  0.00000000000E+00  0.00000000000E+00  0.84660118741E+03  0.84660118741E+03  0.00000000000E+00 0. -1.
         21   -1    0    0  503  502 -0.00000000000E+00 -0.00000000000E+00 -0.69580175792E+03  0.69580175792E+03  0.00000000000E+00 0. -1.
         25    1    1    2    0    0 -0.62353360526E+03  0.41933122109E+03  0.20554472758E+03  0.78899078886E+03  0.12500000000E+03 0.  0.
         21    1    1    2  503  501  0.62353360526E+03 -0.41933122109E+03 -0.54745298090E+02  0.75341215648E+03  0.00000000000E+00 0. -1.
<mgrwt>
<rscale>  3 0.76174657E+03</rscale>
<asrwt>0</asrwt>
<pdfrwt beam="1">  1       21 0.13024634E+00 0.76174657E+03</pdfrwt>
<pdfrwt beam="2">  1       21 0.10704642E+00 0.76174657E+03</pdfrwt>
<totfact> 0.21972533E+02</totfact>
</mgrwt>
</event>
<event>
 4    0  0.1495377E-001  0.3536178E+03  0.7546771E-02  0.1061140E+00
         21   -1    0    0  502  501  0.00000000000E+00  0.00000000000E+00  0.15010444093E+03  0.15010444093E+03  0.00000000000E+00 0.  1.
         21   -1    0    0  503  502 -0.00000000000E+00 -0.00000000000E+00 -0.92884164758E+03  0.92884164758E+03  0.00000000000E+00 0.  1.
         25    1    1    2    0    0  0.33076653551E+03 -0.37520375074E+01 -0.61602765413E+03  0.71030672914E+03  0.12500000000E+03 0.  0.
         21    1    1    2  503  501 -0.33076653551E+03  0.37520375074E+01 -0.16270955252E+03  0.36863935938E+03  0.00000000000E+00 0.  1.
<mgrwt>
<rscale>  3 0.35361784E+03</rscale>
<asrwt>0</asrwt>
<pdfrwt beam="1">  1       21 0.23092991E-01 0.35361784E+03</pdfrwt>
<pdfrwt beam="2">  1       21 0.14289871E+00 0.35361784E+03</pdfrwt>
<totfact> 0.54206409E+03</totfact>
</mgrwt>
</event>
<event>
 4    0  0.1495377E-001  0.2406162E+03  0.7546771E-02  0.1119383E+00
         21   -1    0    0  502  501  0.00000000000E+00  0.00000000000E+00  0.80720003454E+03  0.80720003454E+03  0.00000000000E+00 0. -1.
         21   -1    0    0  503  502 -0.00000000000E+00 -0.00000000000E+00 -0.62304168452E+02  0.62304168452E+02  0.00000000000E+00 0. -1.
         25    1    1    2    0    0  0.19168701688E+03  0.74345555658E+02  0.35752526579E+03  0.43095300181E+03  0.12500000000E+03 0.  0.
         21    1    1    2  503  501 -0.19168701688E+03 -0.74345555658E+02  0.38737060029E+03  0.43855120118E+03  0.00000000000E+00 0. -1.
<mgrwt>
<rscale>  3 0.24061624E+03</rscale>
<asrwt>0</asrwt>
<pdfrwt beam="1">  1       21 0.12418461E+00 0.24061624E+03</pdfrwt>
<pdfrwt beam="2">  1       21 0.95852573E-02 0.24061624E+03</pdfrwt>
<totfact> 0.41358624E+04</totfact>
</mgrwt>
</event>
<event>
 4    0  0.1495377E-001  0.2775423E+03  0.7546771E-02  0.1097039E+00
         21   -1    0    0  503  501  0.00000000000E+00  0.00000000000E+00  0.22808978809E+03  0.22808978809E+03  0.00000000000E+00 0.  1.
         21   -1    0    0  501  502 -0.00000000000E+00 -0.00000000000E+00 -0.32705697595E+03  0.32705697595E+03  0.00000000000E+00 0. -1.
         25    1    1    2    0    0 -0.15613813422E+03 -0.19242044449E+03 -0.12802868851E+03  0.30564863732E+03  0.12500000000E+03 0.  0.
         21    1    1    2  503  502  0.15613813422E+03  0.19242044449E+03  0.29061500645E+02  0.24949812672E+03  0.00000000000E+00 0.  1.
<mgrwt>
<rscale>  3 0.27754233E+03</rscale>
<asrwt>0</asrwt>
<pdfrwt beam="1">  1       21 0.35090737E-01 0.27754233E+03</pdfrwt>
<pdfrwt beam="2">  1       21 0.50316458E-01 0.27754233E+03</pdfrwt>
<totfact> 0.28268167E+04</totfact>
</mgrwt>
</event>
<event>
 4    0  0.1495377E-001  0.2557771E+03  0.7546771E-02  0.1109707E+00
         21   -1    0    0  502  501  0.00000000000E+00  0.00000000000E+00  0.95044758021E+02  0.95044758021E+02  0.00000000000E+00 0.  1.
         21   -1    0    0  503  502 -0.00000000000E+00 -0.00000000000E+00 -0.12487321970E+04  0.12487321970E+04  0.00000000000E+00 0.  1.
         25    1    1    2    0    0  0.17018837999E+03 -0.14433580959E+03 -0.10783215869E+04  0.11082415600E+04  0.12500000000E+03 0.  0.
         21    1    1    2  503  501 -0.17018837999E+03  0.14433580959E+03 -0.75365852018E+02  0.23553539493E+03  0.00000000000E+00 0.  1.
<mgrwt>
<rscale>  3 0.25577707E+03</rscale>
<asrwt>0</asrwt>
<pdfrwt beam="1">  1       21 0.14622272E-01 0.25577707E+03</pdfrwt>
<pdfrwt beam="2">  1       21 0.19211263E+00 0.25577707E+03</pdfrwt>
<totfact> 0.59062436E+03</totfact>
</mgrwt>
</event>
<event>
 4    0  0.1495377E-001  0.3077660E+03  0.7546771E-02  0.1081422E+00
         21   -1    0    0  502  501  0.00000000000E+00  0.00000000000E+00  0.10063219619E+03  0.10063219619E+03  0.00000000000E+00 0. -1.
         21   -1    0    0  503  502 -0.00000000000E+00 -0.00000000000E+00 -0.10013381737E+04  0.10013381737E+04  0.00000000000E+00 0. -1.
         25    1    1    2    0    0 -0.33719180626E+02 -0.27920946643E+03 -0.67326460648E+03  0.74027369238E+03  0.12500000000E+03 0.  0.
         21    1    1    2  503  501  0.33719180626E+02  0.27920946643E+03 -0.22744137106E+03  0.36169667755E+03  0.00000000000E+00 0. -1.
<mgrwt>
<rscale>  3 0.30776600E+03</rscale>
<asrwt>0</asrwt>
<pdfrwt beam="1">  1       21 0.15481876E-01 0.30776600E+03</pdfrwt>
<pdfrwt beam="2">  1       21 0.15405203E+00 0.30776600E+03</pdfrwt>
<totfact> 0.96094948E+03</totfact>
</mgrwt>
</event>
<event>
 4    0  0.1495377E-001  0.3519476E+03  0.7546771E-02  0.1061818E+00
         21   -1    0    0  503  501  0.00000000000E+00  0.00000000000E+00  0.22938250784E+03  0.22938250784E+03  0.00000000000E+00 0. -1.
         21   -1    0    0  501  502 -0.00000000000E+00 -0.00000000000E+00 -0.83158754948E+03  0.83158754948E+03  0.00000000000E+00 0. -1.
         25    1    1    2    0    0 -0.31090619065E+03 -0.10760789292E+03 -0.63940998691E+03  0.72987139234E+03  0.12500000000E+03 0.  0.
         21    1    1    2  503  502  0.31090619065E+03  0.10760789292E+03  0.37204945267E+02  0.33109866498E+03  0.00000000000E+00 0. -1.
<mgrwt>
<rscale>  3 0.35194761E+03</rscale>
<asrwt>0</asrwt>
<pdfrwt beam="1">  1       21 0.35289616E-01 0.35194761E+03</pdfrwt>
<pdfrwt beam="2">  1       21 0.12793655E+00 0.35194761E+03</pdfrwt>
<totfact> 0.31445457E+03</totfact>
</mgrwt>
</event>
<event>
 4    0  0.1495377E-001  0.2376428E+03  0.7546771E-02  0.1121373E+00
         21   -1    0    0  503  501  0.00000000000E+00  0.00000000000E+00  0.22772953117E+04  0.22772953117E+04  0.00000000000E+00 0.  1.
         21   -1    0    0  501  502 -0.00000000000E+00 -0.00000000000E+00 -0.20072907552E+03  0.20072907552E+03  0.00000000000E+00 0. -1.
         25    1    1    2    0    0 -0.19729121495E+03  0.43877757274E+02 -0.12410112374E+03  0.26809544941E+03  0.12500000000E+03 0.  0.
         21    1    1    2  503  502  0.19729121495E+03 -0.43877757274E+02  0.22006673599E+04  0.22099289378E+04  0.00000000000E+00 0.  1.
<mgrwt>
<rscale>  3 0.23764276E+03</rscale>
<asrwt>0</asrwt>
<pdfrwt beam="1">  1       21 0.35035311E+00 0.23764276E+03</pdfrwt>
<pdfrwt beam="2">  1       21 0.30881398E-01 0.23764276E+03</pdfrwt>
<totfact> 0.16365948E+02</totfact>
</mgrwt>
</event>
<event>
 4    0  0.1495377E-001  0.2783048E+03  0.7546771E-02  0.1096618E+00
         21   -1    0    0  503  501  0.00000000000E+00  0.00000000000E+00  0.81453363470E+02  0.81453363470E+02  0.00000000000E+00 0.  1.
         21   -1    0    0  501  502 -0.00000000000E+00 -0.00000000000E+00 -0.95405583729E+03  0.95405583729E+03  0.00000000000E+00 0.  1.
         25    1    1    2    0    0 -0.28082109535E+02 -0.24706264086E+03 -0.28936751010E+03  0.40148114437E+03  0.12500000000E+03 0.  0.
         21    1    1    2  503  502  0.28082109535E+02  0.24706264086E+03 -0.58323496372E+03  0.63402805639E+03  0.00000000000E+00 0.  1.
<mgrwt>
<rscale>  3 0.27830479E+03</rscale>
<asrwt>0</asrwt>
<pdfrwt beam="1">  1       21 0.12531286E-01 0.27830479E+03</pdfrwt>
<pdfrwt beam="2">  1       21 0.14677782E+00 0.27830479E+03</pdfrwt>
<totfact> 0.16330701E+04</totfact>
</mgrwt>
</event>
<event>
 4    0  0.1495377E-001  0.3012222E+03  0.7546771E-02  0.1084631E+00
         21   -1    0    0  503  501  0.00000000000E+00  0.00000000000E+00  0.39429180337E+03  0.39429180337E+03  0.00000000000E+00 0.  1.
         21   -1    0    0  501  502 -0.00000000000E+00 -0.00000000000E+00 -0.11778698190E+04  0.11778698190E+04  0.00000000000E+00 0. -1.
         25    1    1    2    0    0  0.23145109999E+03 -0.14676575107E+03 -0.11075711702E+04  0.11478016790E+04  0.12500000000E+03 0.  0.
         21    1    1    2  503  502 -0.23145109999E+03  0.14676575107E+03  0.32399315452E+03  0.42435994338E+03  0.00000000000E+00 0.  1.
<mgrwt>
<rscale>  3 0.30122217E+03</rscale>
<asrwt>0</asrwt>
<pdfrwt beam="1">  1       21 0.60660278E-01 0.30122217E+03</pdfrwt>
<pdfrwt beam="2">  1       21 0.18121074E+00 0.30122217E+03</pdfrwt>
<totfact> 0.40705549E+02</totfact>
</mgrwt>
</event>
<event>
 4    0  0.1495377E-001  0.2391787E+03  0.7546771E-02  0.1120341E+00
         21   -1    0    0  503  501  0.00000000000E+00  0.00000000000E+00  0.92749762978E+03  0.92749762978E+03  0.00000000000E+00 0.  1.
         21   -1    0    0  501  502 -0.00000000000E+00 -0.00000000000E+00 -0.11619274290E+03  0.11619274290E+03  0.00000000000E+00 0. -1.
         25    1    1    2    0    0  0.81466865199E+01  0.20375247977E+03  0.35822999891E+02  0.24184649849E+03  0.12500000000E+03 0.  0.
         21    1    1    2  503  502 -0.81466865199E+01 -0.20375247977E+03  0.77548188699E+03  0.80184387418E+03  0.00000000000E+00 0.  1.
<mgrwt>
<rscale>  3 0.23917868E+03</rscale>
<asrwt>0</asrwt>
<pdfrwt beam="1">  1       21 0.14269194E+00 0.23917868E+03</pdfrwt>
<pdfrwt beam="2">  1       21 0.17875807E-01 0.23917868E+03</pdfrwt>
<totfact> 0.93757506E+03</totfact>
</mgrwt>
</event>
<event>
 4    0  0.1495377E-001  0.2565179E+03  0.7546771E-02  0.1109254E+00
         21   -1    0    0  503  501  0.00000000000E+00  0.00000000000E+00  0.13608502305E+03  0.13608502305E+03  0.00000000000E+00 0.  1.
         21   -1    0    0  501  502 -0.00000000000E+00 -0.00000000000E+00 -0.43033110168E+03  0.43033110168E+03  0.00000000000E+00 0.  1.
         25    1    1    2    0    0 -0.14473342219E+02 -0.22353295093E+03 -0.19071811618E+03  0.31964802146E+03  0.12500000000E+03 0.  0.
         21    1    1    2  503  502  0.14473342219E+02  0.22353295093E+03 -0.10352796245E+03  0.24676810328E+03  0.00000000000E+00 0.  1.
<mgrwt>
<rscale>  3 0.25651795E+03</rscale>
<asrwt>0</asrwt>
<pdfrwt beam="1">  1       21 0.20936158E-01 0.25651795E+03</pdfrwt>
<pdfrwt beam="2">  1       21 0.66204784E-01 0.25651795E+03</pdfrwt>
<totfact> 0.43086689E+04</totfact>
</mgrwt>
</event>
<event>
 4    0  0.1495377E-001  0.2613801E+03  0.7546771E-02  0.1106317E+00
         21   -1    0    0  503  501  0.00000000000E+00  0.00000000000E+00  0.27756544104E+03  0.27756544104E+03  0.00000000000E+00 0. -1.
         21   -1    0    0  501  502 -0.00000000000E+00 -0.00000000000E+00 -0.30779745587E+03  0.30779745587E+03  0.00000000000E+00 0. -1.
         25    1    1    2    0    0  0.22666923996E+03 -0.36271613262E+02 -0.17446593470E+03  0.31425775511E+03  0.12500000000E+03 0.  0.
         21    1    1    2  503  502 -0.22666923996E+03  0.36271613262E+02  0.14423391987E+03  0.27110514181E+03  0.00000000000E+00 0. -1.
<mgrwt>
<rscale>  3 0.26138013E+03</rscale>
<asrwt>0</asrwt>
<pdfrwt beam="1">  1       21 0.42702376E-01 0.26138013E+03</pdfrwt>
<pdfrwt beam="2">  1       21 0.47353455E-01 0.26138013E+03</pdfrwt>
<totfact> 0.21709163E+04</totfact>
</mgrwt>
</event>
<event>
 4    0  0.1495377E-001  0.2516756E+03  0.7546771E-02  0.1112250E+00
         21   -1    0    0  502  501  0.00000000000E+00  0.00000000000E+00  0.15267478657E+04  0.15267478657E+04  0.00000000000E+00 0.  1.
         21   -1    0    0  503  502 -0.00000000000E+00 -0.00000000000E+00 -0.95765074956E+02  0.95765074956E+02  0.00000000000E+00 0. -1.
         25    1    1    2    0    0 -0.10243976017E+03 -0.19292920958E+03  0.95344999636E+02  0.26913055071E+03  0.12500000000E+03 0.  0.
         21    1    1    2  503  501  0.10243976017E+03  0.19292920958E+03  0.13356377911E+04  0.13533823900E+04  0.00000000000E+00 0.  1.
<mgrwt>
<rscale>  3 0.25167555E+03</rscale>
<asrwt>0</asrwt>
<pdfrwt beam="1">  1       21 0.23488427E+00 0.25167555E+03</pdfrwt>
<pdfrwt beam="2">  1       21 0.14733090E-01 0.25167555E+03</pdfrwt>
<totfact> 0.31346531E+03</totfact>
</mgrwt>
</event>
<event>
 4    0  0.1495377E-001  0.2570173E+03  0.7546771E-02  0.1108949E+00
         21   -1    0    0  502  501  0.00000000000E+00  0.00000000000E+00  0.13206363026E+04  0.13206363026E+04  0.00000000000E+00 0. -1.
         21   -1    0    0  503  502 -0.00000000000E+00 -0.00000000000E+00 -0.45546440120E+02  0.45546440120E+02  0.00000000000E+00 0. -1.
         25    1    1    2    0    0 -0.15753179202E+03  0.16005189463E+03  0.80835113585E+03  0.84822722976E+03  0.12500000000E+03 0.  0.
         21    1    1    2  503  501  0.15753179202E+03 -0.16005189463E+03  0.46673872666E+03  0.51795551299E+03  0.00000000000E+00 0. -1.
<mgrwt>
<rscale>  3 0.25701726E+03</rscale>
<asrwt>0</asrwt>
<pdfrwt beam="1">  1       21 0.20317479E+00 0.25701726E+03</pdfrwt>
<pdfrwt beam="2">  1       21 0.70071456E-02 0.25701726E+03</pdfrwt>
<totfact> 0.18509961E+04</totfact>
</mgrwt>
</event>
<event>
 4    0  0.1495377E-001  0.4477126E+03  0.7546771E-02  0.1028406E+00
         21   -1    0    0  503  501  0.00000000000E+00  0.00000000000E+00  0.11375766444E+04  0.11375766444E+04  0.00000000000E+00 0.  1.
         21   -1    0    0  501  502 -0.00000000000E+00 -0.00000000000E+00 -0.17849556298E+03  0.17849556298E+03  0.00000000000E+00 0.  1.
         25    1    1    2    0    0 -0.46575715784E+02  0.42737840033E+03  0.33917509063E+03  0.56168170388E+03  0.12500000000E+03 0.  0.
         21    1    1    2  503  502  0.46575715784E+02 -0.42737840033E+03  0.61990599082E+03  0.75439050354E+03  0.00000000000E+00 0.  1.
<mgrwt>
<rscale>  3 0.44771262E+03</rscale>
<asrwt>0</asrwt>
<pdfrwt beam="1">  1       21 0.17501179E+00 0.44771262E+03</pdfrwt>
<pdfrwt beam="2">  1       21 0.27460857E-01 0.44771262E+03</pdfrwt>
<totfact> 0.21246002E+03</totfact>
</mgrwt>
</event>
<event>
 4    0  0.1495377E-001  0.2640017E+03  0.7546771E-02  0.1104763E+00
         21   -1    0    0  502  501  0.00000000000E+00  0.00000000000E+00  0.17175502049E+04  0.17175502049E+04  0.00000000000E+00 0.  1.
         21   -1    0    0  503  502 -0.00000000000E+00 -0.00000000000E+00 -0.36910576600E+02  0.36910576600E+02  0.00000000000E+00 0.  1.
         25    1    1    2    0    0  0.23675407674E+01  0.23252154123E+03  0.74626284086E+03  0.79158391850E+03  0.12500000000E+03 0.  0.
         21    1    1    2  503  501 -0.23675407674E+01 -0.23252154123E+03  0.93437678748E+03  0.96287686304E+03  0.00000000000E+00 0.  1.
<mgrwt>
<rscale>  3 0.26400165E+03</rscale>
<asrwt>0</asrwt>
<pdfrwt beam="1">  1       21 0.26423843E+00 0.26400165E+03</pdfrwt>
<pdfrwt beam="2">  1       21 0.56785516E-02 0.26400165E+03</pdfrwt>
<totfact> 0.11199642E+04</totfact>
</mgrwt>
</event>
<event>
 4    0  0.1495377E-001  0.3594383E+03  0.7546771E-02  0.1058807E+00
         21   -1    0    0  503  501  0.00000000000E+00  0.00000000000E+00  0.49402639778E+02  0.49402639778E+02  0.00000000000E+00 0. -1.
         21   -1    0    0  501  502 -0.00000000000E+00 -0.00000000000E+00 -0.24894452729E+04  0.24894452729E+04  0.00000000000E+00 0. -1.
         25    1    1    2    0    0  0.25621404973E+03 -0.21891832003E+03 -0.14091495213E+04  0.14542689722E+04  0.12500000000E+03 0.  0.
         21    1    1    2  503  502 -0.25621404973E+03  0.21891832003E+03 -0.10308931118E+04  0.10845789404E+04  0.00000000000E+00 0. -1.
<mgrwt>
<rscale>  3 0.35943827E+03</rscale>
<asrwt>0</asrwt>
<pdfrwt beam="1">  1       21 0.76004069E-02 0.35943827E+03</pdfrwt>
<pdfrwt beam="2">  1       21 0.38299154E+00 0.35943827E+03</pdfrwt>
<totfact> 0.12208924E+03</totfact>
</mgrwt>
</event>
<event>
 4    0  0.1495377E-001  0.2652463E+03  0.7546771E-02  0.1104031E+00
         21   -1    0    0  502  501  0.00000000000E+00  0.00000000000E+00  0.10897818763E+04  0.10897818763E+04  0.00000000000E+00 0.  1.
         21   -1    0    0  503  502 -0.00000000000E+00 -0.00000000000E+00 -0.11878522766E+03  0.11878522766E+03  0.00000000000E+00 0.  1.
         25    1    1    2    0    0 -0.14624798550E+03 -0.18259828723E+03  0.65330731215E+02  0.27317341050E+03  0.12500000000E+03 0.  0.
         21    1    1    2  503  501  0.14624798550E+03  0.18259828723E+03  0.90566591747E+03  0.93539369350E+03  0.00000000000E+00 0.  1.
<mgrwt>
<rscale>  3 0.26524632E+03</rscale>
<asrwt>0</asrwt>
<pdfrwt beam="1">  1       21 0.16765874E+00 0.26524632E+03</pdfrwt>
<pdfrwt beam="2">  1       21 0.18274651E-01 0.26524632E+03</pdfrwt>
<totfact> 0.57347229E+03</totfact>
</mgrwt>
</event>
<event>
 4    0  0.1495377E-001  0.2605776E+03  0.7546771E-02  0.1106797E+00
         21   -1    0    0  503  501  0.00000000000E+00  0.00000000000E+00  0.35512041932E+03  0.35512041932E+03  0.00000000000E+00 0. -1.
         21   -1    0    0  501  502 -0.00000000000E+00 -0.00000000000E+00 -0.20670212532E+03  0.20670212532E+03  0.00000000000E+00 0. -1.
         25    1    1    2    0    0 -0.99424432920E+02  0.20588945013E+03 -0.42417192785E+02  0.26400738963E+03  0.12500000000E+03 0.  0.
         21    1    1    2  503  502  0.99424432920E+02 -0.20588945013E+03  0.19083548678E+03  0.29781515501E+03  0.00000000000E+00 0. -1.
<mgrwt>
<rscale>  3 0.26057760E+03</rscale>
<asrwt>0</asrwt>
<pdfrwt beam="1">  1       21 0.54633910E-01 0.26057760E+03</pdfrwt>
<pdfrwt beam="2">  1       21 0.31800327E-01 0.26057760E+03</pdfrwt>
<totfact> 0.29088918E+04</totfact>
</mgrwt>
</event>
<event>
 4    0  0.1495377E-001  0.2483600E+03  0.7546771E-02  0.1114346E+00
         21   -1    0    0  503  501  0.00000000000E+00  0.00000000000E+00  0.12258311349E+03  0.12258311349E+03  0.00000000000E+00 0. -1.
         21   -1    0    0  501  502 -0.00000000000E+00 -0.00000000000E+00 -0.50307341559E+03  0.50307341559E+03  0.00000000000E+00 0. -1.
         25    1    1    2    0    0  0.91558624225E+02  0.19409974238E+03 -0.31528915301E+03  0.40136011469E+03  0.12500000000E+03 0.  0.
         21    1    1    2  503  502 -0.91558624225E+02 -0.19409974238E+03 -0.65201149093E+02  0.22429641438E+03  0.00000000000E+00 0. -1.
<mgrwt>
<rscale>  3 0.24836000E+03</rscale>
<asrwt>0</asrwt>
<pdfrwt beam="1">  1       21 0.18858941E-01 0.24836000E+03</pdfrwt>
<pdfrwt beam="2">  1       21 0.77395910E-01 0.24836000E+03</pdfrwt>
<totfact> 0.37139010E+04</totfact>
</mgrwt>
</event>
<event>
 4    0  0.1495377E-001  0.3990515E+03  0.7546771E-02  0.1044109E+00
         21   -1    0    0  502  501  0.00000000000E+00  0.00000000000E+00  0.64039753298E+03  0.64039753298E+03  0.00000000000E+00 0.  1.
         21   -1    0    0  503  502 -0.00000000000E+00 -0.00000000000E+00 -0.29780364815E+03  0.29780364815E+03  0.00000000000E+00 0. -1.
         25    1    1    2    0    0  0.17731161481E+03 -0.33492941512E+03 -0.38312838485E+02  0.40088651194E+03  0.12500000000E+03 0.  0.
         21    1    1    2  503  501 -0.17731161481E+03  0.33492941512E+03  0.38090672332E+03  0.53731466919E+03  0.00000000000E+00 0.  1.
<mgrwt>
<rscale>  3 0.39905153E+03</rscale>
<asrwt>0</asrwt>
<pdfrwt beam="1">  1       21 0.98522697E-01 0.39905153E+03</pdfrwt>
<pdfrwt beam="2">  1       21 0.45815946E-01 0.39905153E+03</pdfrwt>
<totfact> 0.34501273E+03</totfact>
</mgrwt>
</event>
<event>
 4    0  0.1495377E-001  0.2718846E+03  0.7546771E-02  0.1100206E+00
         21   -1    0    0  503  501  0.00000000000E+00  0.00000000000E+00  0.14658280230E+03  0.14658280230E+03  0.00000000000E+00 0.  1.
         21   -1    0    0  501  502 -0.00000000000E+00 -0.00000000000E+00 -0.56039214694E+03  0.56039214694E+03  0.00000000000E+00 0.  1.
         25    1    1    2    0    0  0.23242986692E+03 -0.65364937005E+02 -0.37382483656E+03  0.46224044226E+03  0.12500000000E+03 0.  0.
         21    1    1    2  503  502 -0.23242986692E+03  0.65364937005E+02 -0.39984508077E+02  0.24473450699E+03  0.00000000000E+00 0.  1.
<mgrwt>
<rscale>  3 0.27188457E+03</rscale>
<asrwt>0</asrwt>
<pdfrwt beam="1">  1       21 0.22551200E-01 0.27188457E+03</pdfrwt>
<pdfrwt beam="2">  1       21 0.86214176E-01 0.27188457E+03</pdfrwt>
<totfact> 0.20492642E+04</totfact>
</mgrwt>
</event>
<event>
 4    0  0.1495377E-001  0.2388487E+03  0.7546771E-02  0.1120562E+00
         21   -1    0    0  503  501  0.00000000000E+00  0.00000000000E+00  0.26343636902E+03  0.26343636902E+03  0.00000000000E+00 0.  1.
         21   -1    0    0  501  502 -0.00000000000E+00 -0.00000000000E+00 -0.36160649320E+03  0.36160649320E+03  0.00000000000E+00 0. -1.
         25    1    1    2    0    0  0.18154245094E+02  0.20271687247E+03 -0.26870386001E+03  0.35951421583E+03  0.12500000000E+03 0.  0.
         21    1    1    2  503  502 -0.18154245094E+02 -0.20271687247E+03  0.17053373583E+03  0.26552864639E+03  0.00000000000E+00 0.  1.
<mgrwt>
<rscale>  3 0.23884871E+03</rscale>
<asrwt>0</asrwt>
<pdfrwt beam="1">  1       21 0.40528672E-01 0.23884871E+03</pdfrwt>
<pdfrwt beam="2">  1       21 0.55631768E-01 0.23884871E+03</pdfrwt>
<totfact> 0.17390698E+04</totfact>
</mgrwt>
</event>
<event>
 4    0  0.1495377E-001  0.3449524E+03  0.7546771E-02  0.1064706E+00
         21   -1    0    0  503  501  0.00000000000E+00  0.00000000000E+00  0.24484608201E+03  0.24484608201E+03  0.00000000000E+00 0. -1.
         21   -1    0    0  501  502 -0.00000000000E+00 -0.00000000000E+00 -0.46135902083E+03  0.46135902083E+03  0.00000000000E+00 0. -1.
         25    1    1    2    0    0  0.63813220066E+02 -0.31511111383E+03 -0.15800336860E+03  0.37941692846E+03  0.12500000000E+03 0.  0.
         21    1    1    2  503  502 -0.63813220066E+02  0.31511111383E+03 -0.58509570223E+02  0.32678817439E+03  0.00000000000E+00 0. -1.
<mgrwt>
<rscale>  3 0.34495238E+03</rscale>
<asrwt>0</asrwt>
<pdfrwt beam="1">  1       21 0.37668628E-01 0.34495238E+03</pdfrwt>
<pdfrwt beam="2">  1       21 0.70978311E-01 0.34495238E+03</pdfrwt>
<totfact> 0.11302230E+04</totfact>
</mgrwt>
</event>
<event>
 4    0  0.1495377E-001  0.2909500E+03  0.7546771E-02  0.1089854E+00
         21   -1    0    0  502  501  0.00000000000E+00  0.00000000000E+00  0.98201554561E+03  0.98201554561E+03  0.00000000000E+00 0.  1.
         21   -1    0    0  503  502 -0.00000000000E+00 -0.00000000000E+00 -0.16531682862E+03  0.16531682862E+03  0.00000000000E+00 0.  1.
         25    1    1    2    0    0 -0.17553412351E+03  0.19548568291E+03  0.16182014791E+01  0.29095446261E+03  0.12500000000E+03 0.  0.
         21    1    1    2  503  501  0.17553412351E+03 -0.19548568291E+03  0.81508051552E+03  0.85637791162E+03  0.00000000000E+00 0.  1.
<mgrwt>
<rscale>  3 0.29094996E+03</rscale>
<asrwt>0</asrwt>
<pdfrwt beam="1">  1       21 0.15107931E+00 0.29094996E+03</pdfrwt>
<pdfrwt beam="2">  1       21 0.25433359E-01 0.29094996E+03</pdfrwt>
<totfact> 0.40061698E+03</totfact>
</mgrwt>
</event>
<event>
 4    0  0.1495377E-001  0.2784593E+03  0.7546771E-02  0.1096533E+00
         21   -1    0    0  503  501  0.00000000000E+00  0.00000000000E+00  0.38851215704E+03  0.38851215704E+03  0.00000000000E+00 0.  1.
         21   -1    0    0  501  502 -0.00000000000E+00 -0.00000000000E+00 -0.21291191590E+03  0.21291191590E+03  0.00000000000E+00 0.  1.
         25    1    1    2    0    0 -0.99920598575E+02 -0.22788254089E+03 -0.28071159527E+02  0.27987062807E+03  0.12500000000E+03 0.  0.
         21    1    1    2  503  502  0.99920598575E+02  0.22788254089E+03  0.20367140066E+03  0.32155344487E+03  0.00000000000E+00 0.  1.
<mgrwt>
<rscale>  3 0.27845929E+03</rscale>
<asrwt>0</asrwt>
<pdfrwt beam="1">  1       21 0.59771101E-01 0.27845929E+03</pdfrwt>
<pdfrwt beam="2">  1       21 0.32755679E-01 0.27845929E+03</pdfrwt>
<totfact> 0.22446128E+04</totfact>
</mgrwt>
</event>
<event>
 4    0  0.1495377E-001  0.2538074E+03  0.7546771E-02  0.1110922E+00
         21   -1    0    0  502  501  0.00000000000E+00  0.00000000000E+00  0.18136312709E+02  0.18136312709E+02  0.00000000000E+00 0. -1.
         21   -1    0    0  503  502 -0.00000000000E+00 -0.00000000000E+00 -0.35702428727E+04  0.35702428727E+04  0.00000000000E+00 0. -1.
         25    1    1    2    0    0  0.19712039670E+02 -0.22001052999E+03 -0.25286924853E+04  0.25413980174E+04  0.12500000000E+03 0.  0.
         21    1    1    2  503  501 -0.19712039670E+02  0.22001052999E+03 -0.10234140747E+04  0.10469811680E+04  0.00000000000E+00 0. -1.
<mgrwt>
<rscale>  3 0.25380740E+03</rscale>
<asrwt>0</asrwt>
<pdfrwt beam="1">  1       21 0.27902069E-02 0.25380740E+03</pdfrwt>
<pdfrwt beam="2">  1       21 0.54926715E+00 0.25380740E+03</pdfrwt>
<totfact> 0.54456222E+02</totfact>
</mgrwt>
</event>
<event>
 4    0  0.1495377E-001  0.2735023E+03  0.7546771E-02  0.1099292E+00
         21   -1    0    0  502  501  0.00000000000E+00  0.00000000000E+00  0.65048109672E+03  0.65048109672E+03  0.00000000000E+00 0. -1.
         21   -1    0    0  503  502 -0.00000000000E+00 -0.00000000000E+00 -0.10664470986E+03  0.10664470986E+03  0.00000000000E+00 0. -1.
         25    1    1    2    0    0  0.24166018137E+03  0.27908496746E+02  0.36050890054E+03  0.45251540838E+03  0.12500000000E+03 0.  0.
         21    1    1    2  503  501 -0.24166018137E+03 -0.27908496746E+02  0.18332748632E+03  0.30461039820E+03  0.00000000000E+00 0. -1.
<mgrwt>
<rscale>  3 0.27350234E+03</rscale>
<asrwt>0</asrwt>
<pdfrwt beam="1">  1       21 0.10007401E+00 0.27350234E+03</pdfrwt>
<pdfrwt beam="2">  1       21 0.16406879E-01 0.27350234E+03</pdfrwt>
<totfact> 0.26187345E+04</totfact>
</mgrwt>
</event>
<event>
 4    0  0.1495377E-001  0.2567515E+03  0.7546771E-02  0.1109111E+00
         21   -1    0    0  503  501  0.00000000000E+00  0.00000000000E+00  0.11968193289E+03  0.11968193289E+03  0.00000000000E+00 0. -1.
         21   -1    0    0  501  502 -0.00000000000E+00 -0.00000000000E+00 -0.48332697761E+03  0.48332697761E+03  0.00000000000E+00 0. -1.
         25    1    1    2    0    0  0.63689615614E+02 -0.21503475391E+03 -0.19323268018E+03  0.32134122241E+03  0.12500000000E+03 0.  0.
         21    1    1    2  503  502 -0.63689615614E+02  0.21503475391E+03 -0.17041236454E+03  0.28166768809E+03  0.00000000000E+00 0. -1.
<mgrwt>
<rscale>  3 0.25675146E+03</rscale>
<asrwt>0</asrwt>
<pdfrwt beam="1">  1       21 0.18412605E-01 0.25675146E+03</pdfrwt>
<pdfrwt beam="2">  1       21 0.74357999E-01 0.25675146E+03</pdfrwt>
<totfact> 0.42356008E+04</totfact>
</mgrwt>
</event>
<event>
 4    0  0.1495377E-001  0.3617668E+03  0.7546771E-02  0.1057886E+00
         21   -1    0    0  503  501  0.00000000000E+00  0.00000000000E+00  0.93177391313E+03  0.93177391313E+03  0.00000000000E+00 0. -1.
         21   -1    0    0  501  502 -0.00000000000E+00 -0.00000000000E+00 -0.17523145131E+03  0.17523145131E+03  0.00000000000E+00 0. -1.
         25    1    1    2    0    0  0.32739516034E+03 -0.89792196849E+02  0.11231157063E+03  0.37879957567E+03  0.12500000000E+03 0.  0.
         21    1    1    2  503  502 -0.32739516034E+03  0.89792196849E+02  0.64423089120E+03  0.72820578877E+03  0.00000000000E+00 0. -1.
<mgrwt>
<rscale>  3 0.36176682E+03</rscale>
<asrwt>0</asrwt>
<pdfrwt beam="1">  1       21 0.14334983E+00 0.36176682E+03</pdfrwt>
<pdfrwt beam="2">  1       21 0.26958685E-01 0.36176682E+03</pdfrwt>
<totfact> 0.39689595E+03</totfact>
</mgrwt>
</event>
<event>
 4    0  0.1495377E-001  0.2513743E+03  0.7546771E-02  0.1112439E+00
         21   -1    0    0  503  501  0.00000000000E+00  0.00000000000E+00  0.24091362605E+03  0.24091362605E+03  0.00000000000E+00 0.  1.
         21   -1    0    0  501  502 -0.00000000000E+00 -0.00000000000E+00 -0.24757679036E+03  0.24757679036E+03  0.00000000000E+00 0.  1.
         25    1    1    2    0    0 -0.66369620046E+02 -0.20774768446E+03 -0.70816153146E+02  0.26115886814E+03  0.12500000000E+03 0.  0.
         21    1    1    2  503  502  0.66369620046E+02  0.20774768446E+03  0.64152988840E+02  0.22733154827E+03  0.00000000000E+00 0.  1.
<mgrwt>
<rscale>  3 0.25137428E+03</rscale>
<asrwt>0</asrwt>
<pdfrwt beam="1">  1       21 0.37063635E-01 0.25137428E+03</pdfrwt>
<pdfrwt beam="2">  1       21 0.38088737E-01 0.25137428E+03</pdfrwt>
<totfact> 0.45445536E+04</totfact>
</mgrwt>
</event>
<event>
 4    0  0.1495377E-001  0.2547115E+03  0.7546771E-02  0.1110363E+00
         21   -1    0    0  503  501  0.00000000000E+00  0.00000000000E+00  0.77331395602E+03  0.77331395602E+03  0.00000000000E+00 0.  1.
         21   -1    0    0  501  502 -0.00000000000E+00 -0.00000000000E+00 -0.73459913410E+02  0.73459913410E+02  0.00000000000E+00 0.  1.
         25    1    1    2    0    0 -0.21444647031E+03  0.57146053828E+02  0.37980535808E+03  0.45730741315E+03  0.12500000000E+03 0.  0.
         21    1    1    2  503  502  0.21444647031E+03 -0.57146053828E+02  0.32004868452E+03  0.38946645627E+03  0.00000000000E+00 0.  1.
<mgrwt>
<rscale>  3 0.25471152E+03</rscale>
<asrwt>0</asrwt>
<pdfrwt beam="1">  1       21 0.11897137E+00 0.25471152E+03</pdfrwt>
<pdfrwt beam="2">  1       21 0.11301526E-01 0.25471152E+03</pdfrwt>
<totfact> 0.34122163E+04</totfact>
</mgrwt>
</event>
<event>
 4    0  0.1495377E-001  0.2863957E+03  0.7546771E-02  0.1092246E+00
         21   -1    0    0  503  501  0.00000000000E+00  0.00000000000E+00  0.15032222941E+04  0.15032222941E+04  0.00000000000E+00 0.  1.
         21   -1    0    0  501  502 -0.00000000000E+00 -0.00000000000E+00 -0.12819569869E+03  0.12819569869E+03  0.00000000000E+00 0. -1.
         25    1    1    2    0    0  0.25741102601E+03 -0.11706477462E+02  0.61589417364E+02  0.29294322702E+03  0.12500000000E+03 0.  0.
         21    1    1    2  503  502 -0.25741102601E+03  0.11706477462E+02  0.13134371781E+04  0.13384747658E+04  0.00000000000E+00 0.  1.
<mgrwt>
<rscale>  3 0.28639567E+03</rscale>
<asrwt>0</asrwt>
<pdfrwt beam="1">  1       21 0.23126496E+00 0.28639567E+03</pdfrwt>
<pdfrwt beam="2">  1       21 0.19722416E-01 0.28639567E+03</pdfrwt>
<totfact> 0.18686040E+03</totfact>
</mgrwt>
</event>
<event>
 4    0  0.1495377E-001  0.2642838E+03  0.7546771E-02  0.1104596E+00
         21   -1    0    0  503  501  0.00000000000E+00  0.00000000000E+00  0.19766533786E+04  0.19766533786E+04  0.00000000000E+00 0. -1.
         21   -1    0    0  501  502 -0.00000000000E+00 -0.00000000000E+00 -0.41863929002E+03  0.41863929002E+03  0.00000000000E+00 0. -1.
         25    1    1    2    0    0  0.13602698571E+03  0.18899103253E+03 -0.36921099987E+03  0.45405144383E+03  0.12500000000E+03 0.  0.
         21    1    1    2  503  502 -0.13602698571E+03 -0.18899103253E+03  0.19272250885E+04  0.19412412248E+04  0.00000000000E+00 0. -1.
<mgrwt>
<rscale>  3 0.26428385E+03</rscale>
<asrwt>0</asrwt>
<pdfrwt beam="1">  1       21 0.30410051E+00 0.26428385E+03</pdfrwt>
<pdfrwt beam="2">  1       21 0.64406046E-01 0.26428385E+03</pdfrwt>
<totfact> 0.64802244E+01</totfact>
</mgrwt>
</event>
<event>
 4    0  0.1495377E-001  0.2972854E+03  0.7546771E-02  0.1086606E+00
         21   -1    0    0  502  501  0.00000000000E+00  0.00000000000E+00  0.31844225448E+03  0.31844225448E+03  0.00000000000E+00 0. -1.
         21   -1    0    0  503  502 -0.00000000000E+00 -0.00000000000E+00 -0.25281302047E+03  0.25281302047E+03  0.00000000000E+00 0. -1.
         25    1    1    2    0    0 -0.23450373765E+03  0.13327256751E+03  0.45875876877E+02  0.30080421590E+03  0.12500000000E+03 0.  0.
         21    1    1    2  503  501  0.23450373765E+03 -0.13327256751E+03  0.19753357136E+02  0.27045105905E+03  0.00000000000E+00 0. -1.
<mgrwt>
<rscale>  3 0.29728535E+03</rscale>
<asrwt>0</asrwt>
<pdfrwt beam="1">  1       21 0.48991116E-01 0.29728535E+03</pdfrwt>
<pdfrwt beam="2">  1       21 0.38894311E-01 0.29728535E+03</pdfrwt>
<totfact> 0.24106988E+04</totfact>
</mgrwt>
</event>
<event>
 4    0  0.1495377E-001  0.3297985E+03  0.7546771E-02  0.1071226E+00
         21   -1    0    0  502  501  0.00000000000E+00  0.00000000000E+00  0.61183985318E+03  0.61183985318E+03  0.00000000000E+00 0. -1.
         21   -1    0    0  503  502 -0.00000000000E+00 -0.00000000000E+00 -0.61981735664E+03  0.61981735664E+03  0.00000000000E+00 0. -1.
         25    1    1    2    0    0 -0.18494511039E+03 -0.24277012806E+03 -0.53159627379E+03  0.62558902424E+03  0.12500000000E+03 0.  0.
         21    1    1    2  503  501  0.18494511039E+03  0.24277012806E+03  0.52361877033E+03  0.60606818558E+03  0.00000000000E+00 0. -1.
<mgrwt>
<rscale>  3 0.32979847E+03</rscale>
<asrwt>0</asrwt>
<pdfrwt beam="1">  1       21 0.94129209E-01 0.32979847E+03</pdfrwt>
<pdfrwt beam="2">  1       21 0.95356516E-01 0.32979847E+03</pdfrwt>
<totfact> 0.77988460E+02</totfact>
</mgrwt>
</event>
<event>
 4    0  0.1495377E-001  0.2897655E+03  0.7546771E-02  0.1090472E+00
         21   -1    0    0  503  501  0.00000000000E+00  0.00000000000E+00  0.88867243748E+02  0.88867243748E+02  0.00000000000E+00 0.  1.
         21   -1    0    0  501  502 -0.00000000000E+00 -0.00000000000E+00 -0.10000107721E+04  0.10000107721E+04  0.00000000000E+00 0. -1.
         25    1    1    2    0    0 -0.70425305847E+02 -0.25175246558E+03 -0.68293286000E+03  0.74186340987E+03  0.12500000000E+03 0.  0.
         21    1    1    2  503  502  0.70425305847E+02  0.25175246558E+03 -0.22821066839E+03  0.34701460603E+03  0.00000000000E+00 0.  1.
<mgrwt>
<rscale>  3 0.28976547E+03</rscale>
<asrwt>0</asrwt>
<pdfrwt beam="1">  1       21 0.13671884E-01 0.28976547E+03</pdfrwt>
<pdfrwt beam="2">  1       21 0.15384781E+00 0.28976547E+03</pdfrwt>
<totfact> 0.12222936E+04</totfact>
</mgrwt>
</event>
<event>
 4    0  0.1495377E-001  0.3146873E+03  0.7546771E-02  0.1078121E+00
         21   -1    0    0  502  501  0.00000000000E+00  0.00000000000E+00  0.14073853404E+03  0.14073853404E+03  0.00000000000E+00 0.  1.
         21   -1    0    0  503  502 -0.00000000000E+00 -0.00000000000E+00 -0.71053343665E+03  0.71053343665E+03  0.00000000000E+00 0.  1.
         25    1    1    2    0    0  0.22301016742E+03  0.18349264353E+03 -0.42326577305E+03  0.52742961582E+03  0.12500000000E+03 0.  0.
         21    1    1    2  503  501 -0.22301016742E+03 -0.18349264353E+03 -0.14652912956E+03  0.32384235488E+03  0.00000000000E+00 0.  1.
<mgrwt>
<rscale>  3 0.31468728E+03</rscale>
<asrwt>0</asrwt>
<pdfrwt beam="1">  1       21 0.21652082E-01 0.31468728E+03</pdfrwt>
<pdfrwt beam="2">  1       21 0.10931283E+00 0.31468728E+03</pdfrwt>
<totfact> 0.12338450E+04</totfact>
</mgrwt>
</event>
<event>
 4    0  0.1495377E-001  0.2571398E+03  0.7546771E-02  0.1108874E+00
         21   -1    0    0  503  501  0.00000000000E+00  0.00000000000E+00  0.51310004991E+03  0.51310004991E+03  0.00000000000E+00 0.  1.
         21   -1    0    0  501  502 -0.00000000000E+00 -0.00000000000E+00 -0.28216748266E+03  0.28216748266E+03  0.00000000000E+00 0.  1.
         25    1    1    2    0    0 -0.20785833020E+03  0.85386234374E+02 -0.18890793707E+03  0.31907225380E+03  0.12500000000E+03 0.  0.
         21    1    1    2  503  502  0.20785833020E+03 -0.85386234374E+02  0.41984050432E+03  0.47619527877E+03  0.00000000000E+00 0.  1.
<mgrwt>
<rscale>  3 0.25713983E+03</rscale>
<asrwt>0</asrwt>
<pdfrwt beam="1">  1       21 0.78938469E-01 0.25713983E+03</pdfrwt>
<pdfrwt beam="2">  1       21 0.43410382E-01 0.25713983E+03</pdfrwt>
<totfact> 0.69303077E+03</totfact>
</mgrwt>
</event>
<event>
 4    0  0.1495377E-001  0.5017015E+03  0.7546771E-02  0.1013336E+00
         21   -1    0    0  502  501  0.00000000000E+00  0.00000000000E+00  0.97282289291E+03  0.97282289291E+03  0.00000000000E+00 0. -1.
         21   -1    0    0  503  502 -0.00000000000E+00 -0.00000000000E+00 -0.32718931443E+03  0.32718931443E+03  0.00000000000E+00 0.  1.
         25    1    1    2    0    0 -0.32098010124E+03  0.36476178049E+03  0.12407125828E+02  0.50185487809E+03  0.12500000000E+03 0.  0.
         21    1    1    2  503  501  0.32098010124E+03 -0.36476178049E+03  0.63322645265E+03  0.79815732925E+03  0.00000000000E+00 0. -1.
<mgrwt>
<rscale>  3 0.50170149E+03</rscale>
<asrwt>0</asrwt>
<pdfrwt beam="1">  1       21 0.14966506E+00 0.50170149E+03</pdfrwt>
<pdfrwt beam="2">  1       21 0.50336818E-01 0.50170149E+03</pdfrwt>
<totfact> 0.93342919E+02</totfact>
</mgrwt>
</event>
<event>
 4    0  0.1495377E-001  0.7082380E+03  0.7546771E-02  0.9703247E-01
         21   -1    0    0  503  501  0.00000000000E+00  0.00000000000E+00  0.79109160412E+03  0.79109160412E+03  0.00000000000E+00 0.  1.
         21   -1    0    0  501  502 -0.00000000000E+00 -0.00000000000E+00 -0.77181192112E+03  0.77181192112E+03  0.00000000000E+00 0. -1.
         25    1    1    2    0    0  0.63897094363E+03 -0.27873318612E+03 -0.33209980810E+03  0.78223483583E+03  0.12500000000E+03 0.  0.
         21    1    1    2  503  502 -0.63897094363E+03  0.27873318612E+03  0.35137949111E+03  0.78066868941E+03  0.00000000000E+00 0.  1.
<mgrwt>
<rscale>  3 0.70823799E+03</rscale>
<asrwt>0</asrwt>
<pdfrwt beam="1">  1       21 0.12170640E+00 0.70823799E+03</pdfrwt>
<pdfrwt beam="2">  1       21 0.11874030E+00 0.70823799E+03</pdfrwt>
<totfact> 0.20506185E+02</totfact>
</mgrwt>
</event>
<event>
 4    0  0.1495377E-001  0.4331630E+03  0.7546771E-02  0.1032865E+00
         21   -1    0    0  503  501  0.00000000000E+00  0.00000000000E+00  0.16154026849E+04  0.16154026849E+04  0.00000000000E+00 0. -1.
         21   -1    0    0  501  502 -0.00000000000E+00 -0.00000000000E+00 -0.12046617020E+03  0.12046617020E+03  0.00000000000E+00 0. -1.
         25    1    1    2    0    0  0.40154616166E+03  0.10375850588E+03  0.52261403221E+03  0.67878978643E+03  0.12500000000E+03 0.  0.
         21    1    1    2  503  502 -0.40154616166E+03 -0.10375850588E+03  0.97232248245E+03  0.10570790686E+04  0.00000000000E+00 0. -1.
<mgrwt>
<rscale>  3 0.43316296E+03</rscale>
<asrwt>0</asrwt>
<pdfrwt beam="1">  1       21 0.24852347E+00 0.43316296E+03</pdfrwt>
<pdfrwt beam="2">  1       21 0.18533258E-01 0.43316296E+03</pdfrwt>
<totfact> 0.15063137E+03</totfact>
</mgrwt>
</event>
<event>
 4    0  0.1495377E-001  0.4571766E+03  0.7546771E-02  0.1025603E+00
         21   -1    0    0  503  501  0.00000000000E+00  0.00000000000E+00  0.23810828522E+04  0.23810828522E+04  0.00000000000E+00 0. -1.
         21   -1    0    0  501  502 -0.00000000000E+00 -0.00000000000E+00 -0.85320762993E+02  0.85320762993E+02  0.00000000000E+00 0. -1.
         25    1    1    2    0    0  0.43457747426E+03 -0.67289087486E+02  0.10465880290E+04  0.11420844561E+04  0.12500000000E+03 0.  0.
         21    1    1    2  503  502 -0.43457747426E+03  0.67289087486E+02  0.12491740602E+04  0.13243191591E+04  0.00000000000E+00 0. -1.
<mgrwt>
<rscale>  3 0.45717655E+03</rscale>
<asrwt>0</asrwt>
<pdfrwt beam="1">  1       21 0.36632039E+00 0.45717655E+03</pdfrwt>
<pdfrwt beam="2">  1       21 0.13126273E-01 0.45717655E+03</pdfrwt>
<totfact> 0.54454425E+02</totfact>
</mgrwt>
</event>
<event>
 4    0  0.1495377E-001  0.2443121E+03  0.7546771E-02  0.1116953E+00
         21   -1    0    0  503  501  0.00000000000E+00  0.00000000000E+00  0.15301178375E+03  0.15301178375E+03  0.00000000000E+00 0.  1.
         21   -1    0    0  501  502 -0.00000000000E+00 -0.00000000000E+00 -0.22485259111E+04  0.22485259111E+04  0.00000000000E+00 0.  1.
         25    1    1    2    0    0  0.22123987998E+02 -0.20874369659E+03 -0.21662832705E+04  0.21800164242E+04  0.12500000000E+03 0.  0.
         21    1    1    2  503  502 -0.22123987998E+02  0.20874369659E+03  0.70769143179E+02  0.22152127062E+03  0.00000000000E+00 0.  1.
<mgrwt>
<rscale>  3 0.24431210E+03</rscale>
<asrwt>0</asrwt>
<pdfrwt beam="1">  1       21 0.23540278E-01 0.24431210E+03</pdfrwt>
<pdfrwt beam="2">  1       21 0.34592702E+00 0.24431210E+03</pdfrwt>
<totfact> 0.29163099E+02</totfact>
</mgrwt>
</event>
<event>
 4    0  0.1495377E-001  0.2420804E+03  0.7546771E-02  0.1118415E+00
         21   -1    0    0  502  501  0.00000000000E+00  0.00000000000E+00  0.30198763999E+03  0.30198763999E+03  0.00000000000E+00 0.  1.
         21   -1    0    0  503  502 -0.00000000000E+00 -0.00000000000E+00 -0.12959947033E+04  0.12959947033E+04  0.00000000000E+00 0.  1.
         25    1    1    2    0    0 -0.18060473858E+03  0.10178338958E+03 -0.12473526219E+04  0.12706264177E+04  0.12500000000E+03 0.  0.
         21    1    1    2  503  501  0.18060473858E+03 -0.10178338958E+03  0.25334555856E+03  0.32735592562E+03  0.00000000000E+00 0.  1.
<mgrwt>
<rscale>  3 0.24208042E+03</rscale>
<asrwt>0</asrwt>
<pdfrwt beam="1">  1       21 0.46459637E-01 0.24208042E+03</pdfrwt>
<pdfrwt beam="2">  1       21 0.19938380E+00 0.24208042E+03</pdfrwt>
<totfact> 0.56992297E+02</totfact>
</mgrwt>
</event>
<event>
 4    0  0.1495377E-001  0.3232014E+03  0.7546771E-02  0.1074185E+00
         21   -1    0    0  502  501  0.00000000000E+00  0.00000000000E+00  0.90488752392E+02  0.90488752392E+02  0.00000000000E+00 0.  1.
         21   -1    0    0  503  502 -0.00000000000E+00 -0.00000000000E+00 -0.16323318270E+04  0.16323318270E+04  0.00000000000E+00 0.  1.
         25    1    1    2    0    0 -0.21750679588E+03  0.20377661207E+03 -0.12982909139E+04  0.13379156965E+04  0.12500000000E+03 0.  0.
         21    1    1    2  503  501  0.21750679588E+03 -0.20377661207E+03 -0.24355216075E+03  0.38490488291E+03  0.00000000000E+00 0.  1.
<mgrwt>
<rscale>  3 0.32320135E+03</rscale>
<asrwt>0</asrwt>
<pdfrwt beam="1">  1       21 0.13921348E-01 0.32320135E+03</pdfrwt>
<pdfrwt beam="2">  1       21 0.25112795E+00 0.32320135E+03</pdfrwt>
<totfact> 0.26316430E+03</totfact>
</mgrwt>
</event>
<event>
 4    0  0.1495377E-001  0.2563791E+03  0.7546771E-02  0.1109338E+00
         21   -1    0    0  502  501  0.00000000000E+00  0.00000000000E+00  0.88359125705E+03  0.88359125705E+03  0.00000000000E+00 0.  1.
         21   -1    0    0  503  502 -0.00000000000E+00 -0.00000000000E+00 -0.12824781915E+03  0.12824781915E+03  0.00000000000E+00 0. -1.
         25    1    1    2    0    0 -0.10187747014E+03 -0.19931433565E+03  0.36516794689E+02  0.25896659941E+03  0.12500000000E+03 0.  0.
         21    1    1    2  503  501  0.10187747014E+03  0.19931433565E+03  0.71882664322E+03  0.75287247679E+03  0.00000000000E+00 0.  1.
<mgrwt>
<rscale>  3 0.25637906E+03</rscale>
<asrwt>0</asrwt>
<pdfrwt beam="1">  1       21 0.13593711E+00 0.25637906E+03</pdfrwt>
<pdfrwt beam="2">  1       21 0.19730434E-01 0.25637906E+03</pdfrwt>
<totfact> 0.87550207E+03</totfact>
</mgrwt>
</event>
<event>
 4    0  0.1495377E-001  0.2747011E+03  0.7546771E-02  0.1098619E+00
         21   -1    0    0  503  501  0.00000000000E+00  0.00000000000E+00  0.17725249741E+03  0.17725249741E+03  0.00000000000E+00 0. -1.
         21   -1    0    0  501  502 -0.00000000000E+00 -0.00000000000E+00 -0.38313539622E+03  0.38313539622E+03  0.00000000000E+00 0. -1.
         25    1    1    2    0    0 -0.70568921374E+02  0.23421297573E+03 -0.13261927150E+03  0.30503862352E+03  0.12500000000E+03 0.  0.
         21    1    1    2  503  502  0.70568921374E+02 -0.23421297573E+03 -0.73263627311E+02  0.25534927012E+03  0.00000000000E+00 0. -1.
<mgrwt>
<rscale>  3 0.27470109E+03</rscale>
<asrwt>0</asrwt>
<pdfrwt beam="1">  1       21 0.27269615E-01 0.27470109E+03</pdfrwt>
<pdfrwt beam="2">  1       21 0.58943907E-01 0.27470109E+03</pdfrwt>
<totfact> 0.33215622E+04</totfact>
</mgrwt>
</event>
<event>
 4    0  0.1495377E-001  0.2464042E+03  0.7546771E-02  0.1115599E+00
         21   -1    0    0  502  501  0.00000000000E+00  0.00000000000E+00  0.15098085452E+03  0.15098085452E+03  0.00000000000E+00 0. -1.
         21   -1    0    0  503  502 -0.00000000000E+00 -0.00000000000E+00 -0.98230884038E+03  0.98230884038E+03  0.00000000000E+00 0. -1.
         25    1    1    2    0    0  0.21437184260E+02 -0.21125930422E+03 -0.88133897401E+03  0.91513574600E+03  0.12500000000E+03 0.  0.
         21    1    1    2  503  501 -0.21437184260E+02  0.21125930422E+03  0.50010988148E+02  0.21815394891E+03  0.00000000000E+00 0. -1.
<mgrwt>
<rscale>  3 0.24640423E+03</rscale>
<asrwt>0</asrwt>
<pdfrwt beam="1">  1       21 0.23227824E-01 0.24640423E+03</pdfrwt>
<pdfrwt beam="2">  1       21 0.15112444E+00 0.24640423E+03</pdfrwt>
<totfact> 0.48993068E+03</totfact>
</mgrwt>
</event>
<event>
 4    0  0.1495377E-001  0.2443814E+03  0.7546771E-02  0.1116908E+00
         21   -1    0    0  502  501  0.00000000000E+00  0.00000000000E+00  0.86772971353E+03  0.86772971353E+03  0.00000000000E+00 0.  1.
         21   -1    0    0  503  502 -0.00000000000E+00 -0.00000000000E+00 -0.11412760250E+04  0.11412760250E+04  0.00000000000E+00 0. -1.
         25    1    1    2    0    0  0.17989896552E+03  0.10832177968E+03 -0.11151425953E+04  0.11416064355E+04  0.12500000000E+03 0.  0.
         21    1    1    2  503  501 -0.17989896552E+03 -0.10832177968E+03  0.84159628388E+03  0.86739930297E+03  0.00000000000E+00 0.  1.
<mgrwt>
<rscale>  3 0.24438135E+03</rscale>
<asrwt>0</asrwt>
<pdfrwt beam="1">  1       21 0.13349688E+00 0.24438135E+03</pdfrwt>
<pdfrwt beam="2">  1       21 0.17558093E+00 0.24438135E+03</pdfrwt>
<totfact> 0.73689279E+01</totfact>
</mgrwt>
</event>
<event>
 4    0  0.1495377E-001  0.3003283E+03  0.7546771E-02  0.1085077E+00
         21   -1    0    0  503  501  0.00000000000E+00  0.00000000000E+00  0.14774343572E+03  0.14774343572E+03  0.00000000000E+00 0. -1.
         21   -1    0    0  501  502 -0.00000000000E+00 -0.00000000000E+00 -0.68156261586E+03  0.68156261586E+03  0.00000000000E+00 0. -1.
         25    1    1    2    0    0  0.10834316490E+03 -0.25066678975E+03 -0.45481874476E+03  0.54502951429E+03  0.12500000000E+03 0.  0.
         21    1    1    2  503  502 -0.10834316490E+03  0.25066678975E+03 -0.79000435385E+02  0.28427653729E+03  0.00000000000E+00 0. -1.
<mgrwt>
<rscale>  3 0.30032829E+03</rscale>
<asrwt>0</asrwt>
<pdfrwt beam="1">  1       21 0.22729760E-01 0.30032829E+03</pdfrwt>
<pdfrwt beam="2">  1       21 0.10485579E+00 0.30032829E+03</pdfrwt>
<totfact> 0.12529690E+04</totfact>
</mgrwt>
</event>
<event>
 4    0  0.1495377E-001  0.3104555E+03  0.7546771E-02  0.1080128E+00
         21   -1    0    0  503  501  0.00000000000E+00  0.00000000000E+00  0.12228619499E+04  0.12228619499E+04  0.00000000000E+00 0.  1.
         21   -1    0    0  501  502 -0.00000000000E+00 -0.00000000000E+00 -0.19283382021E+03  0.19283382021E+03  0.00000000000E+00 0.  1.
         25    1    1    2    0    0  0.27913419717E+03  0.53307919834E+02 -0.35911259709E+02  0.31252560362E+03  0.12500000000E+03 0.  0.
         21    1    1    2  503  502 -0.27913419717E+03 -0.53307919834E+02  0.10659393894E+04  0.11031701665E+04  0.00000000000E+00 0.  1.
<mgrwt>
<rscale>  3 0.31045553E+03</rscale>
<asrwt>0</asrwt>
<pdfrwt beam="1">  1       21 0.18813260E+00 0.31045553E+03</pdfrwt>
<pdfrwt beam="2">  1       21 0.29666742E-01 0.31045553E+03</pdfrwt>
<totfact> 0.15862285E+03</totfact>
</mgrwt>
</event>
<event>
 4    0  0.1495377E-001  0.2780607E+03  0.7546771E-02  0.1096753E+00
         21   -1    0    0  503  501  0.00000000000E+00  0.00000000000E+00  0.20307515858E+03  0.20307515858E+03  0.00000000000E+00 0. -1.
         21   -1    0    0  501  502 -0.00000000000E+00 -0.00000000000E+00 -0.35292194784E+03  0.35292194784E+03  0.00000000000E+00 0. -1.
         25    1    1    2    0    0  0.21505598764E+03  0.12427264392E+03 -0.12963819914E+03  0.30679607319E+03  0.12500000000E+03 0.  0.
         21    1    1    2  503  502 -0.21505598764E+03 -0.12427264392E+03 -0.20208590117E+02  0.24920103322E+03  0.00000000000E+00 0. -1.
<mgrwt>
<rscale>  3 0.27806073E+03</rscale>
<asrwt>0</asrwt>
<pdfrwt beam="1">  1       21 0.31242332E-01 0.27806073E+03</pdfrwt>
<pdfrwt beam="2">  1       21 0.54295684E-01 0.27806073E+03</pdfrwt>
<totfact> 0.30306185E+04</totfact>
</mgrwt>
</event>
<event>
 4    0  0.1495377E-001  0.2603709E+03  0.7546771E-02  0.1106921E+00
         21   -1    0    0  503  501  0.00000000000E+00  0.00000000000E+00  0.47898889347E+03  0.47898889347E+03  0.00000000000E+00 0.  1.
         21   -1    0    0  501  502 -0.00000000000E+00 -0.00000000000E+00 -0.14259936588E+03  0.14259936588E+03  0.00000000000E+00 0.  1.
         25    1    1    2    0    0 -0.22712138187E+03  0.24164115734E+02  0.28775039308E+03  0.38806354546E+03  0.12500000000E+03 0.  0.
         21    1    1    2  503  502  0.22712138187E+03 -0.24164115734E+02  0.48639134506E+02  0.23352471389E+03  0.00000000000E+00 0.  1.
<mgrwt>
<rscale>  3 0.26037094E+03</rscale>
<asrwt>0</asrwt>
<pdfrwt beam="1">  1       21 0.73690598E-01 0.26037094E+03</pdfrwt>
<pdfrwt beam="2">  1       21 0.21938364E-01 0.26037094E+03</pdfrwt>
<totfact> 0.31036736E+04</totfact>
</mgrwt>
</event>
<event>
 4    0  0.1495377E-001  0.2535470E+03  0.7546771E-02  0.1111083E+00
         21   -1    0    0  503  501  0.00000000000E+00  0.00000000000E+00  0.11484760007E+03  0.11484760007E+03  0.00000000000E+00 0. -1.
         21   -1    0    0  501  502 -0.00000000000E+00 -0.00000000000E+00 -0.59119617235E+03  0.59119617235E+03  0.00000000000E+00 0.  1.
         25    1    1    2    0    0 -0.29559798039E+02 -0.21860306805E+03 -0.39809857292E+03  0.47198364037E+03  0.12500000000E+03 0.  0.
         21    1    1    2  503  502  0.29559798039E+02  0.21860306805E+03 -0.78249999365E+02  0.23406013206E+03  0.00000000000E+00 0. -1.
<mgrwt>
<rscale>  3 0.25354700E+03</rscale>
<asrwt>0</asrwt>
<pdfrwt beam="1">  1       21 0.17668862E-01 0.25354700E+03</pdfrwt>
<pdfrwt beam="2">  1       21 0.90953257E-01 0.25354700E+03</pdfrwt>
<totfact> 0.28868849E+04</totfact>
</mgrwt>
</event>
<event>
 4    0  0.1495377E-001  0.3048786E+03  0.7546771E-02  0.1082827E+00
         21   -1    0    0  502  501  0.00000000000E+00  0.00000000000E+00  0.63241441608E+03  0.63241441608E+03  0.00000000000E+00 0.  1.
         21   -1    0    0  503  502 -0.00000000000E+00 -0.00000000000E+00 -0.15868662798E+03  0.15868662798E+03  0.00000000000E+00 0.  1.
         25    1    1    2    0    0 -0.18026068695E+03 -0.21173577917E+03  0.40087897586E+03  0.50364164713E+03  0.12500000000E+03 0.  0.
         21    1    1    2  503  501  0.18026068695E+03  0.21173577917E+03  0.72848812244E+02  0.28745939693E+03  0.00000000000E+00 0.  1.
<mgrwt>
<rscale>  3 0.30487859E+03</rscale>
<asrwt>0</asrwt>
<pdfrwt beam="1">  1       21 0.97294524E-01 0.30487859E+03</pdfrwt>
<pdfrwt beam="2">  1       21 0.24413328E-01 0.30487859E+03</pdfrwt>
<totfact> 0.13059423E+04</totfact>
</mgrwt>
</event>
<event>
 4    0  0.1495377E-001  0.2648258E+03  0.7546771E-02  0.1104278E+00
         21   -1    0    0  502  501  0.00000000000E+00  0.00000000000E+00  0.70578813843E+03  0.70578813843E+03  0.00000000000E+00 0.  1.
         21   -1    0    0  503  502 -0.00000000000E+00 -0.00000000000E+00 -0.96627060083E+02  0.96627060083E+02  0.00000000000E+00 0.  1.
         25    1    1    2    0    0 -0.42945485512E+02  0.22948509164E+03  0.20201835224E+03  0.33308277748E+03  0.12500000000E+03 0.  0.
         21    1    1    2  503  501  0.42945485512E+02 -0.22948509164E+03  0.40714272611E+03  0.46933242104E+03  0.00000000000E+00 0.  1.
<mgrwt>
<rscale>  3 0.26482583E+03</rscale>
<asrwt>0</asrwt>
<pdfrwt beam="1">  1       21 0.10858279E+00 0.26482583E+03</pdfrwt>
<pdfrwt beam="2">  1       21 0.14865702E-01 0.26482583E+03</pdfrwt>
<totfact> 0.25870424E+04</totfact>
</mgrwt>
</event>
<event>
 4    0  0.1495377E-001  0.2657944E+03  0.7546771E-02  0.1103711E+00
         21   -1    0    0  502  501  0.00000000000E+00  0.00000000000E+00  0.46948661419E+03  0.46948661419E+03  0.00000000000E+00 0.  1.
         21   -1    0    0  503  502 -0.00000000000E+00 -0.00000000000E+00 -0.13413309774E+03  0.13413309774E+03  0.00000000000E+00 0.  1.
         25    1    1    2    0    0 -0.84848811570E+02 -0.21868322433E+03  0.20157869730E+03  0.33358753669E+03  0.12500000000E+03 0.  0.
         21    1    1    2  503  501  0.84848811570E+02  0.21868322433E+03  0.13377481916E+03  0.27003217524E+03  0.00000000000E+00 0.  1.
<mgrwt>
<rscale>  3 0.26579442E+03</rscale>
<asrwt>0</asrwt>
<pdfrwt beam="1">  1       21 0.72228709E-01 0.26579442E+03</pdfrwt>
<pdfrwt beam="2">  1       21 0.20635862E-01 0.26579442E+03</pdfrwt>
<totfact> 0.36366044E+04</totfact>
</mgrwt>
</event>
<event>
 4    0  0.1495377E-001  0.2477040E+03  0.7546771E-02  0.1114764E+00
         21   -1    0    0  503  501  0.00000000000E+00  0.00000000000E+00  0.30308011003E+03  0.30308011003E+03  0.00000000000E+00 0. -1.
         21   -1    0    0  501  502 -0.00000000000E+00 -0.00000000000E+00 -0.18696121861E+03  0.18696121861E+03  0.00000000000E+00 0.  1.
         25    1    1    2    0    0  0.27320641437E+02  0.21209871870E+03  0.21426054437E+01  0.24771329129E+03  0.12500000000E+03 0.  0.
         21    1    1    2  503  502 -0.27320641437E+02 -0.21209871870E+03  0.11397628597E+03  0.24232803735E+03  0.00000000000E+00 0. -1.
<mgrwt>
<rscale>  3 0.24770402E+03</rscale>
<asrwt>0</asrwt>
<pdfrwt beam="1">  1       21 0.46627709E-01 0.24770402E+03</pdfrwt>
<pdfrwt beam="2">  1       21 0.28763264E-01 0.24770402E+03</pdfrwt>
<totfact> 0.49698445E+04</totfact>
</mgrwt>
</event>
<event>
 4    0  0.1495377E-001  0.2437438E+03  0.7546771E-02  0.1117324E+00
         21   -1    0    0  502  501  0.00000000000E+00  0.00000000000E+00  0.28251728063E+03  0.28251728063E+03  0.00000000000E+00 0.  1.
         21   -1    0    0  503  502 -0.00000000000E+00 -0.00000000000E+00 -0.19462820083E+03  0.19462820083E+03  0.00000000000E+00 0.  1.
         25    1    1    2    0    0 -0.32774814867E+01  0.20922550580E+03 -0.14524895326E+02  0.24417622068E+03  0.12500000000E+03 0.  0.
         21    1    1    2  503  501  0.32774814867E+01 -0.20922550580E+03  0.10241397513E+03  0.23296926077E+03  0.00000000000E+00 0.  1.
<mgrwt>
<rscale>  3 0.24374383E+03</rscale>
<asrwt>0</asrwt>
<pdfrwt beam="1">  1       21 0.43464197E-01 0.24374383E+03</pdfrwt>
<pdfrwt beam="2">  1       21 0.29942800E-01 0.24374383E+03</pdfrwt>
<totfact> 0.53203064E+04</totfact>
</mgrwt>
</event>
<event>
 4    0  0.1495377E-001  0.2532433E+03  0.7546771E-02  0.1111272E+00
         21   -1    0    0  502  501  0.00000000000E+00  0.00000000000E+00  0.23079079203E+03  0.23079079203E+03  0.00000000000E+00 0.  1.
         21   -1    0    0  503  502 -0.00000000000E+00 -0.00000000000E+00 -0.30451314552E+03  0.30451314552E+03  0.00000000000E+00 0.  1.
         25    1    1    2    0    0  0.19209241944E+03 -0.10773894189E+03 -0.15911960858E+03  0.29908397991E+03  0.12500000000E+03 0.  0.
         21    1    1    2  503  501 -0.19209241944E+03  0.10773894189E+03  0.85397255096E+02  0.23621995763E+03  0.00000000000E+00 0.  1.
<mgrwt>
<rscale>  3 0.25324332E+03</rscale>
<asrwt>0</asrwt>
<pdfrwt beam="1">  1       21 0.35506276E-01 0.25324332E+03</pdfrwt>
<pdfrwt beam="2">  1       21 0.46848176E-01 0.25324332E+03</pdfrwt>
<totfact> 0.32385945E+04</totfact>
</mgrwt>
</event>
<event>
 4    0  0.1495377E-001  0.2514835E+03  0.7546771E-02  0.1112371E+00
         21   -1    0    0  502  501  0.00000000000E+00  0.00000000000E+00  0.27390542041E+03  0.27390542041E+03  0.00000000000E+00 0.  1.
         21   -1    0    0  503  502 -0.00000000000E+00 -0.00000000000E+00 -0.26244676008E+03  0.26244676008E+03  0.00000000000E+00 0.  1.
         25    1    1    2    0    0 -0.16174286771E+03 -0.14648621756E+03 -0.12308717604E+03  0.27999003571E+03  0.12500000000E+03 0.  0.
         21    1    1    2  503  501  0.16174286771E+03  0.14648621756E+03  0.13454583637E+03  0.25636214478E+03  0.00000000000E+00 0.  1.
<mgrwt>
<rscale>  3 0.25148353E+03</rscale>
<asrwt>0</asrwt>
<pdfrwt beam="1">  1       21 0.42139295E-01 0.25148353E+03</pdfrwt>
<pdfrwt beam="2">  1       21 0.40376425E-01 0.25148353E+03</pdfrwt>
<totfact> 0.31115004E+04</totfact>
</mgrwt>
</event>
<event>
 4    0  0.1495377E-001  0.2428978E+03  0.7546771E-02  0.1117877E+00
         21   -1    0    0  502  501  0.00000000000E+00  0.00000000000E+00  0.39896095287E+02  0.39896095287E+02  0.00000000000E+00 0.  1.
         21   -1    0    0  503  502 -0.00000000000E+00 -0.00000000000E+00 -0.12773380618E+04  0.12773380618E+04  0.00000000000E+00 0.  1.
         25    1    1    2    0    0  0.20825721753E+03 -0.18089050871E+01 -0.69113976707E+03  0.73258004232E+03  0.12500000000E+03 0.  0.
         21    1    1    2  503  501 -0.20825721753E+03  0.18089050871E+01 -0.54630219942E+03  0.58465411474E+03  0.00000000000E+00 0.  1.
<mgrwt>
<rscale>  3 0.24289780E+03</rscale>
<asrwt>0</asrwt>
<pdfrwt beam="1">  1       21 0.61378616E-02 0.24289780E+03</pdfrwt>
<pdfrwt beam="2">  1       21 0.19651352E+00 0.24289780E+03</pdfrwt>
<totfact> 0.25937042E+04</totfact>
</mgrwt>
</event>
<event>
 4    0  0.1495377E-001  0.2437974E+03  0.7546771E-02  0.1117289E+00
         21   -1    0    0  502  501  0.00000000000E+00  0.00000000000E+00  0.11854758222E+03  0.11854758222E+03  0.00000000000E+00 0.  1.
         21   -1    0    0  503  502 -0.00000000000E+00 -0.00000000000E+00 -0.50643600787E+03  0.50643600787E+03  0.00000000000E+00 0.  1.
         25    1    1    2    0    0  0.19796428917E+03 -0.67987564088E+02 -0.32528900974E+03  0.40650966595E+03  0.12500000000E+03 0.  0.
         21    1    1    2  503  501 -0.19796428917E+03  0.67987564088E+02 -0.62599415914E+02  0.21847392414E+03  0.00000000000E+00 0.  1.
<mgrwt>
<rscale>  3 0.24379739E+03</rscale>
<asrwt>0</asrwt>
<pdfrwt beam="1">  1       21 0.18238089E-01 0.24379739E+03</pdfrwt>
<pdfrwt beam="2">  1       21 0.77913233E-01 0.24379739E+03</pdfrwt>
<totfact> 0.39016812E+04</totfact>
</mgrwt>
</event>
<event>
 4    0  0.1495377E-001  0.2443282E+03  0.7546771E-02  0.1116943E+00
         21   -1    0    0  502  501  0.00000000000E+00  0.00000000000E+00  0.53433447041E+03  0.53433447041E+03  0.00000000000E+00 0.  1.
         21   -1    0    0  503  502 -0.00000000000E+00 -0.00000000000E+00 -0.22183182497E+03  0.22183182497E+03  0.00000000000E+00 0. -1.
         25    1    1    2    0    0 -0.63888761874E+02  0.19997376932E+03 -0.12238042053E+03  0.27326406576E+03  0.12500000000E+03 0.  0.
         21    1    1    2  503  501  0.63888761874E+02 -0.19997376932E+03  0.43488306596E+03  0.48290222962E+03  0.00000000000E+00 0.  1.
<mgrwt>
<rscale>  3 0.24432823E+03</rscale>
<asrwt>0</asrwt>
<pdfrwt beam="1">  1       21 0.82205303E-01 0.24432823E+03</pdfrwt>
<pdfrwt beam="2">  1       21 0.34127973E-01 0.24432823E+03</pdfrwt>
<totfact> 0.10353982E+04</totfact>
</mgrwt>
</event>
<event>
 4    0  0.1495377E-001  0.2541382E+03  0.7546771E-02  0.1110717E+00
         21   -1    0    0  502  501  0.00000000000E+00  0.00000000000E+00  0.75740527169E+03  0.75740527169E+03  0.00000000000E+00 0.  1.
         21   -1    0    0  503  502 -0.00000000000E+00 -0.00000000000E+00 -0.15308669211E+04  0.15308669211E+04  0.00000000000E+00 0. -1.
         25    1    1    2    0    0  0.21483865173E+03  0.52967822074E+02 -0.15038138560E+04  0.15251368299E+04  0.12500000000E+03 0.  0.
         21    1    1    2  503  501 -0.21483865173E+03 -0.52967822074E+02  0.73035220658E+03  0.76313536290E+03  0.00000000000E+00 0.  1.
<mgrwt>
<rscale>  3 0.25413822E+03</rscale>
<asrwt>0</asrwt>
<pdfrwt beam="1">  1       21 0.11652389E+00 0.25413822E+03</pdfrwt>
<pdfrwt beam="2">  1       21 0.23551799E+00 0.25413822E+03</pdfrwt>
<totfact> 0.42144126E+01</totfact>
</mgrwt>
</event>
<event>
 4    0  0.1495377E-001  0.2590605E+03  0.7546771E-02  0.1107709E+00
         21   -1    0    0  503  501  0.00000000000E+00  0.00000000000E+00  0.69902490898E+02  0.69902490898E+02  0.00000000000E+00 0.  1.
         21   -1    0    0  501  502 -0.00000000000E+00 -0.00000000000E+00 -0.10007003583E+04  0.10007003583E+04  0.00000000000E+00 0.  1.
         25    1    1    2    0    0  0.13422401804E+03 -0.18295153382E+03 -0.70240099458E+03  0.74865179352E+03  0.12500000000E+03 0.  0.
         21    1    1    2  503  502 -0.13422401804E+03  0.18295153382E+03 -0.22839687284E+03  0.32195105570E+03  0.00000000000E+00 0.  1.
<mgrwt>
<rscale>  3 0.25906052E+03</rscale>
<asrwt>0</asrwt>
<pdfrwt beam="1">  1       21 0.10754228E-01 0.25906052E+03</pdfrwt>
<pdfrwt beam="2">  1       21 0.15395392E+00 0.25906052E+03</pdfrwt>
<totfact> 0.19118432E+04</totfact>
</mgrwt>
</event>
<event>
 4    0  0.1495377E-001  0.2618962E+03  0.7546771E-02  0.1106009E+00
         21   -1    0    0  502  501  0.00000000000E+00  0.00000000000E+00  0.23047982115E+03  0.23047982115E+03  0.00000000000E+00 0.  1.
         21   -1    0    0  503  502 -0.00000000000E+00 -0.00000000000E+00 -0.32865996807E+03  0.32865996807E+03  0.00000000000E+00 0.  1.
         25    1    1    2    0    0 -0.13416364154E+03  0.18698859968E+03 -0.17674763414E+03  0.31595782202E+03  0.12500000000E+03 0.  0.
         21    1    1    2  503  501  0.13416364154E+03 -0.18698859968E+03  0.78567487222E+02  0.24318196720E+03  0.00000000000E+00 0.  1.
<mgrwt>
<rscale>  3 0.26189620E+03</rscale>
<asrwt>0</asrwt>
<pdfrwt beam="1">  1       21 0.35458434E-01 0.26189620E+03</pdfrwt>
<pdfrwt beam="2">  1       21 0.50563072E-01 0.26189620E+03</pdfrwt>
<totfact> 0.27579825E+04</totfact>
</mgrwt>
</event>
<event>
 4    0  0.1495377E-001  0.3066498E+03  0.7546771E-02  0.1081963E+00
         21   -1    0    0  503  501  0.00000000000E+00  0.00000000000E+00  0.78433456394E+03  0.78433456394E+03  0.00000000000E+00 0.  1.
         21   -1    0    0  501  502 -0.00000000000E+00 -0.00000000000E+00 -0.66760906987E+03  0.66760906987E+03  0.00000000000E+00 0. -1.
         25    1    1    2    0    0 -0.17318861896E+03 -0.22003365816E+03 -0.60473930468E+03  0.67804405099E+03  0.12500000000E+03 0.  0.
         21    1    1    2  503  502  0.17318861896E+03  0.22003365816E+03  0.72146479875E+03  0.77389958282E+03  0.00000000000E+00 0.  1.
<mgrwt>
<rscale>  3 0.30664981E+03</rscale>
<asrwt>0</asrwt>
<pdfrwt beam="1">  1       21 0.12066686E+00 0.30664981E+03</pdfrwt>
<pdfrwt beam="2">  1       21 0.10270909E+00 0.30664981E+03</pdfrwt>
<totfact> 0.36135542E+02</totfact>
</mgrwt>
</event>
<event>
 4    0  0.1495377E-001  0.2372651E+03  0.7546771E-02  0.1121628E+00
         21   -1    0    0  503  501  0.00000000000E+00  0.00000000000E+00  0.47615148445E+02  0.47615148445E+02  0.00000000000E+00 0. -1.
         21   -1    0    0  501  502 -0.00000000000E+00 -0.00000000000E+00 -0.12923409433E+04  0.12923409433E+04  0.00000000000E+00 0. -1.
         25    1    1    2    0    0  0.85193934252E+02  0.18278876363E+03 -0.35038546068E+03  0.42316038283E+03  0.12500000000E+03 0.  0.
         21    1    1    2  503  502 -0.85193934252E+02 -0.18278876363E+03 -0.89434033413E+03  0.91679570887E+03  0.00000000000E+00 0. -1.
<mgrwt>
<rscale>  3 0.23726512E+03</rscale>
<asrwt>0</asrwt>
<pdfrwt beam="1">  1       21 0.73254065E-02 0.23726512E+03</pdfrwt>
<pdfrwt beam="2">  1       21 0.19882171E+00 0.23726512E+03</pdfrwt>
<totfact> 0.18507268E+04</totfact>
</mgrwt>
</event>
<event>
 4    0  0.1495377E-001  0.2679770E+03  0.7546771E-02  0.1102443E+00
         21   -1    0    0  503  501  0.00000000000E+00  0.00000000000E+00  0.28385670955E+03  0.28385670955E+03  0.00000000000E+00 0.  1.
         21   -1    0    0  501  502 -0.00000000000E+00 -0.00000000000E+00 -0.23496799058E+03  0.23496799058E+03  0.00000000000E+00 0.  1.
         25    1    1    2    0    0 -0.19842502244E+03 -0.12966956355E+03 -0.28466012668E+02  0.26948469181E+03  0.12500000000E+03 0.  0.
         21    1    1    2  503  502  0.19842502244E+03  0.12966956355E+03  0.77354731644E+02  0.24934000832E+03  0.00000000000E+00 0.  1.
<mgrwt>
<rscale>  3 0.26797702E+03</rscale>
<asrwt>0</asrwt>
<pdfrwt beam="1">  1       21 0.43670263E-01 0.26797702E+03</pdfrwt>
<pdfrwt beam="2">  1       21 0.36148922E-01 0.26797702E+03</pdfrwt>
<totfact> 0.35913798E+04</totfact>
</mgrwt>
</event>
<event>
 4    0  0.1495377E-001  0.2474015E+03  0.7546771E-02  0.1114958E+00
         21   -1    0    0  503  501  0.00000000000E+00  0.00000000000E+00  0.76348857783E+03  0.76348857783E+03  0.00000000000E+00 0.  1.
         21   -1    0    0  501  502 -0.00000000000E+00 -0.00000000000E+00 -0.19878892523E+03  0.19878892523E+03  0.00000000000E+00 0.  1.
         25    1    1    2    0    0 -0.21227569534E+03 -0.22837569864E+02 -0.97947607935E+02  0.26608506033E+03  0.12500000000E+03 0.  0.
         21    1    1    2  503  502  0.21227569534E+03  0.22837569864E+02  0.66264726053E+03  0.69619244273E+03  0.00000000000E+00 0.  1.
<mgrwt>
<rscale>  3 0.24740155E+03</rscale>
<asrwt>0</asrwt>
<pdfrwt beam="1">  1       21 0.11745978E+00 0.24740155E+03</pdfrwt>
<pdfrwt beam="2">  1       21 0.30582912E-01 0.24740155E+03</pdfrwt>
<totfact> 0.54933506E+03</totfact>
</mgrwt>
</event>
<event>
 4    0  0.1495377E-001  0.3142037E+03  0.7546771E-02  0.1078348E+00
         21   -1    0    0  502  501  0.00000000000E+00  0.00000000000E+00  0.30159405307E+03  0.30159405307E+03  0.00000000000E+00 0.  1.
         21   -1    0    0  503  502 -0.00000000000E+00 -0.00000000000E+00 -0.15557408729E+04  0.15557408729E+04  0.00000000000E+00 0.  1.
         25    1    1    2    0    0  0.28750381875E+03  0.20987956211E+02 -0.14661897018E+04  0.14994786366E+04  0.12500000000E+03 0.  0.
         21    1    1    2  503  501 -0.28750381875E+03 -0.20987956211E+02  0.21204288189E+03  0.35785628940E+03  0.00000000000E+00 0.  1.
<mgrwt>
<rscale>  3 0.31420366E+03</rscale>
<asrwt>0</asrwt>
<pdfrwt beam="1">  1       21 0.46399086E-01 0.31420366E+03</pdfrwt>
<pdfrwt beam="2">  1       21 0.23934474E+00 0.31420366E+03</pdfrwt>
<totfact> 0.30106213E+02</totfact>
</mgrwt>
</event>
<event>
 4    0  0.1495377E-001  0.2944960E+03  0.7546771E-02  0.1088025E+00
         21   -1    0    0  503  501  0.00000000000E+00  0.00000000000E+00  0.38003850886E+03  0.38003850886E+03  0.00000000000E+00 0. -1.
         21   -1    0    0  501  502 -0.00000000000E+00 -0.00000000000E+00 -0.10498947198E+04  0.10498947198E+04  0.00000000000E+00 0. -1.
         25    1    1    2    0    0  0.25349165545E+03 -0.82733701871E+02 -0.97861650588E+03  0.10219677834E+04  0.12500000000E+03 0.  0.
         21    1    1    2  503  502 -0.25349165545E+03  0.82733701871E+02  0.30876029491E+03  0.40796544525E+03  0.00000000000E+00 0. -1.
<mgrwt>
<rscale>  3 0.29449598E+03</rscale>
<asrwt>0</asrwt>
<pdfrwt beam="1">  1       21 0.58467464E-01 0.29449598E+03</pdfrwt>
<pdfrwt beam="2">  1       21 0.16152226E+00 0.29449598E+03</pdfrwt>
<totfact> 0.61241241E+02</totfact>
</mgrwt>
</event>
<event>
 4    0  0.1495377E-001  0.2536890E+03  0.7546771E-02  0.1110995E+00
         21   -1    0    0  502  501  0.00000000000E+00  0.00000000000E+00  0.46322522861E+03  0.46322522861E+03  0.00000000000E+00 0. -1.
         21   -1    0    0  503  502 -0.00000000000E+00 -0.00000000000E+00 -0.24514404728E+03  0.24514404728E+03  0.00000000000E+00 0. -1.
         25    1    1    2    0    0 -0.21727282071E+03  0.39059562151E+02 -0.13846341239E+03  0.28901599365E+03  0.12500000000E+03 0.  0.
         21    1    1    2  503  501  0.21727282071E+03 -0.39059562151E+02  0.35654459372E+03  0.41935328224E+03  0.00000000000E+00 0. -1.
<mgrwt>
<rscale>  3 0.25368904E+03</rscale>
<asrwt>0</asrwt>
<pdfrwt beam="1">  1       21 0.71265420E-01 0.25368904E+03</pdfrwt>
<pdfrwt beam="2">  1       21 0.37714469E-01 0.25368904E+03</pdfrwt>
<totfact> 0.11639419E+04</totfact>
</mgrwt>
</event>
<event>
 4    0  0.1495377E-001  0.2441371E+03  0.7546771E-02  0.1117067E+00
         21   -1    0    0  503  501  0.00000000000E+00  0.00000000000E+00  0.93560252681E+02  0.93560252681E+02  0.00000000000E+00 0. -1.
         21   -1    0    0  501  502 -0.00000000000E+00 -0.00000000000E+00 -0.61246059936E+03  0.61246059936E+03  0.00000000000E+00 0. -1.
         25    1    1    2    0    0 -0.18274527729E+03 -0.10286937492E+03 -0.38923131050E+03  0.45946050727E+03  0.12500000000E+03 0.  0.
         21    1    1    2  503  502  0.18274527729E+03  0.10286937492E+03 -0.12966903619E+03  0.24656034478E+03  0.00000000000E+00 0. -1.
<mgrwt>
<rscale>  3 0.24413714E+03</rscale>
<asrwt>0</asrwt>
<pdfrwt beam="1">  1       21 0.14393885E-01 0.24413714E+03</pdfrwt>
<pdfrwt beam="2">  1       21 0.94224708E-01 0.24413714E+03</pdfrwt>
<totfact> 0.38919679E+04</totfact>
</mgrwt>
</event>
<event>
 4    0  0.1495377E-001  0.3144273E+03  0.7546771E-02  0.1078243E+00
         21   -1    0    0  503  501  0.00000000000E+00  0.00000000000E+00  0.13573159172E+04  0.13573159172E+04  0.00000000000E+00 0.  1.
         21   -1    0    0  501  502 -0.00000000000E+00 -0.00000000000E+00 -0.72679567241E+02  0.72679567241E+02  0.00000000000E+00 0.  1.
         25    1    1    2    0    0 -0.15119844892E+03  0.24572047227E+03  0.46732402247E+03  0.56325506072E+03  0.12500000000E+03 0.  0.
         21    1    1    2  503  502  0.15119844892E+03 -0.24572047227E+03  0.81731232745E+03  0.86674042369E+03  0.00000000000E+00 0.  1.
<mgrwt>
<rscale>  3 0.31442729E+03</rscale>
<asrwt>0</asrwt>
<pdfrwt beam="1">  1       21 0.20881782E+00 0.31442729E+03</pdfrwt>
<pdfrwt beam="2">  1       21 0.11181473E-01 0.31442729E+03</pdfrwt>
<totfact> 0.72093117E+03</totfact>
</mgrwt>
</event>
<event>
 4    0  0.1495377E-001  0.2553060E+03  0.7546771E-02  0.1109997E+00
         21   -1    0    0  502  501  0.00000000000E+00  0.00000000000E+00  0.84691666381E+03  0.84691666381E+03  0.00000000000E+00 0.  1.
         21   -1    0    0  503  502 -0.00000000000E+00 -0.00000000000E+00 -0.67623501831E+02  0.67623501831E+02  0.00000000000E+00 0.  1.
         25    1    1    2    0    0 -0.38048783381E+02 -0.21933642547E+03  0.39136669729E+03  0.46727836372E+03  0.12500000000E+03 0.  0.
         21    1    1    2  503  501  0.38048783381E+02  0.21933642547E+03  0.38792646469E+03  0.44726180192E+03  0.00000000000E+00 0.  1.
<mgrwt>
<rscale>  3 0.25530605E+03</rscale>
<asrwt>0</asrwt>
<pdfrwt beam="1">  1       21 0.13029486E+00 0.25530605E+03</pdfrwt>
<pdfrwt beam="2">  1       21 0.10403616E-01 0.25530605E+03</pdfrwt>
<totfact> 0.31443658E+04</totfact>
</mgrwt>
</event>
<event>
 4    0  0.1495377E-001  0.2558196E+03  0.7546771E-02  0.1109681E+00
         21   -1    0    0  503  501  0.00000000000E+00  0.00000000000E+00  0.83954654814E+03  0.83954654814E+03  0.00000000000E+00 0.  1.
         21   -1    0    0  501  502 -0.00000000000E+00 -0.00000000000E+00 -0.29048539786E+03  0.29048539786E+03  0.00000000000E+00 0. -1.
         25    1    1    2    0    0 -0.21965528020E+03  0.39626273004E+02 -0.21491781848E+03  0.33411577684E+03  0.12500000000E+03 0.  0.
         21    1    1    2  503  502  0.21965528020E+03 -0.39626273004E+02  0.76397896875E+03  0.79591616916E+03  0.00000000000E+00 0.  1.
<mgrwt>
<rscale>  3 0.25581963E+03</rscale>
<asrwt>0</asrwt>
<pdfrwt beam="1">  1       21 0.12916101E+00 0.25581963E+03</pdfrwt>
<pdfrwt beam="2">  1       21 0.44690062E-01 0.25581963E+03</pdfrwt>
<totfact> 0.20046326E+03</totfact>
</mgrwt>
</event>
<event>
 4    0  0.1495377E-001  0.2969065E+03  0.7546771E-02  0.1086797E+00
         21   -1    0    0  502  501  0.00000000000E+00  0.00000000000E+00  0.71679568391E+03  0.71679568391E+03  0.00000000000E+00 0. -1.
         21   -1    0    0  503  502 -0.00000000000E+00 -0.00000000000E+00 -0.11932707725E+03  0.11932707725E+03  0.00000000000E+00 0. -1.
         25    1    1    2    0    0  0.25335993970E+03  0.91308462479E+02  0.20762066489E+03  0.36229799179E+03  0.12500000000E+03 0.  0.
         21    1    1    2  503  501 -0.25335993970E+03 -0.91308462479E+02  0.38984794177E+03  0.47382476937E+03  0.00000000000E+00 0. -1.
<mgrwt>
<rscale>  3 0.29690654E+03</rscale>
<asrwt>0</asrwt>
<pdfrwt beam="1">  1       21 0.11027626E+00 0.29690654E+03</pdfrwt>
<pdfrwt beam="2">  1       21 0.18358012E-01 0.29690654E+03</pdfrwt>
<totfact> 0.16615633E+04</totfact>
</mgrwt>
</event>
<event>
 4    0  0.1495377E-001  0.2425624E+03  0.7546771E-02  0.1118098E+00
         21   -1    0    0  503  501  0.00000000000E+00  0.00000000000E+00  0.95520287046E+02  0.95520287046E+02  0.00000000000E+00 0. -1.
         21   -1    0    0  501  502 -0.00000000000E+00 -0.00000000000E+00 -0.72821692961E+03  0.72821692961E+03  0.00000000000E+00 0.  1.
         25    1    1    2    0    0  0.56576230136E+02 -0.20002658805E+03 -0.54797727727E+03  0.59926254860E+03  0.12500000000E+03 0.  0.
         21    1    1    2  503  502 -0.56576230136E+02  0.20002658805E+03 -0.84719365291E+02  0.22447466806E+03  0.00000000000E+00 0. -1.
<mgrwt>
<rscale>  3 0.24256237E+03</rscale>
<asrwt>0</asrwt>
<pdfrwt beam="1">  1       21 0.14695428E-01 0.24256237E+03</pdfrwt>
<pdfrwt beam="2">  1       21 0.11203338E+00 0.24256237E+03</pdfrwt>
<totfact> 0.24739049E+04</totfact>
</mgrwt>
</event>
<event>
 4    0  0.1495377E-001  0.2632267E+03  0.7546771E-02  0.1105220E+00
         21   -1    0    0  502  501  0.00000000000E+00  0.00000000000E+00  0.15982066408E+04  0.15982066408E+04  0.00000000000E+00 0. -1.
         21   -1    0    0  503  502 -0.00000000000E+00 -0.00000000000E+00 -0.45508998199E+02  0.45508998199E+02  0.00000000000E+00 0.  1.
         25    1    1    2    0    0  0.22587051509E+03  0.51437249130E+02  0.49171737674E+03  0.55774031482E+03  0.12500000000E+03 0.  0.
         21    1    1    2  503  501 -0.22587051509E+03 -0.51437249130E+02  0.10609802659E+04  0.10859753242E+04  0.00000000000E+00 0. -1.
<mgrwt>
<rscale>  3 0.26322667E+03</rscale>
<asrwt>0</asrwt>
<pdfrwt beam="1">  1       21 0.24587790E+00 0.26322667E+03</pdfrwt>
<pdfrwt beam="2">  1       21 0.70013856E-02 0.26322667E+03</pdfrwt>
<totfact> 0.10036444E+04</totfact>
</mgrwt>
</event>
<event>
 4    0  0.1495377E-001  0.2467285E+03  0.7546771E-02  0.1115390E+00
         21   -1    0    0  503  501  0.00000000000E+00  0.00000000000E+00  0.41929259579E+03  0.41929259579E+03  0.00000000000E+00 0. -1.
         21   -1    0    0  501  502 -0.00000000000E+00 -0.00000000000E+00 -0.29515570589E+03  0.29515570589E+03  0.00000000000E+00 0. -1.
         25    1    1    2    0    0  0.14242488959E+03  0.15800350235E+03 -0.20619818701E+03  0.32154727219E+03  0.12500000000E+03 0.  0.
         21    1    1    2  503  502 -0.14242488959E+03 -0.15800350235E+03  0.33033507692E+03  0.39290102949E+03  0.00000000000E+00 0. -1.
<mgrwt>
<rscale>  3 0.24672851E+03</rscale>
<asrwt>0</asrwt>
<pdfrwt beam="1">  1       21 0.64506554E-01 0.24672851E+03</pdfrwt>
<pdfrwt beam="2">  1       21 0.45408570E-01 0.24672851E+03</pdfrwt>
<totfact> 0.99628245E+03</totfact>
</mgrwt>
</event>
<event>
 4    0  0.1495377E-001  0.3244605E+03  0.7546771E-02  0.1073615E+00
         21   -1    0    0  502  501  0.00000000000E+00  0.00000000000E+00  0.99454467765E+03  0.99454467765E+03  0.00000000000E+00 0. -1.
         21   -1    0    0  503  502 -0.00000000000E+00 -0.00000000000E+00 -0.15878691047E+03  0.15878691047E+03  0.00000000000E+00 0. -1.
         25    1    1    2    0    0 -0.11798099922E+03 -0.27519101911E+03  0.71123132751E+02  0.33216428644E+03  0.12500000000E+03 0.  0.
         21    1    1    2  503  501  0.11798099922E+03  0.27519101911E+03  0.76463463443E+03  0.82116730168E+03  0.00000000000E+00 0. -1.
<mgrwt>
<rscale>  3 0.32446050E+03</rscale>
<asrwt>0</asrwt>
<pdfrwt beam="1">  1       21 0.15300687E+00 0.32446050E+03</pdfrwt>
<pdfrwt beam="2">  1       21 0.24428756E-01 0.32446050E+03</pdfrwt>
<totfact> 0.41086249E+03</totfact>
</mgrwt>
</event>
<event>
 4    0  0.1495377E-001  0.4775680E+03  0.7546771E-02  0.1019806E+00
         21   -1    0    0  503  501  0.00000000000E+00  0.00000000000E+00  0.72375220014E+03  0.72375220014E+03  0.00000000000E+00 0.  1.
         21   -1    0    0  501  502 -0.00000000000E+00 -0.00000000000E+00 -0.31184781494E+03  0.31184781494E+03  0.00000000000E+00 0.  1.
         25    1    1    2    0    0 -0.46062413669E+03  0.16481007204E+02  0.12861655114E+03  0.49458410420E+03  0.12500000000E+03 0.  0.
         21    1    1    2  503  502  0.46062413669E+03 -0.16481007204E+02  0.28328783407E+03  0.54101591088E+03  0.00000000000E+00 0.  1.
<mgrwt>
<rscale>  3 0.47756803E+03</rscale>
<asrwt>0</asrwt>
<pdfrwt beam="1">  1       21 0.11134649E+00 0.47756803E+03</pdfrwt>
<pdfrwt beam="2">  1       21 0.47976587E-01 0.47756803E+03</pdfrwt>
<totfact> 0.22512803E+03</totfact>
</mgrwt>
</event>
<event>
 4    0  0.1495377E-001  0.3561981E+03  0.7546771E-02  0.1060099E+00
         21   -1    0    0  502  501  0.00000000000E+00  0.00000000000E+00  0.13675991730E+04  0.13675991730E+04  0.00000000000E+00 0.  1.
         21   -1    0    0  503  502 -0.00000000000E+00 -0.00000000000E+00 -0.18537242581E+03  0.18537242581E+03  0.00000000000E+00 0.  1.
         25    1    1    2    0    0 -0.18398489035E+03  0.27821153244E+03  0.34620591416E+02  0.35787662959E+03  0.12500000000E+03 0.  0.
         21    1    1    2  503  501  0.18398489035E+03 -0.27821153244E+03  0.11476061558E+04  0.11950949692E+04  0.00000000000E+00 0.  1.
<mgrwt>
<rscale>  3 0.35619811E+03</rscale>
<asrwt>0</asrwt>
<pdfrwt beam="1">  1       21 0.21039987E+00 0.35619811E+03</pdfrwt>
<pdfrwt beam="2">  1       21 0.28518836E-01 0.35619811E+03</pdfrwt>
<totfact> 0.11880067E+03</totfact>
</mgrwt>
</event>
<event>
 4    0  0.1495377E-001  0.2726541E+03  0.7546771E-02  0.1099770E+00
         21   -1    0    0  502  501  0.00000000000E+00  0.00000000000E+00  0.33646889970E+02  0.33646889970E+02  0.00000000000E+00 0.  1.
         21   -1    0    0  503  502 -0.00000000000E+00 -0.00000000000E+00 -0.19921803168E+04  0.19921803168E+04  0.00000000000E+00 0.  1.
         25    1    1    2    0    0 -0.13799799126E+03  0.19917777923E+03 -0.11420812029E+04  0.11741761824E+04  0.12500000000E+03 0.  0.
         21    1    1    2  503  501  0.13799799126E+03 -0.19917777923E+03 -0.81645222401E+03  0.85165102444E+03  0.00000000000E+00 0.  1.
<mgrwt>
<rscale>  3 0.27265405E+03</rscale>
<asrwt>0</asrwt>
<pdfrwt beam="1">  1       21 0.51764444E-02 0.27265405E+03</pdfrwt>
<pdfrwt beam="2">  1       21 0.30648929E+00 0.27265405E+03</pdfrwt>
<totfact> 0.73622672E+03</totfact>
</mgrwt>
</event>
<event>
 4    0  0.1495377E-001  0.2648503E+03  0.7546771E-02  0.1104264E+00
         21   -1    0    0  503  501  0.00000000000E+00  0.00000000000E+00  0.44232370008E+03  0.44232370008E+03  0.00000000000E+00 0.  1.
         21   -1    0    0  501  502 -0.00000000000E+00 -0.00000000000E+00 -0.19514361387E+03  0.19514361387E+03  0.00000000000E+00 0.  1.
         25    1    1    2    0    0 -0.23194035775E+03  0.26913618096E+02 -0.39445552077E+02  0.26777158918E+03  0.12500000000E+03 0.  0.
         21    1    1    2  503  502  0.23194035775E+03 -0.26913618096E+02  0.28662563828E+03  0.36969572477E+03  0.00000000000E+00 0.  1.
<mgrwt>
<rscale>  3 0.26485028E+03</rscale>
<asrwt>0</asrwt>
<pdfrwt beam="1">  1       21 0.68049800E-01 0.26485028E+03</pdfrwt>
<pdfrwt beam="2">  1       21 0.30022095E-01 0.26485028E+03</pdfrwt>
<totfact> 0.20192544E+04</totfact>
</mgrwt>
</event>
<event>
 4    0  0.1495377E-001  0.2600017E+03  0.7546771E-02  0.1107142E+00
         21   -1    0    0  503  501  0.00000000000E+00  0.00000000000E+00  0.97228952078E+02  0.97228952078E+02  0.00000000000E+00 0. -1.
         21   -1    0    0  501  502 -0.00000000000E+00 -0.00000000000E+00 -0.61324080421E+03  0.61324080421E+03  0.00000000000E+00 0. -1.
         25    1    1    2    0    0 -0.18837285173E+03 -0.12841950519E+03 -0.28888356629E+03  0.38865745259E+03  0.12500000000E+03 0.  0.
         21    1    1    2  503  502  0.18837285173E+03  0.12841950519E+03 -0.22712828584E+03  0.32181230370E+03  0.00000000000E+00 0. -1.
<mgrwt>
<rscale>  3 0.26000173E+03</rscale>
<asrwt>0</asrwt>
<pdfrwt beam="1">  1       21 0.14958300E-01 0.26000173E+03</pdfrwt>
<pdfrwt beam="2">  1       21 0.94344740E-01 0.26000173E+03</pdfrwt>
<totfact> 0.35919560E+04</totfact>
</mgrwt>
</event>
<event>
 4    0  0.1495377E-001  0.3050764E+03  0.7546771E-02  0.1082730E+00
         21   -1    0    0  502  501  0.00000000000E+00  0.00000000000E+00  0.16376630680E+03  0.16376630680E+03  0.00000000000E+00 0.  1.
         21   -1    0    0  503  502 -0.00000000000E+00 -0.00000000000E+00 -0.12997512720E+04  0.12997512720E+04  0.00000000000E+00 0. -1.
         25    1    1    2    0    0 -0.24519918697E+03 -0.13162043342E+03 -0.11451336767E+04  0.11850749838E+04  0.12500000000E+03 0.  0.
         21    1    1    2  503  501  0.24519918697E+03  0.13162043342E+03  0.91487114759E+01  0.27844259499E+03  0.00000000000E+00 0.  1.
<mgrwt>
<rscale>  3 0.30507635E+03</rscale>
<asrwt>0</asrwt>
<pdfrwt beam="1">  1       21 0.25194816E-01 0.30507635E+03</pdfrwt>
<pdfrwt beam="2">  1       21 0.19996173E+00 0.30507635E+03</pdfrwt>
<totfact> 0.18255368E+03</totfact>
</mgrwt>
</event>
<event>
 4    0  0.1495377E-001  0.2484961E+03  0.7546771E-02  0.1114259E+00
         21   -1    0    0  502  501  0.00000000000E+00  0.00000000000E+00  0.26232534082E+03  0.26232534082E+03  0.00000000000E+00 0. -1.
         21   -1    0    0  503  502 -0.00000000000E+00 -0.00000000000E+00 -0.67858722597E+03  0.67858722597E+03  0.00000000000E+00 0. -1.
         25    1    1    2    0    0  0.39756223704E+02  0.21105633484E+03 -0.60560043690E+03  0.65460081192E+03  0.12500000000E+03 0.  0.
         21    1    1    2  503  501 -0.39756223704E+02 -0.21105633484E+03  0.18933855175E+03  0.28631175487E+03  0.00000000000E+00 0. -1.
<mgrwt>
<rscale>  3 0.24849614E+03</rscale>
<asrwt>0</asrwt>
<pdfrwt beam="1">  1       21 0.40357745E-01 0.24849614E+03</pdfrwt>
<pdfrwt beam="2">  1       21 0.10439803E+00 0.24849614E+03</pdfrwt>
<totfact> 0.42055554E+03</totfact>
</mgrwt>
</event>
<event>
 4    0  0.1495377E-001  0.2839642E+03  0.7546771E-02  0.1093543E+00
         21   -1    0    0  502  501  0.00000000000E+00  0.00000000000E+00  0.11346126079E+03  0.11346126079E+03  0.00000000000E+00 0. -1.
         21   -1    0    0  503  502 -0.00000000000E+00 -0.00000000000E+00 -0.83977638746E+03  0.83977638746E+03  0.00000000000E+00 0. -1.
         25    1    1    2    0    0  0.97415762939E+02 -0.23562858005E+03 -0.61026760299E+03  0.67309895697E+03  0.12500000000E+03 0.  0.
         21    1    1    2  503  501 -0.97415762939E+02  0.23562858005E+03 -0.11604752367E+03  0.28013869129E+03  0.00000000000E+00 0. -1.
<mgrwt>
<rscale>  3 0.28396419E+03</rscale>
<asrwt>0</asrwt>
<pdfrwt beam="1">  1       21 0.17455578E-01 0.28396419E+03</pdfrwt>
<pdfrwt beam="2">  1       21 0.12919637E+00 0.28396419E+03</pdfrwt>
<totfact> 0.12355626E+04</totfact>
</mgrwt>
</event>
<event>
 4    0  0.1495377E-001  0.3363655E+03  0.7546771E-02  0.1068355E+00
         21   -1    0    0  502  501  0.00000000000E+00  0.00000000000E+00  0.11636075803E+04  0.11636075803E+04  0.00000000000E+00 0. -1.
         21   -1    0    0  503  502 -0.00000000000E+00 -0.00000000000E+00 -0.12411527752E+03  0.12411527752E+03  0.00000000000E+00 0. -1.
         25    1    1    2    0    0  0.14199318359E+03  0.27812706172E+03  0.19836935168E+03  0.39050240247E+03  0.12500000000E+03 0.  0.
         21    1    1    2  503  501 -0.14199318359E+03 -0.27812706172E+03  0.84112295105E+03  0.89722045531E+03  0.00000000000E+00 0. -1.
<mgrwt>
<rscale>  3 0.33636547E+03</rscale>
<asrwt>0</asrwt>
<pdfrwt beam="1">  1       21 0.17901654E+00 0.33636547E+03</pdfrwt>
<pdfrwt beam="2">  1       21 0.19094659E-01 0.33636547E+03</pdfrwt>
<totfact> 0.42132156E+03</totfact>
</mgrwt>
</event>
<event>
 4    0  0.1495377E-001  0.2590689E+03  0.7546771E-02  0.1107704E+00
         21   -1    0    0  502  501  0.00000000000E+00  0.00000000000E+00  0.19808971446E+03  0.19808971446E+03  0.00000000000E+00 0. -1.
         21   -1    0    0  503  502 -0.00000000000E+00 -0.00000000000E+00 -0.48495276443E+03  0.48495276443E+03  0.00000000000E+00 0. -1.
         25    1    1    2    0    0 -0.22169485376E+03  0.48405350638E+02 -0.36098337648E+03  0.44432610125E+03  0.12500000000E+03 0.  0.
         21    1    1    2  503  501  0.22169485376E+03 -0.48405350638E+02  0.74120326508E+02  0.23871637764E+03  0.00000000000E+00 0. -1.
<mgrwt>
<rscale>  3 0.25906888E+03</rscale>
<asrwt>0</asrwt>
<pdfrwt beam="1">  1       21 0.30475341E-01 0.25906888E+03</pdfrwt>
<pdfrwt beam="2">  1       21 0.74608117E-01 0.25906888E+03</pdfrwt>
<totfact> 0.16013503E+04</totfact>
</mgrwt>
</event>
<event>
 4    0  0.1495377E-001  0.2499138E+03  0.7546771E-02  0.1113359E+00
         21   -1    0    0  503  501  0.00000000000E+00  0.00000000000E+00  0.19655083860E+03  0.19655083860E+03  0.00000000000E+00 0. -1.
         21   -1    0    0  501  502 -0.00000000000E+00 -0.00000000000E+00 -0.30718875198E+03  0.30718875198E+03  0.00000000000E+00 0. -1.
         25    1    1    2    0    0 -0.21441296036E+03  0.29308112582E+02 -0.13820718319E+03  0.28558380297E+03  0.12500000000E+03 0.  0.
         21    1    1    2  503  502  0.21441296036E+03 -0.29308112582E+02  0.27569269805E+02  0.21815578761E+03  0.00000000000E+00 0. -1.
<mgrwt>
<rscale>  3 0.24991375E+03</rscale>
<asrwt>0</asrwt>
<pdfrwt beam="1">  1       21 0.30238591E-01 0.24991375E+03</pdfrwt>
<pdfrwt beam="2">  1       21 0.47259808E-01 0.24991375E+03</pdfrwt>
<totfact> 0.43780715E+04</totfact>
</mgrwt>
</event>
<event>
 4    0  0.1495377E-001  0.3539573E+03  0.7546771E-02  0.1061002E+00
         21   -1    0    0  502  501  0.00000000000E+00  0.00000000000E+00  0.93261620922E+03  0.93261620922E+03  0.00000000000E+00 0.  1.
         21   -1    0    0  503  502 -0.00000000000E+00 -0.00000000000E+00 -0.16726097747E+03  0.16726097747E+03  0.00000000000E+00 0.  1.
         25    1    1    2    0    0  0.10274129007E+03 -0.31480943351E+03  0.11864374228E+03  0.37331232191E+03  0.12500000000E+03 0.  0.
         21    1    1    2  503  501 -0.10274129007E+03  0.31480943351E+03  0.64671148948E+03  0.72656486478E+03  0.00000000000E+00 0.  1.
<mgrwt>
<rscale>  3 0.35395727E+03</rscale>
<asrwt>0</asrwt>
<pdfrwt beam="1">  1       21 0.14347941E+00 0.35395727E+03</pdfrwt>
<pdfrwt beam="2">  1       21 0.25732459E-01 0.35395727E+03</pdfrwt>
<totfact> 0.43505643E+03</totfact>
</mgrwt>
</event>
<event>
 4    0  0.1495377E-001  0.2602972E+03  0.7546771E-02  0.1106965E+00
         21   -1    0    0  502  501  0.00000000000E+00  0.00000000000E+00  0.92846278156E+02  0.92846278156E+02  0.00000000000E+00 0. -1.
         21   -1    0    0  503  502 -0.00000000000E+00 -0.00000000000E+00 -0.64874540501E+03  0.64874540501E+03  0.00000000000E+00 0. -1.
         25    1    1    2    0    0 -0.16596027419E+03 -0.15680184753E+03 -0.26071114678E+03  0.36840865089E+03  0.12500000000E+03 0.  0.
         21    1    1    2  503  501  0.16596027419E+03  0.15680184753E+03 -0.29518798008E+03  0.37318303228E+03  0.00000000000E+00 0. -1.
<mgrwt>
<rscale>  3 0.26029720E+03</rscale>
<asrwt>0</asrwt>
<pdfrwt beam="1">  1       21 0.14284043E-01 0.26029720E+03</pdfrwt>
<pdfrwt beam="2">  1       21 0.99806987E-01 0.26029720E+03</pdfrwt>
<totfact> 0.34192586E+04</totfact>
</mgrwt>
</event>
<event>
 4    0  0.1495377E-001  0.2761973E+03  0.7546771E-02  0.1097784E+00
         21   -1    0    0  502  501  0.00000000000E+00  0.00000000000E+00  0.13725237311E+04  0.13725237311E+04  0.00000000000E+00 0.  1.
         21   -1    0    0  503  502 -0.00000000000E+00 -0.00000000000E+00 -0.10860782502E+03  0.10860782502E+03  0.00000000000E+00 0. -1.
         25    1    1    2    0    0  0.26585531689E+02  0.24485334244E+03  0.10363790345E+03  0.29500129632E+03  0.12500000000E+03 0.  0.
         21    1    1    2  503  501 -0.26585531689E+02 -0.24485334244E+03  0.11602780027E+04  0.11861302598E+04  0.00000000000E+00 0.  1.
<mgrwt>
<rscale>  3 0.27619730E+03</rscale>
<asrwt>0</asrwt>
<pdfrwt beam="1">  1       21 0.21115749E+00 0.27619730E+03</pdfrwt>
<pdfrwt beam="2">  1       21 0.16708897E-01 0.27619730E+03</pdfrwt>
<totfact> 0.34260428E+03</totfact>
</mgrwt>
</event>
<event>
 4    0  0.1495377E-001  0.2498630E+03  0.7546771E-02  0.1113391E+00
         21   -1    0    0  503  501  0.00000000000E+00  0.00000000000E+00  0.21828036951E+03  0.21828036951E+03  0.00000000000E+00 0.  1.
         21   -1    0    0  501  502 -0.00000000000E+00 -0.00000000000E+00 -0.26287768769E+03  0.26287768769E+03  0.00000000000E+00 0.  1.
         25    1    1    2    0    0  0.19535115063E+03 -0.92975430611E+02  0.31448117066E+02  0.25183424472E+03  0.12500000000E+03 0.  0.
         21    1    1    2  503  502 -0.19535115063E+03  0.92975430611E+02 -0.76045435245E+02  0.22932381248E+03  0.00000000000E+00 0.  1.
<mgrwt>
<rscale>  3 0.24986297E+03</rscale>
<asrwt>0</asrwt>
<pdfrwt beam="1">  1       21 0.33581595E-01 0.24986297E+03</pdfrwt>
<pdfrwt beam="2">  1       21 0.40442721E-01 0.24986297E+03</pdfrwt>
<totfact> 0.49047675E+04</totfact>
</mgrwt>
</event>
<event>
 4    0  0.1495377E-001  0.3299841E+03  0.7546771E-02  0.1071144E+00
         21   -1    0    0  502  501  0.00000000000E+00  0.00000000000E+00  0.89610824797E+02  0.89610824797E+02  0.00000000000E+00 0.  1.
         21   -1    0    0  503  502 -0.00000000000E+00 -0.00000000000E+00 -0.11315391010E+04  0.11315391010E+04  0.00000000000E+00 0.  1.
         25    1    1    2    0    0 -0.25843195564E+03 -0.16271881971E+03 -0.49939164993E+03  0.59856621188E+03  0.12500000000E+03 0.  0.
         21    1    1    2  503  501  0.25843195564E+03  0.16271881971E+03 -0.54253662627E+03  0.62258371391E+03  0.00000000000E+00 0.  1.
<mgrwt>
<rscale>  3 0.32998408E+03</rscale>
<asrwt>0</asrwt>
<pdfrwt beam="1">  1       21 0.13786280E-01 0.32998408E+03</pdfrwt>
<pdfrwt beam="2">  1       21 0.17408294E+00 0.32998408E+03</pdfrwt>
<totfact> 0.83819664E+03</totfact>
</mgrwt>
</event>
<event>
 4    0  0.1495377E-001  0.2838176E+03  0.7546771E-02  0.1093622E+00
         21   -1    0    0  503  501  0.00000000000E+00  0.00000000000E+00  0.17808264431E+03  0.17808264431E+03  0.00000000000E+00 0. -1.
         21   -1    0    0  501  502 -0.00000000000E+00 -0.00000000000E+00 -0.43580971832E+03  0.43580971832E+03  0.00000000000E+00 0. -1.
         25    1    1    2    0    0  0.11223209340E+02  0.25456134048E+03 -0.21377737108E+03  0.35532126432E+03  0.12500000000E+03 0.  0.
         21    1    1    2  503  502 -0.11223209340E+02 -0.25456134048E+03 -0.43949702921E+02  0.25857109831E+03  0.00000000000E+00 0. -1.
<mgrwt>
<rscale>  3 0.28381761E+03</rscale>
<asrwt>0</asrwt>
<pdfrwt beam="1">  1       21 0.27397330E-01 0.28381761E+03</pdfrwt>
<pdfrwt beam="2">  1       21 0.67047649E-01 0.28381761E+03</pdfrwt>
<totfact> 0.24750238E+04</totfact>
</mgrwt>
</event>
<event>
 4    0  0.1495377E-001  0.2634963E+03  0.7546771E-02  0.1105061E+00
         21   -1    0    0  502  501  0.00000000000E+00  0.00000000000E+00  0.48499511363E+03  0.48499511363E+03  0.00000000000E+00 0. -1.
         21   -1    0    0  503  502 -0.00000000000E+00 -0.00000000000E+00 -0.17207457662E+03  0.17207457662E+03  0.00000000000E+00 0. -1.
         25    1    1    2    0    0  0.27444350486E+02  0.23033037711E+03 -0.49753690280E+01  0.26354322092E+03  0.12500000000E+03 0.  0.
         21    1    1    2  503  501 -0.27444350486E+02 -0.23033037711E+03  0.31789590604E+03  0.39352646934E+03  0.00000000000E+00 0. -1.
<mgrwt>
<rscale>  3 0.26349625E+03</rscale>
<asrwt>0</asrwt>
<pdfrwt beam="1">  1       21 0.74614633E-01 0.26349625E+03</pdfrwt>
<pdfrwt beam="2">  1       21 0.26473012E-01 0.26349625E+03</pdfrwt>
<totfact> 0.21027159E+04</totfact>
</mgrwt>
</event>
<event>
 4    0  0.1495377E-001  0.3448447E+03  0.7546771E-02  0.1064751E+00
         21   -1    0    0  503  501  0.00000000000E+00  0.00000000000E+00  0.73274751507E+03  0.73274751507E+03  0.00000000000E+00 0. -1.
         21   -1    0    0  501  502 -0.00000000000E+00 -0.00000000000E+00 -0.15339377185E+03  0.15339377185E+03  0.00000000000E+00 0. -1.
         25    1    1    2    0    0  0.13221250297E+03  0.29293804004E+03  0.34970807481E+03  0.49113499044E+03  0.12500000000E+03 0.  0.
         21    1    1    2  503  502 -0.13221250297E+03 -0.29293804004E+03  0.22964566841E+03  0.39500629648E+03  0.00000000000E+00 0. -1.
<mgrwt>
<rscale>  3 0.34484466E+03</rscale>
<asrwt>0</asrwt>
<pdfrwt beam="1">  1       21 0.11273038E+00 0.34484466E+03</pdfrwt>
<pdfrwt beam="2">  1       21 0.23599042E-01 0.34484466E+03</pdfrwt>
<totfact> 0.95778342E+03</totfact>
</mgrwt>
</event>
<event>
 4    0  0.1495377E-001  0.3357943E+03  0.7546771E-02  0.1068601E+00
         21   -1    0    0  503  501  0.00000000000E+00  0.00000000000E+00  0.52046853185E+02  0.52046853185E+02  0.00000000000E+00 0.  1.
         21   -1    0    0  501  502 -0.00000000000E+00 -0.00000000000E+00 -0.20293061691E+04  0.20293061691E+04  0.00000000000E+00 0. -1.
         25    1    1    2    0    0  0.30901301026E+03 -0.40543855584E+02 -0.93360207681E+03  0.99215456586E+03  0.12500000000E+03 0.  0.
         21    1    1    2  503  502 -0.30901301026E+03  0.40543855584E+02 -0.10436572391E+04  0.10891984564E+04  0.00000000000E+00 0.  1.
<mgrwt>
<rscale>  3 0.33579435E+03</rscale>
<asrwt>0</asrwt>
<pdfrwt beam="1">  1       21 0.80072081E-02 0.33579435E+03</pdfrwt>
<pdfrwt beam="2">  1       21 0.31220095E+00 0.33579435E+03</pdfrwt>
<totfact> 0.30482896E+03</totfact>
</mgrwt>
</event>
<event>
 4    0  0.1495377E-001  0.2542517E+03  0.7546771E-02  0.1110647E+00
         21   -1    0    0  502  501  0.00000000000E+00  0.00000000000E+00  0.20332869433E+03  0.20332869433E+03  0.00000000000E+00 0. -1.
         21   -1    0    0  503  502 -0.00000000000E+00 -0.00000000000E+00 -0.36205081459E+03  0.36205081459E+03  0.00000000000E+00 0. -1.
         25    1    1    2    0    0  0.18732605222E+03  0.11801635541E+03 -0.21938409649E+03  0.33581734883E+03  0.12500000000E+03 0.  0.
         21    1    1    2  503  501 -0.18732605222E+03 -0.11801635541E+03  0.60661976223E+02  0.22956216009E+03  0.00000000000E+00 0. -1.
<mgrwt>
<rscale>  3 0.25425167E+03</rscale>
<asrwt>0</asrwt>
<pdfrwt beam="1">  1       21 0.31281338E-01 0.25425167E+03</pdfrwt>
<pdfrwt beam="2">  1       21 0.55700125E-01 0.25425167E+03</pdfrwt>
<totfact> 0.28915324E+04</totfact>
</mgrwt>
</event>
<event>
 4    0  0.1495377E-001  0.2385343E+03  0.7546771E-02  0.1120773E+00
         21   -1    0    0  502  501  0.00000000000E+00  0.00000000000E+00  0.77126667540E+02  0.77126667540E+02  0.00000000000E+00 0. -1.
         21   -1    0    0  503  502 -0.00000000000E+00 -0.00000000000E+00 -0.10643033746E+04  0.10643033746E+04  0.00000000000E+00 0. -1.
         25    1    1    2    0    0  0.73865973892E+02  0.18925499679E+03 -0.87995535133E+03  0.91171270489E+03  0.12500000000E+03 0.  0.
         21    1    1    2  503  501 -0.73865973892E+02 -0.18925499679E+03 -0.10722135571E+03  0.22971733724E+03  0.00000000000E+00 0. -1.
<mgrwt>
<rscale>  3 0.23853435E+03</rscale>
<asrwt>0</asrwt>
<pdfrwt beam="1">  1       21 0.11865640E-01 0.23853435E+03</pdfrwt>
<pdfrwt beam="2">  1       21 0.16373900E+00 0.23853435E+03</pdfrwt>
<totfact> 0.13717803E+04</totfact>
</mgrwt>
</event>
<event>
 4    0  0.1495377E-001  0.2411056E+03  0.7546771E-02  0.1119059E+00
         21   -1    0    0  503  501  0.00000000000E+00  0.00000000000E+00  0.33671495982E+02  0.33671495982E+02  0.00000000000E+00 0. -1.
         21   -1    0    0  501  502 -0.00000000000E+00 -0.00000000000E+00 -0.15591646893E+04  0.15591646893E+04  0.00000000000E+00 0. -1.
         25    1    1    2    0    0  0.12459059140E+03 -0.16426833100E+03 -0.99226984633E+03  0.10211421781E+04  0.12500000000E+03 0.  0.
         21    1    1    2  503  502 -0.12459059140E+03  0.16426833100E+03 -0.53322334703E+03  0.57169400719E+03  0.00000000000E+00 0. -1.
<mgrwt>
<rscale>  3 0.24110558E+03</rscale>
<asrwt>0</asrwt>
<pdfrwt beam="1">  1       21 0.51802299E-02 0.24110558E+03</pdfrwt>
<pdfrwt beam="2">  1       21 0.23987150E+00 0.24110558E+03</pdfrwt>
<totfact> 0.18610653E+04</totfact>
</mgrwt>
</event>
<event>
 4    0  0.1495377E-001  0.4178079E+03  0.7546771E-02  0.1037782E+00
         21   -1    0    0  503  501  0.00000000000E+00  0.00000000000E+00  0.73033881544E+03  0.73033881544E+03  0.00000000000E+00 0. -1.
         21   -1    0    0  501  502 -0.00000000000E+00 -0.00000000000E+00 -0.45566743932E+03  0.45566743932E+03  0.00000000000E+00 0. -1.
         25    1    1    2    0    0  0.30444172787E+03 -0.25739796342E+03 -0.27997890180E+03  0.50294300144E+03  0.12500000000E+03 0.  0.
         21    1    1    2  503  502 -0.30444172787E+03  0.25739796342E+03  0.55465027792E+03  0.68306325332E+03  0.00000000000E+00 0. -1.
<mgrwt>
<rscale>  3 0.41780794E+03</rscale>
<asrwt>0</asrwt>
<pdfrwt beam="1">  1       21 0.11235982E+00 0.41780794E+03</pdfrwt>
<pdfrwt beam="2">  1       21 0.70102683E-01 0.41780794E+03</pdfrwt>
<totfact> 0.98616789E+02</totfact>
</mgrwt>
</event>
<event>
 4    0  0.1495377E-001  0.3048335E+03  0.7546771E-02  0.1082849E+00
         21   -1    0    0  503  501  0.00000000000E+00  0.00000000000E+00  0.36951301627E+03  0.36951301627E+03  0.00000000000E+00 0. -1.
         21   -1    0    0  501  502 -0.00000000000E+00 -0.00000000000E+00 -0.64092478104E+03  0.64092478104E+03  0.00000000000E+00 0.  1.
         25    1    1    2    0    0  0.20304331961E+03 -0.18992601635E+03 -0.54240223131E+03  0.62219262440E+03  0.12500000000E+03 0.  0.
         21    1    1    2  503  502 -0.20304331961E+03  0.18992601635E+03  0.27099046654E+03  0.38824517290E+03  0.00000000000E+00 0. -1.
<mgrwt>
<rscale>  3 0.30483353E+03</rscale>
<asrwt>0</asrwt>
<pdfrwt beam="1">  1       21 0.56848156E-01 0.30483353E+03</pdfrwt>
<pdfrwt beam="2">  1       21 0.98603812E-01 0.30483353E+03</pdfrwt>
<totfact> 0.22780767E+03</totfact>
</mgrwt>
</event>
<event>
 4    0  0.1495377E-001  0.3093811E+03  0.7546771E-02  0.1080643E+00
         21   -1    0    0  503  501  0.00000000000E+00  0.00000000000E+00  0.79346496051E+03  0.79346496051E+03  0.00000000000E+00 0. -1.
         21   -1    0    0  501  502 -0.00000000000E+00 -0.00000000000E+00 -0.12888260916E+03  0.12888260916E+03  0.00000000000E+00 0. -1.
         25    1    1    2    0    0  0.28115576624E+03 -0.32296608226E+02  0.51869240755E+03  0.60395235693E+03  0.12500000000E+03 0.  0.
         21    1    1    2  503  502 -0.28115576624E+03  0.32296608226E+02  0.14588994380E+03  0.31839521274E+03  0.00000000000E+00 0. -1.
<mgrwt>
<rscale>  3 0.30938105E+03</rscale>
<asrwt>0</asrwt>
<pdfrwt beam="1">  1       21 0.12207153E+00 0.30938105E+03</pdfrwt>
<pdfrwt beam="2">  1       21 0.19828094E-01 0.30938105E+03</pdfrwt>
<totfact> 0.11107286E+04</totfact>
</mgrwt>
</event>
<event>
 4    0  0.1495377E-001  0.2657681E+03  0.7546771E-02  0.1103726E+00
         21   -1    0    0  502  501  0.00000000000E+00  0.00000000000E+00  0.21028301971E+04  0.21028301971E+04  0.00000000000E+00 0. -1.
         21   -1    0    0  503  502 -0.00000000000E+00 -0.00000000000E+00 -0.32788260130E+02  0.32788260130E+02  0.00000000000E+00 0. -1.
         25    1    1    2    0    0  0.17013337990E+03  0.16143825261E+03  0.14176968703E+04  0.14423928357E+04  0.12500000000E+03 0.  0.
         21    1    1    2  503  501 -0.17013337990E+03 -0.16143825261E+03  0.65234506666E+03  0.69322562154E+03  0.00000000000E+00 0. -1.
<mgrwt>
<rscale>  3 0.26576809E+03</rscale>
<asrwt>0</asrwt>
<pdfrwt beam="1">  1       21 0.32351223E+00 0.26576809E+03</pdfrwt>
<pdfrwt beam="2">  1       21 0.50443494E-02 0.26576809E+03</pdfrwt>
<totfact> 0.61461331E+03</totfact>
</mgrwt>
</event>
<event>
 4    0  0.1495377E-001  0.2781835E+03  0.7546771E-02  0.1096685E+00
         21   -1    0    0  503  501  0.00000000000E+00  0.00000000000E+00  0.38982998710E+03  0.38982998710E+03  0.00000000000E+00 0. -1.
         21   -1    0    0  501  502 -0.00000000000E+00 -0.00000000000E+00 -0.61672204274E+03  0.61672204274E+03  0.00000000000E+00 0. -1.
         25    1    1    2    0    0  0.24819185904E+03 -0.12722867972E+02 -0.53961889980E+03  0.60710347330E+03  0.12500000000E+03 0.  0.
         21    1    1    2  503  502 -0.24819185904E+03  0.12722867972E+02  0.31272684416E+03  0.39944855654E+03  0.00000000000E+00 0. -1.
<mgrwt>
<rscale>  3 0.27818352E+03</rscale>
<asrwt>0</asrwt>
<pdfrwt beam="1">  1       21 0.59973844E-01 0.27818352E+03</pdfrwt>
<pdfrwt beam="2">  1       21 0.94880315E-01 0.27818352E+03</pdfrwt>
<totfact> 0.22592891E+03</totfact>
</mgrwt>
</event>
<event>
 4    0  0.1495377E-001  0.2688749E+03  0.7546771E-02  0.1101925E+00
         21   -1    0    0  503  501  0.00000000000E+00  0.00000000000E+00  0.68964460854E+02  0.68964460854E+02  0.00000000000E+00 0.  1.
         21   -1    0    0  501  502 -0.00000000000E+00 -0.00000000000E+00 -0.13138724860E+04  0.13138724860E+04  0.00000000000E+00 0.  1.
         25    1    1    2    0    0  0.14078655861E+03  0.19195800460E+03 -0.10217745908E+04  0.10565590589E+04  0.12500000000E+03 0.  0.
         21    1    1    2  503  502 -0.14078655861E+03 -0.19195800460E+03 -0.22313343431E+03  0.32627788789E+03  0.00000000000E+00 0.  1.
<mgrwt>
<rscale>  3 0.26887493E+03</rscale>
<asrwt>0</asrwt>
<pdfrwt beam="1">  1       21 0.10609917E-01 0.26887493E+03</pdfrwt>
<pdfrwt beam="2">  1       21 0.20213424E+00 0.26887493E+03</pdfrwt>
<totfact> 0.89852802E+03</totfact>
</mgrwt>
</event>
<event>
 4    0  0.1495377E-001  0.3515976E+03  0.7546771E-02  0.1061961E+00
         21   -1    0    0  503  501  0.00000000000E+00  0.00000000000E+00  0.28395339094E+02  0.28395339094E+02  0.00000000000E+00 0. -1.
         21   -1    0    0  501  502 -0.00000000000E+00 -0.00000000000E+00 -0.41134840971E+04  0.41134840971E+04  0.00000000000E+00 0. -1.
         25    1    1    2    0    0 -0.65782004774E+02 -0.32197607402E+03 -0.23141903132E+04  0.23407472461E+04  0.12500000000E+03 0.  0.
         21    1    1    2  503  502  0.65782004774E+02  0.32197607402E+03 -0.17708984448E+04  0.18011321901E+04  0.00000000000E+00 0. -1.
<mgrwt>
<rscale>  3 0.35159759E+03</rscale>
<asrwt>0</asrwt>
<pdfrwt beam="1">  1       21 0.43685138E-02 0.35159759E+03</pdfrwt>
<pdfrwt beam="2">  1       21 0.63284369E+00 0.35159759E+03</pdfrwt>
<totfact> 0.51747982E+01</totfact>
</mgrwt>
</event>
<event>
 4    0  0.1495377E-001  0.2388494E+03  0.7546771E-02  0.1120562E+00
         21   -1    0    0  503  501  0.00000000000E+00  0.00000000000E+00  0.48723221296E+03  0.48723221296E+03  0.00000000000E+00 0. -1.
         21   -1    0    0  501  502 -0.00000000000E+00 -0.00000000000E+00 -0.10814685089E+03  0.10814685089E+03  0.00000000000E+00 0. -1.
         25    1    1    2    0    0 -0.44833587733E+02 -0.19852957627E+03  0.12422457883E+03  0.26922256449E+03  0.12500000000E+03 0.  0.
         21    1    1    2  503  502  0.44833587733E+02  0.19852957627E+03  0.25486078324E+03  0.32615649936E+03  0.00000000000E+00 0. -1.
<mgrwt>
<rscale>  3 0.23884942E+03</rscale>
<asrwt>0</asrwt>
<pdfrwt beam="1">  1       21 0.74958801E-01 0.23884942E+03</pdfrwt>
<pdfrwt beam="2">  1       21 0.16637977E-01 0.23884942E+03</pdfrwt>
<totfact> 0.50573318E+04</totfact>
</mgrwt>
</event>
<event>
 4    0  0.1495377E-001  0.2533366E+03  0.7546771E-02  0.1111214E+00
         21   -1    0    0  503  501  0.00000000000E+00  0.00000000000E+00  0.69175736910E+03  0.69175736910E+03  0.00000000000E+00 0.  1.
         21   -1    0    0  501  502 -0.00000000000E+00 -0.00000000000E+00 -0.26338576155E+03  0.26338576155E+03  0.00000000000E+00 0.  1.
         25    1    1    2    0    0  0.18744002302E+03 -0.11584762935E+03 -0.17823598696E+03  0.30975393864E+03  0.12500000000E+03 0.  0.
         21    1    1    2  503  502 -0.18744002302E+03  0.11584762935E+03  0.60660759451E+03  0.64538919202E+03  0.00000000000E+00 0.  1.
<mgrwt>
<rscale>  3 0.25333661E+03</rscale>
<asrwt>0</asrwt>
<pdfrwt beam="1">  1       21 0.10642421E+00 0.25333661E+03</pdfrwt>
<pdfrwt beam="2">  1       21 0.40520887E-01 0.25333661E+03</pdfrwt>
<totfact> 0.39689929E+03</totfact>
</mgrwt>
</event>
<event>
 4    0  0.1495377E-001  0.2735855E+03  0.7546771E-02  0.1099245E+00
         21   -1    0    0  503  501  0.00000000000E+00  0.00000000000E+00  0.52507426132E+03  0.52507426132E+03  0.00000000000E+00 0. -1.
         21   -1    0    0  501  502 -0.00000000000E+00 -0.00000000000E+00 -0.55385059569E+03  0.55385059569E+03  0.00000000000E+00 0. -1.
         25    1    1    2    0    0  0.20930206731E+03  0.12416380641E+03 -0.48785512785E+03  0.55933141515E+03  0.12500000000E+03 0.  0.
         21    1    1    2  503  502 -0.20930206731E+03 -0.12416380641E+03  0.45907879348E+03  0.51959344186E+03  0.00000000000E+00 0. -1.
<mgrwt>
<rscale>  3 0.27358546E+03</rscale>
<asrwt>0</asrwt>
<pdfrwt beam="1">  1       21 0.80780656E-01 0.27358546E+03</pdfrwt>
<pdfrwt beam="2">  1       21 0.85207784E-01 0.27358546E+03</pdfrwt>
<totfact> 0.15022572E+03</totfact>
</mgrwt>
</event>
<event>
 4    0  0.1495377E-001  0.2712647E+03  0.7546771E-02  0.1100558E+00
         21   -1    0    0  502  501  0.00000000000E+00  0.00000000000E+00  0.12712862679E+03  0.12712862679E+03  0.00000000000E+00 0. -1.
         21   -1    0    0  503  502 -0.00000000000E+00 -0.00000000000E+00 -0.52949197806E+03  0.52949197806E+03  0.00000000000E+00 0. -1.
         25    1    1    2    0    0 -0.15959164662E+03 -0.18025001916E+03 -0.26606716576E+03  0.37996881421E+03  0.12500000000E+03 0.  0.
         21    1    1    2  503  501  0.15959164662E+03  0.18025001916E+03 -0.13629618551E+03  0.27665179064E+03  0.00000000000E+00 0. -1.
<mgrwt>
<rscale>  3 0.27126475E+03</rscale>
<asrwt>0</asrwt>
<pdfrwt beam="1">  1       21 0.19558250E-01 0.27126475E+03</pdfrwt>
<pdfrwt beam="2">  1       21 0.81460305E-01 0.27126475E+03</pdfrwt>
<totfact> 0.30578834E+04</totfact>
</mgrwt>
</event>
<event>
 4    0  0.1495377E-001  0.3456720E+03  0.7546771E-02  0.1064406E+00
         21   -1    0    0  503  501  0.00000000000E+00  0.00000000000E+00  0.51853452039E+03  0.51853452039E+03  0.00000000000E+00 0.  1.
         21   -1    0    0  501  502 -0.00000000000E+00 -0.00000000000E+00 -0.22147090780E+03  0.22147090780E+03  0.00000000000E+00 0.  1.
         25    1    1    2    0    0 -0.27334776107E+03 -0.17071937157E+03  0.90895336476E+02  0.35742280915E+03  0.12500000000E+03 0.  0.
         21    1    1    2  503  502  0.27334776107E+03  0.17071937157E+03  0.20616827612E+03  0.38258261904E+03  0.00000000000E+00 0.  1.
<mgrwt>
<rscale>  3 0.34567196E+03</rscale>
<asrwt>0</asrwt>
<pdfrwt beam="1">  1       21 0.79774542E-01 0.34567196E+03</pdfrwt>
<pdfrwt beam="2">  1       21 0.34072447E-01 0.34567196E+03</pdfrwt>
<totfact> 0.10614367E+04</totfact>
</mgrwt>
</event>
<event>
 4    0  0.1495377E-001  0.2806999E+03  0.7546771E-02  0.1095307E+00
         21   -1    0    0  503  501  0.00000000000E+00  0.00000000000E+00  0.12121192518E+03  0.12121192518E+03  0.00000000000E+00 0. -1.
         21   -1    0    0  501  502 -0.00000000000E+00 -0.00000000000E+00 -0.67274269579E+03  0.67274269579E+03  0.00000000000E+00 0. -1.
         25    1    1    2    0    0 -0.13707263711E+03  0.21066206252E+03 -0.43312260147E+03  0.51612750395E+03  0.12500000000E+03 0.  0.
         21    1    1    2  503  502  0.13707263711E+03 -0.21066206252E+03 -0.11840816915E+03  0.27782711702E+03  0.00000000000E+00 0. -1.
<mgrwt>
<rscale>  3 0.28069986E+03</rscale>
<asrwt>0</asrwt>
<pdfrwt beam="1">  1       21 0.18647989E-01 0.28069986E+03</pdfrwt>
<pdfrwt beam="2">  1       21 0.10349888E+00 0.28069986E+03</pdfrwt>
<totfact> 0.18968018E+04</totfact>
</mgrwt>
</event>
<event>
 4    0  0.1495377E-001  0.2769600E+03  0.7546771E-02  0.1097361E+00
         21   -1    0    0  502  501  0.00000000000E+00  0.00000000000E+00  0.73624383312E+02  0.73624383312E+02  0.00000000000E+00 0. -1.
         21   -1    0    0  503  502 -0.00000000000E+00 -0.00000000000E+00 -0.13326481310E+04  0.13326481310E+04  0.00000000000E+00 0.  1.
         25    1    1    2    0    0 -0.24656255089E+03 -0.16992429630E+02 -0.10393182314E+04  0.10755878488E+04  0.12500000000E+03 0.  0.
         21    1    1    2  503  501  0.24656255089E+03  0.16992429630E+02 -0.21970551623E+03  0.33068466555E+03  0.00000000000E+00 0. -1.
<mgrwt>
<rscale>  3 0.27695999E+03</rscale>
<asrwt>0</asrwt>
<pdfrwt beam="1">  1       21 0.11326830E-01 0.27695999E+03</pdfrwt>
<pdfrwt beam="2">  1       21 0.20502276E+00 0.27695999E+03</pdfrwt>
<totfact> 0.76163169E+03</totfact>
</mgrwt>
</event>
<event>
 4    0  0.1495377E-001  0.3547256E+03  0.7546771E-02  0.1060692E+00
         21   -1    0    0  503  501  0.00000000000E+00  0.00000000000E+00  0.15254250994E+03  0.15254250994E+03  0.00000000000E+00 0.  1.
         21   -1    0    0  501  502 -0.00000000000E+00 -0.00000000000E+00 -0.77282282574E+03  0.77282282574E+03  0.00000000000E+00 0.  1.
         25    1    1    2    0    0 -0.17363249584E+03 -0.28294348240E+03 -0.32055141377E+03  0.47810403336E+03  0.12500000000E+03 0.  0.
         21    1    1    2  503  502  0.17363249584E+03  0.28294348240E+03 -0.29972890203E+03  0.44726130232E+03  0.00000000000E+00 0.  1.
<mgrwt>
<rscale>  3 0.35472561E+03</rscale>
<asrwt>0</asrwt>
<pdfrwt beam="1">  1       21 0.23468079E-01 0.35472561E+03</pdfrwt>
<pdfrwt beam="2">  1       21 0.11889582E+00 0.35472561E+03</pdfrwt>
<totfact> 0.84458357E+03</totfact>
</mgrwt>
</event>
<event>
 4    0  0.1495377E-001  0.2625045E+03  0.7546771E-02  0.1105648E+00
         21   -1    0    0  503  501  0.00000000000E+00  0.00000000000E+00  0.78020473779E+02  0.78020473779E+02  0.00000000000E+00 0.  1.
         21   -1    0    0  501  502 -0.00000000000E+00 -0.00000000000E+00 -0.10487980169E+04  0.10487980169E+04  0.00000000000E+00 0.  1.
         25    1    1    2    0    0  0.23070551312E+03  0.76547405547E+01 -0.79342199592E+03  0.83571950584E+03  0.12500000000E+03 0.  0.
         21    1    1    2  503  502 -0.23070551312E+03 -0.76547405547E+01 -0.17735554716E+03  0.29109898479E+03  0.00000000000E+00 0.  1.
<mgrwt>
<rscale>  3 0.26250453E+03</rscale>
<asrwt>0</asrwt>
<pdfrwt beam="1">  1       21 0.12003151E-01 0.26250453E+03</pdfrwt>
<pdfrwt beam="2">  1       21 0.16135353E+00 0.26250453E+03</pdfrwt>
<totfact> 0.13793314E+04</totfact>
</mgrwt>
</event>
<event>
 4    0  0.1495377E-001  0.2952400E+03  0.7546771E-02  0.1087645E+00
         21   -1    0    0  502  501  0.00000000000E+00  0.00000000000E+00  0.13141719923E+03  0.13141719923E+03  0.00000000000E+00 0. -1.
         21   -1    0    0  503  502 -0.00000000000E+00 -0.00000000000E+00 -0.12263792615E+04  0.12263792615E+04  0.00000000000E+00 0.  1.
         25    1    1    2    0    0  0.26646332368E+03 -0.23215739048E+02 -0.10447320963E+04  0.10856481135E+04  0.12500000000E+03 0.  0.
         21    1    1    2  503  501 -0.26646332368E+03  0.23215739048E+02 -0.50229966004E+02  0.27214834721E+03  0.00000000000E+00 0. -1.
<mgrwt>
<rscale>  3 0.29524003E+03</rscale>
<asrwt>0</asrwt>
<pdfrwt beam="1">  1       21 0.20218031E-01 0.29524003E+03</pdfrwt>
<pdfrwt beam="2">  1       21 0.18867373E+00 0.29524003E+03</pdfrwt>
<totfact> 0.33242592E+03</totfact>
</mgrwt>
</event>
<event>
 4    0  0.1495377E-001  0.2422434E+03  0.7546771E-02  0.1118307E+00
         21   -1    0    0  503  501  0.00000000000E+00  0.00000000000E+00  0.58011057985E+03  0.58011057985E+03  0.00000000000E+00 0. -1.
         21   -1    0    0  501  502 -0.00000000000E+00 -0.00000000000E+00 -0.92091132562E+02  0.92091132562E+02  0.00000000000E+00 0. -1.
         25    1    1    2    0    0  0.20459406360E+03  0.34613749446E+02  0.18436744244E+03  0.30442272639E+03  0.12500000000E+03 0.  0.
         21    1    1    2  503  502 -0.20459406360E+03 -0.34613749446E+02  0.30365200485E+03  0.36777898602E+03  0.00000000000E+00 0. -1.
<mgrwt>
<rscale>  3 0.24224335E+03</rscale>
<asrwt>0</asrwt>
<pdfrwt beam="1">  1       21 0.89247780E-01 0.24224335E+03</pdfrwt>
<pdfrwt beam="2">  1       21 0.14167867E-01 0.24224335E+03</pdfrwt>
<totfact> 0.45518832E+04</totfact>
</mgrwt>
</event>
<event>
 4    0  0.1495377E-001  0.2389777E+03  0.7546771E-02  0.1120476E+00
         21   -1    0    0  502  501  0.00000000000E+00  0.00000000000E+00  0.15207306711E+04  0.15207306711E+04  0.00000000000E+00 0.  1.
         21   -1    0    0  503  502 -0.00000000000E+00 -0.00000000000E+00 -0.32223990739E+02  0.32223990739E+02  0.00000000000E+00 0.  1.
         25    1    1    2    0    0 -0.19282622127E+03  0.65600248309E+02  0.78888750590E+03  0.82428990116E+03  0.12500000000E+03 0.  0.
         21    1    1    2  503  501  0.19282622127E+03 -0.65600248309E+02  0.69961917447E+03  0.72866476069E+03  0.00000000000E+00 0.  1.
<mgrwt>
<rscale>  3 0.23897771E+03</rscale>
<asrwt>0</asrwt>
<pdfrwt beam="1">  1       21 0.23395851E+00 0.23897771E+03</pdfrwt>
<pdfrwt beam="2">  1       21 0.49575382E-02 0.23897771E+03</pdfrwt>
<totfact> 0.21810188E+04</totfact>
</mgrwt>
</event>
<event>
 4    0  0.1495377E-001  0.2591163E+03  0.7546771E-02  0.1107675E+00
         21   -1    0    0  503  501  0.00000000000E+00  0.00000000000E+00  0.73970876991E+02  0.73970876991E+02  0.00000000000E+00 0.  1.
         21   -1    0    0  501  502 -0.00000000000E+00 -0.00000000000E+00 -0.81876548699E+03  0.81876548699E+03  0.00000000000E+00 0. -1.
         25    1    1    2    0    0 -0.11766000285E+03 -0.19409377974E+03 -0.46638074346E+03  0.53352813372E+03  0.12500000000E+03 0.  0.
         21    1    1    2  503  502  0.11766000285E+03  0.19409377974E+03 -0.27841386654E+03  0.35920823026E+03  0.00000000000E+00 0.  1.
<mgrwt>
<rscale>  3 0.25911633E+03</rscale>
<asrwt>0</asrwt>
<pdfrwt beam="1">  1       21 0.11380135E-01 0.25911633E+03</pdfrwt>
<pdfrwt beam="2">  1       21 0.12596393E+00 0.25911633E+03</pdfrwt>
<totfact> 0.29132043E+04</totfact>
</mgrwt>
</event>
<event>
 4    0  0.1495377E-001  0.3682428E+03  0.7546771E-02  0.1055367E+00
         21   -1    0    0  503  501  0.00000000000E+00  0.00000000000E+00  0.54334152459E+03  0.54334152459E+03  0.00000000000E+00 0.  1.
         21   -1    0    0  501  502 -0.00000000000E+00 -0.00000000000E+00 -0.31018080371E+03  0.31018080371E+03  0.00000000000E+00 0.  1.
         25    1    1    2    0    0  0.34135056056E+03  0.58800892877E+02 -0.90782741753E+02  0.37926805349E+03  0.12500000000E+03 0.  0.
         21    1    1    2  503  502 -0.34135056056E+03 -0.58800892877E+02  0.32394346263E+03  0.47425427481E+03  0.00000000000E+00 0.  1.
<mgrwt>
<rscale>  3 0.36824279E+03</rscale>
<asrwt>0</asrwt>
<pdfrwt beam="1">  1       21 0.83591004E-01 0.36824279E+03</pdfrwt>
<pdfrwt beam="2">  1       21 0.47720124E-01 0.36824279E+03</pdfrwt>
<totfact> 0.47300544E+03</totfact>
</mgrwt>
</event>
<event>
 4    0  0.1495377E-001  0.2459633E+03  0.7546771E-02  0.1115883E+00
         21   -1    0    0  502  501  0.00000000000E+00  0.00000000000E+00  0.82805181636E+02  0.82805181636E+02  0.00000000000E+00 0.  1.
         21   -1    0    0  503  502 -0.00000000000E+00 -0.00000000000E+00 -0.73600812950E+03  0.73600812950E+03  0.00000000000E+00 0.  1.
         25    1    1    2    0    0 -0.13308010808E+03  0.16481088698E+03 -0.50052196472E+03  0.55769183319E+03  0.12500000000E+03 0.  0.
         21    1    1    2  503  501  0.13308010808E+03 -0.16481088698E+03 -0.15268098314E+03  0.26112147795E+03  0.00000000000E+00 0.  1.
<mgrwt>
<rscale>  3 0.24596330E+03</rscale>
<asrwt>0</asrwt>
<pdfrwt beam="1">  1       21 0.12739259E-01 0.24596330E+03</pdfrwt>
<pdfrwt beam="2">  1       21 0.11323202E+00 0.24596330E+03</pdfrwt>
<totfact> 0.31197374E+04</totfact>
</mgrwt>
</event>
<event>
 4    0  0.1495377E-001  0.2860900E+03  0.7546771E-02  0.1092408E+00
         21   -1    0    0  503  501  0.00000000000E+00  0.00000000000E+00  0.30114597901E+03  0.30114597901E+03  0.00000000000E+00 0.  1.
         21   -1    0    0  501  502 -0.00000000000E+00 -0.00000000000E+00 -0.10742118159E+04  0.10742118159E+04  0.00000000000E+00 0.  1.
         25    1    1    2    0    0  0.95022202481E+02 -0.23915115253E+03 -0.99513974257E+03  0.10354470532E+04  0.12500000000E+03 0.  0.
         21    1    1    2  503  502 -0.95022202481E+02  0.23915115253E+03  0.22207390571E+03  0.33991074169E+03  0.00000000000E+00 0.  1.
<mgrwt>
<rscale>  3 0.28609001E+03</rscale>
<asrwt>0</asrwt>
<pdfrwt beam="1">  1       21 0.46330151E-01 0.28609001E+03</pdfrwt>
<pdfrwt beam="2">  1       21 0.16526336E+00 0.28609001E+03</pdfrwt>
<totfact> 0.94711645E+02</totfact>
</mgrwt>
</event>
<event>
 4    0  0.1495377E-001  0.2695589E+03  0.7546771E-02  0.1101532E+00
         21   -1    0    0  503  501  0.00000000000E+00  0.00000000000E+00  0.18243502301E+04  0.18243502301E+04  0.00000000000E+00 0.  1.
         21   -1    0    0  501  502 -0.00000000000E+00 -0.00000000000E+00 -0.38320585132E+02  0.38320585132E+02  0.00000000000E+00 0. -1.
         25    1    1    2    0    0 -0.18110256826E+03 -0.15568837122E+03  0.68698971923E+03  0.73798162815E+03  0.12500000000E+03 0.  0.
         21    1    1    2  503  502  0.18110256826E+03  0.15568837122E+03  0.10990399257E+04  0.11246891871E+04  0.00000000000E+00 0.  1.
<mgrwt>
<rscale>  3 0.26955892E+03</rscale>
<asrwt>0</asrwt>
<pdfrwt beam="1">  1       21 0.28066920E+00 0.26955892E+03</pdfrwt>
<pdfrwt beam="2">  1       21 0.58954761E-02 0.26955892E+03</pdfrwt>
<totfact> 0.83674431E+03</totfact>
</mgrwt>
</event>
<event>
 4    0  0.1495377E-001  0.3783161E+03  0.7546771E-02  0.1051558E+00
         21   -1    0    0  503  501  0.00000000000E+00  0.00000000000E+00  0.49907441559E+03  0.49907441559E+03  0.00000000000E+00 0.  1.
         21   -1    0    0  501  502 -0.00000000000E+00 -0.00000000000E+00 -0.59833001669E+03  0.59833001669E+03  0.00000000000E+00 0. -1.
         25    1    1    2    0    0  0.33318927996E+03  0.12838599820E+03 -0.45610831149E+03  0.59258573441E+03  0.12500000000E+03 0.  0.
         21    1    1    2  503  502 -0.33318927996E+03 -0.12838599820E+03  0.35685271039E+03  0.50481869788E+03  0.00000000000E+00 0.  1.
<mgrwt>
<rscale>  3 0.37831609E+03</rscale>
<asrwt>0</asrwt>
<pdfrwt beam="1">  1       21 0.76780680E-01 0.37831609E+03</pdfrwt>
<pdfrwt beam="2">  1       21 0.92050772E-01 0.37831609E+03</pdfrwt>
<totfact> 0.13271555E+03</totfact>
</mgrwt>
</event>
<event>
 4    0  0.1495377E-001  0.2951575E+03  0.7546771E-02  0.1087687E+00
         21   -1    0    0  502  501  0.00000000000E+00  0.00000000000E+00  0.79486041550E+03  0.79486041550E+03  0.00000000000E+00 0. -1.
         21   -1    0    0  503  502 -0.00000000000E+00 -0.00000000000E+00 -0.18384404159E+03  0.18384404159E+03  0.00000000000E+00 0. -1.
         25    1    1    2    0    0 -0.26374563701E+03  0.43945373620E+02 -0.17501713219E+02  0.29567594909E+03  0.12500000000E+03 0.  0.
         21    1    1    2  503  501  0.26374563701E+03 -0.43945373620E+02  0.62851808712E+03  0.68302850800E+03  0.00000000000E+00 0. -1.
<mgrwt>
<rscale>  3 0.29515751E+03</rscale>
<asrwt>0</asrwt>
<pdfrwt beam="1">  1       21 0.12228622E+00 0.29515751E+03</pdfrwt>
<pdfrwt beam="2">  1       21 0.28283699E-01 0.29515751E+03</pdfrwt>
<totfact> 0.56313597E+03</totfact>
</mgrwt>
</event>
<event>
 4    0  0.1495377E-001  0.2584894E+03  0.7546771E-02  0.1108054E+00
         21   -1    0    0  503  501  0.00000000000E+00  0.00000000000E+00  0.95815619961E+02  0.95815619961E+02  0.00000000000E+00 0. -1.
         21   -1    0    0  501  502 -0.00000000000E+00 -0.00000000000E+00 -0.63149026817E+03  0.63149026817E+03  0.00000000000E+00 0. -1.
         25    1    1    2    0    0  0.10782390689E+03 -0.19891147467E+03 -0.34705392091E+03  0.43273917511E+03  0.12500000000E+03 0.  0.
         21    1    1    2  503  502 -0.10782390689E+03  0.19891147467E+03 -0.18862072729E+03  0.29456671302E+03  0.00000000000E+00 0. -1.
<mgrwt>
<rscale>  3 0.25848940E+03</rscale>
<asrwt>0</asrwt>
<pdfrwt beam="1">  1       21 0.14740865E-01 0.25848940E+03</pdfrwt>
<pdfrwt beam="2">  1       21 0.97152349E-01 0.25848940E+03</pdfrwt>
<totfact> 0.34445914E+04</totfact>
</mgrwt>
</event>
<event>
 4    0  0.1495377E-001  0.2696366E+03  0.7546771E-02  0.1101488E+00
         21   -1    0    0  503  501  0.00000000000E+00  0.00000000000E+00  0.99210359880E+02  0.99210359880E+02  0.00000000000E+00 0.  1.
         21   -1    0    0  501  502 -0.00000000000E+00 -0.00000000000E+00 -0.65545223233E+03  0.65545223233E+03  0.00000000000E+00 0.  1.
         25    1    1    2    0    0 -0.20217578083E+02 -0.23805487547E+03 -0.26632953402E+03  0.37899247340E+03  0.12500000000E+03 0.  0.
         21    1    1    2  503  502  0.20217578083E+02  0.23805487547E+03 -0.28991233843E+03  0.37567011881E+03  0.00000000000E+00 0.  1.
<mgrwt>
<rscale>  3 0.26963656E+03</rscale>
<asrwt>0</asrwt>
<pdfrwt beam="1">  1       21 0.15263132E-01 0.26963656E+03</pdfrwt>
<pdfrwt beam="2">  1       21 0.10083881E+00 0.26963656E+03</pdfrwt>
<totfact> 0.29424819E+04</totfact>
</mgrwt>
</event>
<event>
 4    0  0.1495377E-001  0.2493636E+03  0.7546771E-02  0.1113708E+00
         21   -1    0    0  503  501  0.00000000000E+00  0.00000000000E+00  0.18902898841E+04  0.18902898841E+04  0.00000000000E+00 0. -1.
         21   -1    0    0  501  502 -0.00000000000E+00 -0.00000000000E+00 -0.33327422291E+02  0.33327422291E+02  0.00000000000E+00 0. -1.
         25    1    1    2    0    0 -0.21259826814E+03 -0.36866976933E+02  0.62513299320E+03  0.67303302801E+03  0.12500000000E+03 0.  0.
         21    1    1    2  503  502  0.21259826814E+03  0.36866976933E+02  0.12318294686E+04  0.12505842784E+04  0.00000000000E+00 0. -1.
<mgrwt>
<rscale>  3 0.24936359E+03</rscale>
<asrwt>0</asrwt>
<pdfrwt beam="1">  1       21 0.29081374E+00 0.24936359E+03</pdfrwt>
<pdfrwt beam="2">  1       21 0.51272972E-02 0.24936359E+03</pdfrwt>
<totfact> 0.94208814E+03</totfact>
</mgrwt>
</event>
<event>
 4    0  0.1495377E-001  0.2369007E+03  0.7546771E-02  0.1121875E+00
         21   -1    0    0  502  501  0.00000000000E+00  0.00000000000E+00  0.51373990457E+03  0.51373990457E+03  0.00000000000E+00 0. -1.
         21   -1    0    0  503  502 -0.00000000000E+00 -0.00000000000E+00 -0.14523997871E+03  0.14523997871E+03  0.00000000000E+00 0.  1.
         25    1    1    2    0    0  0.82651538947E+01  0.20106877450E+03 -0.25023316252E+01  0.23691396437E+03  0.12500000000E+03 0.  0.
         21    1    1    2  503  501 -0.82651538947E+01 -0.20106877450E+03  0.37100225748E+03  0.42206591891E+03  0.00000000000E+00 0. -1.
<mgrwt>
<rscale>  3 0.23690075E+03</rscale>
<asrwt>0</asrwt>
<pdfrwt beam="1">  1       21 0.79036908E-01 0.23690075E+03</pdfrwt>
<pdfrwt beam="2">  1       21 0.22344612E-01 0.23690075E+03</pdfrwt>
<totfact> 0.25870314E+04</totfact>
</mgrwt>
</event>
<event>
 4    0  0.1495377E-001  0.2539827E+03  0.7546771E-02  0.1110813E+00
         21   -1    0    0  503  501  0.00000000000E+00  0.00000000000E+00  0.81686158004E+03  0.81686158004E+03  0.00000000000E+00 0. -1.
         21   -1    0    0  501  502 -0.00000000000E+00 -0.00000000000E+00 -0.10213713020E+03  0.10213713020E+03  0.00000000000E+00 0. -1.
         25    1    1    2    0    0  0.15052163613E+03  0.16194273940E+03  0.11308390081E+03  0.27802011152E+03  0.12500000000E+03 0.  0.
         21    1    1    2  503  502 -0.15052163613E+03 -0.16194273940E+03  0.60164054903E+03  0.64097859873E+03  0.00000000000E+00 0. -1.
<mgrwt>
<rscale>  3 0.25398270E+03</rscale>
<asrwt>0</asrwt>
<pdfrwt beam="1">  1       21 0.12567101E+00 0.25398270E+03</pdfrwt>
<pdfrwt beam="2">  1       21 0.15713405E-01 0.25398270E+03</pdfrwt>
<totfact> 0.16349942E+04</totfact>
</mgrwt>
</event>
<event>
 4    0  0.1495377E-001  0.2694377E+03  0.7546771E-02  0.1101602E+00
         21   -1    0    0  503  501  0.00000000000E+00  0.00000000000E+00  0.10774827586E+03  0.10774827586E+03  0.00000000000E+00 0.  1.
         21   -1    0    0  501  502 -0.00000000000E+00 -0.00000000000E+00 -0.67620994508E+03  0.67620994508E+03  0.00000000000E+00 0.  1.
         25    1    1    2    0    0 -0.17979158190E+03 -0.15699253542E+03 -0.43165414484E+03  0.50884375781E+03  0.12500000000E+03 0.  0.
         21    1    1    2  503  502  0.17979158190E+03  0.15699253542E+03 -0.13680752438E+03  0.27511446313E+03  0.00000000000E+00 0.  1.
<mgrwt>
<rscale>  3 0.26943769E+03</rscale>
<asrwt>0</asrwt>
<pdfrwt beam="1">  1       21 0.16576658E-01 0.26943769E+03</pdfrwt>
<pdfrwt beam="2">  1       21 0.10403230E+00 0.26943769E+03</pdfrwt>
<totfact> 0.23439962E+04</totfact>
</mgrwt>
</event>
<event>
 4    0  0.1495377E-001  0.2535779E+03  0.7546771E-02  0.1111064E+00
         21   -1    0    0  502  501  0.00000000000E+00  0.00000000000E+00  0.63391357485E+03  0.63391357485E+03  0.00000000000E+00 0.  1.
         21   -1    0    0  503  502 -0.00000000000E+00 -0.00000000000E+00 -0.10706837971E+03  0.10706837971E+03  0.00000000000E+00 0. -1.
         25    1    1    2    0    0  0.20872213360E+03  0.71497183696E+02  0.12536744348E+03  0.28287589543E+03  0.12500000000E+03 0.  0.
         21    1    1    2  503  501 -0.20872213360E+03 -0.71497183696E+02  0.40147775166E+03  0.45810605912E+03  0.00000000000E+00 0.  1.
<mgrwt>
<rscale>  3 0.25357795E+03</rscale>
<asrwt>0</asrwt>
<pdfrwt beam="1">  1       21 0.97525162E-01 0.25357795E+03</pdfrwt>
<pdfrwt beam="2">  1       21 0.16472059E-01 0.25357795E+03</pdfrwt>
<totfact> 0.27891586E+04</totfact>
</mgrwt>
</event>
<event>
 4    0  0.1495377E-001  0.2385757E+03  0.7546771E-02  0.1120745E+00
         21   -1    0    0  502  501  0.00000000000E+00  0.00000000000E+00  0.10966836187E+03  0.10966836187E+03  0.00000000000E+00 0.  1.
         21   -1    0    0  503  502 -0.00000000000E+00 -0.00000000000E+00 -0.45284243776E+03  0.45284243776E+03  0.00000000000E+00 0.  1.
         25    1    1    2    0    0 -0.18853954587E+03 -0.75803750452E+02 -0.14798878476E+03  0.28074730516E+03  0.12500000000E+03 0.  0.
         21    1    1    2  503  501  0.18853954587E+03  0.75803750452E+02 -0.19518529113E+03  0.28176349446E+03  0.00000000000E+00 0.  1.
<mgrwt>
<rscale>  3 0.23857571E+03</rscale>
<asrwt>0</asrwt>
<pdfrwt beam="1">  1       21 0.16872056E-01 0.23857571E+03</pdfrwt>
<pdfrwt beam="2">  1       21 0.69668067E-01 0.23857571E+03</pdfrwt>
<totfact> 0.58031113E+04</totfact>
</mgrwt>
</event>
<event>
 4    0  0.1495377E-001  0.2919950E+03  0.7546771E-02  0.1089312E+00
         21   -1    0    0  503  501  0.00000000000E+00  0.00000000000E+00  0.10496317671E+03  0.10496317671E+03  0.00000000000E+00 0.  1.
         21   -1    0    0  501  502 -0.00000000000E+00 -0.00000000000E+00 -0.75732599370E+03  0.75732599370E+03  0.00000000000E+00 0.  1.
         25    1    1    2    0    0  0.22685859411E+03 -0.13480090166E+03 -0.41449910027E+03  0.50702131014E+03  0.12500000000E+03 0.  0.
         21    1    1    2  503  502 -0.22685859411E+03  0.13480090166E+03 -0.23786371673E+03  0.35526786027E+03  0.00000000000E+00 0.  1.
<mgrwt>
<rscale>  3 0.29199504E+03</rscale>
<asrwt>0</asrwt>
<pdfrwt beam="1">  1       21 0.16148181E-01 0.29199504E+03</pdfrwt>
<pdfrwt beam="2">  1       21 0.11651169E+00 0.29199504E+03</pdfrwt>
<totfact> 0.18457655E+04</totfact>
</mgrwt>
</event>
<event>
 4    0  0.1495377E-001  0.2899190E+03  0.7546771E-02  0.1090391E+00
         21   -1    0    0  503  501  0.00000000000E+00  0.00000000000E+00  0.19145854607E+04  0.19145854607E+04  0.00000000000E+00 0.  1.
         21   -1    0    0  501  502 -0.00000000000E+00 -0.00000000000E+00 -0.34992667234E+03  0.34992667234E+03  0.00000000000E+00 0.  1.
         25    1    1    2    0    0 -0.15765760492E+03 -0.20873930150E+03 -0.27901638874E+03  0.40237191946E+03  0.12500000000E+03 0.  0.
         21    1    1    2  503  502  0.15765760492E+03  0.20873930150E+03  0.18436751771E+04  0.18621402136E+04  0.00000000000E+00 0.  1.
<mgrwt>
<rscale>  3 0.28991898E+03</rscale>
<asrwt>0</asrwt>
<pdfrwt beam="1">  1       21 0.29455160E+00 0.28991898E+03</pdfrwt>
<pdfrwt beam="2">  1       21 0.53834874E-01 0.28991898E+03</pdfrwt>
<totfact> 0.10547250E+02</totfact>
</mgrwt>
</event>
<event>
 4    0  0.1495377E-001  0.2587959E+03  0.7546771E-02  0.1107869E+00
         21   -1    0    0  503  501  0.00000000000E+00  0.00000000000E+00  0.32202536943E+03  0.32202536943E+03  0.00000000000E+00 0.  1.
         21   -1    0    0  501  502 -0.00000000000E+00 -0.00000000000E+00 -0.22880888032E+03  0.22880888032E+03  0.00000000000E+00 0. -1.
         25    1    1    2    0    0  0.21616979673E+03 -0.67977519686E+02 -0.74049632129E+02  0.26918148566E+03  0.12500000000E+03 0.  0.
         21    1    1    2  503  502 -0.21616979673E+03  0.67977519686E+02  0.16726612124E+03  0.28165276409E+03  0.00000000000E+00 0.  1.
<mgrwt>
<rscale>  3 0.25879591E+03</rscale>
<asrwt>0</asrwt>
<pdfrwt beam="1">  1       21 0.49542365E-01 0.25879591E+03</pdfrwt>
<pdfrwt beam="2">  1       21 0.35201366E-01 0.25879591E+03</pdfrwt>
<totfact> 0.29248437E+04</totfact>
</mgrwt>
</event>
<event>
 4    0  0.1495377E-001  0.3493885E+03  0.7546771E-02  0.1062866E+00
         21   -1    0    0  503  501  0.00000000000E+00  0.00000000000E+00  0.26348917411E+03  0.26348917411E+03  0.00000000000E+00 0.  1.
         21   -1    0    0  501  502 -0.00000000000E+00 -0.00000000000E+00 -0.93097021503E+03  0.93097021503E+03  0.00000000000E+00 0. -1.
         25    1    1    2    0    0 -0.56370364896E+02  0.32135609537E+03 -0.77566975750E+03  0.85072670745E+03  0.12500000000E+03 0.  0.
         21    1    1    2  503  502  0.56370364896E+02 -0.32135609537E+03  0.10818871657E+03  0.34373268169E+03  0.00000000000E+00 0.  1.
<mgrwt>
<rscale>  3 0.34938855E+03</rscale>
<asrwt>0</asrwt>
<pdfrwt beam="1">  1       21 0.40536796E-01 0.34938855E+03</pdfrwt>
<pdfrwt beam="2">  1       21 0.14322619E+00 0.34938855E+03</pdfrwt>
<totfact> 0.17695822E+03</totfact>
</mgrwt>
</event>
<event>
 4    0  0.1495377E-001  0.3190027E+03  0.7546771E-02  0.1076109E+00
         21   -1    0    0  502  501  0.00000000000E+00  0.00000000000E+00  0.40528549123E+02  0.40528549123E+02  0.00000000000E+00 0.  1.
         21   -1    0    0  503  502 -0.00000000000E+00 -0.00000000000E+00 -0.26314593333E+04  0.26314593333E+04  0.00000000000E+00 0.  1.
         25    1    1    2    0    0 -0.65720287079E+02  0.28603945716E+03 -0.18065143195E+04  0.18344636038E+04  0.12500000000E+03 0.  0.
         21    1    1    2  503  501  0.65720287079E+02 -0.28603945716E+03 -0.78441646466E+03  0.83752427859E+03  0.00000000000E+00 0.  1.
<mgrwt>
<rscale>  3 0.31900271E+03</rscale>
<asrwt>0</asrwt>
<pdfrwt beam="1">  1       21 0.62351592E-02 0.31900271E+03</pdfrwt>
<pdfrwt beam="2">  1       21 0.40484004E+00 0.31900271E+03</pdfrwt>
<totfact> 0.12977739E+03</totfact>
</mgrwt>
</event>
<event>
 4    0  0.1495377E-001  0.2433953E+03  0.7546771E-02  0.1117551E+00
         21   -1    0    0  503  501  0.00000000000E+00  0.00000000000E+00  0.69980891337E+03  0.69980891337E+03  0.00000000000E+00 0. -1.
         21   -1    0    0  501  502 -0.00000000000E+00 -0.00000000000E+00 -0.49077514256E+03  0.49077514256E+03  0.00000000000E+00 0.  1.
         25    1    1    2    0    0  0.18163895672E+03 -0.10307077698E+03 -0.44325147689E+03  0.50568089487E+03  0.12500000000E+03 0.  0.
         21    1    1    2  503  502 -0.18163895672E+03  0.10307077698E+03  0.65228524771E+03  0.68490316107E+03  0.00000000000E+00 0. -1.
<mgrwt>
<rscale>  3 0.24339535E+03</rscale>
<asrwt>0</asrwt>
<pdfrwt beam="1">  1       21 0.10766291E+00 0.24339535E+03</pdfrwt>
<pdfrwt beam="2">  1       21 0.75503868E-01 0.24339535E+03</pdfrwt>
<totfact> 0.10287201E+03</totfact>
</mgrwt>
</event>
<event>
 4    0  0.1495377E-001  0.2413182E+03  0.7546771E-02  0.1118918E+00
         21   -1    0    0  503  501  0.00000000000E+00  0.00000000000E+00  0.15651393505E+03  0.15651393505E+03  0.00000000000E+00 0. -1.
         21   -1    0    0  501  502 -0.00000000000E+00 -0.00000000000E+00 -0.34778217793E+03  0.34778217793E+03  0.00000000000E+00 0. -1.
         25    1    1    2    0    0 -0.18848399722E+03 -0.84161991278E+02 -0.17329345965E+03  0.29709439769E+03  0.12500000000E+03 0.  0.
         21    1    1    2  503  502  0.18848399722E+03  0.84161991278E+02 -0.17974783227E+02  0.20720171528E+03  0.00000000000E+00 0. -1.
<mgrwt>
<rscale>  3 0.24131817E+03</rscale>
<asrwt>0</asrwt>
<pdfrwt beam="1">  1       21 0.24079067E-01 0.24131817E+03</pdfrwt>
<pdfrwt beam="2">  1       21 0.53504950E-01 0.24131817E+03</pdfrwt>
<totfact> 0.52627001E+04</totfact>
</mgrwt>
</event>
<event>
 4    0  0.1495377E-001  0.3172711E+03  0.7546771E-02  0.1076912E+00
         21   -1    0    0  502  501  0.00000000000E+00  0.00000000000E+00  0.92027380821E+03  0.92027380821E+03  0.00000000000E+00 0. -1.
         21   -1    0    0  503  502 -0.00000000000E+00 -0.00000000000E+00 -0.34901996437E+03  0.34901996437E+03  0.00000000000E+00 0.  1.
         25    1    1    2    0    0 -0.26948528722E+03  0.11141658237E+03 -0.24606702489E+03  0.40150959589E+03  0.12500000000E+03 0.  0.
         21    1    1    2  503  501  0.26948528722E+03 -0.11141658237E+03  0.81732086872E+03  0.86778417669E+03  0.00000000000E+00 0. -1.
<mgrwt>
<rscale>  3 0.31727114E+03</rscale>
<asrwt>0</asrwt>
<pdfrwt beam="1">  1       21 0.14158059E+00 0.31727114E+03</pdfrwt>
<pdfrwt beam="2">  1       21 0.53695379E-01 0.31727114E+03</pdfrwt>
<totfact> 0.10321199E+03</totfact>
</mgrwt>
</event>
<event>
 4    0  0.1495377E-001  0.3417900E+03  0.7546771E-02  0.1066036E+00
         21   -1    0    0  503  501  0.00000000000E+00  0.00000000000E+00  0.31312352275E+03  0.31312352275E+03  0.00000000000E+00 0.  1.
         21   -1    0    0  501  502 -0.00000000000E+00 -0.00000000000E+00 -0.64043775259E+03  0.64043775259E+03  0.00000000000E+00 0.  1.
         25    1    1    2    0    0 -0.24565401893E+03 -0.20211258637E+03 -0.48908561378E+03  0.59667841606E+03  0.12500000000E+03 0.  0.
         21    1    1    2  503  502  0.24565401893E+03  0.20211258637E+03  0.16177138394E+03  0.35688285928E+03  0.00000000000E+00 0.  1.
<mgrwt>
<rscale>  3 0.34178999E+03</rscale>
<asrwt>0</asrwt>
<pdfrwt beam="1">  1       21 0.48172851E-01 0.34178999E+03</pdfrwt>
<pdfrwt beam="2">  1       21 0.98528883E-01 0.34178999E+03</pdfrwt>
<totfact> 0.31833544E+03</totfact>
</mgrwt>
</event>
<event>
 4    0  0.1495377E-001  0.4391320E+03  0.7546771E-02  0.1031013E+00
         21   -1    0    0  503  501  0.00000000000E+00  0.00000000000E+00  0.15670048641E+04  0.15670048641E+04  0.00000000000E+00 0.  1.
         21   -1    0    0  501  502 -0.00000000000E+00 -0.00000000000E+00 -0.10581912905E+04  0.10581912905E+04  0.00000000000E+00 0.  1.
         25    1    1    2    0    0  0.22450244970E+03 -0.35610469839E+03 -0.98219920218E+03  0.10758959889E+04  0.12500000000E+03 0.  0.
         21    1    1    2  503  502 -0.22450244970E+03  0.35610469839E+03  0.14910127757E+04  0.15493001657E+04  0.00000000000E+00 0.  1.
<mgrwt>
<rscale>  3 0.43913199E+03</rscale>
<asrwt>0</asrwt>
<pdfrwt beam="1">  1       21 0.24107767E+00 0.43913199E+03</pdfrwt>
<pdfrwt beam="2">  1       21 0.16279866E+00 0.43913199E+03</pdfrwt>
<totfact> 0.13593039E+01</totfact>
</mgrwt>
</event>
<event>
 4    0  0.1495377E-001  0.2654828E+03  0.7546771E-02  0.1103893E+00
         21   -1    0    0  502  501  0.00000000000E+00  0.00000000000E+00  0.24356588041E+03  0.24356588041E+03  0.00000000000E+00 0. -1.
         21   -1    0    0  503  502 -0.00000000000E+00 -0.00000000000E+00 -0.39504421432E+03  0.39504421432E+03  0.00000000000E+00 0.  1.
         25    1    1    2    0    0  0.11130134093E+03  0.20607800250E+03 -0.26780849704E+03  0.37709749760E+03  0.12500000000E+03 0.  0.
         21    1    1    2  503  501 -0.11130134093E+03 -0.20607800250E+03  0.11633016312E+03  0.26151259713E+03  0.00000000000E+00 0. -1.
<mgrwt>
<rscale>  3 0.26548283E+03</rscale>
<asrwt>0</asrwt>
<pdfrwt beam="1">  1       21 0.37471675E-01 0.26548283E+03</pdfrwt>
<pdfrwt beam="2">  1       21 0.60776032E-01 0.26548283E+03</pdfrwt>
<totfact> 0.16635351E+04</totfact>
</mgrwt>
</event>
<event>
 4    0  0.1495377E-001  0.2651330E+03  0.7546771E-02  0.1104098E+00
         21   -1    0    0  502  501  0.00000000000E+00  0.00000000000E+00  0.28884303495E+03  0.28884303495E+03  0.00000000000E+00 0.  1.
         21   -1    0    0  503  502 -0.00000000000E+00 -0.00000000000E+00 -0.22808428822E+03  0.22808428822E+03  0.00000000000E+00 0.  1.
         25    1    1    2    0    0  0.12564071454E+03 -0.19719261551E+03 -0.28482301162E+02  0.26665850491E+03  0.12500000000E+03 0.  0.
         21    1    1    2  503  501 -0.12564071454E+03  0.19719261551E+03  0.89241047888E+02  0.25026881825E+03  0.00000000000E+00 0.  1.
<mgrwt>
<rscale>  3 0.26513302E+03</rscale>
<asrwt>0</asrwt>
<pdfrwt beam="1">  1       21 0.44437390E-01 0.26513302E+03</pdfrwt>
<pdfrwt beam="2">  1       21 0.35089890E-01 0.26513302E+03</pdfrwt>
<totfact> 0.36815537E+04</totfact>
</mgrwt>
</event>
<event>
 4    0  0.1495377E-001  0.2659739E+03  0.7546771E-02  0.1103606E+00
         21   -1    0    0  503  501  0.00000000000E+00  0.00000000000E+00  0.72513263528E+03  0.72513263528E+03  0.00000000000E+00 0. -1.
         21   -1    0    0  501  502 -0.00000000000E+00 -0.00000000000E+00 -0.30163515899E+03  0.30163515899E+03  0.00000000000E+00 0. -1.
         25    1    1    2    0    0 -0.66304500431E+02  0.22521282467E+03 -0.21784850060E+03  0.34380237403E+03  0.12500000000E+03 0.  0.
         21    1    1    2  503  502  0.66304500431E+02 -0.22521282467E+03  0.64134597689E+03  0.68296542024E+03  0.00000000000E+00 0. -1.
<mgrwt>
<rscale>  3 0.26597388E+03</rscale>
<asrwt>0</asrwt>
<pdfrwt beam="1">  1       21 0.11155887E+00 0.26597388E+03</pdfrwt>
<pdfrwt beam="2">  1       21 0.46405409E-01 0.26597388E+03</pdfrwt>
<totfact> 0.26547618E+03</totfact>
</mgrwt>
</event>
<event>
 4    0  0.1495377E-001  0.3357153E+03  0.7546771E-02  0.1068636E+00
         21   -1    0    0  502  501  0.00000000000E+00  0.00000000000E+00  0.10816049699E+03  0.10816049699E+03  0.00000000000E+00 0.  1.
         21   -1    0    0  503  502 -0.00000000000E+00 -0.00000000000E+00 -0.97462342464E+03  0.97462342464E+03  0.00000000000E+00 0.  1.
         25    1    1    2    0    0  0.25757453586E+03  0.17531427154E+03 -0.40617949485E+03  0.52695969235E+03  0.12500000000E+03 0.  0.
         21    1    1    2  503  501 -0.25757453586E+03 -0.17531427154E+03 -0.46028343281E+03  0.55582422927E+03  0.00000000000E+00 0.  1.
<mgrwt>
<rscale>  3 0.33571526E+03</rscale>
<asrwt>0</asrwt>
<pdfrwt beam="1">  1       21 0.16640077E-01 0.33571526E+03</pdfrwt>
<pdfrwt beam="2">  1       21 0.14994206E+00 0.33571526E+03</pdfrwt>
<totfact> 0.89244857E+03</totfact>
</mgrwt>
</event>
<event>
 4    0  0.1495377E-001  0.2597768E+03  0.7546771E-02  0.1107277E+00
         21   -1    0    0  502  501  0.00000000000E+00  0.00000000000E+00  0.62077178481E+02  0.62077178481E+02  0.00000000000E+00 0. -1.
         21   -1    0    0  503  502 -0.00000000000E+00 -0.00000000000E+00 -0.10020511000E+04  0.10020511000E+04  0.00000000000E+00 0. -1.
         25    1    1    2    0    0 -0.22477971533E+03  0.36511280850E+02 -0.61194655817E+03  0.66480266554E+03  0.12500000000E+03 0.  0.
         21    1    1    2  503  501  0.22477971533E+03 -0.36511280850E+02 -0.32802736339E+03  0.39932561298E+03  0.00000000000E+00 0. -1.
<mgrwt>
<rscale>  3 0.25977682E+03</rscale>
<asrwt>0</asrwt>
<pdfrwt beam="1">  1       21 0.95503358E-02 0.25977682E+03</pdfrwt>
<pdfrwt beam="2">  1       21 0.15416170E+00 0.25977682E+03</pdfrwt>
<totfact> 0.23523677E+04</totfact>
</mgrwt>
</event>
<event>
 4    0  0.1495377E-001  0.2856899E+03  0.7546771E-02  0.1092621E+00
         21   -1    0    0  502  501  0.00000000000E+00  0.00000000000E+00  0.13816269416E+03  0.13816269416E+03  0.00000000000E+00 0. -1.
         21   -1    0    0  503  502 -0.00000000000E+00 -0.00000000000E+00 -0.54212110817E+03  0.54212110817E+03  0.00000000000E+00 0. -1.
         25    1    1    2    0    0 -0.85231656099E+02 -0.24234124306E+03 -0.25729699474E+03  0.38447426024E+03  0.12500000000E+03 0.  0.
         21    1    1    2  503  501  0.85231656099E+02  0.24234124306E+03 -0.14666141927E+03  0.29580954209E+03  0.00000000000E+00 0. -1.
<mgrwt>
<rscale>  3 0.28568989E+03</rscale>
<asrwt>0</asrwt>
<pdfrwt beam="1">  1       21 0.21255799E-01 0.28568989E+03</pdfrwt>
<pdfrwt beam="2">  1       21 0.83403248E-01 0.28568989E+03</pdfrwt>
<totfact> 0.24609754E+04</totfact>
</mgrwt>
</event>
<event>
 4    0  0.1495377E-001  0.2418654E+03  0.7546771E-02  0.1118556E+00
         21   -1    0    0  502  501  0.00000000000E+00  0.00000000000E+00  0.26566918482E+02  0.26566918482E+02  0.00000000000E+00 0. -1.
         21   -1    0    0  503  502 -0.00000000000E+00 -0.00000000000E+00 -0.19044319635E+04  0.19044319635E+04  0.00000000000E+00 0. -1.
         25    1    1    2    0    0  0.19799492506E+03  0.60596009678E+02 -0.10736429326E+04  0.11005489600E+04  0.12500000000E+03 0.  0.
         21    1    1    2  503  501 -0.19799492506E+03 -0.60596009678E+02 -0.80422211245E+03  0.83044992197E+03  0.00000000000E+00 0. -1.
<mgrwt>
<rscale>  3 0.24186539E+03</rscale>
<asrwt>0</asrwt>
<pdfrwt beam="1">  1       21 0.40872178E-02 0.24186539E+03</pdfrwt>
<pdfrwt beam="2">  1       21 0.29298956E+00 0.24186539E+03</pdfrwt>
<totfact> 0.13524653E+04</totfact>
</mgrwt>
</event>
<event>
 4    0  0.1495377E-001  0.2535643E+03  0.7546771E-02  0.1111073E+00
         21   -1    0    0  502  501  0.00000000000E+00  0.00000000000E+00  0.59694400861E+03  0.59694400861E+03  0.00000000000E+00 0.  1.
         21   -1    0    0  503  502 -0.00000000000E+00 -0.00000000000E+00 -0.98191747527E+02  0.98191747527E+02  0.00000000000E+00 0.  1.
         25    1    1    2    0    0  0.64186797830E+02  0.21106852092E+03  0.19576876459E+03  0.32034399437E+03  0.12500000000E+03 0.  0.
         21    1    1    2  503  501 -0.64186797830E+02 -0.21106852092E+03  0.30298349649E+03  0.37479176177E+03  0.00000000000E+00 0.  1.
<mgrwt>
<rscale>  3 0.25356432E+03</rscale>
<asrwt>0</asrwt>
<pdfrwt beam="1">  1       21 0.91837537E-01 0.25356432E+03</pdfrwt>
<pdfrwt beam="2">  1       21 0.15106423E-01 0.25356432E+03</pdfrwt>
<totfact> 0.37685059E+04</totfact>
</mgrwt>
</event>
<event>
 4    0  0.1495377E-001  0.3365847E+03  0.7546771E-02  0.1068260E+00
         21   -1    0    0  503  501  0.00000000000E+00  0.00000000000E+00  0.20771961733E+03  0.20771961733E+03  0.00000000000E+00 0. -1.
         21   -1    0    0  501  502 -0.00000000000E+00 -0.00000000000E+00 -0.50712342792E+03  0.50712342792E+03  0.00000000000E+00 0. -1.
         25    1    1    2    0    0  0.15845732168E+03 -0.26936132025E+03 -0.15221844971E+03  0.36940452091E+03  0.12500000000E+03 0.  0.
         21    1    1    2  503  502 -0.15845732168E+03  0.26936132025E+03 -0.14718536089E+03  0.34543852434E+03  0.00000000000E+00 0. -1.
<mgrwt>
<rscale>  3 0.33658468E+03</rscale>
<asrwt>0</asrwt>
<pdfrwt beam="1">  1       21 0.31956865E-01 0.33658468E+03</pdfrwt>
<pdfrwt beam="2">  1       21 0.78018988E-01 0.33658468E+03</pdfrwt>
<totfact> 0.12738975E+04</totfact>
</mgrwt>
</event>
<event>
 4    0  0.1495377E-001  0.2801546E+03  0.7546771E-02  0.1095605E+00
         21   -1    0    0  502  501  0.00000000000E+00  0.00000000000E+00  0.46911032935E+03  0.46911032935E+03  0.00000000000E+00 0. -1.
         21   -1    0    0  503  502 -0.00000000000E+00 -0.00000000000E+00 -0.24584670776E+03  0.24584670776E+03  0.00000000000E+00 0. -1.
         25    1    1    2    0    0  0.39395024563E+02  0.24760781284E+03 -0.10735802660E+03  0.30002057066E+03  0.12500000000E+03 0.  0.
         21    1    1    2  503  501 -0.39395024563E+02 -0.24760781284E+03  0.33062164819E+03  0.41493646646E+03  0.00000000000E+00 0. -1.
<mgrwt>
<rscale>  3 0.28015459E+03</rscale>
<asrwt>0</asrwt>
<pdfrwt beam="1">  1       21 0.72170820E-01 0.28015459E+03</pdfrwt>
<pdfrwt beam="2">  1       21 0.37822571E-01 0.28015459E+03</pdfrwt>
<totfact> 0.11101406E+04</totfact>
</mgrwt>
</event>
<event>
 4    0  0.1495377E-001  0.2682120E+03  0.7546771E-02  0.1102307E+00
         21   -1    0    0  503  501  0.00000000000E+00  0.00000000000E+00  0.13500831202E+03  0.13500831202E+03  0.00000000000E+00 0. -1.
         21   -1    0    0  501  502 -0.00000000000E+00 -0.00000000000E+00 -0.10402194923E+04  0.10402194923E+04  0.00000000000E+00 0. -1.
         25    1    1    2    0    0  0.17156344717E+03 -0.16394709426E+03 -0.89866348032E+03  0.93783458936E+03  0.12500000000E+03 0.  0.
         21    1    1    2  503  502 -0.17156344717E+03  0.16394709426E+03 -0.65476999203E+01  0.23739321494E+03  0.00000000000E+00 0. -1.
<mgrwt>
<rscale>  3 0.26821198E+03</rscale>
<asrwt>0</asrwt>
<pdfrwt beam="1">  1       21 0.20770511E-01 0.26821198E+03</pdfrwt>
<pdfrwt beam="2">  1       21 0.16003376E+00 0.26821198E+03</pdfrwt>
<totfact> 0.51167585E+03</totfact>
</mgrwt>
</event>
<event>
 4    0  0.1495377E-001  0.2498086E+03  0.7546771E-02  0.1113426E+00
         21   -1    0    0  503  501  0.00000000000E+00  0.00000000000E+00  0.18690437538E+03  0.18690437538E+03  0.00000000000E+00 0.  1.
         21   -1    0    0  501  502 -0.00000000000E+00 -0.00000000000E+00 -0.29259409031E+03  0.29259409031E+03  0.00000000000E+00 0.  1.
         25    1    1    2    0    0 -0.71527496037E+02  0.20411559184E+03 -0.76453587374E+02  0.26124606896E+03  0.12500000000E+03 0.  0.
         21    1    1    2  503  502  0.71527496037E+02 -0.20411559184E+03 -0.29236127556E+02  0.21825239673E+03  0.00000000000E+00 0.  1.
<mgrwt>
<rscale>  3 0.24980864E+03</rscale>
<asrwt>0</asrwt>
<pdfrwt beam="1">  1       21 0.28754519E-01 0.24980864E+03</pdfrwt>
<pdfrwt beam="2">  1       21 0.45014475E-01 0.24980864E+03</pdfrwt>
<totfact> 0.53447141E+04</totfact>
</mgrwt>
</event>
<event>
 4    0  0.1495377E-001  0.2485028E+03  0.7546771E-02  0.1114255E+00
         21   -1    0    0  502  501  0.00000000000E+00  0.00000000000E+00  0.53398941270E+03  0.53398941270E+03  0.00000000000E+00 0.  1.
         21   -1    0    0  503  502 -0.00000000000E+00 -0.00000000000E+00 -0.10231387843E+03  0.10231387843E+03  0.00000000000E+00 0.  1.
         25    1    1    2    0    0  0.17071879185E+03 -0.13032159005E+03  0.27372076310E+03  0.36969809152E+03  0.12500000000E+03 0.  0.
         21    1    1    2  503  501 -0.17071879185E+03  0.13032159005E+03  0.15795477118E+03  0.26660519961E+03  0.00000000000E+00 0.  1.
<mgrwt>
<rscale>  3 0.24850276E+03</rscale>
<asrwt>0</asrwt>
<pdfrwt beam="1">  1       21 0.82152215E-01 0.24850276E+03</pdfrwt>
<pdfrwt beam="2">  1       21 0.15740597E-01 0.24850276E+03</pdfrwt>
<totfact> 0.45326140E+04</totfact>
</mgrwt>
</event>
<event>
 4    0  0.1495377E-001  0.2615377E+03  0.7546771E-02  0.1106223E+00
         21   -1    0    0  502  501  0.00000000000E+00  0.00000000000E+00  0.19942031366E+03  0.19942031366E+03  0.00000000000E+00 0. -1.
         21   -1    0    0  503  502 -0.00000000000E+00 -0.00000000000E+00 -0.48050468678E+03  0.48050468678E+03  0.00000000000E+00 0. -1.
         25    1    1    2    0    0  0.79988390581E+02 -0.21535747265E+03 -0.35288129602E+03  0.43923478088E+03  0.12500000000E+03 0.  0.
         21    1    1    2  503  501 -0.79988390581E+02  0.21535747265E+03  0.71796922902E+02  0.24069021956E+03  0.00000000000E+00 0. -1.
<mgrwt>
<rscale>  3 0.26153773E+03</rscale>
<asrwt>0</asrwt>
<pdfrwt beam="1">  1       21 0.30680049E-01 0.26153773E+03</pdfrwt>
<pdfrwt beam="2">  1       21 0.73923797E-01 0.26153773E+03</pdfrwt>
<totfact> 0.16115180E+04</totfact>
</mgrwt>
</event>
<event>
 4    0  0.1495377E-001  0.3604924E+03  0.7546771E-02  0.1058389E+00
         21   -1    0    0  502  501  0.00000000000E+00  0.00000000000E+00  0.34930161229E+03  0.34930161229E+03  0.00000000000E+00 0. -1.
         21   -1    0    0  503  502 -0.00000000000E+00 -0.00000000000E+00 -0.58001738049E+03  0.58001738049E+03  0.00000000000E+00 0. -1.
         25    1    1    2    0    0 -0.31892770509E+03  0.11231618435E+03 -0.41053891610E+03  0.54634879699E+03  0.12500000000E+03 0.  0.
         21    1    1    2  503  501  0.31892770509E+03 -0.11231618435E+03  0.17982314790E+03  0.38297019579E+03  0.00000000000E+00 0. -1.
<mgrwt>
<rscale>  3 0.36049245E+03</rscale>
<asrwt>0</asrwt>
<pdfrwt beam="1">  1       21 0.53738710E-01 0.36049245E+03</pdfrwt>
<pdfrwt beam="2">  1       21 0.89233442E-01 0.36049245E+03</pdfrwt>
<totfact> 0.31668483E+03</totfact>
</mgrwt>
</event>
<event>
 4    0  0.1495377E-001  0.3335117E+03  0.7546771E-02  0.1069594E+00
         21   -1    0    0  502  501  0.00000000000E+00  0.00000000000E+00  0.12404374539E+04  0.12404374539E+04  0.00000000000E+00 0.  1.
         21   -1    0    0  503  502 -0.00000000000E+00 -0.00000000000E+00 -0.34648782400E+03  0.34648782400E+03  0.00000000000E+00 0.  1.
         25    1    1    2    0    0  0.29690286914E+03 -0.86334853808E+02 -0.24044300982E+03  0.41114822347E+03  0.12500000000E+03 0.  0.
         21    1    1    2  503  501 -0.29690286914E+03  0.86334853808E+02  0.11343926397E+04  0.11757770544E+04  0.00000000000E+00 0.  1.
<mgrwt>
<rscale>  3 0.33351165E+03</rscale>
<asrwt>0</asrwt>
<pdfrwt beam="1">  1       21 0.19083653E+00 0.33351165E+03</pdfrwt>
<pdfrwt beam="2">  1       21 0.53305820E-01 0.33351165E+03</pdfrwt>
<totfact> 0.45156842E+02</totfact>
</mgrwt>
</event>
<event>
 4    0  0.1495377E-001  0.3052430E+03  0.7546771E-02  0.1082649E+00
         21   -1    0    0  502  501  0.00000000000E+00  0.00000000000E+00  0.69097406608E+03  0.69097406608E+03  0.00000000000E+00 0. -1.
         21   -1    0    0  503  502 -0.00000000000E+00 -0.00000000000E+00 -0.15802534462E+03  0.15802534462E+03  0.00000000000E+00 0. -1.
         25    1    1    2    0    0  0.27846558008E+03 -0.22767822064E+01  0.77113732251E+02  0.31483295686E+03  0.12500000000E+03 0.  0.
         21    1    1    2  503  501 -0.27846558008E+03  0.22767822064E+01  0.45583498921E+03  0.53416645385E+03  0.00000000000E+00 0. -1.
<mgrwt>
<rscale>  3 0.30524296E+03</rscale>
<asrwt>0</asrwt>
<pdfrwt beam="1">  1       21 0.10630370E+00 0.30524296E+03</pdfrwt>
<pdfrwt beam="2">  1       21 0.24311592E-01 0.30524296E+03</pdfrwt>
<totfact> 0.10627984E+04</totfact>
</mgrwt>
</event>
<event>
 4    0  0.1495377E-001  0.2515541E+03  0.7546771E-02  0.1112327E+00
         21   -1    0    0  502  501  0.00000000000E+00  0.00000000000E+00  0.32064819332E+03  0.32064819332E+03  0.00000000000E+00 0. -1.
         21   -1    0    0  503  502 -0.00000000000E+00 -0.00000000000E+00 -0.40337592765E+03  0.40337592765E+03  0.00000000000E+00 0.  1.
         25    1    1    2    0    0 -0.83161762751E+02  0.20183805139E+03 -0.31642243676E+03  0.40423091947E+03  0.12500000000E+03 0.  0.
         21    1    1    2  503  501  0.83161762751E+02 -0.20183805139E+03  0.23369470244E+03  0.31979320149E+03  0.00000000000E+00 0. -1.
<mgrwt>
<rscale>  3 0.25155412E+03</rscale>
<asrwt>0</asrwt>
<pdfrwt beam="1">  1       21 0.49330492E-01 0.25155412E+03</pdfrwt>
<pdfrwt beam="2">  1       21 0.62057835E-01 0.25155412E+03</pdfrwt>
<totfact> 0.90987390E+03</totfact>
</mgrwt>
</event>
<event>
 4    0  0.1495377E-001  0.2708311E+03  0.7546771E-02  0.1100805E+00
         21   -1    0    0  503  501  0.00000000000E+00  0.00000000000E+00  0.64328749021E+03  0.64328749021E+03  0.00000000000E+00 0. -1.
         21   -1    0    0  501  502 -0.00000000000E+00 -0.00000000000E+00 -0.12337596925E+03  0.12337596925E+03  0.00000000000E+00 0. -1.
         25    1    1    2    0    0 -0.23598962411E+03  0.45093130357E+02  0.11162862695E+03  0.29293419645E+03  0.12500000000E+03 0.  0.
         21    1    1    2  503  502  0.23598962411E+03 -0.45093130357E+02  0.40828289401E+03  0.47372926302E+03  0.00000000000E+00 0. -1.
<mgrwt>
<rscale>  3 0.27083112E+03</rscale>
<asrwt>0</asrwt>
<pdfrwt beam="1">  1       21 0.98967305E-01 0.27083112E+03</pdfrwt>
<pdfrwt beam="2">  1       21 0.18980919E-01 0.27083112E+03</pdfrwt>
<totfact> 0.20529821E+04</totfact>
</mgrwt>
</event>
<event>
 4    0  0.1495377E-001  0.2519563E+03  0.7546771E-02  0.1112075E+00
         21   -1    0    0  502  501  0.00000000000E+00  0.00000000000E+00  0.14667423532E+04  0.14667423532E+04  0.00000000000E+00 0. -1.
         21   -1    0    0  503  502 -0.00000000000E+00 -0.00000000000E+00 -0.59169304531E+02  0.59169304531E+02  0.00000000000E+00 0. -1.
         25    1    1    2    0    0 -0.16812103011E+03 -0.13997244169E+03  0.27732819725E+03  0.37469039778E+03  0.12500000000E+03 0.  0.
         21    1    1    2  503  501  0.16812103011E+03  0.13997244169E+03  0.11302448515E+04  0.11512212600E+04  0.00000000000E+00 0. -1.
<mgrwt>
<rscale>  3 0.25195628E+03</rscale>
<asrwt>0</asrwt>
<pdfrwt beam="1">  1       21 0.22565264E+00 0.25195628E+03</pdfrwt>
<pdfrwt beam="2">  1       21 0.91029710E-02 0.25195628E+03</pdfrwt>
<totfact> 0.84764604E+03</totfact>
</mgrwt>
</event>
<event>
 4    0  0.1495377E-001  0.2377349E+03  0.7546771E-02  0.1121311E+00
         21   -1    0    0  503  501  0.00000000000E+00  0.00000000000E+00  0.16105559819E+03  0.16105559819E+03  0.00000000000E+00 0.  1.
         21   -1    0    0  501  502 -0.00000000000E+00 -0.00000000000E+00 -0.45757582413E+03  0.45757582413E+03  0.00000000000E+00 0.  1.
         25    1    1    2    0    0  0.39848016242E+01  0.20218063255E+03 -0.33698405745E+03  0.41240288772E+03  0.12500000000E+03 0.  0.
         21    1    1    2  503  502 -0.39848016242E+01 -0.20218063255E+03  0.40463831509E+02  0.20622853460E+03  0.00000000000E+00 0.  1.
<mgrwt>
<rscale>  3 0.23773491E+03</rscale>
<asrwt>0</asrwt>
<pdfrwt beam="1">  1       21 0.24777784E-01 0.23773491E+03</pdfrwt>
<pdfrwt beam="2">  1       21 0.70396281E-01 0.23773491E+03</pdfrwt>
<totfact> 0.27530265E+04</totfact>
</mgrwt>
</event>
<event>
 4    0  0.1495377E-001  0.3141723E+03  0.7546771E-02  0.1078363E+00
         21   -1    0    0  503  501  0.00000000000E+00  0.00000000000E+00  0.52493011987E+02  0.52493011987E+02  0.00000000000E+00 0.  1.
         21   -1    0    0  501  502 -0.00000000000E+00 -0.00000000000E+00 -0.17287099686E+04  0.17287099686E+04  0.00000000000E+00 0. -1.
         25    1    1    2    0    0 -0.53121554266E+02 -0.28329722827E+03 -0.88793395591E+03  0.94187628122E+03  0.12500000000E+03 0.  0.
         21    1    1    2  503  502  0.53121554266E+02  0.28329722827E+03 -0.78828300075E+03  0.83932669941E+03  0.00000000000E+00 0.  1.
<mgrwt>
<rscale>  3 0.31417228E+03</rscale>
<asrwt>0</asrwt>
<pdfrwt beam="1">  1       21 0.80758490E-02 0.31417228E+03</pdfrwt>
<pdfrwt beam="2">  1       21 0.26595535E+00 0.31417228E+03</pdfrwt>
<totfact> 0.57308478E+03</totfact>
</mgrwt>
</event>
<event>
 4    0  0.1495377E-001  0.2588021E+03  0.7546771E-02  0.1107865E+00
         21   -1    0    0  502  501  0.00000000000E+00  0.00000000000E+00  0.23228112546E+03  0.23228112546E+03  0.00000000000E+00 0. -1.
         21   -1    0    0  503  502 -0.00000000000E+00 -0.00000000000E+00 -0.30852408840E+03  0.30852408840E+03  0.00000000000E+00 0. -1.
         25    1    1    2    0    0  0.29361738132E+02 -0.22470289776E+03 -0.15408092735E+03  0.30119667346E+03  0.12500000000E+03 0.  0.
         21    1    1    2  503  501 -0.29361738132E+02  0.22470289776E+03  0.77837964410E+02  0.23960854040E+03  0.00000000000E+00 0. -1.
<mgrwt>
<rscale>  3 0.25880206E+03</rscale>
<asrwt>0</asrwt>
<pdfrwt beam="1">  1       21 0.35735558E-01 0.25880206E+03</pdfrwt>
<pdfrwt beam="2">  1       21 0.47465244E-01 0.25880206E+03</pdfrwt>
<totfact> 0.31038300E+04</totfact>
</mgrwt>
</event>
<event>
 4    0  0.1495377E-001  0.2781820E+03  0.7546771E-02  0.1096686E+00
         21   -1    0    0  502  501  0.00000000000E+00  0.00000000000E+00  0.13242657711E+04  0.13242657711E+04  0.00000000000E+00 0.  1.
         21   -1    0    0  503  502 -0.00000000000E+00 -0.00000000000E+00 -0.15254930550E+03  0.15254930550E+03  0.00000000000E+00 0. -1.
         25    1    1    2    0    0 -0.24769332435E+03  0.20204981240E+02 -0.86946932566E+00  0.27818335711E+03  0.12500000000E+03 0.  0.
         21    1    1    2  503  501  0.24769332435E+03 -0.20204981240E+02  0.11725859349E+04  0.11986317195E+04  0.00000000000E+00 0.  1.
<mgrwt>
<rscale>  3 0.27818200E+03</rscale>
<asrwt>0</asrwt>
<pdfrwt beam="1">  1       21 0.20373319E+00 0.27818200E+03</pdfrwt>
<pdfrwt beam="2">  1       21 0.23469125E-01 0.27818200E+03</pdfrwt>
<totfact> 0.20140570E+03</totfact>
</mgrwt>
</event>
<event>
 4    0  0.1495377E-001  0.2636885E+03  0.7546771E-02  0.1104947E+00
         21   -1    0    0  502  501  0.00000000000E+00  0.00000000000E+00  0.75840440440E+03  0.75840440440E+03  0.00000000000E+00 0. -1.
         21   -1    0    0  503  502 -0.00000000000E+00 -0.00000000000E+00 -0.81074064626E+02  0.81074064626E+02  0.00000000000E+00 0. -1.
         25    1    1    2    0    0  0.83446201828E+02  0.21666415201E+03  0.36694452893E+03  0.45186271220E+03  0.12500000000E+03 0.  0.
         21    1    1    2  503  501 -0.83446201828E+02 -0.21666415201E+03  0.31038581084E+03  0.38761575682E+03  0.00000000000E+00 0. -1.
<mgrwt>
<rscale>  3 0.26368850E+03</rscale>
<asrwt>0</asrwt>
<pdfrwt beam="1">  1       21 0.11667760E+00 0.26368850E+03</pdfrwt>
<pdfrwt beam="2">  1       21 0.12472933E-01 0.26368850E+03</pdfrwt>
<totfact> 0.29863535E+04</totfact>
</mgrwt>
</event>
<event>
 4    0  0.1495377E-001  0.2756436E+03  0.7546771E-02  0.1098092E+00
         21   -1    0    0  502  501  0.00000000000E+00  0.00000000000E+00  0.12198207423E+03  0.12198207423E+03  0.00000000000E+00 0.  1.
         21   -1    0    0  503  502 -0.00000000000E+00 -0.00000000000E+00 -0.62920815083E+03  0.62920815083E+03  0.00000000000E+00 0.  1.
         25    1    1    2    0    0  0.10223734893E+03  0.22338742403E+03 -0.39358407722E+03  0.48050790064E+03  0.12500000000E+03 0.  0.
         21    1    1    2  503  501 -0.10223734893E+03 -0.22338742403E+03 -0.11364199938E+03  0.27068232442E+03  0.00000000000E+00 0.  1.
<mgrwt>
<rscale>  3 0.27564364E+03</rscale>
<asrwt>0</asrwt>
<pdfrwt beam="1">  1       21 0.18766473E-01 0.27564364E+03</pdfrwt>
<pdfrwt beam="2">  1       21 0.96801253E-01 0.27564364E+03</pdfrwt>
<totfact> 0.22058005E+04</totfact>
</mgrwt>
</event>
<event>
 4    0  0.1495377E-001  0.3754037E+03  0.7546771E-02  0.1052646E+00
         21   -1    0    0  503  501  0.00000000000E+00  0.00000000000E+00  0.33681809175E+03  0.33681809175E+03  0.00000000000E+00 0. -1.
         21   -1    0    0  501  502 -0.00000000000E+00 -0.00000000000E+00 -0.68410159789E+03  0.68410159789E+03  0.00000000000E+00 0. -1.
         25    1    1    2    0    0 -0.22921197348E+03 -0.26974946206E+03 -0.50841351895E+03  0.63199067028E+03  0.12500000000E+03 0.  0.
         21    1    1    2  503  502  0.22921197348E+03  0.26974946206E+03  0.16113001281E+03  0.38892901936E+03  0.00000000000E+00 0. -1.
<mgrwt>
<rscale>  3 0.37540365E+03</rscale>
<asrwt>0</asrwt>
<pdfrwt beam="1">  1       21 0.51818168E-01 0.37540365E+03</pdfrwt>
<pdfrwt beam="2">  1       21 0.10524640E+00 0.37540365E+03</pdfrwt>
<totfact> 0.22884307E+03</totfact>
</mgrwt>
</event>
<event>
 4    0  0.1495377E-001  0.2945582E+03  0.7546771E-02  0.1087993E+00
         21   -1    0    0  503  501  0.00000000000E+00  0.00000000000E+00  0.20328048806E+03  0.20328048806E+03  0.00000000000E+00 0.  1.
         21   -1    0    0  501  502 -0.00000000000E+00 -0.00000000000E+00 -0.38847055677E+03  0.38847055677E+03  0.00000000000E+00 0.  1.
         25    1    1    2    0    0 -0.26645290956E+03  0.11932298410E+02 -0.81929243772E+02  0.30573997734E+03  0.12500000000E+03 0.  0.
         21    1    1    2  503  502  0.26645290956E+03 -0.11932298410E+02 -0.10326082494E+03  0.28601106749E+03  0.00000000000E+00 0.  1.
<mgrwt>
<rscale>  3 0.29455820E+03</rscale>
<asrwt>0</asrwt>
<pdfrwt beam="1">  1       21 0.31273921E-01 0.29455820E+03</pdfrwt>
<pdfrwt beam="2">  1       21 0.59764701E-01 0.29455820E+03</pdfrwt>
<totfact> 0.24449487E+04</totfact>
</mgrwt>
</event>
<event>
 4    0  0.1495377E-001  0.3157038E+03  0.7546771E-02  0.1077644E+00
         21   -1    0    0  502  501  0.00000000000E+00  0.00000000000E+00  0.57409215641E+03  0.57409215641E+03  0.00000000000E+00 0.  1.
         21   -1    0    0  503  502 -0.00000000000E+00 -0.00000000000E+00 -0.56287728211E+03  0.56287728211E+03  0.00000000000E+00 0.  1.
         25    1    1    2    0    0 -0.22508307948E+03  0.18270607308E+03 -0.47532037170E+03  0.57061226552E+03  0.12500000000E+03 0.  0.
         21    1    1    2  503  501  0.22508307948E+03 -0.18270607308E+03  0.48653524600E+03  0.56635717300E+03  0.00000000000E+00 0.  1.
<mgrwt>
<rscale>  3 0.31570382E+03</rscale>
<asrwt>0</asrwt>
<pdfrwt beam="1">  1       21 0.88321870E-01 0.31570382E+03</pdfrwt>
<pdfrwt beam="2">  1       21 0.86596505E-01 0.31570382E+03</pdfrwt>
<totfact> 0.11463536E+03</totfact>
</mgrwt>
</event>
<event>
 4    0  0.1495377E-001  0.2495221E+03  0.7546771E-02  0.1113607E+00
         21   -1    0    0  503  501  0.00000000000E+00  0.00000000000E+00  0.16467472565E+03  0.16467472565E+03  0.00000000000E+00 0. -1.
         21   -1    0    0  501  502 -0.00000000000E+00 -0.00000000000E+00 -0.55488546695E+03  0.55488546695E+03  0.00000000000E+00 0.  1.
         25    1    1    2    0    0 -0.16173675380E+03 -0.14309957428E+03 -0.43267674377E+03  0.49947014955E+03  0.12500000000E+03 0.  0.
         21    1    1    2  503  502  0.16173675380E+03  0.14309957428E+03  0.42466002471E+02  0.22009004306E+03  0.00000000000E+00 0. -1.
<mgrwt>
<rscale>  3 0.24952207E+03</rscale>
<asrwt>0</asrwt>
<pdfrwt beam="1">  1       21 0.25334573E-01 0.24952207E+03</pdfrwt>
<pdfrwt beam="2">  1       21 0.85366996E-01 0.24952207E+03</pdfrwt>
<totfact> 0.16958806E+04</totfact>
</mgrwt>
</event>
<event>
 4    0  0.1495377E-001  0.2670576E+03  0.7546771E-02  0.1102976E+00
         21   -1    0    0  502  501  0.00000000000E+00  0.00000000000E+00  0.13900967100E+03  0.13900967100E+03  0.00000000000E+00 0.  1.
         21   -1    0    0  503  502 -0.00000000000E+00 -0.00000000000E+00 -0.46689530213E+03  0.46689530213E+03  0.00000000000E+00 0. -1.
         25    1    1    2    0    0  0.12726153802E+03  0.19874424552E+03 -0.22183198957E+03  0.34717316397E+03  0.12500000000E+03 0.  0.
         21    1    1    2  503  501 -0.12726153802E+03 -0.19874424552E+03 -0.10605364156E+03  0.25873180916E+03  0.00000000000E+00 0.  1.
<mgrwt>
<rscale>  3 0.26705762E+03</rscale>
<asrwt>0</asrwt>
<pdfrwt beam="1">  1       21 0.21386103E-01 0.26705762E+03</pdfrwt>
<pdfrwt beam="2">  1       21 0.71830048E-01 0.26705762E+03</pdfrwt>
<totfact> 0.34396975E+04</totfact>
</mgrwt>
</event>
<event>
 4    0  0.1495377E-001  0.2390429E+03  0.7546771E-02  0.1120432E+00
         21   -1    0    0  503  501  0.00000000000E+00  0.00000000000E+00  0.17733651586E+03  0.17733651586E+03  0.00000000000E+00 0.  1.
         21   -1    0    0  501  502 -0.00000000000E+00 -0.00000000000E+00 -0.28432185116E+03  0.28432185116E+03  0.00000000000E+00 0.  1.
         25    1    1    2    0    0  0.18670148490E+03 -0.81603055291E+02 -0.19252014470E+02  0.23981689506E+03  0.12500000000E+03 0.  0.
         21    1    1    2  503  502 -0.18670148490E+03  0.81603055291E+02 -0.87733320827E+02  0.22184147196E+03  0.00000000000E+00 0.  1.
<mgrwt>
<rscale>  3 0.23904289E+03</rscale>
<asrwt>0</asrwt>
<pdfrwt beam="1">  1       21 0.27282541E-01 0.23904289E+03</pdfrwt>
<pdfrwt beam="2">  1       21 0.43741823E-01 0.23904289E+03</pdfrwt>
<totfact> 0.63067113E+04</totfact>
</mgrwt>
</event>
<event>
 4    0  0.1495377E-001  0.2437288E+03  0.7546771E-02  0.1117333E+00
         21   -1    0    0  503  501  0.00000000000E+00  0.00000000000E+00  0.54425988059E+02  0.54425988059E+02  0.00000000000E+00 0. -1.
         21   -1    0    0  501  502 -0.00000000000E+00 -0.00000000000E+00 -0.10436895626E+04  0.10436895626E+04  0.00000000000E+00 0. -1.
         25    1    1    2    0    0 -0.19946575742E+03  0.63183380818E+02 -0.69920279535E+03  0.74046490600E+03  0.12500000000E+03 0.  0.
         21    1    1    2  503  502  0.19946575742E+03 -0.63183380818E+02 -0.29006077915E+03  0.35765064462E+03  0.00000000000E+00 0. -1.
<mgrwt>
<rscale>  3 0.24372880E+03</rscale>
<asrwt>0</asrwt>
<pdfrwt beam="1">  1       21 0.83732295E-02 0.24372880E+03</pdfrwt>
<pdfrwt beam="2">  1       21 0.16056761E+00 0.24372880E+03</pdfrwt>
<totfact> 0.26791895E+04</totfact>
</mgrwt>
</event>
<event>
 4    0  0.1495377E-001  0.2631264E+03  0.7546771E-02  0.1105279E+00
         21   -1    0    0  502  501  0.00000000000E+00  0.00000000000E+00  0.61973669235E+03  0.61973669235E+03  0.00000000000E+00 0. -1.
         21   -1    0    0  503  502 -0.00000000000E+00 -0.00000000000E+00 -0.10296430067E+03  0.10296430067E+03  0.00000000000E+00 0. -1.
         25    1    1    2    0    0 -0.63843120052E+02  0.22256364588E+03  0.20088736536E+03  0.33104569776E+03  0.12500000000E+03 0.  0.
         21    1    1    2  503  501  0.63843120052E+02 -0.22256364588E+03  0.31588502632E+03  0.39165529525E+03  0.00000000000E+00 0. -1.
<mgrwt>
<rscale>  3 0.26312643E+03</rscale>
<asrwt>0</asrwt>
<pdfrwt beam="1">  1       21 0.95344104E-01 0.26312643E+03</pdfrwt>
<pdfrwt beam="2">  1       21 0.15840662E-01 0.26312643E+03</pdfrwt>
<totfact> 0.31492385E+04</totfact>
</mgrwt>
</event>
<event>
 4    0  0.1495377E-001  0.4931958E+03  0.7546771E-02  0.1015570E+00
         21   -1    0    0  502  501  0.00000000000E+00  0.00000000000E+00  0.57351993496E+03  0.57351993496E+03  0.00000000000E+00 0. -1.
         21   -1    0    0  503  502 -0.00000000000E+00 -0.00000000000E+00 -0.55173485763E+03  0.55173485763E+03  0.00000000000E+00 0. -1.
         25    1    1    2    0    0 -0.35183435017E+03 -0.32222610323E+03 -0.27371846064E+03  0.56406016279E+03  0.12500000000E+03 0.  0.
         21    1    1    2  503  501  0.35183435017E+03  0.32222610323E+03  0.29550353797E+03  0.56119462980E+03  0.00000000000E+00 0. -1.
<mgrwt>
<rscale>  3 0.49319577E+03</rscale>
<asrwt>0</asrwt>
<pdfrwt beam="1">  1       21 0.88233836E-01 0.49319577E+03</pdfrwt>
<pdfrwt beam="2">  1       21 0.84882286E-01 0.49319577E+03</pdfrwt>
<totfact> 0.11085152E+03</totfact>
</mgrwt>
</event>
<event>
 4    0  0.1495377E-001  0.3290849E+03  0.7546771E-02  0.1071542E+00
         21   -1    0    0  503  501  0.00000000000E+00  0.00000000000E+00  0.98535404863E+03  0.98535404863E+03  0.00000000000E+00 0. -1.
         21   -1    0    0  501  502 -0.00000000000E+00 -0.00000000000E+00 -0.18407850090E+03  0.18407850090E+03  0.00000000000E+00 0. -1.
         25    1    1    2    0    0  0.81410221813E+01 -0.30431165346E+03  0.18566768315E+02  0.32960822739E+03  0.12500000000E+03 0.  0.
         21    1    1    2  503  502 -0.81410221813E+01  0.30431165346E+03  0.78270877941E+03  0.83982432213E+03  0.00000000000E+00 0. -1.
<mgrwt>
<rscale>  3 0.32908488E+03</rscale>
<asrwt>0</asrwt>
<pdfrwt beam="1">  1       21 0.15159293E+00 0.32908488E+03</pdfrwt>
<pdfrwt beam="2">  1       21 0.28319770E-01 0.32908488E+03</pdfrwt>
<totfact> 0.31532475E+03</totfact>
</mgrwt>
</event>
<event>
 4    0  0.1495377E-001  0.3359286E+03  0.7546771E-02  0.1068543E+00
         21   -1    0    0  503  501  0.00000000000E+00  0.00000000000E+00  0.26678580989E+04  0.26678580989E+04  0.00000000000E+00 0. -1.
         21   -1    0    0  501  502 -0.00000000000E+00 -0.00000000000E+00 -0.10953364007E+03  0.10953364007E+03  0.00000000000E+00 0.  1.
         25    1    1    2    0    0 -0.13041022916E+03 -0.28322459560E+03  0.18466337620E+03  0.38333870394E+03  0.12500000000E+03 0.  0.
         21    1    1    2  503  502  0.13041022916E+03  0.28322459560E+03  0.23736610826E+04  0.23940530350E+04  0.00000000000E+00 0. -1.
<mgrwt>
<rscale>  3 0.33592856E+03</rscale>
<asrwt>0</asrwt>
<pdfrwt beam="1">  1       21 0.41043966E+00 0.33592856E+03</pdfrwt>
<pdfrwt beam="2">  1       21 0.16851331E-01 0.33592856E+03</pdfrwt>
<totfact> 0.19784195E+02</totfact>
</mgrwt>
</event>
<event>
 4    0  0.1495377E-001  0.3162616E+03  0.7546771E-02  0.1077383E+00
         21   -1    0    0  502  501  0.00000000000E+00  0.00000000000E+00  0.53000549850E+02  0.53000549850E+02  0.00000000000E+00 0.  1.
         21   -1    0    0  503  502 -0.00000000000E+00 -0.00000000000E+00 -0.20890962922E+04  0.20890962922E+04  0.00000000000E+00 0. -1.
         25    1    1    2    0    0  0.28107595401E+03 -0.73435191510E+02 -0.14935603195E+04  0.15266773881E+04  0.12500000000E+03 0.  0.
         21    1    1    2  503  501 -0.28107595401E+03  0.73435191510E+02 -0.54253542280E+03  0.61541945392E+03  0.00000000000E+00 0.  1.
<mgrwt>
<rscale>  3 0.31626163E+03</rscale>
<asrwt>0</asrwt>
<pdfrwt beam="1">  1       21 0.81539327E-02 0.31626163E+03</pdfrwt>
<pdfrwt beam="2">  1       21 0.32139935E+00 0.31626163E+03</pdfrwt>
<totfact> 0.26410966E+03</totfact>
</mgrwt>
</event>
<event>
 4    0  0.1495377E-001  0.3361221E+03  0.7546771E-02  0.1068460E+00
         21   -1    0    0  502  501  0.00000000000E+00  0.00000000000E+00  0.69397872213E+03  0.69397872213E+03  0.00000000000E+00 0. -1.
         21   -1    0    0  503  502 -0.00000000000E+00 -0.00000000000E+00 -0.21086643999E+03  0.21086643999E+03  0.00000000000E+00 0. -1.
         25    1    1    2    0    0  0.20420762110E+03  0.23590748700E+03  0.77263422117E+01  0.33621093275E+03  0.12500000000E+03 0.  0.
         21    1    1    2  503  501 -0.20420762110E+03 -0.23590748700E+03  0.47538593992E+03  0.56863422937E+03  0.00000000000E+00 0. -1.
<mgrwt>
<rscale>  3 0.33612214E+03</rscale>
<asrwt>0</asrwt>
<pdfrwt beam="1">  1       21 0.10676596E+00 0.33612214E+03</pdfrwt>
<pdfrwt beam="2">  1       21 0.32440991E-01 0.33612214E+03</pdfrwt>
<totfact> 0.58955857E+03</totfact>
</mgrwt>
</event>
<event>
 4    0  0.1495377E-001  0.2370865E+03  0.7546771E-02  0.1121749E+00
         21   -1    0    0  503  501  0.00000000000E+00  0.00000000000E+00  0.11224587107E+04  0.11224587107E+04  0.00000000000E+00 0. -1.
         21   -1    0    0  501  502 -0.00000000000E+00 -0.00000000000E+00 -0.17673645633E+03  0.17673645633E+03  0.00000000000E+00 0. -1.
         25    1    1    2    0    0 -0.11187868385E+03 -0.16753555359E+03 -0.82799774982E+02  0.25112905916E+03  0.12500000000E+03 0.  0.
         21    1    1    2  503  502  0.11187868385E+03  0.16753555359E+03  0.10285220293E+04  0.10480661079E+04  0.00000000000E+00 0. -1.
<mgrwt>
<rscale>  3 0.23708649E+03</rscale>
<asrwt>0</asrwt>
<pdfrwt beam="1">  1       21 0.17268595E+00 0.23708649E+03</pdfrwt>
<pdfrwt beam="2">  1       21 0.27190225E-01 0.23708649E+03</pdfrwt>
<totfact> 0.25330227E+03</totfact>
</mgrwt>
</event>
<event>
 4    0  0.1495377E-001  0.2813333E+03  0.7546771E-02  0.1094963E+00
         21   -1    0    0  502  501  0.00000000000E+00  0.00000000000E+00  0.21411911088E+03  0.21411911088E+03  0.00000000000E+00 0.  1.
         21   -1    0    0  503  502 -0.00000000000E+00 -0.00000000000E+00 -0.76993993638E+03  0.76993993638E+03  0.00000000000E+00 0.  1.
         25    1    1    2    0    0  0.11208804628E+03 -0.22574259794E+03 -0.65526897218E+03  0.71311000311E+03  0.12500000000E+03 0.  0.
         21    1    1    2  503  501 -0.11208804628E+03  0.22574259794E+03  0.99448146681E+02  0.27094904414E+03  0.00000000000E+00 0.  1.
<mgrwt>
<rscale>  3 0.28133334E+03</rscale>
<asrwt>0</asrwt>
<pdfrwt beam="1">  1       21 0.32941402E-01 0.28133334E+03</pdfrwt>
<pdfrwt beam="2">  1       21 0.11845230E+00 0.28133334E+03</pdfrwt>
<totfact> 0.45511508E+03</totfact>
</mgrwt>
</event>
<event>
 4    0  0.1495377E-001  0.2422415E+03  0.7546771E-02  0.1118309E+00
         21   -1    0    0  502  501  0.00000000000E+00  0.00000000000E+00  0.52729465064E+03  0.52729465064E+03  0.00000000000E+00 0.  1.
         21   -1    0    0  503  502 -0.00000000000E+00 -0.00000000000E+00 -0.30921581948E+03  0.30921581948E+03  0.00000000000E+00 0.  1.
         25    1    1    2    0    0  0.12590575356E+03 -0.16493537256E+03 -0.23542179318E+03  0.33779336377E+03  0.12500000000E+03 0.  0.
         21    1    1    2  503  501 -0.12590575356E+03  0.16493537256E+03  0.45350062433E+03  0.49871710635E+03  0.00000000000E+00 0.  1.
<mgrwt>
<rscale>  3 0.24224148E+03</rscale>
<asrwt>0</asrwt>
<pdfrwt beam="1">  1       21 0.81122254E-01 0.24224148E+03</pdfrwt>
<pdfrwt beam="2">  1       21 0.47571665E-01 0.24224148E+03</pdfrwt>
<totfact> 0.54370986E+03</totfact>
</mgrwt>
</event>
<event>
 4    0  0.1495377E-001  0.2560516E+03  0.7546771E-02  0.1109539E+00
         21   -1    0    0  502  501  0.00000000000E+00  0.00000000000E+00  0.46303324621E+03  0.46303324621E+03  0.00000000000E+00 0. -1.
         21   -1    0    0  503  502 -0.00000000000E+00 -0.00000000000E+00 -0.13595926421E+03  0.13595926421E+03  0.00000000000E+00 0. -1.
         25    1    1    2    0    0  0.55207460420E+02 -0.21653998976E+03  0.85594905242E+02  0.26997947821E+03  0.12500000000E+03 0.  0.
         21    1    1    2  503  501 -0.55207460420E+02  0.21653998976E+03  0.24147907675E+03  0.32901303221E+03  0.00000000000E+00 0. -1.
<mgrwt>
<rscale>  3 0.25605162E+03</rscale>
<asrwt>0</asrwt>
<pdfrwt beam="1">  1       21 0.71235883E-01 0.25605162E+03</pdfrwt>
<pdfrwt beam="2">  1       21 0.20916810E-01 0.25605162E+03</pdfrwt>
<totfact> 0.36708412E+04</totfact>
</mgrwt>
</event>
<event>
 4    0  0.1495377E-001  0.3636016E+03  0.7546771E-02  0.1057167E+00
         21   -1    0    0  502  501  0.00000000000E+00  0.00000000000E+00  0.96271243224E+02  0.96271243224E+02  0.00000000000E+00 0.  1.
         21   -1    0    0  503  502 -0.00000000000E+00 -0.00000000000E+00 -0.15432462112E+04  0.15432462112E+04  0.00000000000E+00 0.  1.
         25    1    1    2    0    0 -0.30919003256E+03 -0.14485399310E+03 -0.10738985903E+04  0.11337831970E+04  0.12500000000E+03 0.  0.
         21    1    1    2  503  501  0.30919003256E+03  0.14485399310E+03 -0.37307637767E+03  0.50573425741E+03  0.00000000000E+00 0.  1.
<mgrwt>
<rscale>  3 0.36360164E+03</rscale>
<asrwt>0</asrwt>
<pdfrwt beam="1">  1       21 0.14810963E-01 0.36360164E+03</pdfrwt>
<pdfrwt beam="2">  1       21 0.23742245E+00 0.36360164E+03</pdfrwt>
<totfact> 0.27783260E+03</totfact>
</mgrwt>
</event>
<event>
 4    0  0.1495377E-001  0.2693455E+03  0.7546771E-02  0.1101655E+00
         21   -1    0    0  502  501  0.00000000000E+00  0.00000000000E+00  0.79772936875E+03  0.79772936875E+03  0.00000000000E+00 0. -1.
         21   -1    0    0  503  502 -0.00000000000E+00 -0.00000000000E+00 -0.81970592130E+02  0.81970592130E+02  0.00000000000E+00 0. -1.
         25    1    1    2    0    0 -0.77062556228E+02  0.22579493884E+03  0.43055009383E+03  0.50785861741E+03  0.12500000000E+03 0.  0.
         21    1    1    2  503  501  0.77062556228E+02 -0.22579493884E+03  0.28520868279E+03  0.37184134347E+03  0.00000000000E+00 0. -1.
<mgrwt>
<rscale>  3 0.26934549E+03</rscale>
<asrwt>0</asrwt>
<pdfrwt beam="1">  1       21 0.12272759E+00 0.26934549E+03</pdfrwt>
<pdfrwt beam="2">  1       21 0.12610861E-01 0.26934549E+03</pdfrwt>
<totfact> 0.25735103E+04</totfact>
</mgrwt>
</event>
<event>
 4    0  0.1495377E-001  0.2475567E+03  0.7546771E-02  0.1114859E+00
         21   -1    0    0  503  501  0.00000000000E+00  0.00000000000E+00  0.13563812298E+03  0.13563812298E+03  0.00000000000E+00 0.  1.
         21   -1    0    0  501  502 -0.00000000000E+00 -0.00000000000E+00 -0.14133404653E+04  0.14133404653E+04  0.00000000000E+00 0.  1.
         25    1    1    2    0    0 -0.20655283941E+03  0.54728817626E+02 -0.13097218524E+04  0.13329124688E+04  0.12500000000E+03 0.  0.
         21    1    1    2  503  502  0.20655283941E+03 -0.54728817626E+02  0.32019510068E+02  0.21606611944E+03  0.00000000000E+00 0.  1.
<mgrwt>
<rscale>  3 0.24755670E+03</rscale>
<asrwt>0</asrwt>
<pdfrwt beam="1">  1       21 0.20867405E-01 0.24755670E+03</pdfrwt>
<pdfrwt beam="2">  1       21 0.21743698E+00 0.24755670E+03</pdfrwt>
<totfact> 0.21103952E+03</totfact>
</mgrwt>
</event>
<event>
 4    0  0.1495377E-001  0.3311696E+03  0.7546771E-02  0.1070621E+00
         21   -1    0    0  503  501  0.00000000000E+00  0.00000000000E+00  0.32648910922E+03  0.32648910922E+03  0.00000000000E+00 0. -1.
         21   -1    0    0  501  502 -0.00000000000E+00 -0.00000000000E+00 -0.32158176368E+03  0.32158176368E+03  0.00000000000E+00 0. -1.
         25    1    1    2    0    0  0.30636652034E+03 -0.13707362407E+02 -0.54705597562E+02  0.33565762165E+03  0.12500000000E+03 0.  0.
         21    1    1    2  503  502 -0.30636652034E+03  0.13707362407E+02  0.59612943106E+02  0.31241325125E+03  0.00000000000E+00 0. -1.
<mgrwt>
<rscale>  3 0.33116965E+03</rscale>
<asrwt>0</asrwt>
<pdfrwt beam="1">  1       21 0.50229094E-01 0.33116965E+03</pdfrwt>
<pdfrwt beam="2">  1       21 0.49474117E-01 0.33116965E+03</pdfrwt>
<totfact> 0.13716219E+04</totfact>
</mgrwt>
</event>
<event>
 4    0  0.1495377E-001  0.2896946E+03  0.7546771E-02  0.1090509E+00
         21   -1    0    0  502  501  0.00000000000E+00  0.00000000000E+00  0.27189386138E+03  0.27189386138E+03  0.00000000000E+00 0.  1.
         21   -1    0    0  503  502 -0.00000000000E+00 -0.00000000000E+00 -0.41757235174E+03  0.41757235174E+03  0.00000000000E+00 0.  1.
         25    1    1    2    0    0  0.22035493042E+03 -0.14050507058E+03 -0.27362403240E+03  0.39848849585E+03  0.12500000000E+03 0.  0.
         21    1    1    2  503  501 -0.22035493042E+03  0.14050507058E+03  0.12794554204E+03  0.29097771727E+03  0.00000000000E+00 0.  1.
<mgrwt>
<rscale>  3 0.28969462E+03</rscale>
<asrwt>0</asrwt>
<pdfrwt beam="1">  1       21 0.41829825E-01 0.28969462E+03</pdfrwt>
<pdfrwt beam="2">  1       21 0.64241900E-01 0.28969462E+03</pdfrwt>
<totfact> 0.11650937E+04</totfact>
</mgrwt>
</event>
<event>
 4    0  0.1495377E-001  0.3051015E+03  0.7546771E-02  0.1082718E+00
         21   -1    0    0  502  501  0.00000000000E+00  0.00000000000E+00  0.14165024431E+03  0.14165024431E+03  0.00000000000E+00 0.  1.
         21   -1    0    0  503  502 -0.00000000000E+00 -0.00000000000E+00 -0.19375193428E+04  0.19375193428E+04  0.00000000000E+00 0.  1.
         25    1    1    2    0    0  0.38632324342E+02 -0.27562557638E+03 -0.17739411989E+04  0.17999873033E+04  0.12500000000E+03 0.  0.
         21    1    1    2  503  501 -0.38632324342E+02  0.27562557638E+03 -0.21927899617E+02  0.27918228386E+03  0.00000000000E+00 0.  1.
<mgrwt>
<rscale>  3 0.30510148E+03</rscale>
<asrwt>0</asrwt>
<pdfrwt beam="1">  1       21 0.21792345E-01 0.30510148E+03</pdfrwt>
<pdfrwt beam="2">  1       21 0.29807990E+00 0.30510148E+03</pdfrwt>
<totfact> 0.60805109E+02</totfact>
</mgrwt>
</event>
<event>
 4    0  0.1495377E-001  0.2392235E+03  0.7546771E-02  0.1120311E+00
         21   -1    0    0  502  501  0.00000000000E+00  0.00000000000E+00  0.84589794123E+02  0.84589794123E+02  0.00000000000E+00 0. -1.
         21   -1    0    0  503  502 -0.00000000000E+00 -0.00000000000E+00 -0.85530625835E+03  0.85530625835E+03  0.00000000000E+00 0. -1.
         25    1    1    2    0    0  0.17735753370E+03  0.10073328084E+03 -0.67197027109E+03  0.71328250635E+03  0.12500000000E+03 0.  0.
         21    1    1    2  503  501 -0.17735753370E+03 -0.10073328084E+03 -0.98746193137E+02  0.22661354613E+03  0.00000000000E+00 0. -1.
<mgrwt>
<rscale>  3 0.23922351E+03</rscale>
<asrwt>0</asrwt>
<pdfrwt beam="1">  1       21 0.13013815E-01 0.23922351E+03</pdfrwt>
<pdfrwt beam="2">  1       21 0.13158557E+00 0.23922351E+03</pdfrwt>
<totfact> 0.20681001E+04</totfact>
</mgrwt>
</event>
<event>
 4    0  0.1495377E-001  0.2575419E+03  0.7546771E-02  0.1108629E+00
         21   -1    0    0  503  501  0.00000000000E+00  0.00000000000E+00  0.15561076988E+03  0.15561076988E+03  0.00000000000E+00 0.  1.
         21   -1    0    0  501  502 -0.00000000000E+00 -0.00000000000E+00 -0.37458651432E+03  0.37458651432E+03  0.00000000000E+00 0.  1.
         25    1    1    2    0    0  0.56329113554E+02 -0.21801340989E+03 -0.11022282792E+03  0.28013726585E+03  0.12500000000E+03 0.  0.
         21    1    1    2  503  502 -0.56329113554E+02  0.21801340989E+03 -0.10875291651E+03  0.25006001835E+03  0.00000000000E+00 0.  1.
<mgrwt>
<rscale>  3 0.25754187E+03</rscale>
<asrwt>0</asrwt>
<pdfrwt beam="1">  1       21 0.23940119E-01 0.25754187E+03</pdfrwt>
<pdfrwt beam="2">  1       21 0.57628694E-01 0.25754187E+03</pdfrwt>
<totfact> 0.45127494E+04</totfact>
</mgrwt>
</event>
<event>
 4    0  0.1495377E-001  0.2584974E+03  0.7546771E-02  0.1108049E+00
         21   -1    0    0  503  501  0.00000000000E+00  0.00000000000E+00  0.76205957609E+03  0.76205957609E+03  0.00000000000E+00 0.  1.
         21   -1    0    0  501  502 -0.00000000000E+00 -0.00000000000E+00 -0.79944235201E+02  0.79944235201E+02  0.00000000000E+00 0.  1.
         25    1    1    2    0    0  0.20612538986E+00  0.22626505112E+03  0.44227755489E+03  0.51227956372E+03  0.12500000000E+03 0.  0.
         21    1    1    2  503  502 -0.20612538986E+00 -0.22626505112E+03  0.23983778600E+03  0.32972424757E+03  0.00000000000E+00 0.  1.
<mgrwt>
<rscale>  3 0.25849742E+03</rscale>
<asrwt>0</asrwt>
<pdfrwt beam="1">  1       21 0.11723993E+00 0.25849742E+03</pdfrwt>
<pdfrwt beam="2">  1       21 0.12299114E-01 0.25849742E+03</pdfrwt>
<totfact> 0.30339627E+04</totfact>
</mgrwt>
</event>
<event>
 4    0  0.1495377E-001  0.3399103E+03  0.7546771E-02  0.1066834E+00
         21   -1    0    0  502  501  0.00000000000E+00  0.00000000000E+00  0.32033399245E+03  0.32033399245E+03  0.00000000000E+00 0.  1.
         21   -1    0    0  503  502 -0.00000000000E+00 -0.00000000000E+00 -0.38954078932E+03  0.38954078932E+03  0.00000000000E+00 0.  1.
         25    1    1    2    0    0 -0.29093272429E+03  0.12358047625E+03 -0.16738249736E+03  0.37888769390E+03  0.12500000000E+03 0.  0.
         21    1    1    2  503  501  0.29093272429E+03 -0.12358047625E+03  0.98175700479E+02  0.33098708787E+03  0.00000000000E+00 0.  1.
<mgrwt>
<rscale>  3 0.33991026E+03</rscale>
<asrwt>0</asrwt>
<pdfrwt beam="1">  1       21 0.49282153E-01 0.33991026E+03</pdfrwt>
<pdfrwt beam="2">  1       21 0.59929351E-01 0.33991026E+03</pdfrwt>
<totfact> 0.94373136E+03</totfact>
</mgrwt>
</event>
<event>
 4    0  0.1495377E-001  0.2522630E+03  0.7546771E-02  0.1111883E+00
         21   -1    0    0  502  501  0.00000000000E+00  0.00000000000E+00  0.16775444501E+03  0.16775444501E+03  0.00000000000E+00 0.  1.
         21   -1    0    0  503  502 -0.00000000000E+00 -0.00000000000E+00 -0.96692177714E+03  0.96692177714E+03  0.00000000000E+00 0. -1.
         25    1    1    2    0    0 -0.20645369819E+03 -0.73406194724E+02 -0.86886351511E+03  0.90474328227E+03  0.12500000000E+03 0.  0.
         21    1    1    2  503  501  0.20645369819E+03  0.73406194724E+02  0.69696182976E+02  0.22993293988E+03  0.00000000000E+00 0.  1.
<mgrwt>
<rscale>  3 0.25226296E+03</rscale>
<asrwt>0</asrwt>
<pdfrwt beam="1">  1       21 0.25808377E-01 0.25226296E+03</pdfrwt>
<pdfrwt beam="2">  1       21 0.14875719E+00 0.25226296E+03</pdfrwt>
<totfact> 0.41586307E+03</totfact>
</mgrwt>
</event>
<event>
 4    0  0.1495377E-001  0.3407864E+03  0.7546771E-02  0.1066461E+00
         21   -1    0    0  503  501  0.00000000000E+00  0.00000000000E+00  0.65044942948E+03  0.65044942948E+03  0.00000000000E+00 0. -1.
         21   -1    0    0  501  502 -0.00000000000E+00 -0.00000000000E+00 -0.19443203979E+03  0.19443203979E+03  0.00000000000E+00 0. -1.
         25    1    1    2    0    0  0.13845740434E+03  0.28520150791E+03  0.74506187672E+02  0.34883595705E+03  0.12500000000E+03 0.  0.
         21    1    1    2  503  502 -0.13845740434E+03 -0.28520150791E+03  0.38151120202E+03  0.49604551222E+03  0.00000000000E+00 0. -1.
<mgrwt>
<rscale>  3 0.34078637E+03</rscale>
<asrwt>0</asrwt>
<pdfrwt beam="1">  1       21 0.10006914E+00 0.34078637E+03</pdfrwt>
<pdfrwt beam="2">  1       21 0.29912622E-01 0.34078637E+03</pdfrwt>
<totfact> 0.80913795E+03</totfact>
</mgrwt>
</event>
<event>
 4    0  0.1495377E-001  0.2415012E+03  0.7546771E-02  0.1118797E+00
         21   -1    0    0  502  501  0.00000000000E+00  0.00000000000E+00  0.75981529864E+02  0.75981529864E+02  0.00000000000E+00 0.  1.
         21   -1    0    0  503  502 -0.00000000000E+00 -0.00000000000E+00 -0.10347117774E+04  0.10347117774E+04  0.00000000000E+00 0.  1.
         25    1    1    2    0    0  0.13118502059E+03 -0.15965063506E+03 -0.83639018485E+03  0.87055808320E+03  0.12500000000E+03 0.  0.
         21    1    1    2  503  501 -0.13118502059E+03  0.15965063506E+03 -0.12234006270E+03  0.24013522408E+03  0.00000000000E+00 0.  1.
<mgrwt>
<rscale>  3 0.24150121E+03</rscale>
<asrwt>0</asrwt>
<pdfrwt beam="1">  1       21 0.11689467E-01 0.24150121E+03</pdfrwt>
<pdfrwt beam="2">  1       21 0.15918642E+00 0.24150121E+03</pdfrwt>
<totfact> 0.15191593E+04</totfact>
</mgrwt>
</event>
<event>
 4    0  0.1495377E-001  0.2891016E+03  0.7546771E-02  0.1090819E+00
         21   -1    0    0  503  501  0.00000000000E+00  0.00000000000E+00  0.15078491473E+03  0.15078491473E+03  0.00000000000E+00 0. -1.
         21   -1    0    0  501  502 -0.00000000000E+00 -0.00000000000E+00 -0.73402641611E+03  0.73402641611E+03  0.00000000000E+00 0. -1.
         25    1    1    2    0    0  0.12013311603E+03 -0.23134984745E+03 -0.55087584008E+03  0.62212853066E+03  0.12500000000E+03 0.  0.
         21    1    1    2  503  502 -0.12013311603E+03  0.23134984745E+03 -0.32365661297E+02  0.26268280018E+03  0.00000000000E+00 0. -1.
<mgrwt>
<rscale>  3 0.28910157E+03</rscale>
<asrwt>0</asrwt>
<pdfrwt beam="1">  1       21 0.23197679E-01 0.28910157E+03</pdfrwt>
<pdfrwt beam="2">  1       21 0.11292714E+00 0.28910157E+03</pdfrwt>
<totfact> 0.10103623E+04</totfact>
</mgrwt>
</event>
<event>
 4    0  0.1495377E-001  0.2560351E+03  0.7546771E-02  0.1109549E+00
         21   -1    0    0  502  501  0.00000000000E+00  0.00000000000E+00  0.10635819478E+04  0.10635819478E+04  0.00000000000E+00 0. -1.
         21   -1    0    0  503  502 -0.00000000000E+00 -0.00000000000E+00 -0.56669202183E+02  0.56669202183E+02  0.00000000000E+00 0. -1.
         25    1    1    2    0    0 -0.13320403055E+02  0.22305056134E+03  0.41570313517E+03  0.48822441832E+03  0.12500000000E+03 0.  0.
         21    1    1    2  503  501  0.13320403055E+02 -0.22305056134E+03  0.59120961042E+03  0.63202673163E+03  0.00000000000E+00 0. -1.
<mgrwt>
<rscale>  3 0.25603513E+03</rscale>
<asrwt>0</asrwt>
<pdfrwt beam="1">  1       21 0.16362798E+00 0.25603513E+03</pdfrwt>
<pdfrwt beam="2">  1       21 0.87183396E-02 0.25603513E+03</pdfrwt>
<totfact> 0.23544082E+04</totfact>
</mgrwt>
</event>
<event>
 4    0  0.1495377E-001  0.2454521E+03  0.7546771E-02  0.1116213E+00
         21   -1    0    0  503  501  0.00000000000E+00  0.00000000000E+00  0.97631193370E+03  0.97631193370E+03  0.00000000000E+00 0. -1.
         21   -1    0    0  501  502 -0.00000000000E+00 -0.00000000000E+00 -0.60718766733E+02  0.60718766733E+02  0.00000000000E+00 0. -1.
         25    1    1    2    0    0  0.93324258134E+02 -0.18950544558E+03  0.30847049148E+03  0.39420905009E+03  0.12500000000E+03 0.  0.
         21    1    1    2  503  502 -0.93324258134E+02  0.18950544558E+03  0.60712267548E+03  0.64282165034E+03  0.00000000000E+00 0. -1.
<mgrwt>
<rscale>  3 0.24545210E+03</rscale>
<asrwt>0</asrwt>
<pdfrwt beam="1">  1       21 0.15020182E+00 0.24545210E+03</pdfrwt>
<pdfrwt beam="2">  1       21 0.93413494E-02 0.24545210E+03</pdfrwt>
<totfact> 0.26418498E+04</totfact>
</mgrwt>
</event>
<event>
 4    0  0.1495377E-001  0.2885525E+03  0.7546771E-02  0.1091107E+00
         21   -1    0    0  502  501  0.00000000000E+00  0.00000000000E+00  0.28368494474E+03  0.28368494474E+03  0.00000000000E+00 0. -1.
         21   -1    0    0  503  502 -0.00000000000E+00 -0.00000000000E+00 -0.32039293345E+03  0.32039293345E+03  0.00000000000E+00 0. -1.
         25    1    1    2    0    0 -0.25962761927E+03  0.15200730426E+02 -0.14430797068E+03  0.32262571704E+03  0.12500000000E+03 0.  0.
         21    1    1    2  503  501  0.25962761927E+03 -0.15200730426E+02  0.10759998196E+03  0.28145216115E+03  0.00000000000E+00 0. -1.
<mgrwt>
<rscale>  3 0.28855253E+03</rscale>
<asrwt>0</asrwt>
<pdfrwt beam="1">  1       21 0.43643838E-01 0.28855253E+03</pdfrwt>
<pdfrwt beam="2">  1       21 0.49291220E-01 0.28855253E+03</pdfrwt>
<totfact> 0.18860430E+04</totfact>
</mgrwt>
</event>
<event>
 4    0  0.1495377E-001  0.4030592E+03  0.7546771E-02  0.1042726E+00
         21   -1    0    0  503  501  0.00000000000E+00  0.00000000000E+00  0.17559213405E+04  0.17559213405E+04  0.00000000000E+00 0. -1.
         21   -1    0    0  501  502 -0.00000000000E+00 -0.00000000000E+00 -0.13414697753E+03  0.13414697753E+03  0.00000000000E+00 0.  1.
         25    1    1    2    0    0  0.34951505337E+03 -0.15706989892E+03  0.27025479156E+03  0.48527762985E+03  0.12500000000E+03 0.  0.
         21    1    1    2  503  502 -0.34951505337E+03  0.15706989892E+03  0.13515195714E+04  0.14047906882E+04  0.00000000000E+00 0. -1.
<mgrwt>
<rscale>  3 0.40305921E+03</rscale>
<asrwt>0</asrwt>
<pdfrwt beam="1">  1       21 0.27014173E+00 0.40305921E+03</pdfrwt>
<pdfrwt beam="2">  1       21 0.20637998E-01 0.40305921E+03</pdfrwt>
<totfact> 0.92252672E+02</totfact>
</mgrwt>
</event>
<event>
 4    0  0.1495377E-001  0.2406438E+03  0.7546771E-02  0.1119365E+00
         21   -1    0    0  502  501  0.00000000000E+00  0.00000000000E+00  0.33175232195E+03  0.33175232195E+03  0.00000000000E+00 0.  1.
         21   -1    0    0  503  502 -0.00000000000E+00 -0.00000000000E+00 -0.16183214584E+03  0.16183214584E+03  0.00000000000E+00 0.  1.
         25    1    1    2    0    0 -0.24808548754E+02  0.20412975074E+03  0.15744794991E+03  0.28757481837E+03  0.12500000000E+03 0.  0.
         21    1    1    2  503  501  0.24808548754E+02 -0.20412975074E+03  0.12472226197E+02  0.20600964943E+03  0.00000000000E+00 0.  1.
<mgrwt>
<rscale>  3 0.24064376E+03</rscale>
<asrwt>0</asrwt>
<pdfrwt beam="1">  1       21 0.51038818E-01 0.24064376E+03</pdfrwt>
<pdfrwt beam="2">  1       21 0.24897253E-01 0.24064376E+03</pdfrwt>
<totfact> 0.54549424E+04</totfact>
</mgrwt>
</event>
<event>
 4    0  0.1495377E-001  0.3832669E+03  0.7546771E-02  0.1049733E+00
         21   -1    0    0  502  501  0.00000000000E+00  0.00000000000E+00  0.14984307623E+04  0.14984307623E+04  0.00000000000E+00 0. -1.
         21   -1    0    0  503  502 -0.00000000000E+00 -0.00000000000E+00 -0.97553762329E+02  0.97553762329E+02  0.00000000000E+00 0. -1.
         25    1    1    2    0    0  0.35799624142E+03  0.55742618153E+02  0.54204259950E+03  0.66385520109E+03  0.12500000000E+03 0.  0.
         21    1    1    2  503  501 -0.35799624142E+03 -0.55742618153E+02  0.85883440045E+03  0.93212932351E+03  0.00000000000E+00 0. -1.
<mgrwt>
<rscale>  3 0.38326694E+03</rscale>
<asrwt>0</asrwt>
<pdfrwt beam="1">  1       21 0.23052779E+00 0.38326694E+03</pdfrwt>
<pdfrwt beam="2">  1       21 0.15008272E-01 0.38326694E+03</pdfrwt>
<totfact> 0.29605488E+03</totfact>
</mgrwt>
</event>
<event>
 4    0  0.1495377E-001  0.3706806E+03  0.7546771E-02  0.1054433E+00
         21   -1    0    0  502  501  0.00000000000E+00  0.00000000000E+00  0.53939814215E+02  0.53939814215E+02  0.00000000000E+00 0. -1.
         21   -1    0    0  503  502 -0.00000000000E+00 -0.00000000000E+00 -0.27440212489E+04  0.27440212489E+04  0.00000000000E+00 0.  1.
         25    1    1    2    0    0  0.34612452726E+03 -0.44462936906E+02 -0.18754458708E+04  0.19117273225E+04  0.12500000000E+03 0.  0.
         21    1    1    2  503  501 -0.34612452726E+03  0.44462936906E+02 -0.81463556383E+03  0.88623374060E+03  0.00000000000E+00 0. -1.
<mgrwt>
<rscale>  3 0.37068065E+03</rscale>
<asrwt>0</asrwt>
<pdfrwt beam="1">  1       21 0.82984318E-02 0.37068065E+03</pdfrwt>
<pdfrwt beam="2">  1       21 0.42215718E+00 0.37068065E+03</pdfrwt>
<totfact> 0.58252737E+02</totfact>
</mgrwt>
</event>
<event>
 4    0  0.1495377E-001  0.2362780E+03  0.7546771E-02  0.1122297E+00
         21   -1    0    0  502  501  0.00000000000E+00  0.00000000000E+00  0.33122452014E+03  0.33122452014E+03  0.00000000000E+00 0. -1.
         21   -1    0    0  503  502 -0.00000000000E+00 -0.00000000000E+00 -0.16591233059E+03  0.16591233059E+03  0.00000000000E+00 0. -1.
         25    1    1    2    0    0  0.20964134478E+02 -0.19940614096E+03 -0.15481655079E+01  0.23628309462E+03  0.12500000000E+03 0.  0.
         21    1    1    2  503  501 -0.20964134478E+02  0.19940614096E+03  0.16686035506E+03  0.26085375611E+03  0.00000000000E+00 0. -1.
<mgrwt>
<rscale>  3 0.23627802E+03</rscale>
<asrwt>0</asrwt>
<pdfrwt beam="1">  1       21 0.50957619E-01 0.23627802E+03</pdfrwt>
<pdfrwt beam="2">  1       21 0.25524974E-01 0.23627802E+03</pdfrwt>
<totfact> 0.52269221E+04</totfact>
</mgrwt>
</event>
<event>
 4    0  0.1495377E-001  0.2725859E+03  0.7546771E-02  0.1099809E+00
         21   -1    0    0  502  501  0.00000000000E+00  0.00000000000E+00  0.31688864561E+03  0.31688864561E+03  0.00000000000E+00 0. -1.
         21   -1    0    0  503  502 -0.00000000000E+00 -0.00000000000E+00 -0.57888323352E+03  0.57888323352E+03  0.00000000000E+00 0. -1.
         25    1    1    2    0    0 -0.18834428624E+03  0.15233023724E+03 -0.49153285668E+03  0.56205659904E+03  0.12500000000E+03 0.  0.
         21    1    1    2  503  501  0.18834428624E+03 -0.15233023724E+03  0.22953826877E+03  0.33371528009E+03  0.00000000000E+00 0. -1.
<mgrwt>
<rscale>  3 0.27258590E+03</rscale>
<asrwt>0</asrwt>
<pdfrwt beam="1">  1       21 0.48752100E-01 0.27258590E+03</pdfrwt>
<pdfrwt beam="2">  1       21 0.89058958E-01 0.27258590E+03</pdfrwt>
<totfact> 0.40892523E+03</totfact>
</mgrwt>
</event>
<event>
 4    0  0.1495377E-001  0.2772735E+03  0.7546771E-02  0.1097187E+00
         21   -1    0    0  503  501  0.00000000000E+00  0.00000000000E+00  0.33302144255E+03  0.33302144255E+03  0.00000000000E+00 0. -1.
         21   -1    0    0  501  502 -0.00000000000E+00 -0.00000000000E+00 -0.20870417597E+03  0.20870417597E+03  0.00000000000E+00 0. -1.
         25    1    1    2    0    0 -0.19519407525E+03  0.15216731780E+03  0.39369697448E+02  0.28005462448E+03  0.12500000000E+03 0.  0.
         21    1    1    2  503  502  0.19519407525E+03 -0.15216731780E+03  0.84947569132E+02  0.26167099404E+03  0.00000000000E+00 0. -1.
<mgrwt>
<rscale>  3 0.27727355E+03</rscale>
<asrwt>0</asrwt>
<pdfrwt beam="1">  1       21 0.51234068E-01 0.27727355E+03</pdfrwt>
<pdfrwt beam="2">  1       21 0.32108335E-01 0.27727355E+03</pdfrwt>
<totfact> 0.32481675E+04</totfact>
</mgrwt>
</event>
<event>
 4    0  0.1495377E-001  0.2977363E+03  0.7546771E-02  0.1086378E+00
         21   -1    0    0  503  501  0.00000000000E+00  0.00000000000E+00  0.16002238102E+04  0.16002238102E+04  0.00000000000E+00 0.  1.
         21   -1    0    0  501  502 -0.00000000000E+00 -0.00000000000E+00 -0.54790349213E+02  0.54790349213E+02  0.00000000000E+00 0.  1.
         25    1    1    2    0    0  0.43328970063E+01 -0.27019090297E+03  0.57305052317E+03  0.64578154212E+03  0.12500000000E+03 0.  0.
         21    1    1    2  503  502 -0.43328970063E+01  0.27019090297E+03  0.97238293780E+03  0.10092326173E+04  0.00000000000E+00 0.  1.
<mgrwt>
<rscale>  3 0.29773629E+03</rscale>
<asrwt>0</asrwt>
<pdfrwt beam="1">  1       21 0.24618824E+00 0.29773629E+03</pdfrwt>
<pdfrwt beam="2">  1       21 0.84292857E-02 0.29773629E+03</pdfrwt>
<totfact> 0.70558195E+03</totfact>
</mgrwt>
</event>
<event>
 4    0  0.1495377E-001  0.2467157E+03  0.7546771E-02  0.1115398E+00
         21   -1    0    0  502  501  0.00000000000E+00  0.00000000000E+00  0.14699652802E+03  0.14699652802E+03  0.00000000000E+00 0. -1.
         21   -1    0    0  503  502 -0.00000000000E+00 -0.00000000000E+00 -0.43952297081E+03  0.43952297081E+03  0.00000000000E+00 0. -1.
         25    1    1    2    0    0 -0.52899727595E+02 -0.20602247914E+03 -0.28037294096E+03  0.37346703886E+03  0.12500000000E+03 0.  0.
         21    1    1    2  503  501  0.52899727595E+02  0.20602247914E+03 -0.12153501820E+02  0.21305245997E+03  0.00000000000E+00 0. -1.
<mgrwt>
<rscale>  3 0.24671571E+03</rscale>
<asrwt>0</asrwt>
<pdfrwt beam="1">  1       21 0.22614851E-01 0.24671571E+03</pdfrwt>
<pdfrwt beam="2">  1       21 0.67618917E-01 0.24671571E+03</pdfrwt>
<totfact> 0.35680897E+04</totfact>
</mgrwt>
</event>
<event>
 4    0  0.1495377E-001  0.2452371E+03  0.7546771E-02  0.1116352E+00
         21   -1    0    0  503  501  0.00000000000E+00  0.00000000000E+00  0.10197372103E+04  0.10197372103E+04  0.00000000000E+00 0.  1.
         21   -1    0    0  501  502 -0.00000000000E+00 -0.00000000000E+00 -0.71882475609E+02  0.71882475609E+02  0.00000000000E+00 0. -1.
         25    1    1    2    0    0 -0.18298095281E+03  0.10504383177E+03  0.20578623817E+03  0.32013936263E+03  0.12500000000E+03 0.  0.
         21    1    1    2  503  502  0.18298095281E+03 -0.10504383177E+03  0.74206849649E+03  0.77148032325E+03  0.00000000000E+00 0.  1.
<mgrwt>
<rscale>  3 0.24523710E+03</rscale>
<asrwt>0</asrwt>
<pdfrwt beam="1">  1       21 0.15688264E+00 0.24523710E+03</pdfrwt>
<pdfrwt beam="2">  1       21 0.11058843E-01 0.24523710E+03</pdfrwt>
<totfact> 0.17417627E+04</totfact>
</mgrwt>
</event>
<event>
 4    0  0.1495377E-001  0.2498907E+03  0.7546771E-02  0.1113374E+00
         21   -1    0    0  503  501  0.00000000000E+00  0.00000000000E+00  0.11155238076E+04  0.11155238076E+04  0.00000000000E+00 0. -1.
         21   -1    0    0  501  502 -0.00000000000E+00 -0.00000000000E+00 -0.48724076245E+02  0.48724076245E+02  0.00000000000E+00 0. -1.
         25    1    1    2    0    0 -0.22186830305E+02  0.21523968405E+03  0.57386150881E+03  0.62590926525E+03  0.12500000000E+03 0.  0.
         21    1    1    2  503  502  0.22186830305E+02 -0.21523968405E+03  0.49293822259E+03  0.53833861864E+03  0.00000000000E+00 0. -1.
<mgrwt>
<rscale>  3 0.24989073E+03</rscale>
<asrwt>0</asrwt>
<pdfrwt beam="1">  1       21 0.17161903E+00 0.24989073E+03</pdfrwt>
<pdfrwt beam="2">  1       21 0.74960126E-02 0.24989073E+03</pdfrwt>
<totfact> 0.26972568E+04</totfact>
</mgrwt>
</event>
<event>
 4    0  0.1495377E-001  0.2378092E+03  0.7546771E-02  0.1121261E+00
         21   -1    0    0  502  501  0.00000000000E+00  0.00000000000E+00  0.13559632112E+04  0.13559632112E+04  0.00000000000E+00 0.  1.
         21   -1    0    0  503  502 -0.00000000000E+00 -0.00000000000E+00 -0.41295799971E+02  0.41295799971E+02  0.00000000000E+00 0.  1.
         25    1    1    2    0    0 -0.33706183946E+02 -0.19947955722E+03  0.44704062139E+03  0.50635809242E+03  0.12500000000E+03 0.  0.
         21    1    1    2  503  501  0.33706183946E+02  0.19947955722E+03  0.86762678986E+03  0.89090091877E+03  0.00000000000E+00 0.  1.
<mgrwt>
<rscale>  3 0.23780917E+03</rscale>
<asrwt>0</asrwt>
<pdfrwt beam="1">  1       21 0.20860969E+00 0.23780917E+03</pdfrwt>
<pdfrwt beam="2">  1       21 0.63532010E-02 0.23780917E+03</pdfrwt>
<totfact> 0.20486938E+04</totfact>
</mgrwt>
</event>
<event>
 4    0  0.1495377E-001  0.2637157E+03  0.7546771E-02  0.1104931E+00
         21   -1    0    0  503  501  0.00000000000E+00  0.00000000000E+00  0.14507059161E+03  0.14507059161E+03  0.00000000000E+00 0.  1.
         21   -1    0    0  501  502 -0.00000000000E+00 -0.00000000000E+00 -0.52861528255E+03  0.52861528255E+03  0.00000000000E+00 0.  1.
         25    1    1    2    0    0 -0.20736141614E+03 -0.10450948500E+03 -0.35126886523E+03  0.43924458453E+03  0.12500000000E+03 0.  0.
         21    1    1    2  503  502  0.20736141614E+03  0.10450948500E+03 -0.32275825706E+02  0.23444128963E+03  0.00000000000E+00 0.  1.
<mgrwt>
<rscale>  3 0.26371574E+03</rscale>
<asrwt>0</asrwt>
<pdfrwt beam="1">  1       21 0.22318552E-01 0.26371574E+03</pdfrwt>
<pdfrwt beam="2">  1       21 0.81325428E-01 0.26371574E+03</pdfrwt>
<totfact> 0.23994289E+04</totfact>
</mgrwt>
</event>
<event>
 4    0  0.1495377E-001  0.2474896E+03  0.7546771E-02  0.1114902E+00
         21   -1    0    0  502  501  0.00000000000E+00  0.00000000000E+00  0.98575157910E+03  0.98575157910E+03  0.00000000000E+00 0. -1.
         21   -1    0    0  503  502 -0.00000000000E+00 -0.00000000000E+00 -0.13626264849E+03  0.13626264849E+03  0.00000000000E+00 0.  1.
         25    1    1    2    0    0  0.17660942192E+03  0.12014668664E+03  0.14561038276E+01  0.24749390792E+03  0.12500000000E+03 0.  0.
         21    1    1    2  503  501 -0.17660942192E+03 -0.12014668664E+03  0.84803282678E+03  0.87452031967E+03  0.00000000000E+00 0. -1.
<mgrwt>
<rscale>  3 0.24748962E+03</rscale>
<asrwt>0</asrwt>
<pdfrwt beam="1">  1       21 0.15165408E+00 0.24748962E+03</pdfrwt>
<pdfrwt beam="2">  1       21 0.20963485E-01 0.24748962E+03</pdfrwt>
<totfact> 0.58919083E+03</totfact>
</mgrwt>
</event>
<event>
 4    0  0.1495377E-001  0.2520397E+03  0.7546771E-02  0.1112023E+00
         21   -1    0    0  502  501  0.00000000000E+00  0.00000000000E+00  0.13757343810E+03  0.13757343810E+03  0.00000000000E+00 0. -1.
         21   -1    0    0  503  502 -0.00000000000E+00 -0.00000000000E+00 -0.89140643127E+03  0.89140643127E+03  0.00000000000E+00 0. -1.
         25    1    1    2    0    0  0.33134191318E+01  0.21883337617E+03 -0.76933996691E+03  0.80957273296E+03  0.12500000000E+03 0.  0.
         21    1    1    2  503  501 -0.33134191318E+01 -0.21883337617E+03  0.15506973731E+02  0.21940713641E+03  0.00000000000E+00 0. -1.
<mgrwt>
<rscale>  3 0.25203973E+03</rscale>
<asrwt>0</asrwt>
<pdfrwt beam="1">  1       21 0.21165144E-01 0.25203973E+03</pdfrwt>
<pdfrwt beam="2">  1       21 0.13713945E+00 0.25203973E+03</pdfrwt>
<totfact> 0.75175416E+03</totfact>
</mgrwt>
</event>
<event>
 4    0  0.1495377E-001  0.2395441E+03  0.7546771E-02  0.1120097E+00
         21   -1    0    0  503  501  0.00000000000E+00  0.00000000000E+00  0.84725148530E+03  0.84725148530E+03  0.00000000000E+00 0. -1.
         21   -1    0    0  501  502 -0.00000000000E+00 -0.00000000000E+00 -0.24915851257E+03  0.24915851257E+03  0.00000000000E+00 0. -1.
         25    1    1    2    0    0  0.13615766030E+03  0.15237280014E+03 -0.17506949275E+03  0.29669968987E+03  0.12500000000E+03 0.  0.
         21    1    1    2  503  502 -0.13615766030E+03 -0.15237280014E+03  0.77316246549E+03  0.79971030800E+03  0.00000000000E+00 0. -1.
<mgrwt>
<rscale>  3 0.23954411E+03</rscale>
<asrwt>0</asrwt>
<pdfrwt beam="1">  1       21 0.13034638E+00 0.23954411E+03</pdfrwt>
<pdfrwt beam="2">  1       21 0.38332079E-01 0.23954411E+03</pdfrwt>
<totfact> 0.27112110E+03</totfact>
</mgrwt>
</event>
<event>
 4    0  0.1495377E-001  0.2394076E+03  0.7546771E-02  0.1120188E+00
         21   -1    0    0  503  501  0.00000000000E+00  0.00000000000E+00  0.73880156469E+03  0.73880156469E+03  0.00000000000E+00 0.  1.
         21   -1    0    0  501  502 -0.00000000000E+00 -0.00000000000E+00 -0.74885612582E+02  0.74885612582E+02  0.00000000000E+00 0.  1.
         25    1    1    2    0    0  0.19689885607E+03 -0.54053974497E+02  0.22032696593E+03  0.32536128165E+03  0.12500000000E+03 0.  0.
         21    1    1    2  503  502 -0.19689885607E+03  0.54053974497E+02  0.44358898618E+03  0.48832589563E+03  0.00000000000E+00 0.  1.
<mgrwt>
<rscale>  3 0.23940758E+03</rscale>
<asrwt>0</asrwt>
<pdfrwt beam="1">  1       21 0.11366177E+00 0.23940758E+03</pdfrwt>
<pdfrwt beam="2">  1       21 0.11520864E-01 0.23940758E+03</pdfrwt>
<totfact> 0.37153719E+04</totfact>
</mgrwt>
</event>
<event>
 4    0  0.1495377E-001  0.2486070E+03  0.7546771E-02  0.1114188E+00
         21   -1    0    0  502  501  0.00000000000E+00  0.00000000000E+00  0.10889362482E+03  0.10889362482E+03  0.00000000000E+00 0. -1.
         21   -1    0    0  503  502 -0.00000000000E+00 -0.00000000000E+00 -0.52281413607E+03  0.52281413607E+03  0.00000000000E+00 0. -1.
         25    1    1    2    0    0  0.12879425014E+03  0.17202471770E+03 -0.29611642087E+03  0.38663988035E+03  0.12500000000E+03 0.  0.
         21    1    1    2  503  501 -0.12879425014E+03 -0.17202471770E+03 -0.11780409038E+03  0.24506788055E+03  0.00000000000E+00 0. -1.
<mgrwt>
<rscale>  3 0.24860704E+03</rscale>
<asrwt>0</asrwt>
<pdfrwt beam="1">  1       21 0.16752865E-01 0.24860704E+03</pdfrwt>
<pdfrwt beam="2">  1       21 0.80432946E-01 0.24860704E+03</pdfrwt>
<totfact> 0.42403014E+04</totfact>
</mgrwt>
</event>
<event>
 4    0  0.1495377E-001  0.2358673E+03  0.7546771E-02  0.1122577E+00
         21   -1    0    0  502  501  0.00000000000E+00  0.00000000000E+00  0.13987681090E+03  0.13987681090E+03  0.00000000000E+00 0. -1.
         21   -1    0    0  503  502 -0.00000000000E+00 -0.00000000000E+00 -0.40720879707E+03  0.40720879707E+03  0.00000000000E+00 0. -1.
         25    1    1    2    0    0 -0.17311925322E+03  0.10019024151E+03 -0.25399281782E+03  0.34662041463E+03  0.12500000000E+03 0.  0.
         21    1    1    2  503  501  0.17311925322E+03 -0.10019024151E+03 -0.13339168348E+02  0.20046519334E+03  0.00000000000E+00 0. -1.
<mgrwt>
<rscale>  3 0.23586725E+03</rscale>
<asrwt>0</asrwt>
<pdfrwt beam="1">  1       21 0.21519509E-01 0.23586725E+03</pdfrwt>
<pdfrwt beam="2">  1       21 0.62647507E-01 0.23586725E+03</pdfrwt>
<totfact> 0.46553517E+04</totfact>
</mgrwt>
</event>
<event>
 4    0  0.1495377E-001  0.2911522E+03  0.7546771E-02  0.1089749E+00
         21   -1    0    0  503  501  0.00000000000E+00  0.00000000000E+00  0.36800907272E+03  0.36800907272E+03  0.00000000000E+00 0.  1.
         21   -1    0    0  501  502 -0.00000000000E+00 -0.00000000000E+00 -0.58471173071E+03  0.58471173071E+03  0.00000000000E+00 0.  1.
         25    1    1    2    0    0 -0.22781984714E+03 -0.13131163914E+03 -0.49220591314E+03  0.57187086852E+03  0.12500000000E+03 0.  0.
         21    1    1    2  503  502  0.22781984714E+03  0.13131163914E+03  0.27550325515E+03  0.38084993492E+03  0.00000000000E+00 0.  1.
<mgrwt>
<rscale>  3 0.29115224E+03</rscale>
<asrwt>0</asrwt>
<pdfrwt beam="1">  1       21 0.56616780E-01 0.29115224E+03</pdfrwt>
<pdfrwt beam="2">  1       21 0.89955651E-01 0.29115224E+03</pdfrwt>
<totfact> 0.28778659E+03</totfact>
</mgrwt>
</event>
<event>
 4    0  0.1495377E-001  0.2929255E+03  0.7546771E-02  0.1088832E+00
         21   -1    0    0  502  501  0.00000000000E+00  0.00000000000E+00  0.22776056209E+03  0.22776056209E+03  0.00000000000E+00 0.  1.
         21   -1    0    0  503  502 -0.00000000000E+00 -0.00000000000E+00 -0.54420222174E+03  0.54420222174E+03  0.00000000000E+00 0. -1.
         25    1    1    2    0    0 -0.24528709901E+03  0.10007283805E+03 -0.39854632166E+03  0.49461551165E+03  0.12500000000E+03 0.  0.
         21    1    1    2  503  501  0.24528709901E+03 -0.10007283805E+03  0.82104662011E+02  0.27734727217E+03  0.00000000000E+00 0.  1.
<mgrwt>
<rscale>  3 0.29292547E+03</rscale>
<asrwt>0</asrwt>
<pdfrwt beam="1">  1       21 0.35040087E-01 0.29292547E+03</pdfrwt>
<pdfrwt beam="2">  1       21 0.83723418E-01 0.29292547E+03</pdfrwt>
<totfact> 0.91847506E+03</totfact>
</mgrwt>
</event>
<event>
 4    0  0.1495377E-001  0.2597165E+03  0.7546771E-02  0.1107314E+00
         21   -1    0    0  503  501  0.00000000000E+00  0.00000000000E+00  0.73024011824E+02  0.73024011824E+02  0.00000000000E+00 0.  1.
         21   -1    0    0  501  502 -0.00000000000E+00 -0.00000000000E+00 -0.82633496231E+03  0.82633496231E+03  0.00000000000E+00 0.  1.
         25    1    1    2    0    0 -0.18959836056E+03 -0.12601639917E+03 -0.34446741001E+03  0.43140522452E+03  0.12500000000E+03 0.  0.
         21    1    1    2  503  502  0.18959836056E+03  0.12601639917E+03 -0.40884354047E+03  0.46795374961E+03  0.00000000000E+00 0.  1.
<mgrwt>
<rscale>  3 0.25971652E+03</rscale>
<asrwt>0</asrwt>
<pdfrwt beam="1">  1       21 0.11234464E-01 0.25971652E+03</pdfrwt>
<pdfrwt beam="2">  1       21 0.12712845E+00 0.25971652E+03</pdfrwt>
<totfact> 0.29117622E+04</totfact>
</mgrwt>
</event>
<event>
 4    0  0.1495377E-001  0.2409182E+03  0.7546771E-02  0.1119183E+00
         21   -1    0    0  503  501  0.00000000000E+00  0.00000000000E+00  0.20506842851E+03  0.20506842851E+03  0.00000000000E+00 0. -1.
         21   -1    0    0  501  502 -0.00000000000E+00 -0.00000000000E+00 -0.71412449656E+03  0.71412449656E+03  0.00000000000E+00 0. -1.
         25    1    1    2    0    0  0.20562080051E+03  0.11691001518E+02 -0.63404991808E+03  0.67827788681E+03  0.12500000000E+03 0.  0.
         21    1    1    2  503  502 -0.20562080051E+03 -0.11691001518E+02  0.12499385002E+03  0.24091503827E+03  0.00000000000E+00 0. -1.
<mgrwt>
<rscale>  3 0.24091823E+03</rscale>
<asrwt>0</asrwt>
<pdfrwt beam="1">  1       21 0.31548990E-01 0.24091823E+03</pdfrwt>
<pdfrwt beam="2">  1       21 0.10986530E+00 0.24091823E+03</pdfrwt>
<totfact> 0.61121603E+03</totfact>
</mgrwt>
</event>
<event>
 4    0  0.1495377E-001  0.2534893E+03  0.7546771E-02  0.1111119E+00
         21   -1    0    0  503  501  0.00000000000E+00  0.00000000000E+00  0.10648674162E+03  0.10648674162E+03  0.00000000000E+00 0.  1.
         21   -1    0    0  501  502 -0.00000000000E+00 -0.00000000000E+00 -0.63095088296E+03  0.63095088296E+03  0.00000000000E+00 0.  1.
         25    1    1    2    0    0 -0.18113864417E+03 -0.12577996833E+03 -0.42647139860E+03  0.49611960520E+03  0.12500000000E+03 0.  0.
         21    1    1    2  503  502  0.18113864417E+03  0.12577996833E+03 -0.97992742741E+02  0.24131801938E+03  0.00000000000E+00 0.  1.
<mgrwt>
<rscale>  3 0.25348927E+03</rscale>
<asrwt>0</asrwt>
<pdfrwt beam="1">  1       21 0.16382576E-01 0.25348927E+03</pdfrwt>
<pdfrwt beam="2">  1       21 0.97069363E-01 0.25348927E+03</pdfrwt>
<totfact> 0.28489497E+04</totfact>
</mgrwt>
</event>
<event>
 4    0  0.1495377E-001  0.3681482E+03  0.7546771E-02  0.1055403E+00
         21   -1    0    0  503  501  0.00000000000E+00  0.00000000000E+00  0.59962478278E+03  0.59962478278E+03  0.00000000000E+00 0. -1.
         21   -1    0    0  501  502 -0.00000000000E+00 -0.00000000000E+00 -0.40627595471E+03  0.40627595471E+03  0.00000000000E+00 0.  1.
         25    1    1    2    0    0 -0.33483716542E+03  0.88273401475E+02 -0.24876771361E+03  0.44431801234E+03  0.12500000000E+03 0.  0.
         21    1    1    2  503  502  0.33483716542E+03 -0.88273401475E+02  0.44211654168E+03  0.56158272515E+03  0.00000000000E+00 0. -1.
<mgrwt>
<rscale>  3 0.36814823E+03</rscale>
<asrwt>0</asrwt>
<pdfrwt beam="1">  1       21 0.92249967E-01 0.36814823E+03</pdfrwt>
<pdfrwt beam="2">  1       21 0.62503993E-01 0.36814823E+03</pdfrwt>
<totfact> 0.21026531E+03</totfact>
</mgrwt>
</event>
<event>
 4    0  0.1495377E-001  0.5171314E+03  0.7546771E-02  0.1009402E+00
         21   -1    0    0  502  501  0.00000000000E+00  0.00000000000E+00  0.46255024257E+03  0.46255024257E+03  0.00000000000E+00 0. -1.
         21   -1    0    0  503  502 -0.00000000000E+00 -0.00000000000E+00 -0.10641098267E+04  0.10641098267E+04  0.00000000000E+00 0.  1.
         25    1    1    2    0    0 -0.35085880064E+03  0.35874503965E+03 -0.82793305976E+03  0.97616497218E+03  0.12500000000E+03 0.  0.
         21    1    1    2  503  501  0.35085880064E+03 -0.35874503965E+03  0.22637347563E+03  0.55049509710E+03  0.00000000000E+00 0. -1.
<mgrwt>
<rscale>  3 0.51713142E+03</rscale>
<asrwt>0</asrwt>
<pdfrwt beam="1">  1       21 0.71161576E-01 0.51713142E+03</pdfrwt>
<pdfrwt beam="2">  1       21 0.16370920E+00 0.51713142E+03</pdfrwt>
<totfact> 0.33803926E+02</totfact>
</mgrwt>
</event>
<event>
 4    0  0.1495377E-001  0.2476763E+03  0.7546771E-02  0.1114782E+00
         21   -1    0    0  503  501  0.00000000000E+00  0.00000000000E+00  0.76532909274E+02  0.76532909274E+02  0.00000000000E+00 0. -1.
         21   -1    0    0  501  502 -0.00000000000E+00 -0.00000000000E+00 -0.69582701715E+03  0.69582701715E+03  0.00000000000E+00 0.  1.
         25    1    1    2    0    0  0.76778158259E+00 -0.21381756131E+03 -0.33742425828E+03  0.41856740089E+03  0.12500000000E+03 0.  0.
         21    1    1    2  503  502 -0.76778158259E+00  0.21381756131E+03 -0.28186984959E+03  0.35379252553E+03  0.00000000000E+00 0. -1.
<mgrwt>
<rscale>  3 0.24767628E+03</rscale>
<asrwt>0</asrwt>
<pdfrwt beam="1">  1       21 0.11774294E-01 0.24767628E+03</pdfrwt>
<pdfrwt beam="2">  1       21 0.10705031E+00 0.24767628E+03</pdfrwt>
<totfact> 0.41199114E+04</totfact>
</mgrwt>
</event>
<event>
 4    0  0.1495377E-001  0.2530253E+03  0.7546771E-02  0.1111408E+00
         21   -1    0    0  502  501  0.00000000000E+00  0.00000000000E+00  0.11071770081E+03  0.11071770081E+03  0.00000000000E+00 0. -1.
         21   -1    0    0  503  502 -0.00000000000E+00 -0.00000000000E+00 -0.74474775197E+03  0.74474775197E+03  0.00000000000E+00 0. -1.
         25    1    1    2    0    0 -0.18311850690E+03 -0.12191979678E+03 -0.57420754866E+03  0.62748397059E+03  0.12500000000E+03 0.  0.
         21    1    1    2  503  501  0.18311850690E+03  0.12191979678E+03 -0.59822502508E+02  0.22798148219E+03  0.00000000000E+00 0. -1.
<mgrwt>
<rscale>  3 0.25302534E+03</rscale>
<asrwt>0</asrwt>
<pdfrwt beam="1">  1       21 0.17033493E-01 0.25302534E+03</pdfrwt>
<pdfrwt beam="2">  1       21 0.11457657E+00 0.25302534E+03</pdfrwt>
<totfact> 0.17751721E+04</totfact>
</mgrwt>
</event>
<event>
 4    0  0.1495377E-001  0.2780023E+03  0.7546771E-02  0.1096785E+00
         21   -1    0    0  503  501  0.00000000000E+00  0.00000000000E+00  0.52492155797E+03  0.52492155797E+03  0.00000000000E+00 0.  1.
         21   -1    0    0  501  502 -0.00000000000E+00 -0.00000000000E+00 -0.18677798033E+03  0.18677798033E+03  0.00000000000E+00 0. -1.
         25    1    1    2    0    0 -0.80981645369E+02  0.23473865437E+03 -0.16811104582E+02  0.27851010032E+03  0.12500000000E+03 0.  0.
         21    1    1    2  503  502  0.80981645369E+02 -0.23473865437E+03  0.35495468222E+03  0.43318943798E+03  0.00000000000E+00 0.  1.
<mgrwt>
<rscale>  3 0.27800227E+03</rscale>
<asrwt>0</asrwt>
<pdfrwt beam="1">  1       21 0.80757162E-01 0.27800227E+03</pdfrwt>
<pdfrwt beam="2">  1       21 0.28735074E-01 0.27800227E+03</pdfrwt>
<totfact> 0.14882530E+04</totfact>
</mgrwt>
</event>
<event>
 4    0  0.1495377E-001  0.3947364E+03  0.7546771E-02  0.1045618E+00
         21   -1    0    0  502  501  0.00000000000E+00  0.00000000000E+00  0.22140354872E+04  0.22140354872E+04  0.00000000000E+00 0.  1.
         21   -1    0    0  503  502 -0.00000000000E+00 -0.00000000000E+00 -0.59598554765E+03  0.59598554765E+03  0.00000000000E+00 0. -1.
         25    1    1    2    0    0 -0.27299589170E+03  0.25625197931E+03 -0.51245832150E+03  0.64686193663E+03  0.12500000000E+03 0.  0.
         21    1    1    2  503  501  0.27299589170E+03 -0.25625197931E+03  0.21305082611E+04  0.21631590983E+04  0.00000000000E+00 0.  1.
<mgrwt>
<rscale>  3 0.39473641E+03</rscale>
<asrwt>0</asrwt>
<pdfrwt beam="1">  1       21 0.34062084E+00 0.39473641E+03</pdfrwt>
<pdfrwt beam="2">  1       21 0.91690086E-01 0.39473641E+03</pdfrwt>
<totfact> 0.15346894E+01</totfact>
</mgrwt>
</event>
<event>
 4    0  0.1495377E-001  0.2524365E+03  0.7546771E-02  0.1111775E+00
         21   -1    0    0  502  501  0.00000000000E+00  0.00000000000E+00  0.12594714256E+03  0.12594714256E+03  0.00000000000E+00 0. -1.
         21   -1    0    0  503  502 -0.00000000000E+00 -0.00000000000E+00 -0.49776972818E+03  0.49776972818E+03  0.00000000000E+00 0. -1.
         25    1    1    2    0    0  0.12740367348E+03  0.17851472908E+03 -0.30188349996E+03  0.39351982423E+03  0.12500000000E+03 0.  0.
         21    1    1    2  503  501 -0.12740367348E+03 -0.17851472908E+03 -0.69939085659E+02  0.23019704650E+03  0.00000000000E+00 0. -1.
<mgrwt>
<rscale>  3 0.25243654E+03</rscale>
<asrwt>0</asrwt>
<pdfrwt beam="1">  1       21 0.19376484E-01 0.25243654E+03</pdfrwt>
<pdfrwt beam="2">  1       21 0.76579958E-01 0.25243654E+03</pdfrwt>
<totfact> 0.36096476E+04</totfact>
</mgrwt>
</event>
<event>
 4    0  0.1495377E-001  0.2721017E+03  0.7546771E-02  0.1100083E+00
         21   -1    0    0  502  501  0.00000000000E+00  0.00000000000E+00  0.11789718146E+04  0.11789718146E+04  0.00000000000E+00 0. -1.
         21   -1    0    0  503  502 -0.00000000000E+00 -0.00000000000E+00 -0.62995015845E+02  0.62995015845E+02  0.00000000000E+00 0. -1.
         25    1    1    2    0    0  0.11498660424E+03  0.21258504398E+03  0.38039403269E+03  0.46769534975E+03  0.12500000000E+03 0.  0.
         21    1    1    2  503  501 -0.11498660424E+03 -0.21258504398E+03  0.73558276607E+03  0.77427148069E+03  0.00000000000E+00 0. -1.
<mgrwt>
<rscale>  3 0.27210167E+03</rscale>
<asrwt>0</asrwt>
<pdfrwt beam="1">  1       21 0.18138026E+00 0.27210167E+03</pdfrwt>
<pdfrwt beam="2">  1       21 0.96915418E-02 0.27210167E+03</pdfrwt>
<totfact> 0.14494164E+04</totfact>
</mgrwt>
</event>
<event>
 4    0  0.1495377E-001  0.3030816E+03  0.7546771E-02  0.1083710E+00
         21   -1    0    0  502  501  0.00000000000E+00  0.00000000000E+00  0.42814661446E+03  0.42814661446E+03  0.00000000000E+00 0. -1.
         21   -1    0    0  503  502 -0.00000000000E+00 -0.00000000000E+00 -0.14042670579E+04  0.14042670579E+04  0.00000000000E+00 0. -1.
         25    1    1    2    0    0 -0.24863538567E+03  0.12005798638E+03 -0.13410112548E+04  0.13748344121E+04  0.12500000000E+03 0.  0.
         21    1    1    2  503  501  0.24863538567E+03 -0.12005798638E+03  0.36489081144E+03  0.45757926021E+03  0.00000000000E+00 0. -1.
<mgrwt>
<rscale>  3 0.30308163E+03</rscale>
<asrwt>0</asrwt>
<pdfrwt beam="1">  1       21 0.65868709E-01 0.30308163E+03</pdfrwt>
<pdfrwt beam="2">  1       21 0.21604109E+00 0.30308163E+03</pdfrwt>
<totfact> 0.20002032E+02</totfact>
</mgrwt>
</event>
<event>
 4    0  0.1495377E-001  0.2359853E+03  0.7546771E-02  0.1122497E+00
         21   -1    0    0  502  501  0.00000000000E+00  0.00000000000E+00  0.73863637227E+02  0.73863637227E+02  0.00000000000E+00 0.  1.
         21   -1    0    0  503  502 -0.00000000000E+00 -0.00000000000E+00 -0.70033741072E+03  0.70033741072E+03  0.00000000000E+00 0.  1.
         25    1    1    2    0    0 -0.19541175666E+03  0.43339497368E+02 -0.44650474738E+03  0.50503025266E+03  0.12500000000E+03 0.  0.
         21    1    1    2  503  501  0.19541175666E+03 -0.43339497368E+02 -0.17996902612E+03  0.26917079529E+03  0.00000000000E+00 0.  1.
<mgrwt>
<rscale>  3 0.23598531E+03</rscale>
<asrwt>0</asrwt>
<pdfrwt beam="1">  1       21 0.11363637E-01 0.23598531E+03</pdfrwt>
<pdfrwt beam="2">  1       21 0.10774421E+00 0.23598531E+03</pdfrwt>
<totfact> 0.43450999E+04</totfact>
</mgrwt>
</event>
<event>
 4    0  0.1495377E-001  0.2567407E+03  0.7546771E-02  0.1109117E+00
         21   -1    0    0  503  501  0.00000000000E+00  0.00000000000E+00  0.62023128504E+03  0.62023128504E+03  0.00000000000E+00 0. -1.
         21   -1    0    0  501  502 -0.00000000000E+00 -0.00000000000E+00 -0.10904459421E+03  0.10904459421E+03  0.00000000000E+00 0. -1.
         25    1    1    2    0    0 -0.88313868604E+02 -0.20613451722E+03  0.13187109387E+03  0.28862737911E+03  0.12500000000E+03 0.  0.
         21    1    1    2  503  502  0.88313868604E+02  0.20613451722E+03  0.37931559696E+03  0.44064850014E+03  0.00000000000E+00 0. -1.
<mgrwt>
<rscale>  3 0.25674068E+03</rscale>
<asrwt>0</asrwt>
<pdfrwt beam="1">  1       21 0.95420196E-01 0.25674068E+03</pdfrwt>
<pdfrwt beam="2">  1       21 0.16776092E-01 0.25674068E+03</pdfrwt>
<totfact> 0.28353731E+04</totfact>
</mgrwt>
</event>
<event>
 4    0  0.1495377E-001  0.2859818E+03  0.7546771E-02  0.1092466E+00
         21   -1    0    0  503  501  0.00000000000E+00  0.00000000000E+00  0.45131996123E+03  0.45131996123E+03  0.00000000000E+00 0.  1.
         21   -1    0    0  501  502 -0.00000000000E+00 -0.00000000000E+00 -0.20414510373E+03  0.20414510373E+03  0.00000000000E+00 0.  1.
         25    1    1    2    0    0  0.13011984687E+03 -0.22187698558E+03 -0.17342424334E+02  0.28650712201E+03  0.12500000000E+03 0.  0.
         21    1    1    2  503  502 -0.13011984687E+03  0.22187698558E+03  0.26451728183E+03  0.36895794295E+03  0.00000000000E+00 0.  1.
<mgrwt>
<rscale>  3 0.28598177E+03</rscale>
<asrwt>0</asrwt>
<pdfrwt beam="1">  1       21 0.69433840E-01 0.28598177E+03</pdfrwt>
<pdfrwt beam="2">  1       21 0.31406939E-01 0.28598177E+03</pdfrwt>
<totfact> 0.17503377E+04</totfact>
</mgrwt>
</event>
<event>
 4    0  0.1495377E-001  0.3292213E+03  0.7546771E-02  0.1071482E+00
         21   -1    0    0  502  501  0.00000000000E+00  0.00000000000E+00  0.12451937048E+04  0.12451937048E+04  0.00000000000E+00 0. -1.
         21   -1    0    0  503  502 -0.00000000000E+00 -0.00000000000E+00 -0.16606608671E+03  0.16606608671E+03  0.00000000000E+00 0. -1.
         25    1    1    2    0    0  0.27813096435E+03 -0.12411631987E+03  0.43871096860E+02  0.33213155124E+03  0.12500000000E+03 0.  0.
         21    1    1    2  503  501 -0.27813096435E+03  0.12411631987E+03  0.10352565212E+04  0.10791282402E+04  0.00000000000E+00 0. -1.
<mgrwt>
<rscale>  3 0.32922135E+03</rscale>
<asrwt>0</asrwt>
<pdfrwt beam="1">  1       21 0.19156826E+00 0.32922135E+03</pdfrwt>
<pdfrwt beam="2">  1       21 0.25548630E-01 0.32922135E+03</pdfrwt>
<totfact> 0.19900536E+03</totfact>
</mgrwt>
</event>
<event>
 4    0  0.1495377E-001  0.2761214E+03  0.7546771E-02  0.1097826E+00
         21   -1    0    0  503  501  0.00000000000E+00  0.00000000000E+00  0.25882382040E+03  0.25882382040E+03  0.00000000000E+00 0. -1.
         21   -1    0    0  501  502 -0.00000000000E+00 -0.00000000000E+00 -0.36969223998E+03  0.36969223998E+03  0.00000000000E+00 0. -1.
         25    1    1    2    0    0  0.65485205103E+02 -0.23733879667E+03 -0.22590700789E+03  0.35675901209E+03  0.12500000000E+03 0.  0.
         21    1    1    2  503  502 -0.65485205103E+02  0.23733879667E+03  0.11503858832E+03  0.27175704828E+03  0.00000000000E+00 0. -1.
<mgrwt>
<rscale>  3 0.27612138E+03</rscale>
<asrwt>0</asrwt>
<pdfrwt beam="1">  1       21 0.39819049E-01 0.27612138E+03</pdfrwt>
<pdfrwt beam="2">  1       21 0.56875729E-01 0.27612138E+03</pdfrwt>
<totfact> 0.16888881E+04</totfact>
</mgrwt>
</event>
<event>
 4    0  0.1495377E-001  0.2452240E+03  0.7546771E-02  0.1116361E+00
         21   -1    0    0  503  501  0.00000000000E+00  0.00000000000E+00  0.13909107817E+03  0.13909107817E+03  0.00000000000E+00 0.  1.
         21   -1    0    0  501  502 -0.00000000000E+00 -0.00000000000E+00 -0.17063127766E+04  0.17063127766E+04  0.00000000000E+00 0.  1.
         25    1    1    2    0    0  0.70133924651E+02  0.19897503518E+03 -0.16113179154E+04  0.16298712392E+04  0.12500000000E+03 0.  0.
         21    1    1    2  503  502 -0.70133924651E+02 -0.19897503518E+03  0.44096216954E+02  0.21553261554E+03  0.00000000000E+00 0.  1.
<mgrwt>
<rscale>  3 0.24522404E+03</rscale>
<asrwt>0</asrwt>
<pdfrwt beam="1">  1       21 0.21398627E-01 0.24522404E+03</pdfrwt>
<pdfrwt beam="2">  1       21 0.26250966E+00 0.24522404E+03</pdfrwt>
<totfact> 0.10773329E+03</totfact>
</mgrwt>
</event>
<event>
 4    0  0.1495377E-001  0.2397917E+03  0.7546771E-02  0.1119932E+00
         21   -1    0    0  502  501  0.00000000000E+00  0.00000000000E+00  0.40733884602E+03  0.40733884602E+03  0.00000000000E+00 0.  1.
         21   -1    0    0  503  502 -0.00000000000E+00 -0.00000000000E+00 -0.46118170172E+03  0.46118170172E+03  0.00000000000E+00 0. -1.
         25    1    1    2    0    0 -0.12045365512E+03  0.16542665043E+03 -0.40001882964E+03  0.46638516676E+03  0.12500000000E+03 0.  0.
         21    1    1    2  503  501  0.12045365512E+03 -0.16542665043E+03  0.34617597395E+03  0.40213538099E+03  0.00000000000E+00 0.  1.
<mgrwt>
<rscale>  3 0.23979170E+03</rscale>
<asrwt>0</asrwt>
<pdfrwt beam="1">  1       21 0.62667515E-01 0.23979170E+03</pdfrwt>
<pdfrwt beam="2">  1       21 0.70951031E-01 0.23979170E+03</pdfrwt>
<totfact> 0.40972811E+03</totfact>
</mgrwt>
</event>
<event>
 4    0  0.1495377E-001  0.2444678E+03  0.7546771E-02  0.1116852E+00
         21   -1    0    0  502  501  0.00000000000E+00  0.00000000000E+00  0.22164061731E+03  0.22164061731E+03  0.00000000000E+00 0.  1.
         21   -1    0    0  503  502 -0.00000000000E+00 -0.00000000000E+00 -0.42623423077E+03  0.42623423077E+03  0.00000000000E+00 0. -1.
         25    1    1    2    0    0 -0.19026599454E+03  0.89097397631E+02 -0.32426064092E+03  0.40609045568E+03  0.12500000000E+03 0.  0.
         21    1    1    2  503  501  0.19026599454E+03 -0.89097397631E+02  0.11966702746E+03  0.24178439240E+03  0.00000000000E+00 0.  1.
<mgrwt>
<rscale>  3 0.24446778E+03</rscale>
<asrwt>0</asrwt>
<pdfrwt beam="1">  1       21 0.34098557E-01 0.24446778E+03</pdfrwt>
<pdfrwt beam="2">  1       21 0.65574496E-01 0.24446778E+03</pdfrwt>
<totfact> 0.17202067E+04</totfact>
</mgrwt>
</event>
<event>
 4    0  0.1495377E-001  0.2426682E+03  0.7546771E-02  0.1118028E+00
         21   -1    0    0  502  501  0.00000000000E+00  0.00000000000E+00  0.84505306995E+03  0.84505306995E+03  0.00000000000E+00 0.  1.
         21   -1    0    0  503  502 -0.00000000000E+00 -0.00000000000E+00 -0.13753471658E+03  0.13753471658E+03  0.00000000000E+00 0.  1.
         25    1    1    2    0    0 -0.20776590932E+03 -0.98060934515E+01 -0.25509325531E+01  0.24268156048E+03  0.12500000000E+03 0.  0.
         21    1    1    2  503  501  0.20776590932E+03  0.98060934515E+01  0.71006928591E+03  0.73990622605E+03  0.00000000000E+00 0.  1.
<mgrwt>
<rscale>  3 0.24266815E+03</rscale>
<asrwt>0</asrwt>
<pdfrwt beam="1">  1       21 0.13000816E+00 0.24266815E+03</pdfrwt>
<pdfrwt beam="2">  1       21 0.21159188E-01 0.24266815E+03</pdfrwt>
<totfact> 0.86733299E+03</totfact>
</mgrwt>
</event>
<event>
 4    0  0.1495377E-001  0.2853818E+03  0.7546771E-02  0.1092785E+00
         21   -1    0    0  502  501  0.00000000000E+00  0.00000000000E+00  0.48307051639E+02  0.48307051639E+02  0.00000000000E+00 0. -1.
         21   -1    0    0  503  502 -0.00000000000E+00 -0.00000000000E+00 -0.15199311524E+04  0.15199311524E+04  0.00000000000E+00 0. -1.
         25    1    1    2    0    0  0.17634643229E+02  0.25594290019E+03 -0.77779831275E+03  0.82850043097E+03  0.12500000000E+03 0.  0.
         21    1    1    2  503  501 -0.17634643229E+02 -0.25594290019E+03 -0.69382578799E+03  0.73973777305E+03  0.00000000000E+00 0. -1.
<mgrwt>
<rscale>  3 0.28538176E+03</rscale>
<asrwt>0</asrwt>
<pdfrwt beam="1">  1       21 0.74318540E-02 0.28538176E+03</pdfrwt>
<pdfrwt beam="2">  1       21 0.23383556E+00 0.28538176E+03</pdfrwt>
<totfact> 0.10543648E+04</totfact>
</mgrwt>
</event>
<event>
 4    0  0.1495377E-001  0.2891589E+03  0.7546771E-02  0.1090789E+00
         21   -1    0    0  502  501  0.00000000000E+00  0.00000000000E+00  0.64335208152E+03  0.64335208152E+03  0.00000000000E+00 0.  1.
         21   -1    0    0  503  502 -0.00000000000E+00 -0.00000000000E+00 -0.12711675575E+03  0.12711675575E+03  0.00000000000E+00 0.  1.
         25    1    1    2    0    0  0.26045476517E+03  0.12296592263E+02  0.16465847139E+03  0.33275411805E+03  0.12500000000E+03 0.  0.
         21    1    1    2  503  501 -0.26045476517E+03 -0.12296592263E+02  0.35157685438E+03  0.43771471921E+03  0.00000000000E+00 0.  1.
<mgrwt>
<rscale>  3 0.28915894E+03</rscale>
<asrwt>0</asrwt>
<pdfrwt beam="1">  1       21 0.98977241E-01 0.28915894E+03</pdfrwt>
<pdfrwt beam="2">  1       21 0.19556424E-01 0.28915894E+03</pdfrwt>
<totfact> 0.19248628E+04</totfact>
</mgrwt>
</event>
<event>
 4    0  0.1495377E-001  0.2407934E+03  0.7546771E-02  0.1119265E+00
         21   -1    0    0  502  501  0.00000000000E+00  0.00000000000E+00  0.13813907783E+03  0.13813907783E+03  0.00000000000E+00 0.  1.
         21   -1    0    0  503  502 -0.00000000000E+00 -0.00000000000E+00 -0.50575345020E+03  0.50575345020E+03  0.00000000000E+00 0.  1.
         25    1    1    2    0    0  0.18546101607E+03  0.89222527583E+02 -0.36596702259E+03  0.43807911333E+03  0.12500000000E+03 0.  0.
         21    1    1    2  503  501 -0.18546101607E+03 -0.89222527583E+02 -0.16473497749E+01  0.20581341470E+03  0.00000000000E+00 0.  1.
<mgrwt>
<rscale>  3 0.24079337E+03</rscale>
<asrwt>0</asrwt>
<pdfrwt beam="1">  1       21 0.21252166E-01 0.24079337E+03</pdfrwt>
<pdfrwt beam="2">  1       21 0.77808224E-01 0.24079337E+03</pdfrwt>
<totfact> 0.29417848E+04</totfact>
</mgrwt>
</event>
<event>
 4    0  0.1495377E-001  0.2607208E+03  0.7546771E-02  0.1106711E+00
         21   -1    0    0  503  501  0.00000000000E+00  0.00000000000E+00  0.20173507735E+03  0.20173507735E+03  0.00000000000E+00 0.  1.
         21   -1    0    0  501  502 -0.00000000000E+00 -0.00000000000E+00 -0.37262812508E+03  0.37262812508E+03  0.00000000000E+00 0. -1.
         25    1    1    2    0    0 -0.22813864646E+03  0.17409082849E+02 -0.21907579624E+03  0.34054298212E+03  0.12500000000E+03 0.  0.
         21    1    1    2  503  502  0.22813864646E+03 -0.17409082849E+02  0.48182748514E+02  0.23382022031E+03  0.00000000000E+00 0.  1.
<mgrwt>
<rscale>  3 0.26072077E+03</rscale>
<asrwt>0</asrwt>
<pdfrwt beam="1">  1       21 0.31036166E-01 0.26072077E+03</pdfrwt>
<pdfrwt beam="2">  1       21 0.57327403E-01 0.26072077E+03</pdfrwt>
<totfact> 0.27534338E+04</totfact>
</mgrwt>
</event>
<event>
 4    0  0.1495377E-001  0.2682055E+03  0.7546771E-02  0.1102311E+00
         21   -1    0    0  502  501  0.00000000000E+00  0.00000000000E+00  0.23968697771E+03  0.23968697771E+03  0.00000000000E+00 0.  1.
         21   -1    0    0  503  502 -0.00000000000E+00 -0.00000000000E+00 -0.56757431470E+03  0.56757431470E+03  0.00000000000E+00 0.  1.
         25    1    1    2    0    0 -0.40205909439E+02  0.23386462691E+03 -0.46235471451E+03  0.53451479016E+03  0.12500000000E+03 0.  0.
         21    1    1    2  503  501  0.40205909439E+02 -0.23386462691E+03  0.13446737752E+03  0.27274650225E+03  0.00000000000E+00 0.  1.
<mgrwt>
<rscale>  3 0.26820548E+03</rscale>
<asrwt>0</asrwt>
<pdfrwt beam="1">  1       21 0.36874920E-01 0.26820548E+03</pdfrwt>
<pdfrwt beam="2">  1       21 0.87319125E-01 0.26820548E+03</pdfrwt>
<totfact> 0.76154461E+03</totfact>
</mgrwt>
</event>
<event>
 4    0  0.1495377E-001  0.2412390E+03  0.7546771E-02  0.1118970E+00
         21   -1    0    0  503  501  0.00000000000E+00  0.00000000000E+00  0.79789722536E+02  0.79789722536E+02  0.00000000000E+00 0.  1.
         21   -1    0    0  501  502 -0.00000000000E+00 -0.00000000000E+00 -0.66810973137E+03  0.66810973137E+03  0.00000000000E+00 0.  1.
         25    1    1    2    0    0 -0.20405986141E+03 -0.30509752853E+02 -0.22394110107E+03  0.32915936688E+03  0.12500000000E+03 0.  0.
         21    1    1    2  503  502  0.20405986141E+03  0.30509752853E+02 -0.36437890776E+03  0.41874008702E+03  0.00000000000E+00 0.  1.
<mgrwt>
<rscale>  3 0.24123904E+03</rscale>
<asrwt>0</asrwt>
<pdfrwt beam="1">  1       21 0.12275342E-01 0.24123904E+03</pdfrwt>
<pdfrwt beam="2">  1       21 0.10278611E+00 0.24123904E+03</pdfrwt>
<totfact> 0.42291109E+04</totfact>
</mgrwt>
</event>
<event>
 4    0  0.1495377E-001  0.2666109E+03  0.7546771E-02  0.1103235E+00
         21   -1    0    0  503  501  0.00000000000E+00  0.00000000000E+00  0.23173522810E+03  0.23173522810E+03  0.00000000000E+00 0. -1.
         21   -1    0    0  501  502 -0.00000000000E+00 -0.00000000000E+00 -0.31863044721E+03  0.31863044721E+03  0.00000000000E+00 0. -1.
         25    1    1    2    0    0  0.23140328636E+03 -0.43690581945E+02 -0.15087075657E+03  0.30633859221E+03  0.12500000000E+03 0.  0.
         21    1    1    2  503  502 -0.23140328636E+03  0.43690581945E+02  0.63975537467E+02  0.24402708309E+03  0.00000000000E+00 0. -1.
<mgrwt>
<rscale>  3 0.26661085E+03</rscale>
<asrwt>0</asrwt>
<pdfrwt beam="1">  1       21 0.35651574E-01 0.26661085E+03</pdfrwt>
<pdfrwt beam="2">  1       21 0.49020069E-01 0.26661085E+03</pdfrwt>
<totfact> 0.29057839E+04</totfact>
</mgrwt>
</event>
<event>
 4    0  0.1495377E-001  0.2769777E+03  0.7546771E-02  0.1097351E+00
         21   -1    0    0  503  501  0.00000000000E+00  0.00000000000E+00  0.10583651775E+03  0.10583651775E+03  0.00000000000E+00 0.  1.
         21   -1    0    0  501  502 -0.00000000000E+00 -0.00000000000E+00 -0.67844453708E+03  0.67844453708E+03  0.00000000000E+00 0.  1.
         25    1    1    2    0    0  0.14684050226E+03 -0.19882031255E+03 -0.38352364888E+03  0.47308248650E+03  0.12500000000E+03 0.  0.
         21    1    1    2  503  502 -0.14684050226E+03  0.19882031255E+03 -0.18908437044E+03  0.31119856833E+03  0.00000000000E+00 0.  1.
<mgrwt>
<rscale>  3 0.27697771E+03</rscale>
<asrwt>0</asrwt>
<pdfrwt beam="1">  1       21 0.16282541E-01 0.27697771E+03</pdfrwt>
<pdfrwt beam="2">  1       21 0.10437608E+00 0.27697771E+03</pdfrwt>
<totfact> 0.23955477E+04</totfact>
</mgrwt>
</event>
<event>
 4    0  0.1495377E-001  0.2499552E+03  0.7546771E-02  0.1113333E+00
         21   -1    0    0  502  501  0.00000000000E+00  0.00000000000E+00  0.29278830410E+03  0.29278830410E+03  0.00000000000E+00 0.  1.
         21   -1    0    0  503  502 -0.00000000000E+00 -0.00000000000E+00 -0.18580040689E+03  0.18580040689E+03  0.00000000000E+00 0.  1.
         25    1    1    2    0    0 -0.37301494788E+02  0.21321637767E+03  0.61381160098E+02  0.25738156895E+03  0.12500000000E+03 0.  0.
         21    1    1    2  503  501  0.37301494788E+02 -0.21321637767E+03  0.45606737110E+02  0.22120714204E+03  0.00000000000E+00 0.  1.
<mgrwt>
<rscale>  3 0.24995525E+03</rscale>
<asrwt>0</asrwt>
<pdfrwt beam="1">  1       21 0.45044354E-01 0.24995525E+03</pdfrwt>
<pdfrwt beam="2">  1       21 0.28584678E-01 0.24995525E+03</pdfrwt>
<totfact> 0.53991329E+04</totfact>
</mgrwt>
</event>
<event>
 4    0  0.1495377E-001  0.2364323E+03  0.7546771E-02  0.1122193E+00
         21   -1    0    0  503  501  0.00000000000E+00  0.00000000000E+00  0.55463007764E+02  0.55463007764E+02  0.00000000000E+00 0. -1.
         21   -1    0    0  501  502 -0.00000000000E+00 -0.00000000000E+00 -0.86160624334E+03  0.86160624334E+03  0.00000000000E+00 0. -1.
         25    1    1    2    0    0  0.69743746367E+02 -0.18817823551E+03 -0.44512463784E+03  0.50402002112E+03  0.12500000000E+03 0.  0.
         21    1    1    2  503  502 -0.69743746367E+02  0.18817823551E+03 -0.36101859773E+03  0.41304922998E+03  0.00000000000E+00 0. -1.
<mgrwt>
<rscale>  3 0.23643231E+03</rscale>
<asrwt>0</asrwt>
<pdfrwt beam="1">  1       21 0.85327703E-02 0.23643231E+03</pdfrwt>
<pdfrwt beam="2">  1       21 0.13255481E+00 0.23643231E+03</pdfrwt>
<totfact> 0.43120023E+04</totfact>
</mgrwt>
</event>
<event>
 4    0  0.1495377E-001  0.2505828E+03  0.7546771E-02  0.1112937E+00
         21   -1    0    0  503  501  0.00000000000E+00  0.00000000000E+00  0.36201087566E+03  0.36201087566E+03  0.00000000000E+00 0.  1.
         21   -1    0    0  501  502 -0.00000000000E+00 -0.00000000000E+00 -0.16322228914E+03  0.16322228914E+03  0.00000000000E+00 0.  1.
         25    1    1    2    0    0 -0.19753659528E+03 -0.90255327614E+02  0.17736141755E+03  0.30699967927E+03  0.12500000000E+03 0.  0.
         21    1    1    2  503  502  0.19753659528E+03  0.90255327614E+02  0.21427168976E+02  0.21823348553E+03  0.00000000000E+00 0.  1.
<mgrwt>
<rscale>  3 0.25058278E+03</rscale>
<asrwt>0</asrwt>
<pdfrwt beam="1">  1       21 0.55693981E-01 0.25058278E+03</pdfrwt>
<pdfrwt beam="2">  1       21 0.25111122E-01 0.25058278E+03</pdfrwt>
<totfact> 0.44424192E+04</totfact>
</mgrwt>
</event>
<event>
 4    0  0.1495377E-001  0.2844890E+03  0.7546771E-02  0.1093262E+00
         21   -1    0    0  502  501  0.00000000000E+00  0.00000000000E+00  0.48716480965E+03  0.48716480965E+03  0.00000000000E+00 0.  1.
         21   -1    0    0  503  502 -0.00000000000E+00 -0.00000000000E+00 -0.15027199471E+03  0.15027199471E+03  0.00000000000E+00 0.  1.
         25    1    1    2    0    0 -0.19247985098E+03  0.16810853670E+03  0.15723028197E+03  0.32504666544E+03  0.12500000000E+03 0.  0.
         21    1    1    2  503  501  0.19247985098E+03 -0.16810853670E+03  0.17966253297E+03  0.31239013893E+03  0.00000000000E+00 0.  1.
<mgrwt>
<rscale>  3 0.28448897E+03</rscale>
<asrwt>0</asrwt>
<pdfrwt beam="1">  1       21 0.74948431E-01 0.28448897E+03</pdfrwt>
<pdfrwt beam="2">  1       21 0.23118769E-01 0.28448897E+03</pdfrwt>
<totfact> 0.26770047E+04</totfact>
</mgrwt>
</event>
<event>
 4    0  0.1495377E-001  0.2577549E+03  0.7546771E-02  0.1108500E+00
         21   -1    0    0  503  501  0.00000000000E+00  0.00000000000E+00  0.34687754570E+03  0.34687754570E+03  0.00000000000E+00 0.  1.
         21   -1    0    0  501  502 -0.00000000000E+00 -0.00000000000E+00 -0.59860060518E+03  0.59860060518E+03  0.00000000000E+00 0. -1.
         25    1    1    2    0    0  0.21803893173E+03  0.57198141571E+02 -0.52880845872E+03  0.58828223598E+03  0.12500000000E+03 0.  0.
         21    1    1    2  503  502 -0.21803893173E+03 -0.57198141571E+02  0.27708539924E+03  0.35719591490E+03  0.00000000000E+00 0.  1.
<mgrwt>
<rscale>  3 0.25775493E+03</rscale>
<asrwt>0</asrwt>
<pdfrwt beam="1">  1       21 0.53365776E-01 0.25775493E+03</pdfrwt>
<pdfrwt beam="2">  1       21 0.92092401E-01 0.25775493E+03</pdfrwt>
<totfact> 0.31537258E+03</totfact>
</mgrwt>
</event>
<event>
 4    0  0.1495377E-001  0.2362663E+03  0.7546771E-02  0.1122305E+00
         21   -1    0    0  502  501  0.00000000000E+00  0.00000000000E+00  0.58910923369E+03  0.58910923369E+03  0.00000000000E+00 0.  1.
         21   -1    0    0  503  502 -0.00000000000E+00 -0.00000000000E+00 -0.84611593503E+02  0.84611593503E+02  0.00000000000E+00 0.  1.
         25    1    1    2    0    0  0.17446952495E+03 -0.98778244423E+02  0.20218059979E+03  0.31096422887E+03  0.12500000000E+03 0.  0.
         21    1    1    2  503  501 -0.17446952495E+03  0.98778244423E+02  0.30231704040E+03  0.36275659832E+03  0.00000000000E+00 0.  1.
<mgrwt>
<rscale>  3 0.23626628E+03</rscale>
<asrwt>0</asrwt>
<pdfrwt beam="1">  1       21 0.90632187E-01 0.23626628E+03</pdfrwt>
<pdfrwt beam="2">  1       21 0.13017169E-01 0.23626628E+03</pdfrwt>
<totfact> 0.51349425E+04</totfact>
</mgrwt>
</event>
<event>
 4    0  0.1495377E-001  0.3089839E+03  0.7546771E-02  0.1080834E+00
         21   -1    0    0  503  501  0.00000000000E+00  0.00000000000E+00  0.14782043128E+03  0.14782043128E+03  0.00000000000E+00 0. -1.
         21   -1    0    0  501  502 -0.00000000000E+00 -0.00000000000E+00 -0.66728820451E+03  0.66728820451E+03  0.00000000000E+00 0. -1.
         25    1    1    2    0    0 -0.27839296434E+03 -0.48408470544E+02 -0.40695229285E+03  0.51096104672E+03  0.12500000000E+03 0.  0.
         21    1    1    2  503  502  0.27839296434E+03  0.48408470544E+02 -0.11251548038E+03  0.30414758907E+03  0.00000000000E+00 0. -1.
<mgrwt>
<rscale>  3 0.30898385E+03</rscale>
<asrwt>0</asrwt>
<pdfrwt beam="1">  1       21 0.22741605E-01 0.30898385E+03</pdfrwt>
<pdfrwt beam="2">  1       21 0.10265972E+00 0.30898385E+03</pdfrwt>
<totfact> 0.13127620E+04</totfact>
</mgrwt>
</event>
<event>
 4    0  0.1495377E-001  0.3302588E+03  0.7546771E-02  0.1071022E+00
         21   -1    0    0  502  501  0.00000000000E+00  0.00000000000E+00  0.17505480866E+03  0.17505480866E+03  0.00000000000E+00 0. -1.
         21   -1    0    0  503  502 -0.00000000000E+00 -0.00000000000E+00 -0.67011222601E+03  0.67011222601E+03  0.00000000000E+00 0. -1.
         25    1    1    2    0    0 -0.26045297538E+03 -0.16003168036E+03 -0.41270452436E+03  0.52857914784E+03  0.12500000000E+03 0.  0.
         21    1    1    2  503  501  0.26045297538E+03  0.16003168036E+03 -0.82352892987E+02  0.31658788682E+03  0.00000000000E+00 0. -1.
<mgrwt>
<rscale>  3 0.33025882E+03</rscale>
<asrwt>0</asrwt>
<pdfrwt beam="1">  1       21 0.26931510E-01 0.33025882E+03</pdfrwt>
<pdfrwt beam="2">  1       21 0.10309419E+00 0.33025882E+03</pdfrwt>
<totfact> 0.92906730E+03</totfact>
</mgrwt>
</event>
<event>
 4    0  0.1495377E-001  0.2486626E+03  0.7546771E-02  0.1114153E+00
         21   -1    0    0  503  501  0.00000000000E+00  0.00000000000E+00  0.11360524577E+04  0.11360524577E+04  0.00000000000E+00 0.  1.
         21   -1    0    0  501  502 -0.00000000000E+00 -0.00000000000E+00 -0.72611688791E+02  0.72611688791E+02  0.00000000000E+00 0. -1.
         25    1    1    2    0    0  0.14970709041E+03 -0.15425905595E+03  0.20071563112E+03  0.31956194053E+03  0.12500000000E+03 0.  0.
         21    1    1    2  503  502 -0.14970709041E+03  0.15425905595E+03  0.86272513778E+03  0.88910220595E+03  0.00000000000E+00 0.  1.
<mgrwt>
<rscale>  3 0.24866256E+03</rscale>
<asrwt>0</asrwt>
<pdfrwt beam="1">  1       21 0.17477729E+00 0.24866256E+03</pdfrwt>
<pdfrwt beam="2">  1       21 0.11171030E-01 0.24866256E+03</pdfrwt>
<totfact> 0.12674673E+04</totfact>
</mgrwt>
</event>
<event>
 4    0  0.1495377E-001  0.3066122E+03  0.7546771E-02  0.1081981E+00
         21   -1    0    0  503  501  0.00000000000E+00  0.00000000000E+00  0.85983595979E+02  0.85983595979E+02  0.00000000000E+00 0. -1.
         21   -1    0    0  501  502 -0.00000000000E+00 -0.00000000000E+00 -0.10154266313E+04  0.10154266313E+04  0.00000000000E+00 0. -1.
         25    1    1    2    0    0  0.22121654883E+03  0.17160785161E+03 -0.55235604489E+03  0.63175012191E+03  0.12500000000E+03 0.  0.
         21    1    1    2  503  502 -0.22121654883E+03 -0.17160785161E+03 -0.37708699040E+03  0.46966010533E+03  0.00000000000E+00 0. -1.
<mgrwt>
<rscale>  3 0.30661216E+03</rscale>
<asrwt>0</asrwt>
<pdfrwt beam="1">  1       21 0.13228245E-01 0.30661216E+03</pdfrwt>
<pdfrwt beam="2">  1       21 0.15621949E+00 0.30661216E+03</pdfrwt>
<totfact> 0.12352237E+04</totfact>
</mgrwt>
</event>
<event>
 4    0  0.1495377E-001  0.3719797E+03  0.7546771E-02  0.1053939E+00
         21   -1    0    0  503  501  0.00000000000E+00  0.00000000000E+00  0.71760041482E+03  0.71760041482E+03  0.00000000000E+00 0. -1.
         21   -1    0    0  501  502 -0.00000000000E+00 -0.00000000000E+00 -0.18263971477E+03  0.18263971477E+03  0.00000000000E+00 0. -1.
         25    1    1    2    0    0  0.34194194672E+03 -0.76286113386E+02  0.24443390442E+03  0.44510313373E+03  0.12500000000E+03 0.  0.
         21    1    1    2  503  502 -0.34194194672E+03  0.76286113386E+02  0.29052679563E+03  0.45513699586E+03  0.00000000000E+00 0. -1.
<mgrwt>
<rscale>  3 0.37197966E+03</rscale>
<asrwt>0</asrwt>
<pdfrwt beam="1">  1       21 0.11040006E+00 0.37197966E+03</pdfrwt>
<pdfrwt beam="2">  1       21 0.28098418E-01 0.37197966E+03</pdfrwt>
<totfact> 0.71079991E+03</totfact>
</mgrwt>
</event>
<event>
 4    0  0.1495377E-001  0.2688392E+03  0.7546771E-02  0.1101946E+00
         21   -1    0    0  503  501  0.00000000000E+00  0.00000000000E+00  0.43972969154E+02  0.43972969154E+02  0.00000000000E+00 0. -1.
         21   -1    0    0  501  502 -0.00000000000E+00 -0.00000000000E+00 -0.16100277909E+04  0.16100277909E+04  0.00000000000E+00 0. -1.
         25    1    1    2    0    0 -0.22483584122E+03  0.78091975483E+02 -0.10777997973E+04  0.11108226300E+04  0.12500000000E+03 0.  0.
         21    1    1    2  503  502  0.22483584122E+03 -0.78091975483E+02 -0.48825502443E+03  0.54317813010E+03  0.00000000000E+00 0. -1.
<mgrwt>
<rscale>  3 0.26883919E+03</rscale>
<asrwt>0</asrwt>
<pdfrwt beam="1">  1       21 0.67650720E-02 0.26883919E+03</pdfrwt>
<pdfrwt beam="2">  1       21 0.24769659E+00 0.26883919E+03</pdfrwt>
<totfact> 0.10348358E+04</totfact>
</mgrwt>
</event>
<event>
 4    0  0.1495377E-001  0.2804072E+03  0.7546771E-02  0.1095467E+00
         21   -1    0    0  502  501  0.00000000000E+00  0.00000000000E+00  0.48292448428E+03  0.48292448428E+03  0.00000000000E+00 0.  1.
         21   -1    0    0  503  502 -0.00000000000E+00 -0.00000000000E+00 -0.30066659064E+03  0.30066659064E+03  0.00000000000E+00 0. -1.
         25    1    1    2    0    0 -0.23265009924E+03 -0.94218482720E+02 -0.18704185264E+03  0.33706504683E+03  0.12500000000E+03 0.  0.
         21    1    1    2  503  501  0.23265009924E+03  0.94218482720E+02  0.36929974627E+03  0.44652602809E+03  0.00000000000E+00 0.  1.
<mgrwt>
<rscale>  3 0.28040719E+03</rscale>
<asrwt>0</asrwt>
<pdfrwt beam="1">  1       21 0.74296075E-01 0.28040719E+03</pdfrwt>
<pdfrwt beam="2">  1       21 0.46256399E-01 0.28040719E+03</pdfrwt>
<totfact> 0.68816091E+03</totfact>
</mgrwt>
</event>
<event>
 4    0  0.1495377E-001  0.2433921E+03  0.7546771E-02  0.1117554E+00
         21   -1    0    0  503  501  0.00000000000E+00  0.00000000000E+00  0.88485905424E+03  0.88485905424E+03  0.00000000000E+00 0. -1.
         21   -1    0    0  501  502 -0.00000000000E+00 -0.00000000000E+00 -0.58259509886E+02  0.58259509886E+02  0.00000000000E+00 0. -1.
         25    1    1    2    0    0  0.20735140857E+03  0.24901767268E+02  0.48719311846E+03  0.54460705038E+03  0.12500000000E+03 0.  0.
         21    1    1    2  503  502 -0.20735140857E+03 -0.24901767268E+02  0.33940642590E+03  0.39851151375E+03  0.00000000000E+00 0. -1.
<mgrwt>
<rscale>  3 0.24339208E+03</rscale>
<asrwt>0</asrwt>
<pdfrwt beam="1">  1       21 0.13613215E+00 0.24339208E+03</pdfrwt>
<pdfrwt beam="2">  1       21 0.89630022E-02 0.24339208E+03</pdfrwt>
<totfact> 0.36815765E+04</totfact>
</mgrwt>
</event>
<event>
 4    0  0.1495377E-001  0.3115825E+03  0.7546771E-02  0.1079590E+00
         21   -1    0    0  503  501  0.00000000000E+00  0.00000000000E+00  0.27532811981E+03  0.27532811981E+03  0.00000000000E+00 0.  1.
         21   -1    0    0  501  502 -0.00000000000E+00 -0.00000000000E+00 -0.13334819679E+04  0.13334819679E+04  0.00000000000E+00 0. -1.
         25    1    1    2    0    0  0.22269318557E+03 -0.17851153706E+03 -0.12345679128E+04  0.12732798417E+04  0.12500000000E+03 0.  0.
         21    1    1    2  503  502 -0.22269318557E+03  0.17851153706E+03  0.17641406476E+03  0.33553024604E+03  0.00000000000E+00 0.  1.
<mgrwt>
<rscale>  3 0.31158245E+03</rscale>
<asrwt>0</asrwt>
<pdfrwt beam="1">  1       21 0.42358173E-01 0.31158245E+03</pdfrwt>
<pdfrwt beam="2">  1       21 0.20515107E+00 0.31158245E+03</pdfrwt>
<totfact> 0.59722684E+02</totfact>
</mgrwt>
</event>
<event>
 4    0  0.1495377E-001  0.2521797E+03  0.7546771E-02  0.1111935E+00
         21   -1    0    0  502  501  0.00000000000E+00  0.00000000000E+00  0.13461439108E+04  0.13461439108E+04  0.00000000000E+00 0.  1.
         21   -1    0    0  503  502 -0.00000000000E+00 -0.00000000000E+00 -0.82068153710E+02  0.82068153710E+02  0.00000000000E+00 0.  1.
         25    1    1    2    0    0 -0.16124912427E+03 -0.14821721315E+03  0.15129675355E+03  0.29408388257E+03  0.12500000000E+03 0.  0.
         21    1    1    2  503  501  0.16124912427E+03  0.14821721315E+03  0.11127790036E+04  0.11341281820E+04  0.00000000000E+00 0.  1.
<mgrwt>
<rscale>  3 0.25217974E+03</rscale>
<asrwt>0</asrwt>
<pdfrwt beam="1">  1       21 0.20709905E+00 0.25217974E+03</pdfrwt>
<pdfrwt beam="2">  1       21 0.12625871E-01 0.25217974E+03</pdfrwt>
<totfact> 0.61759413E+03</totfact>
</mgrwt>
</event>
<event>
 4    0  0.1495377E-001  0.2463268E+03  0.7546771E-02  0.1115648E+00
         21   -1    0    0  502  501  0.00000000000E+00  0.00000000000E+00  0.35008621008E+03  0.35008621008E+03  0.00000000000E+00 0.  1.
         21   -1    0    0  503  502 -0.00000000000E+00 -0.00000000000E+00 -0.15134829142E+03  0.15134829142E+03  0.00000000000E+00 0.  1.
         25    1    1    2    0    0 -0.17217265174E+03 -0.12413092974E+03  0.84679926044E+02  0.26047571787E+03  0.12500000000E+03 0.  0.
         21    1    1    2  503  501  0.17217265174E+03  0.12413092974E+03  0.11405799261E+03  0.24095878362E+03  0.00000000000E+00 0.  1.
<mgrwt>
<rscale>  3 0.24632684E+03</rscale>
<asrwt>0</asrwt>
<pdfrwt beam="1">  1       21 0.53859417E-01 0.24632684E+03</pdfrwt>
<pdfrwt beam="2">  1       21 0.23284353E-01 0.24632684E+03</pdfrwt>
<totfact> 0.55219565E+04</totfact>
</mgrwt>
</event>
<event>
 4    0  0.1495377E-001  0.2922743E+03  0.7546771E-02  0.1089168E+00
         21   -1    0    0  503  501  0.00000000000E+00  0.00000000000E+00  0.66489053975E+03  0.66489053975E+03  0.00000000000E+00 0.  1.
         21   -1    0    0  501  502 -0.00000000000E+00 -0.00000000000E+00 -0.13624023394E+03  0.13624023394E+03  0.00000000000E+00 0. -1.
         25    1    1    2    0    0  0.26416498307E+03 -0.40175990125E+01  0.12315382671E+03  0.31716107015E+03  0.12500000000E+03 0.  0.
         21    1    1    2  503  502 -0.26416498307E+03  0.40175990125E+01  0.40549647910E+03  0.48396970354E+03  0.00000000000E+00 0.  1.
<mgrwt>
<rscale>  3 0.29227432E+03</rscale>
<asrwt>0</asrwt>
<pdfrwt beam="1">  1       21 0.10229085E+00 0.29227432E+03</pdfrwt>
<pdfrwt beam="2">  1       21 0.20960036E-01 0.29227432E+03</pdfrwt>
<totfact> 0.15579527E+04</totfact>
</mgrwt>
</event>
<event>
 4    0  0.1495377E-001  0.3474489E+03  0.7546771E-02  0.1063667E+00
         21   -1    0    0  502  501  0.00000000000E+00  0.00000000000E+00  0.34296301475E+03  0.34296301475E+03  0.00000000000E+00 0. -1.
         21   -1    0    0  503  502 -0.00000000000E+00 -0.00000000000E+00 -0.73500674145E+03  0.73500674145E+03  0.00000000000E+00 0. -1.
         25    1    1    2    0    0  0.16783327753E+03 -0.27735850849E+03 -0.59962852907E+03  0.69301884834E+03  0.12500000000E+03 0.  0.
         21    1    1    2  503  501 -0.16783327753E+03  0.27735850849E+03  0.20758480237E+03  0.38495090785E+03  0.00000000000E+00 0. -1.
<mgrwt>
<rscale>  3 0.34744892E+03</rscale>
<asrwt>0</asrwt>
<pdfrwt beam="1">  1       21 0.52763541E-01 0.34744892E+03</pdfrwt>
<pdfrwt beam="2">  1       21 0.11307796E+00 0.34744892E+03</pdfrwt>
<totfact> 0.18700227E+03</totfact>
</mgrwt>
</event>
<event>
 4    0  0.1495377E-001  0.3835843E+03  0.7546771E-02  0.1049617E+00
         21   -1    0    0  502  501  0.00000000000E+00  0.00000000000E+00  0.43401684169E+03  0.43401684169E+03  0.00000000000E+00 0.  1.
         21   -1    0    0  503  502 -0.00000000000E+00 -0.00000000000E+00 -0.42157946817E+03  0.42157946817E+03  0.00000000000E+00 0. -1.
         25    1    1    2    0    0  0.10816799584E+02 -0.36248432096E+03 -0.20279166028E+03  0.43389093512E+03  0.12500000000E+03 0.  0.
         21    1    1    2  503  501 -0.10816799584E+02  0.36248432096E+03  0.21522903380E+03  0.42170537474E+03  0.00000000000E+00 0.  1.
<mgrwt>
<rscale>  3 0.38358426E+03</rscale>
<asrwt>0</asrwt>
<pdfrwt beam="1">  1       21 0.66771822E-01 0.38358426E+03</pdfrwt>
<pdfrwt beam="2">  1       21 0.64858380E-01 0.38358426E+03</pdfrwt>
<totfact> 0.40399265E+03</totfact>
</mgrwt>
</event>
<event>
 4    0  0.1495377E-001  0.2780684E+03  0.7546771E-02  0.1096749E+00
         21   -1    0    0  503  501  0.00000000000E+00  0.00000000000E+00  0.11123057589E+04  0.11123057589E+04  0.00000000000E+00 0. -1.
         21   -1    0    0  501  502 -0.00000000000E+00 -0.00000000000E+00 -0.70447355008E+02  0.70447355008E+02  0.00000000000E+00 0. -1.
         25    1    1    2    0    0  0.24823925218E+03 -0.86199847172E+01  0.34598643314E+03  0.44387908531E+03  0.12500000000E+03 0.  0.
         21    1    1    2  503  502 -0.24823925218E+03  0.86199847172E+01  0.69587197077E+03  0.73887402862E+03  0.00000000000E+00 0. -1.
<mgrwt>
<rscale>  3 0.27806839E+03</rscale>
<asrwt>0</asrwt>
<pdfrwt beam="1">  1       21 0.17112395E+00 0.27806839E+03</pdfrwt>
<pdfrwt beam="2">  1       21 0.10838055E-01 0.27806839E+03</pdfrwt>
<totfact> 0.13960671E+04</totfact>
</mgrwt>
</event>
<event>
 4    0  0.1495377E-001  0.3055963E+03  0.7546771E-02  0.1082476E+00
         21   -1    0    0  503  501  0.00000000000E+00  0.00000000000E+00  0.75561512424E+03  0.75561512424E+03  0.00000000000E+00 0.  1.
         21   -1    0    0  501  502 -0.00000000000E+00 -0.00000000000E+00 -0.17740180209E+03  0.17740180209E+03  0.00000000000E+00 0. -1.
         25    1    1    2    0    0  0.24805386698E+03  0.12741025564E+03  0.16677821383E+02  0.30605104785E+03  0.12500000000E+03 0.  0.
         21    1    1    2  503  502 -0.24805386698E+03 -0.12741025564E+03  0.56153550076E+03  0.62696587848E+03  0.00000000000E+00 0.  1.
<mgrwt>
<rscale>  3 0.30559629E+03</rscale>
<asrwt>0</asrwt>
<pdfrwt beam="1">  1       21 0.11624848E+00 0.30559629E+03</pdfrwt>
<pdfrwt beam="2">  1       21 0.27292585E-01 0.30559629E+03</pdfrwt>
<totfact> 0.68178318E+03</totfact>
</mgrwt>
</event>
<event>
 4    0  0.1495377E-001  0.2781464E+03  0.7546771E-02  0.1096706E+00
         21   -1    0    0  503  501  0.00000000000E+00  0.00000000000E+00  0.47676138492E+03  0.47676138492E+03  0.00000000000E+00 0.  1.
         21   -1    0    0  501  502 -0.00000000000E+00 -0.00000000000E+00 -0.18252775995E+03  0.18252775995E+03  0.00000000000E+00 0.  1.
         25    1    1    2    0    0  0.12295663890E+03 -0.21592143317E+03  0.52852797743E+01  0.27819657534E+03  0.12500000000E+03 0.  0.
         21    1    1    2  503  502 -0.12295663890E+03  0.21592143317E+03  0.28894834520E+03  0.38109256952E+03  0.00000000000E+00 0.  1.
<mgrwt>
<rscale>  3 0.27814636E+03</rscale>
<asrwt>0</asrwt>
<pdfrwt beam="1">  1       21 0.73347905E-01 0.27814636E+03</pdfrwt>
<pdfrwt beam="2">  1       21 0.28081194E-01 0.27814636E+03</pdfrwt>
<totfact> 0.19358439E+04</totfact>
</mgrwt>
</event>
<event>
 4    0  0.1495377E-001  0.2417910E+03  0.7546771E-02  0.1118605E+00
         21   -1    0    0  502  501  0.00000000000E+00  0.00000000000E+00  0.18442689687E+04  0.18442689687E+04  0.00000000000E+00 0.  1.
         21   -1    0    0  503  502 -0.00000000000E+00 -0.00000000000E+00 -0.15323918968E+03  0.15323918968E+03  0.00000000000E+00 0. -1.
         25    1    1    2    0    0 -0.11380310601E+03  0.17287786985E+03 -0.47743631532E+02  0.24645965019E+03  0.12500000000E+03 0.  0.
         21    1    1    2  503  501  0.11380310601E+03 -0.17287786985E+03  0.17387734106E+04  0.17510485082E+04  0.00000000000E+00 0.  1.
<mgrwt>
<rscale>  3 0.24179104E+03</rscale>
<asrwt>0</asrwt>
<pdfrwt beam="1">  1       21 0.28373367E+00 0.24179104E+03</pdfrwt>
<pdfrwt beam="2">  1       21 0.23575261E-01 0.24179104E+03</pdfrwt>
<totfact> 0.67542571E+02</totfact>
</mgrwt>
</event>
<event>
 4    0  0.1495377E-001  0.2505155E+03  0.7546771E-02  0.1112979E+00
         21   -1    0    0  503  501  0.00000000000E+00  0.00000000000E+00  0.92722201985E+03  0.92722201985E+03  0.00000000000E+00 0. -1.
         21   -1    0    0  501  502 -0.00000000000E+00 -0.00000000000E+00 -0.89380004234E+02  0.89380004234E+02  0.00000000000E+00 0. -1.
         25    1    1    2    0    0 -0.71915791831E+02 -0.20484415437E+03  0.14261446547E+03  0.28826531955E+03  0.12500000000E+03 0.  0.
         21    1    1    2  503  502  0.71915791831E+02  0.20484415437E+03  0.69522755015E+03  0.72833670454E+03  0.00000000000E+00 0. -1.
<mgrwt>
<rscale>  3 0.25051549E+03</rscale>
<asrwt>0</asrwt>
<pdfrwt beam="1">  1       21 0.14264953E+00 0.25051549E+03</pdfrwt>
<pdfrwt beam="2">  1       21 0.13750771E-01 0.25051549E+03</pdfrwt>
<totfact> 0.15095743E+04</totfact>
</mgrwt>
</event>
<event>
 4    0  0.1495377E-001  0.2444860E+03  0.7546771E-02  0.1116840E+00
         21   -1    0    0  502  501  0.00000000000E+00  0.00000000000E+00  0.25165439742E+03  0.25165439742E+03  0.00000000000E+00 0.  1.
         21   -1    0    0  503  502 -0.00000000000E+00 -0.00000000000E+00 -0.36731854005E+03  0.36731854005E+03  0.00000000000E+00 0.  1.
         25    1    1    2    0    0  0.42049993245E+02 -0.20586454481E+03 -0.26548796436E+03  0.36091172323E+03  0.12500000000E+03 0.  0.
         21    1    1    2  503  501 -0.42049993245E+02  0.20586454481E+03  0.14982382173E+03  0.25806121425E+03  0.00000000000E+00 0.  1.
<mgrwt>
<rscale>  3 0.24448602E+03</rscale>
<asrwt>0</asrwt>
<pdfrwt beam="1">  1       21 0.38716061E-01 0.24448602E+03</pdfrwt>
<pdfrwt beam="2">  1       21 0.56510545E-01 0.24448602E+03</pdfrwt>
<totfact> 0.18401789E+04</totfact>
</mgrwt>
</event>
<event>
 4    0  0.1495377E-001  0.3130520E+03  0.7546771E-02  0.1078892E+00
         21   -1    0    0  502  501  0.00000000000E+00  0.00000000000E+00  0.20052961721E+03  0.20052961721E+03  0.00000000000E+00 0. -1.
         21   -1    0    0  503  502 -0.00000000000E+00 -0.00000000000E+00 -0.53315195201E+03  0.53315195201E+03  0.00000000000E+00 0. -1.
         25    1    1    2    0    0 -0.14978155423E+03  0.24483064446E+03 -0.31809259594E+03  0.44630086046E+03  0.12500000000E+03 0.  0.
         21    1    1    2  503  501  0.14978155423E+03 -0.24483064446E+03 -0.14529738861E+02  0.28738070876E+03  0.00000000000E+00 0. -1.
<mgrwt>
<rscale>  3 0.31305201E+03</rscale>
<asrwt>0</asrwt>
<pdfrwt beam="1">  1       21 0.30850711E-01 0.31305201E+03</pdfrwt>
<pdfrwt beam="2">  1       21 0.82023376E-01 0.31305201E+03</pdfrwt>
<totfact> 0.12297244E+04</totfact>
</mgrwt>
</event>
<event>
 4    0  0.1495377E-001  0.2758546E+03  0.7546771E-02  0.1097975E+00
         21   -1    0    0  502  501  0.00000000000E+00  0.00000000000E+00  0.35101302234E+03  0.35101302234E+03  0.00000000000E+00 0. -1.
         21   -1    0    0  503  502 -0.00000000000E+00 -0.00000000000E+00 -0.19572524215E+03  0.19572524215E+03  0.00000000000E+00 0. -1.
         25    1    1    2    0    0 -0.24032968986E+03  0.52080632489E+02  0.55653984094E+02  0.28141271836E+03  0.12500000000E+03 0.  0.
         21    1    1    2  503  501  0.24032968986E+03 -0.52080632489E+02  0.99633796099E+02  0.26532554614E+03  0.00000000000E+00 0. -1.
<mgrwt>
<rscale>  3 0.27585459E+03</rscale>
<asrwt>0</asrwt>
<pdfrwt beam="1">  1       21 0.54002004E-01 0.27585459E+03</pdfrwt>
<pdfrwt beam="2">  1       21 0.30111576E-01 0.27585459E+03</pdfrwt>
<totfact> 0.32997487E+04</totfact>
</mgrwt>
</event>
<event>
 4    0  0.1495377E-001  0.2884253E+03  0.7546771E-02  0.1091174E+00
         21   -1    0    0  503  501  0.00000000000E+00  0.00000000000E+00  0.15591304508E+03  0.15591304508E+03  0.00000000000E+00 0. -1.
         21   -1    0    0  501  502 -0.00000000000E+00 -0.00000000000E+00 -0.51505672107E+03  0.51505672107E+03  0.00000000000E+00 0. -1.
         25    1    1    2    0    0  0.25752251330E+03 -0.35302919944E+02 -0.27299643720E+03  0.39713498428E+03  0.12500000000E+03 0.  0.
         21    1    1    2  503  502 -0.25752251330E+03  0.35302919944E+02 -0.86147238779E+02  0.27383478187E+03  0.00000000000E+00 0. -1.
<mgrwt>
<rscale>  3 0.28842528E+03</rscale>
<asrwt>0</asrwt>
<pdfrwt beam="1">  1       21 0.23986623E-01 0.28842528E+03</pdfrwt>
<pdfrwt beam="2">  1       21 0.79239495E-01 0.28842528E+03</pdfrwt>
<totfact> 0.21951875E+04</totfact>
</mgrwt>
</event>
<event>
 4    0  0.1495377E-001  0.2429087E+03  0.7546771E-02  0.1117870E+00
         21   -1    0    0  502  501  0.00000000000E+00  0.00000000000E+00  0.13349629517E+03  0.13349629517E+03  0.00000000000E+00 0. -1.
         21   -1    0    0  503  502 -0.00000000000E+00 -0.00000000000E+00 -0.11359847427E+04  0.11359847427E+04  0.00000000000E+00 0. -1.
         25    1    1    2    0    0 -0.20232156568E+03  0.49453455744E+02 -0.10310288058E+04  0.10592568426E+04  0.12500000000E+03 0.  0.
         21    1    1    2  503  501  0.20232156568E+03 -0.49453455744E+02  0.28540358277E+02  0.21022419526E+03  0.00000000000E+00 0. -1.
<mgrwt>
<rscale>  3 0.24290875E+03</rscale>
<asrwt>0</asrwt>
<pdfrwt beam="1">  1       21 0.20537891E-01 0.24290875E+03</pdfrwt>
<pdfrwt beam="2">  1       21 0.17476689E+00 0.24290875E+03</pdfrwt>
<totfact> 0.41658288E+03</totfact>
</mgrwt>
</event>
<event>
 4    0  0.1495377E-001  0.3046584E+03  0.7546771E-02  0.1082935E+00
         21   -1    0    0  502  501  0.00000000000E+00  0.00000000000E+00  0.50502143211E+03  0.50502143211E+03  0.00000000000E+00 0.  1.
         21   -1    0    0  503  502 -0.00000000000E+00 -0.00000000000E+00 -0.40068707383E+03  0.40068707383E+03  0.00000000000E+00 0. -1.
         25    1    1    2    0    0 -0.27522304621E+03  0.38000249721E+02 -0.29179818955E+03  0.42185652486E+03  0.12500000000E+03 0.  0.
         21    1    1    2  503  501  0.27522304621E+03 -0.38000249721E+02  0.39613254783E+03  0.48385198108E+03  0.00000000000E+00 0.  1.
<mgrwt>
<rscale>  3 0.30465841E+03</rscale>
<asrwt>0</asrwt>
<pdfrwt beam="1">  1       21 0.77695605E-01 0.30465841E+03</pdfrwt>
<pdfrwt beam="2">  1       21 0.61644165E-01 0.30465841E+03</pdfrwt>
<totfact> 0.33318607E+03</totfact>
</mgrwt>
</event>
<event>
 4    0  0.1495377E-001  0.3602351E+03  0.7546771E-02  0.1058491E+00
         21   -1    0    0  503  501  0.00000000000E+00  0.00000000000E+00  0.21706815620E+03  0.21706815620E+03  0.00000000000E+00 0.  1.
         21   -1    0    0  501  502 -0.00000000000E+00 -0.00000000000E+00 -0.66641109503E+03  0.66641109503E+03  0.00000000000E+00 0.  1.
         25    1    1    2    0    0  0.32867339629E+03  0.78218498460E+02 -0.40613245685E+03  0.54287467010E+03  0.12500000000E+03 0.  0.
         21    1    1    2  503  502 -0.32867339629E+03 -0.78218498460E+02 -0.43210481977E+02  0.34060458113E+03  0.00000000000E+00 0.  1.
<mgrwt>
<rscale>  3 0.36023511E+03</rscale>
<asrwt>0</asrwt>
<pdfrwt beam="1">  1       21 0.33395102E-01 0.36023511E+03</pdfrwt>
<pdfrwt beam="2">  1       21 0.10252478E+00 0.36023511E+03</pdfrwt>
<totfact> 0.60798222E+03</totfact>
</mgrwt>
</event>
<event>
 4    0  0.1495377E-001  0.3840922E+03  0.7546771E-02  0.1049432E+00
         21   -1    0    0  503  501  0.00000000000E+00  0.00000000000E+00  0.17713860166E+04  0.17713860166E+04  0.00000000000E+00 0.  1.
         21   -1    0    0  501  502 -0.00000000000E+00 -0.00000000000E+00 -0.16219800960E+03  0.16219800960E+03  0.00000000000E+00 0.  1.
         25    1    1    2    0    0 -0.25511481828E+03  0.25849221555E+03  0.12246406860E+03  0.40314295741E+03  0.12500000000E+03 0.  0.
         21    1    1    2  503  502  0.25511481828E+03 -0.25849221555E+03  0.14867239384E+04  0.15304410688E+04  0.00000000000E+00 0.  1.
<mgrwt>
<rscale>  3 0.38409217E+03</rscale>
<asrwt>0</asrwt>
<pdfrwt beam="1">  1       21 0.27252091E+00 0.38409217E+03</pdfrwt>
<pdfrwt beam="2">  1       21 0.24953541E-01 0.38409217E+03</pdfrwt>
<totfact> 0.62709926E+02</totfact>
</mgrwt>
</event>
<event>
 4    0  0.1495377E-001  0.3045103E+03  0.7546771E-02  0.1083007E+00
         21   -1    0    0  502  501  0.00000000000E+00  0.00000000000E+00  0.10012252106E+04  0.10012252106E+04  0.00000000000E+00 0.  1.
         21   -1    0    0  503  502 -0.00000000000E+00 -0.00000000000E+00 -0.84769796717E+02  0.84769796717E+02  0.00000000000E+00 0.  1.
         25    1    1    2    0    0 -0.23575045184E+03 -0.14670795315E+03  0.45730800083E+03  0.54941524067E+03  0.12500000000E+03 0.  0.
         21    1    1    2  503  501  0.23575045184E+03  0.14670795315E+03  0.45914741305E+03  0.53657976665E+03  0.00000000000E+00 0.  1.
<mgrwt>
<rscale>  3 0.30451026E+03</rscale>
<asrwt>0</asrwt>
<pdfrwt beam="1">  1       21 0.15403464E+00 0.30451026E+03</pdfrwt>
<pdfrwt beam="2">  1       21 0.13041508E-01 0.30451026E+03</pdfrwt>
<totfact> 0.13182911E+04</totfact>
</mgrwt>
</event>
<event>
 4    0  0.1495377E-001  0.2421727E+03  0.7546771E-02  0.1118354E+00
         21   -1    0    0  503  501  0.00000000000E+00  0.00000000000E+00  0.11958032511E+04  0.11958032511E+04  0.00000000000E+00 0. -1.
         21   -1    0    0  501  502 -0.00000000000E+00 -0.00000000000E+00 -0.87370313113E+02  0.87370313113E+02  0.00000000000E+00 0. -1.
         25    1    1    2    0    0  0.17686865121E+03  0.10835181434E+03  0.11458703553E+03  0.26791383720E+03  0.12500000000E+03 0.  0.
         21    1    1    2  503  502 -0.17686865121E+03 -0.10835181434E+03  0.99384590241E+03  0.10152597270E+04  0.00000000000E+00 0. -1.
<mgrwt>
<rscale>  3 0.24217274E+03</rscale>
<asrwt>0</asrwt>
<pdfrwt beam="1">  1       21 0.18396972E+00 0.24217274E+03</pdfrwt>
<pdfrwt beam="2">  1       21 0.13441588E-01 0.24217274E+03</pdfrwt>
<totfact> 0.78807952E+03</totfact>
</mgrwt>
</event>
<event>
 4    0  0.1495377E-001  0.2554046E+03  0.7546771E-02  0.1109936E+00
         21   -1    0    0  502  501  0.00000000000E+00  0.00000000000E+00  0.16466272283E+03  0.16466272283E+03  0.00000000000E+00 0. -1.
         21   -1    0    0  503  502 -0.00000000000E+00 -0.00000000000E+00 -0.84958792488E+03  0.84958792488E+03  0.00000000000E+00 0.  1.
         25    1    1    2    0    0 -0.15480955753E+03  0.16012656667E+03 -0.74166676264E+03  0.78441131001E+03  0.12500000000E+03 0.  0.
         21    1    1    2  503  501  0.15480955753E+03 -0.16012656667E+03  0.56741560597E+02  0.22983933770E+03  0.00000000000E+00 0. -1.
<mgrwt>
<rscale>  3 0.25540461E+03</rscale>
<asrwt>0</asrwt>
<pdfrwt beam="1">  1       21 0.25332727E-01 0.25540461E+03</pdfrwt>
<pdfrwt beam="2">  1       21 0.13070583E+00 0.25540461E+03</pdfrwt>
<totfact> 0.60236474E+03</totfact>
</mgrwt>
</event>
<event>
 4    0  0.1495377E-001  0.2914710E+03  0.7546771E-02  0.1089584E+00
         21   -1    0    0  502  501  0.00000000000E+00  0.00000000000E+00  0.22513575130E+04  0.22513575130E+04  0.00000000000E+00 0. -1.
         21   -1    0    0  503  502 -0.00000000000E+00 -0.00000000000E+00 -0.36167928860E+02  0.36167928860E+02  0.00000000000E+00 0. -1.
         25    1    1    2    0    0 -0.19735147509E+02 -0.26256593171E+03  0.89270227122E+03  0.93908076840E+03  0.12500000000E+03 0.  0.
         21    1    1    2  503  501  0.19735147509E+02  0.26256593171E+03  0.13224873129E+04  0.13484446734E+04  0.00000000000E+00 0. -1.
<mgrwt>
<rscale>  3 0.29147100E+03</rscale>
<asrwt>0</asrwt>
<pdfrwt beam="1">  1       21 0.34636258E+00 0.29147100E+03</pdfrwt>
<pdfrwt beam="2">  1       21 0.55642985E-02 0.29147100E+03</pdfrwt>
<totfact> 0.37166778E+03</totfact>
</mgrwt>
</event>
<event>
 4    0  0.1495377E-001  0.2914409E+03  0.7546771E-02  0.1089599E+00
         21   -1    0    0  502  501  0.00000000000E+00  0.00000000000E+00  0.23947358269E+03  0.23947358269E+03  0.00000000000E+00 0.  1.
         21   -1    0    0  503  502 -0.00000000000E+00 -0.00000000000E+00 -0.32509588330E+03  0.32509588330E+03  0.00000000000E+00 0.  1.
         25    1    1    2    0    0  0.16377445287E+03 -0.20613276805E+03 -0.75688741713E+02  0.30110890903E+03  0.12500000000E+03 0.  0.
         21    1    1    2  503  501 -0.16377445287E+03  0.20613276805E+03 -0.99335588956E+01  0.26346055695E+03  0.00000000000E+00 0.  1.
<mgrwt>
<rscale>  3 0.29144089E+03</rscale>
<asrwt>0</asrwt>
<pdfrwt beam="1">  1       21 0.36842090E-01 0.29144089E+03</pdfrwt>
<pdfrwt beam="2">  1       21 0.50014751E-01 0.29144089E+03</pdfrwt>
<totfact> 0.25816649E+04</totfact>
</mgrwt>
</event>
<event>
 4    0  0.1495377E-001  0.3673627E+03  0.7546771E-02  0.1055706E+00
         21   -1    0    0  503  501  0.00000000000E+00  0.00000000000E+00  0.83153952634E+03  0.83153952634E+03  0.00000000000E+00 0. -1.
         21   -1    0    0  501  502 -0.00000000000E+00 -0.00000000000E+00 -0.69782516495E+03  0.69782516495E+03  0.00000000000E+00 0.  1.
         25    1    1    2    0    0 -0.34473464511E+03 -0.22098965685E+02 -0.60844666474E+03  0.71074797478E+03  0.12500000000E+03 0.  0.
         21    1    1    2  503  502  0.34473464511E+03  0.22098965685E+02  0.74216102614E+03  0.81861671651E+03  0.00000000000E+00 0. -1.
<mgrwt>
<rscale>  3 0.36736268E+03</rscale>
<asrwt>0</asrwt>
<pdfrwt beam="1">  1       21 0.12792916E+00 0.36736268E+03</pdfrwt>
<pdfrwt beam="2">  1       21 0.10735772E+00 0.36736268E+03</pdfrwt>
<totfact> 0.26843323E+02</totfact>
</mgrwt>
</event>
<event>
 4    0  0.1495377E-001  0.2443805E+03  0.7546771E-02  0.1116909E+00
         21   -1    0    0  503  501  0.00000000000E+00  0.00000000000E+00  0.24719303660E+04  0.24719303660E+04  0.00000000000E+00 0.  1.
         21   -1    0    0  501  502 -0.00000000000E+00 -0.00000000000E+00 -0.35997714014E+02  0.35997714014E+02  0.00000000000E+00 0.  1.
         25    1    1    2    0    0 -0.19847746105E+03  0.68582306493E+02  0.46015598250E+03  0.52102338099E+03  0.12500000000E+03 0.  0.
         21    1    1    2  503  502  0.19847746105E+03 -0.68582306493E+02  0.19757766695E+04  0.19869046990E+04  0.00000000000E+00 0.  1.
<mgrwt>
<rscale>  3 0.24438051E+03</rscale>
<asrwt>0</asrwt>
<pdfrwt beam="1">  1       21 0.38029685E+00 0.24438051E+03</pdfrwt>
<pdfrwt beam="2">  1       21 0.55381118E-02 0.24438051E+03</pdfrwt>
<totfact> 0.24401811E+03</totfact>
</mgrwt>
</event>
<event>
 4    0  0.1495377E-001  0.2620090E+03  0.7546771E-02  0.1105942E+00
         21   -1    0    0  502  501  0.00000000000E+00  0.00000000000E+00  0.63103769186E+03  0.63103769186E+03  0.00000000000E+00 0.  1.
         21   -1    0    0  503  502 -0.00000000000E+00 -0.00000000000E+00 -0.18290449201E+03  0.18290449201E+03  0.00000000000E+00 0.  1.
         25    1    1    2    0    0 -0.13893285458E+03 -0.18363374931E+03 -0.48557425225E+02  0.26647047775E+03  0.12500000000E+03 0.  0.
         21    1    1    2  503  501  0.13893285458E+03  0.18363374931E+03  0.49669062507E+03  0.54747170612E+03  0.00000000000E+00 0.  1.
<mgrwt>
<rscale>  3 0.26200895E+03</rscale>
<asrwt>0</asrwt>
<pdfrwt beam="1">  1       21 0.97082720E-01 0.26200895E+03</pdfrwt>
<pdfrwt beam="2">  1       21 0.28139153E-01 0.26200895E+03</pdfrwt>
<totfact> 0.10178051E+04</totfact>
</mgrwt>
</event>
<event>
 4    0  0.1495377E-001  0.2566041E+03  0.7546771E-02  0.1109201E+00
         21   -1    0    0  503  501  0.00000000000E+00  0.00000000000E+00  0.30060766169E+03  0.30060766169E+03  0.00000000000E+00 0. -1.
         21   -1    0    0  501  502 -0.00000000000E+00 -0.00000000000E+00 -0.20890941011E+03  0.20890941011E+03  0.00000000000E+00 0. -1.
         25    1    1    2    0    0 -0.12715401739E+03 -0.18453322116E+03 -0.23252302958E+02  0.25765543550E+03  0.12500000000E+03 0.  0.
         21    1    1    2  503  502  0.12715401739E+03  0.18453322116E+03  0.11495055454E+03  0.25186163630E+03  0.00000000000E+00 0. -1.
<mgrwt>
<rscale>  3 0.25660408E+03</rscale>
<asrwt>0</asrwt>
<pdfrwt beam="1">  1       21 0.46247333E-01 0.25660408E+03</pdfrwt>
<pdfrwt beam="2">  1       21 0.32139909E-01 0.25660408E+03</pdfrwt>
<totfact> 0.40501771E+04</totfact>
</mgrwt>
</event>
<event>
 4    0  0.1495377E-001  0.2760486E+03  0.7546771E-02  0.1097867E+00
         21   -1    0    0  502  501  0.00000000000E+00  0.00000000000E+00  0.37024917118E+03  0.37024917118E+03  0.00000000000E+00 0. -1.
         21   -1    0    0  503  502 -0.00000000000E+00 -0.00000000000E+00 -0.23838092637E+03  0.23838092637E+03  0.00000000000E+00 0.  1.
         25    1    1    2    0    0 -0.66613366790E+02  0.23693987260E+03 -0.76165342210E+02  0.28636341110E+03  0.12500000000E+03 0.  0.
         21    1    1    2  503  501  0.66613366790E+02 -0.23693987260E+03  0.20803358702E+03  0.32226668644E+03  0.00000000000E+00 0. -1.
<mgrwt>
<rscale>  3 0.27604863E+03</rscale>
<asrwt>0</asrwt>
<pdfrwt beam="1">  1       21 0.56961411E-01 0.27604863E+03</pdfrwt>
<pdfrwt beam="2">  1       21 0.36673989E-01 0.27604863E+03</pdfrwt>
<totfact> 0.19886423E+04</totfact>
</mgrwt>
</event>
<event>
 4    0  0.1495377E-001  0.3833587E+03  0.7546771E-02  0.1049699E+00
         21   -1    0    0  503  501  0.00000000000E+00  0.00000000000E+00  0.47555400624E+03  0.47555400624E+03  0.00000000000E+00 0. -1.
         21   -1    0    0  501  502 -0.00000000000E+00 -0.00000000000E+00 -0.42147413664E+03  0.42147413664E+03  0.00000000000E+00 0.  1.
         25    1    1    2    0    0  0.17800734055E+03  0.31567747302E+03 -0.22059087900E+03  0.44229426422E+03  0.12500000000E+03 0.  0.
         21    1    1    2  503  502 -0.17800734055E+03 -0.31567747302E+03  0.27467074861E+03  0.45473387866E+03  0.00000000000E+00 0. -1.
<mgrwt>
<rscale>  3 0.38335868E+03</rscale>
<asrwt>0</asrwt>
<pdfrwt beam="1">  1       21 0.73162155E-01 0.38335868E+03</pdfrwt>
<pdfrwt beam="2">  1       21 0.64842175E-01 0.38335868E+03</pdfrwt>
<totfact> 0.32932374E+03</totfact>
</mgrwt>
</event>
<event>
 4    0  0.1495377E-001  0.2888626E+03  0.7546771E-02  0.1090945E+00
         21   -1    0    0  502  501  0.00000000000E+00  0.00000000000E+00  0.31172078790E+04  0.31172078790E+04  0.00000000000E+00 0.  1.
         21   -1    0    0  503  502 -0.00000000000E+00 -0.00000000000E+00 -0.15131385058E+03  0.15131385058E+03  0.00000000000E+00 0. -1.
         25    1    1    2    0    0  0.18984809164E+03  0.17825344279E+03 -0.23537606543E+01  0.28887216543E+03  0.12500000000E+03 0.  0.
         21    1    1    2  503  501 -0.18984809164E+03 -0.17825344279E+03  0.29682477891E+04  0.29796495641E+04  0.00000000000E+00 0.  1.
<mgrwt>
<rscale>  3 0.28886258E+03</rscale>
<asrwt>0</asrwt>
<pdfrwt beam="1">  1       21 0.47957039E+00 0.28886258E+03</pdfrwt>
<pdfrwt beam="2">  1       21 0.23279056E-01 0.28886258E+03</pdfrwt>
<totfact> 0.39130674E+01</totfact>
</mgrwt>
</event>
<event>
 4    0  0.1495377E-001  0.2887415E+03  0.7546771E-02  0.1091008E+00
         21   -1    0    0  502  501  0.00000000000E+00  0.00000000000E+00  0.55174125942E+03  0.55174125942E+03  0.00000000000E+00 0. -1.
         21   -1    0    0  503  502 -0.00000000000E+00 -0.00000000000E+00 -0.15469939890E+03  0.15469939890E+03  0.00000000000E+00 0. -1.
         25    1    1    2    0    0 -0.17872345651E+03 -0.18922102926E+03  0.86863702081E+02  0.30152441785E+03  0.12500000000E+03 0.  0.
         21    1    1    2  503  501  0.17872345651E+03  0.18922102926E+03  0.31017815844E+03  0.40491624047E+03  0.00000000000E+00 0. -1.
<mgrwt>
<rscale>  3 0.28874153E+03</rscale>
<asrwt>0</asrwt>
<pdfrwt beam="1">  1       21 0.84883270E-01 0.28874153E+03</pdfrwt>
<pdfrwt beam="2">  1       21 0.23799908E-01 0.28874153E+03</pdfrwt>
<totfact> 0.19024379E+04</totfact>
</mgrwt>
</event>
<event>
 4    0  0.1495377E-001  0.2423480E+03  0.7546771E-02  0.1118238E+00
         21   -1    0    0  503  501  0.00000000000E+00  0.00000000000E+00  0.19589602094E+04  0.19589602094E+04  0.00000000000E+00 0. -1.
         21   -1    0    0  501  502 -0.00000000000E+00 -0.00000000000E+00 -0.36205447081E+02  0.36205447081E+02  0.00000000000E+00 0. -1.
         25    1    1    2    0    0  0.14947332851E+03  0.14410170499E+03  0.15469745474E+04  0.15658425297E+04  0.12500000000E+03 0.  0.
         21    1    1    2  503  502 -0.14947332851E+03 -0.14410170499E+03  0.37578021490E+03  0.42932312682E+03  0.00000000000E+00 0. -1.
<mgrwt>
<rscale>  3 0.24234805E+03</rscale>
<asrwt>0</asrwt>
<pdfrwt beam="1">  1       21 0.30137841E+00 0.24234805E+03</pdfrwt>
<pdfrwt beam="2">  1       21 0.55700703E-02 0.24234805E+03</pdfrwt>
<totfact> 0.71372402E+03</totfact>
</mgrwt>
</event>
<event>
 4    0  0.1495377E-001  0.2421481E+03  0.7546771E-02  0.1118370E+00
         21   -1    0    0  502  501  0.00000000000E+00  0.00000000000E+00  0.69469600306E+03  0.69469600306E+03  0.00000000000E+00 0. -1.
         21   -1    0    0  503  502 -0.00000000000E+00 -0.00000000000E+00 -0.13873397959E+03  0.13873397959E+03  0.00000000000E+00 0. -1.
         25    1    1    2    0    0 -0.58545239549E+02 -0.19895520624E+03  0.57624011822E+03  0.62505071235E+03  0.12500000000E+03 0.  0.
         21    1    1    2  503  501  0.58545239549E+02  0.19895520624E+03 -0.20278094756E+02  0.20837927030E+03  0.00000000000E+00 0. -1.
<mgrwt>
<rscale>  3 0.24214813E+03</rscale>
<asrwt>0</asrwt>
<pdfrwt beam="1">  1       21 0.10687631E+00 0.24214813E+03</pdfrwt>
<pdfrwt beam="2">  1       21 0.21343690E-01 0.24214813E+03</pdfrwt>
<totfact> 0.13876440E+04</totfact>
</mgrwt>
</event>
<event>
 4    0  0.1495377E-001  0.3375631E+03  0.7546771E-02  0.1067839E+00
         21   -1    0    0  503  501  0.00000000000E+00  0.00000000000E+00  0.68801234375E+02  0.68801234375E+02  0.00000000000E+00 0. -1.
         21   -1    0    0  501  502 -0.00000000000E+00 -0.00000000000E+00 -0.15891518850E+04  0.15891518850E+04  0.00000000000E+00 0. -1.
         25    1    1    2    0    0  0.30516175552E+02  0.31207793976E+03 -0.93219679320E+03  0.99143317410E+03  0.12500000000E+03 0.  0.
         21    1    1    2  503  502 -0.30516175552E+02 -0.31207793976E+03 -0.58815385746E+03  0.66651994532E+03  0.00000000000E+00 0. -1.
<mgrwt>
<rscale>  3 0.33756315E+03</rscale>
<asrwt>0</asrwt>
<pdfrwt beam="1">  1       21 0.10584806E-01 0.33756315E+03</pdfrwt>
<pdfrwt beam="2">  1       21 0.24448490E+00 0.33756315E+03</pdfrwt>
<totfact> 0.47023999E+03</totfact>
</mgrwt>
</event>
<event>
 4    0  0.1495377E-001  0.2547866E+03  0.7546771E-02  0.1110317E+00
         21   -1    0    0  502  501  0.00000000000E+00  0.00000000000E+00  0.11122345260E+03  0.11122345260E+03  0.00000000000E+00 0.  1.
         21   -1    0    0  503  502 -0.00000000000E+00 -0.00000000000E+00 -0.85365154636E+03  0.85365154636E+03  0.00000000000E+00 0.  1.
         25    1    1    2    0    0 -0.70149878014E+02  0.21064231594E+03 -0.81267131621E+02  0.26743323901E+03  0.12500000000E+03 0.  0.
         21    1    1    2  503  501  0.70149878014E+02 -0.21064231594E+03 -0.66116096215E+03  0.69744175994E+03  0.00000000000E+00 0.  1.
<mgrwt>
<rscale>  3 0.25478656E+03</rscale>
<asrwt>0</asrwt>
<pdfrwt beam="1">  1       21 0.17111300E-01 0.25478656E+03</pdfrwt>
<pdfrwt beam="2">  1       21 0.13133101E+00 0.25478656E+03</pdfrwt>
<totfact> 0.12484938E+04</totfact>
</mgrwt>
</event>
<event>
 4    0  0.1495377E-001  0.2481630E+03  0.7546771E-02  0.1114471E+00
         21   -1    0    0  503  501  0.00000000000E+00  0.00000000000E+00  0.23461674819E+03  0.23461674819E+03  0.00000000000E+00 0.  1.
         21   -1    0    0  501  502 -0.00000000000E+00 -0.00000000000E+00 -0.25257181853E+03  0.25257181853E+03  0.00000000000E+00 0. -1.
         25    1    1    2    0    0 -0.17377970941E+03 -0.12554075604E+03 -0.85401515556E+02  0.26244673305E+03  0.12500000000E+03 0.  0.
         21    1    1    2  503  502  0.17377970941E+03  0.12554075604E+03  0.67446445215E+02  0.22474183367E+03  0.00000000000E+00 0.  1.
<mgrwt>
<rscale>  3 0.24816299E+03</rscale>
<asrwt>0</asrwt>
<pdfrwt beam="1">  1       21 0.36094884E-01 0.24816299E+03</pdfrwt>
<pdfrwt beam="2">  1       21 0.38857203E-01 0.24816299E+03</pdfrwt>
<totfact> 0.46090999E+04</totfact>
</mgrwt>
</event>
<event>
 4    0  0.1495377E-001  0.2444452E+03  0.7546771E-02  0.1116866E+00
         21   -1    0    0  503  501  0.00000000000E+00  0.00000000000E+00  0.13066908641E+04  0.13066908641E+04  0.00000000000E+00 0. -1.
         21   -1    0    0  501  502 -0.00000000000E+00 -0.00000000000E+00 -0.11587180794E+03  0.11587180794E+03  0.00000000000E+00 0. -1.
         25    1    1    2    0    0  0.20146924023E+03  0.59486319403E+02  0.33968495015E+02  0.24679411583E+03  0.12500000000E+03 0.  0.
         21    1    1    2  503  502 -0.20146924023E+03 -0.59486319403E+02  0.11568505612E+04  0.11757685563E+04  0.00000000000E+00 0. -1.
<mgrwt>
<rscale>  3 0.24444524E+03</rscale>
<asrwt>0</asrwt>
<pdfrwt beam="1">  1       21 0.20102935E+00 0.24444524E+03</pdfrwt>
<pdfrwt beam="2">  1       21 0.17826433E-01 0.24444524E+03</pdfrwt>
<totfact> 0.36122932E+03</totfact>
</mgrwt>
</event>
<event>
 4    0  0.1495377E-001  0.2592230E+03  0.7546771E-02  0.1107611E+00
         21   -1    0    0  502  501  0.00000000000E+00  0.00000000000E+00  0.13382770974E+03  0.13382770974E+03  0.00000000000E+00 0. -1.
         21   -1    0    0  503  502 -0.00000000000E+00 -0.00000000000E+00 -0.11494808497E+04  0.11494808497E+04  0.00000000000E+00 0. -1.
         25    1    1    2    0    0 -0.14577941936E+03 -0.17412612806E+03 -0.10237615061E+04  0.10560701534E+04  0.12500000000E+03 0.  0.
         21    1    1    2  503  501  0.14577941936E+03  0.17412612806E+03  0.81083661065E+01  0.22723840604E+03  0.00000000000E+00 0. -1.
<mgrwt>
<rscale>  3 0.25922297E+03</rscale>
<asrwt>0</asrwt>
<pdfrwt beam="1">  1       21 0.20588878E-01 0.25922297E+03</pdfrwt>
<pdfrwt beam="2">  1       21 0.17684321E+00 0.25922297E+03</pdfrwt>
<totfact> 0.39641785E+03</totfact>
</mgrwt>
</event>
<event>
 4    0  0.1495377E-001  0.3555184E+03  0.7546771E-02  0.1060373E+00
         21   -1    0    0  502  501  0.00000000000E+00  0.00000000000E+00  0.57285663318E+03  0.57285663318E+03  0.00000000000E+00 0.  1.
         21   -1    0    0  503  502 -0.00000000000E+00 -0.00000000000E+00 -0.20724232594E+03  0.20724232594E+03  0.00000000000E+00 0.  1.
         25    1    1    2    0    0  0.31617874804E+03 -0.10391988626E+03  0.17029599962E+03  0.39420054663E+03  0.12500000000E+03 0.  0.
         21    1    1    2  503  501 -0.31617874804E+03  0.10391988626E+03  0.19531830762E+03  0.38589841249E+03  0.00000000000E+00 0.  1.
<mgrwt>
<rscale>  3 0.35551842E+03</rscale>
<asrwt>0</asrwt>
<pdfrwt beam="1">  1       21 0.88131789E-01 0.35551842E+03</pdfrwt>
<pdfrwt beam="2">  1       21 0.31883435E-01 0.35551842E+03</pdfrwt>
<totfact> 0.95842764E+03</totfact>
</mgrwt>
</event>
<event>
 4    0  0.1495377E-001  0.3085703E+03  0.7546771E-02  0.1081033E+00
         21   -1    0    0  502  501  0.00000000000E+00  0.00000000000E+00  0.12817262608E+04  0.12817262608E+04  0.00000000000E+00 0.  1.
         21   -1    0    0  503  502 -0.00000000000E+00 -0.00000000000E+00 -0.74640790423E+02  0.74640790423E+02  0.00000000000E+00 0.  1.
         25    1    1    2    0    0 -0.21398483988E+03  0.18385083754E+03  0.42692606530E+03  0.52676513494E+03  0.12500000000E+03 0.  0.
         21    1    1    2  503  501  0.21398483988E+03 -0.18385083754E+03  0.78015940503E+03  0.82960191624E+03  0.00000000000E+00 0.  1.
<mgrwt>
<rscale>  3 0.30857032E+03</rscale>
<asrwt>0</asrwt>
<pdfrwt beam="1">  1       21 0.19718864E+00 0.30857032E+03</pdfrwt>
<pdfrwt beam="2">  1       21 0.11483199E-01 0.30857032E+03</pdfrwt>
<totfact> 0.82080902E+03</totfact>
</mgrwt>
</event>
