<event>
 5    0  0.1911311E+001  0.2948948E+03  0.7546771E-02  0.1087821E+00
         21   -1    0    0  503  501  0.00000000000E+00  0.00000000000E+00  0.60291992008E+03  0.60291992008E+03  0.00000000000E+00 0.  1.
         21   -1    0    0  504  502 -0.00000000000E+00 -0.00000000000E+00 -0.61049351992E+03  0.61049351992E+03  0.00000000000E+00 0.  1.
         25    1    1    2    0    0 -0.98901121712E+02  0.17574385573E+03 -0.28957657331E+03  0.37436202600E+03  0.12500000000E+03 0.  0.
         21    1    1    2  503  502  0.19623630440E+02  0.86810320924E+02 -0.23638387602E+03  0.25258356148E+03  0.00000000000E+00 0.  1.
         21    1    1    2  504  501  0.79277491272E+02 -0.26255417665E+03  0.51838684949E+03  0.58646785251E+03  0.00000000000E+00 0.  1.
<mgrwt>
<rscale>  4 0.29489476E+03</rscale>
<asrwt>0</asrwt>
<pdfrwt beam="1">  1       21 0.92756911E-01 0.29489476E+03</pdfrwt>
<pdfrwt beam="2">  1       21 0.93922079E-01 0.29489476E+03</pdfrwt>
<totfact> 0.85575762E+02</totfact>
</mgrwt>
</event>
<event>
 5    0  0.1911311E+001  0.3631943E+03  0.7546771E-02  0.1057326E+00
         21   -1    0    0  502  501  0.00000000000E+00  0.00000000000E+00  0.11554520484E+04  0.11554520484E+04  0.00000000000E+00 0.  1.
         21   -1    0    0  504  502 -0.00000000000E+00 -0.00000000000E+00 -0.29824756298E+03  0.29824756298E+03  0.00000000000E+00 0.  1.
         25    1    1    2    0    0 -0.12638945734E+03  0.30727413993E+03  0.75484280720E+03  0.83414888094E+03  0.12500000000E+03 0.  0.
         21    1    1    2  503  501 -0.26350406663E+02 -0.86681516725E+00  0.24662565712E+03  0.24803086511E+03  0.00000000000E+00 0.  1.
         21    1    1    2  504  503  0.15273986400E+03 -0.30640732476E+03 -0.14426397891E+03  0.37151986533E+03  0.00000000000E+00 0.  1.
<mgrwt>
<rscale>  4 0.36319427E+03</rscale>
<asrwt>0</asrwt>
<pdfrwt beam="1">  1       21 0.17776185E+00 0.36319427E+03</pdfrwt>
<pdfrwt beam="2">  1       21 0.45884241E-01 0.36319427E+03</pdfrwt>
<totfact> 0.74846463E+02</totfact>
</mgrwt>
</event>
<event>
 5    0  0.1911311E+001  0.3326203E+03  0.7546771E-02  0.1069983E+00
         21   -1    0    0  502  501  0.00000000000E+00  0.00000000000E+00  0.15251570312E+03  0.15251570312E+03  0.00000000000E+00 0.  1.
         21   -1    0    0  504  502 -0.00000000000E+00 -0.00000000000E+00 -0.79420049335E+03  0.79420049335E+03  0.00000000000E+00 0.  1.
         25    1    1    2    0    0  0.72215135203E+01  0.31139531276E+03 -0.31713037319E+03  0.46175303428E+03  0.12500000000E+03 0.  0.
         21    1    1    2  503  501 -0.31327372750E+02 -0.60579341851E+01  0.79557607605E+01  0.32884600945E+02  0.00000000000E+00 0.  1.
         21    1    1    2  504  503  0.24105859230E+02 -0.30533737857E+03 -0.33251017780E+03  0.45207856125E+03  0.00000000000E+00 0.  1.
<mgrwt>
<rscale>  4 0.33262034E+03</rscale>
<asrwt>0</asrwt>
<pdfrwt beam="1">  1       21 0.23463954E-01 0.33262034E+03</pdfrwt>
<pdfrwt beam="2">  1       21 0.12218469E+00 0.33262034E+03</pdfrwt>
<totfact> 0.79590743E+03</totfact>
</mgrwt>
</event>
<event>
 5    0  0.1911311E+001  0.2395986E+03  0.7546771E-02  0.1120061E+00
         21   -1    0    0  503  501  0.00000000000E+00  0.00000000000E+00  0.80078026114E+03  0.80078026114E+03  0.00000000000E+00 0. -1.
         21   -1    0    0  504  502 -0.00000000000E+00 -0.00000000000E+00 -0.26409875927E+03  0.26409875927E+03  0.00000000000E+00 0.  1.
         25    1    1    2    0    0 -0.12762822039E+03  0.18226628446E+03 -0.44787703947E+02  0.25911561033E+03  0.12500000000E+03 0.  0.
         21    1    1    2  503  502  0.29522402725E+02 -0.48359738160E+01 -0.94981976006E+02  0.99581798896E+02  0.00000000000E+00 0.  1.
         21    1    1    2  504  501  0.98105817665E+02 -0.17743031065E+03  0.67645118182E+03  0.70618161119E+03  0.00000000000E+00 0. -1.
<mgrwt>
<rscale>  4 0.23959859E+03</rscale>
<asrwt>0</asrwt>
<pdfrwt beam="1">  1       21 0.12319696E+00 0.23959859E+03</pdfrwt>
<pdfrwt beam="2">  1       21 0.40630579E-01 0.23959859E+03</pdfrwt>
<totfact> 0.27786032E+03</totfact>
</mgrwt>
</event>
<event>
 5    0  0.1911311E+001  0.2226882E+03  0.7546771E-02  0.1131895E+00
         21   -1    0    0  503  501  0.00000000000E+00  0.00000000000E+00  0.43228628553E+03  0.43228628553E+03  0.00000000000E+00 0.  1.
         21   -1    0    0  504  502 -0.00000000000E+00 -0.00000000000E+00 -0.24296170157E+03  0.24296170157E+03  0.00000000000E+00 0.  1.
         25    1    1    2    0    0  0.15815277463E+03  0.14615488640E+03  0.31279761013E+03  0.39980107034E+03  0.12500000000E+03 0.  0.
         21    1    1    2  503  502 -0.14255704145E+03 -0.11087789470E+03 -0.14470232573E+03  0.23141992281E+03  0.00000000000E+00 0.  1.
         21    1    1    2  504  501 -0.15595733173E+02 -0.35276991699E+02  0.21229299567E+02  0.44026993954E+02  0.00000000000E+00 0.  1.
<mgrwt>
<rscale>  4 0.22268820E+03</rscale>
<asrwt>0</asrwt>
<pdfrwt beam="1">  1       21 0.66505582E-01 0.22268820E+03</pdfrwt>
<pdfrwt beam="2">  1       21 0.37378723E-01 0.22268820E+03</pdfrwt>
<totfact> 0.14046359E+04</totfact>
</mgrwt>
</event>
<event>
 5    0  0.1911311E+001  0.2620387E+03  0.7546771E-02  0.1105924E+00
         21   -1    0    0  504  501  0.00000000000E+00  0.00000000000E+00  0.44513879689E+03  0.44513879689E+03  0.00000000000E+00 0.  1.
         21   -1    0    0  503  502 -0.00000000000E+00 -0.00000000000E+00 -0.27774045786E+03  0.27774045786E+03  0.00000000000E+00 0.  1.
         25    1    1    2    0    0 -0.13160508693E+03 -0.20562129114E+03 -0.93953050247E+02  0.28991755712E+03  0.12500000000E+03 0.  0.
         21    1    1    2  503  501  0.13900557111E+03  0.16076719884E+03  0.52090441566E+02  0.21881968633E+03  0.00000000000E+00 0.  1.
         21    1    1    2  504  502 -0.74004841794E+01  0.44854092296E+02  0.20926094772E+03  0.21414201129E+03  0.00000000000E+00 0.  1.
<mgrwt>
<rscale>  4 0.26203871E+03</rscale>
<asrwt>0</asrwt>
<pdfrwt beam="1">  1       21 0.68482892E-01 0.26203871E+03</pdfrwt>
<pdfrwt beam="2">  1       21 0.42729301E-01 0.26203871E+03</pdfrwt>
<totfact> 0.98191716E+03</totfact>
</mgrwt>
</event>
