<event>
 5    0  0.1911311E+001  0.4142222E+03  0.7546771E-02  0.1038963E+00
         21   -1    0    0  504  501  0.00000000000E+00  0.00000000000E+00  0.12383886315E+04  0.12383886315E+04  0.00000000000E+00 0.  1.
         21   -1    0    0  501  502 -0.00000000000E+00 -0.00000000000E+00 -0.18930374312E+03  0.18930374312E+03  0.00000000000E+00 0.  1.
         25    1    1    2    0    0  0.56009543083E+02  0.37806829109E+03  0.58995495172E+03  0.71396396737E+03  0.12500000000E+03 0.  0.
         21    1    1    2  503  502  0.60764084034E+02  0.73424225553E+01  0.25498488277E+03  0.26222790759E+03  0.00000000000E+00 0.  1.
         21    1    1    2  504  503 -0.11677362712E+03 -0.38541071365E+03  0.20414505392E+03  0.45150049970E+03  0.00000000000E+00 0.  1.
<mgrwt>
<rscale>  4 0.41422215E+03</rscale>
<asrwt>0</asrwt>
<pdfrwt beam="1">  1       21 0.19052132E+00 0.41422215E+03</pdfrwt>
<pdfrwt beam="2">  1       21 0.29123654E-01 0.41422215E+03</pdfrwt>
<totfact> 0.14964242E+03</totfact>
</mgrwt>
</event>
<event>
 5    0  0.1911311E+001  0.2584245E+03  0.7546771E-02  0.1108094E+00
         21   -1    0    0  502  501  0.00000000000E+00  0.00000000000E+00  0.54154550740E+03  0.54154550740E+03  0.00000000000E+00 0. -1.
         21   -1    0    0  504  502 -0.00000000000E+00 -0.00000000000E+00 -0.16088075299E+03  0.16088075299E+03  0.00000000000E+00 0. -1.
         25    1    1    2    0    0  0.96084367903E+02 -0.20188745958E+03  0.21490712440E+02  0.25705564147E+03  0.12500000000E+03 0.  0.
         21    1    1    2  503  501 -0.69745276477E+02  0.21642192607E+03  0.34211728802E+03  0.41078837914E+03  0.00000000000E+00 0. -1.
         21    1    1    2  504  503 -0.26339091426E+02 -0.14534466491E+02  0.17056753945E+02  0.34582239784E+02  0.00000000000E+00 0. -1.
<mgrwt>
<rscale>  4 0.25842453E+03</rscale>
<asrwt>0</asrwt>
<pdfrwt beam="1">  1       21 0.83314693E-01 0.25842453E+03</pdfrwt>
<pdfrwt beam="2">  1       21 0.24750885E-01 0.25842453E+03</pdfrwt>
<totfact> 0.18675622E+04</totfact>
</mgrwt>
</event>
<event>
 5    0  0.1911311E+001  0.2392016E+03  0.7546771E-02  0.1120326E+00
         21   -1    0    0  504  501  0.00000000000E+00  0.00000000000E+00  0.17937074990E+04  0.17937074990E+04  0.00000000000E+00 0. -1.
         21   -1    0    0  503  502 -0.00000000000E+00 -0.00000000000E+00 -0.72051304930E+02  0.72051304930E+02  0.00000000000E+00 0. -1.
         25    1    1    2    0    0 -0.99467126749E+02 -0.20805022581E+03  0.14673509578E+04  0.14906114313E+04  0.12500000000E+03 0.  0.
         21    1    1    2  503  501  0.75759565958E+02  0.18604577026E+03  0.11360772746E+03  0.23077967026E+03  0.00000000000E+00 0. -1.
         21    1    1    2  504  502  0.23707560791E+02  0.22004455542E+02  0.14069750876E+03  0.14436770232E+03  0.00000000000E+00 0. -1.
<mgrwt>
<rscale>  4 0.23920156E+03</rscale>
<asrwt>0</asrwt>
<pdfrwt beam="1">  1       21 0.27595497E+00 0.23920156E+03</pdfrwt>
<pdfrwt beam="2">  1       21 0.11084817E-01 0.23920156E+03</pdfrwt>
<totfact> 0.30225762E+03</totfact>
</mgrwt>
</event>
