<LesHouchesEvents version="3.0">
  <!--
  <scalesfunctionalform>
    muR  H_T/2 := sum_i mT(i)/2, i=final state
    muF1 H_T/2 := sum_i mT(i)/2, i=final state
    muF2 H_T/2 := sum_i mT(i)/2, i=final state
    QES  H_T/2 := sum_i mT(i)/2, i=final state
  </scalesfunctionalform>
HERWIG6   
  -->
  <header>
      187
  </header>
  <init>
   2212   2212 0.65000000D+04 0.65000000D+04 -1 -1   244800   244800 -4   1
 0.17840859D-03 0.71862841D-05 0.20805674D-05     66
  </init>
  <event>
  5     66 0.20805674E-05 0.55112582E+02 0.75467711E-02 0.91611739E-01
        3 -1    0    0  501    0 0.00000000E+00 0.00000000E+00 0.42326215E+03 0.42326245E+03 0.50000000E+00 0.0000E+00 0.9000E+01
        2 -1    0    0  502    0 -.00000000E+00 -.00000000E+00 -.10999431E+04 0.10999432E+04 0.32000000E+00 0.0000E+00 0.9000E+01
       25  1    1    2    0    0 0.10377836E+03 0.58710953E+03 -.24813763E+03 0.65777263E+03 0.12500000E+03 0.0000E+00 0.9000E+01
        4  1    1    2  501    0 -.11187358E+03 -.64159569E+03 -.28354652E+03 0.71032511E+03 0.15500000E+01 0.0000E+00 0.9000E+01
        1  1    1    2  502    0 0.80952137E+01 0.54486154E+02 -.14499685E+03 0.15510791E+03 0.32000000E+00 0.0000E+00 0.9000E+01
#aMCatNLO 1  0  0  5  2 0.64416659D+01 0.00000000D+00  -5  6  0 0.00000000D+00 0.00000000D+00 0.00000000D+00 0.00000000D+00 0.00000000D+00
  <mgrwgt>
 0.7518280470D-03    8    2    0
 0.682322919333799D+03 0.000000000000000D+00 0.000000000000000D+00 0.682322919333799D+03
 0.682322919333799D+03 -.000000000000000D+00 -.000000000000000D+00 -.682322919333799D+03
 0.611109570195943D+03 0.103769866398212D+03 0.587055360054069D+03 0.492719579939234D+02
 0.652229254304167D+03 -.111869026166963D+03 -.641569581478125D+03 0.357322442145593D+02
 0.101307014167487D+03 0.809915976875129D+01 0.545142214240558D+02 -.850042022084826D+02
 0.000000000000000D+00 0.000000000000000D+00 0.000000000000000D+00 0.000000000000000D+00
 0.682322919333799D+03 0.000000000000000D+00 0.000000000000000D+00 0.682322919333799D+03
 0.682322919333799D+03 -.000000000000000D+00 -.000000000000000D+00 -.682322919333799D+03
 0.611333676716497D+03 0.103808549526428D+03 0.587315730348909D+03 0.488659617490268D+02
 0.651925345919492D+03 -.111827757355718D+03 -.641291807341261D+03 0.352991101023681D+02
 0.751574367724714D+02 0.292842415186900D+00 0.380337220511599D+02 -.648227624562778D+02
 0.262293792591370D+02 0.772636541410387D+01 0.159423549411920D+02 -.193423093951171D+02
0.201118986778D-04 0.000000000000D+00 0.000000000000D+00 0.828933131529D-07 0.000000000000D+00  6 3 2 25 4 1 21 0 0.65117281D-01 0.16922205D+00 0.43262343D+06 0.43262343D+06 0.43262343D+06 0.10729816D+01  1  2  2  4  6  5        1 0.852303517833D-04 0.100000000000D+01
0.397223565315D-05 0.000000000000D+00 -.772349865073D-07 0.828933131529D-07 0.000000000000D+00  6 3 2 25 4 1 21 2 0.65117281D-01 0.16922205D+00 0.43262343D+06 0.43262343D+06 0.43262343D+06 0.10729816D+01  1  2  3  4  6  5        1 0.193803104515D-04 0.100000000000D+01
-.144488616028D-04 0.000000000000D+00 0.000000000000D+00 0.828933131529D-07 0.000000000000D+00  6 3 2 25 4 1 21 2 0.65117281D-01 0.16922205D+00 0.43262343D+06 0.43262343D+06 0.43262343D+06 0.10729816D+01  1  2 15  4  6  5        1 -.704951689640D-04 0.100000000000D+01
0.783785682753D-04 0.000000000000D+00 0.000000000000D+00 0.828933131529D-07 0.000000000000D+00  6 3 2 25 4 1 21 2 0.65117281D-01 0.16922205D+00 0.43302805D+06 0.43302805D+06 0.43302805D+06 0.10729525D+01  1  2 12  4  6  5        1 0.382373008847D-03 0.100000000000D+01
-.147440901422D-03 0.000000000000D+00 0.000000000000D+00 0.828933131529D-07 0.000000000000D+00  6 3 2 25 4 1 21 2 0.65117281D-01 0.16922205D+00 0.43262343D+06 0.43262343D+06 0.43262343D+06 0.10729816D+01  1  2  4  4  6  5        1 -.719355721139D-03 0.100000000000D+01
-.234942142676D-03 0.000000000000D+00 0.000000000000D+00 0.828933131529D-07 0.000000000000D+00  6 3 2 25 4 1 21 2 0.65117281D-01 0.16922205D+00 0.43262343D+06 0.43262343D+06 0.43262343D+06 0.10729816D+01  1  2  5  4  6  5        1 -.114626927020D-02 0.100000000000D+01
0.430882274044D-03 0.000000000000D+00 -.000000000000D+00 0.828933131529D-07 0.000000000000D+00  6 3 2 25 4 1 21 2 0.65117281D-01 0.16922205D+00 0.43262343D+06 0.43262343D+06 0.43262343D+06 0.10729816D+01  1  2  6  4  6  5        1 0.210224995901D-02 0.100000000000D+01
0.202344492180D-04 0.000000000000D+00 0.000000000000D+00 0.828933131529D-07 0.395986991523D-08  6 3 2 25 4 1 21 2 0.65117281D-01 0.16922205D+00 0.43302805D+06 0.43302805D+06 0.43302805D+06 0.10729525D+01  1  2 11  4  6  5        1 0.987145772127D-04 0.100000000000D+01
  </mgrwgt>
  </event>
  <event>
  5     66 -.20805674E-05 0.24312782E+02 0.75467711E-02 0.94034468E-01
        3 -1    0    0  501    0 0.00000000E+00 0.00000000E+00 0.21395458E+03 0.21395516E+03 0.50000000E+00 0.0000E+00 0.9000E+01
        2 -1    0    0  502    0 -.00000000E+00 -.00000000E+00 -.18809836E+04 0.18809836E+04 0.32000000E+00 0.0000E+00 0.9000E+01
       25  1    1    2    0    0 -.51337470E+03 -.11222828E+02 -.69985638E+03 0.87698546E+03 0.12500000E+03 0.0000E+00 0.9000E+01
        4  1    1    2  501    0 0.50408965E+03 -.11216098E+02 -.38276974E+03 0.63304601E+03 0.15500000E+01 0.0000E+00 0.9000E+01
        1  1    1    2  502    0 0.92850520E+01 0.22438926E+02 -.58440286E+03 0.58490728E+03 0.32000000E+00 0.0000E+00 0.9000E+01
#aMCatNLO 1  0  0  4  1 0.89236011D+02 0.00000000D+00  -5  6  0 0.00000000D+00 0.00000000D+00 0.00000000D+00 0.00000000D+00 0.00000000D+00
  <mgrwgt>
 -.1501313932D-01    6    2    0
 0.634386068346165D+03 0.000000000000000D+00 0.000000000000000D+00 0.634386068346165D+03
 0.634386068346165D+03 -.000000000000000D+00 -.000000000000000D+00 -.634386068346165D+03
 0.528347859377408D+03 -.513216757588884D+03 -.112523592261701D+02 -.289907752347239D+01
 0.542152865973943D+03 0.503918878471536D+03 -.112122982042682D+02 0.199674180536013D+03
 0.198271411340979D+03 0.929787911734793D+01 0.224646574304383D+02 -.196775103012541D+03
 0.000000000000000D+00 0.000000000000000D+00 0.000000000000000D+00 0.000000000000000D+00
 0.634386068346165D+03 0.000000000000000D+00 0.000000000000000D+00 0.634386068346165D+03
 0.634386068346165D+03 -.000000000000000D+00 -.000000000000000D+00 -.634386068346165D+03
 0.526166716183735D+03 -.510974197183194D+03 -.113022566542759D+02 -.201047931761268D+01
 0.402911303794180D+03 0.384079245791798D+03 0.109974316174004D+02 0.121242353057628D+03
 0.197979276588839D+03 0.101405569940439D+02 0.224459076751755D+02 -.196441198049513D+03
 0.141714840125577D+03 0.116754394397353D+03 -.221410826383000D+02 0.772093243094977D+02
0.846512907280D-04 0.000000000000D+00 0.000000000000D+00 0.422848297703D-05 0.000000000000D+00  6 3 2 25 4 1 21 0 0.32916136D-01 0.28938213D+00 0.27915176D+06 0.27915176D+06 0.27915176D+06 0.10868738D+01  1  2  2  3  6  4        4 0.526992753001D-03 0.100000000000D+01
0.397208123503D-04 0.000000000000D+00 -.325083245592D-06 0.422848297703D-05 0.000000000000D+00  6 3 2 25 4 1 21 2 0.32916136D-01 0.28938213D+00 0.27915176D+06 0.27915176D+06 0.27915176D+06 0.10868738D+01  1  2  3  3  6  4        4 0.292110656739D-03 0.100000000000D+01
-.643391848322D-04 0.000000000000D+00 0.000000000000D+00 0.422848297703D-05 0.000000000000D+00  6 3 2 25 4 1 21 2 0.32916136D-01 0.28938213D+00 0.27915176D+06 0.27915176D+06 0.27915176D+06 0.10868738D+01  1  2 15  3  6  4        4 -.473156524838D-03 0.100000000000D+01
-.247141594471D-02 0.000000000000D+00 0.000000000000D+00 0.422848297703D-05 0.000000000000D+00  6 3 2 25 4 1 21 2 0.32916136D-01 0.28938213D+00 0.27915176D+06 0.27915176D+06 0.27915176D+06 0.10868738D+01  1  2  4  3  6  4        4 -.181750294611D-01 0.100000000000D+01
-.130220690611D-02 0.000000000000D+00 0.000000000000D+00 0.422848297703D-05 0.000000000000D+00  6 3 2 25 4 1 21 2 0.32916136D-01 0.28938213D+00 0.27915176D+06 0.27915176D+06 0.27915176D+06 0.10868738D+01  1  2  5  3  6  4        4 -.957655425573D-02 0.100000000000D+01
0.168511506446D-02 0.000000000000D+00 -.000000000000D+00 0.422848297703D-05 0.000000000000D+00  6 3 2 25 4 1 21 2 0.32916136D-01 0.28938213D+00 0.27915176D+06 0.27915176D+06 0.27915176D+06 0.10868738D+01  1  2  6  3  6  4        4 0.123924975104D-01 0.100000000000D+01
  </mgrwgt>
  </event>
  <event>
  6     66 -.20805674E-05 0.79013907E+02 0.75467711E-02 0.95530611E-01
        3 -1    0    0  501    0 0.00000000E+00 0.00000000E+00 0.74068853E+03 0.74068870E+03 0.50000000E+00 0.0000E+00 0.9000E+01
        2 -1    0    0  503    0 0.00000000E+00 0.00000000E+00 -.23294618E+04 0.23294618E+04 0.32000000E+00 0.0000E+00 0.9000E+01
       25  1    1    2    0    0 -.11011111E+03 -.43577792E+03 -.14571881E+03 0.48875948E+03 0.12500000E+03 0.0000E+00 0.9000E+01
        4  1    1    2  501    0 0.11082972E+03 0.35919266E+03 0.50557491E+03 0.63000872E+03 0.15500000E+01 0.0000E+00 0.9000E+01
        1  1    1    2  502    0 -.13654766E+02 0.85828976E+02 -.15490756E+04 0.15515116E+04 0.32000000E+00 0.0000E+00 0.9000E+01
       21  1    1    2  503  502 0.12936150E+02 -.92437109E+01 -.39955379E+03 0.39987071E+03 0.75000000E+00 0.0000E+00 0.9000E+01
#aMCatNLO 2  0  0  2  5 0.15899376D+02 0.00000000D+00  -5  6  0 0.00000000D+00 0.00000000D+00 0.00000000D+00 0.00000000D+00 0.00000000D+00
  <mgrwgt>
 -.2078336017D-01    1    2    0
 0.119539727368925D+04 0.000000000000000D+00 0.000000000000000D+00 0.119539727368925D+04
 0.119539727368925D+04 0.000000000000000D+00 0.000000000000000D+00 -.119539727368925D+04
 0.474531912684612D+03 -.107506136935651D+03 -.437554301150002D+03 0.808962312003633D+02
 0.954052524526856D+03 0.115959660114137D+03 0.355391347285791D+03 0.877762249733191D+03
 0.962210110167031D+03 -.845352317848551D+01 0.821629538642107D+02 -.958658480933554D+03
 0.000000000000000D+00 0.000000000000000D+00 -.000000000000000D+00 -.000000000000000D+00
 0.119567893787208D+04 0.000000000000000D+00 0.000000000000000D+00 0.119567893787208D+04
 0.144303311954300D+04 0.000000000000000D+00 0.000000000000000D+00 -.144303311954300D+04
 0.473432352308232D+03 -.110070738825125D+03 -.435721728221321D+03 0.808962312003633D+02
 0.954820261354419D+03 0.110795437227028D+03 0.359081516547317D+03 0.877762249733191D+03
 0.962594800528629D+03 -.136608484892941D+02 0.858839225785323D+02 -.958658480933554D+03
 0.247864643223796D+03 0.129361500873912D+02 -.924371090452908D+01 -.247354181670918D+03
-.860826960721D-01 0.000000000000D+00 0.000000000000D+00 0.311478873965D-03 0.000000000000D+00  6 3 2 25 4 1 21 2 0.11392520D+00 0.38250016D+00 0.22331236D+06 0.22331236D+06 0.22331236D+06 0.10941667D+01  1  2 13  2  6  2        2 -.207833601708D-01 0.100000000000D+01
  </mgrwgt>
  </event>
  <event>
  5     66 0.20805674E-05 0.35903269E+02 0.75467711E-02 0.90458752E-01
        3 -1    0    0  501    0 0.00000000E+00 0.00000000E+00 0.98350313E+03 0.98350326E+03 0.50000000E+00 0.0000E+00 0.9000E+01
        2 -1    0    0  502    0 -.00000000E+00 -.00000000E+00 -.10280734E+04 0.10280734E+04 0.32000000E+00 0.0000E+00 0.9000E+01
       25  1    1    2    0    0 -.18152186E+03 -.47803757E+03 0.19317859E+03 0.56072549E+03 0.12500000E+03 0.0000E+00 0.9000E+01
        4  1    1    2  501    0 0.35782186E+02 -.34621640E+01 0.53094970E+03 0.53216758E+03 0.15500000E+01 0.0000E+00 0.9000E+01
        1  1    1    2  502    0 0.14573967E+03 0.48149974E+03 -.76869856E+03 0.91868363E+03 0.32000000E+00 0.0000E+00 0.9000E+01
#aMCatNLO 1  0  0  4  4 0.13786644D+03 0.00000000D+00  -5  6  0 0.00000000D+00 0.00000000D+00 0.00000000D+00 0.00000000D+00 0.00000000D+00
  <mgrwgt>
 0.1023321177D-01    4    2    0
 0.100554143887479D+04 0.000000000000000D+00 0.000000000000000D+00 0.100554143887479D+04
 0.100554143887479D+04 -.000000000000000D+00 -.000000000000000D+00 -.100554143887479D+04
 0.565704318221093D+03 -.181600213828854D+03 -.478411096948226D+03 0.206253631017982D+03
 0.543366642247296D+03 0.357363795115320D+02 -.345773189910312D+01 0.542179179954950D+03
 0.902011917281192D+03 0.145863834317322D+03 0.481868828847329D+03 -.748432810972933D+03
 0.000000000000000D+00 0.000000000000000D+00 0.000000000000000D+00 -.000000000000000D+00
 0.100554143887479D+04 0.000000000000000D+00 0.000000000000000D+00 0.100554143887479D+04
 0.100554143887479D+04 -.000000000000000D+00 -.000000000000000D+00 -.100554143887479D+04
 0.600081553054738D+03 -.176082611045813D+03 -.478944961637662D+03 0.289964667029922D+03
 0.214189302018335D+03 -.117257331586104D+03 -.178672536109508D+03 0.142793602309300D+02
 0.804303231914264D+03 0.153939733543688D+03 0.481087431997658D+03 -.625908244136573D+03
 0.392508790762244D+03 0.139400209088228D+03 0.176530065749512D+03 0.321664216875720D+03
0.235677355887D-01 0.000000000000D+00 0.000000000000D+00 0.116256115947D-03 0.000000000000D+00  6 3 2 25 4 1 21 0 0.15130819D+00 0.15816515D+00 0.28415808D+06 0.28415808D+06 0.28415808D+06 0.10862993D+01  1  2  2  3  6  4        4 0.141070199783D-01 0.100000000000D+01
0.116137905463D-01 0.000000000000D+00 -.905063101881D-04 0.116256115947D-03 0.000000000000D+00  6 3 2 25 4 1 21 2 0.15130819D+00 0.15816515D+00 0.28415808D+06 0.28415808D+06 0.28415808D+06 0.10862993D+01  1  2  3  3  6  4        4 0.820333504732D-02 0.100000000000D+01
-.160057711088D-01 0.000000000000D+00 0.000000000000D+00 0.116256115947D-03 0.000000000000D+00  6 3 2 25 4 1 21 2 0.15130819D+00 0.15816515D+00 0.28415808D+06 0.28415808D+06 0.28415808D+06 0.10862993D+01  1  2 15  3  6  4        4 -.113055855944D-01 0.100000000000D+01
-.109232514146D-02 0.000000000000D+00 0.000000000000D+00 0.116256115947D-03 0.000000000000D+00  6 3 2 25 4 1 21 2 0.15130819D+00 0.15816515D+00 0.28415808D+06 0.28415808D+06 0.28415808D+06 0.10862993D+01  1  2  4  3  6  4        4 -.771557665027D-03 0.100000000000D+01
  </mgrwgt>
  </event>
  <event>
  5     66 0.20805674E-05 0.14988297E+03 0.75467711E-02 0.95025809E-01
        3 -1    0    0  501    0 0.00000000E+00 0.00000000E+00 0.60788369E+03 0.60788389E+03 0.50000000E+00 0.0000E+00 0.9000E+01
        2 -1    0    0  502    0 -.00000000E+00 -.00000000E+00 -.12333492E+04 0.12333492E+04 0.32000000E+00 0.0000E+00 0.9000E+01
       25  1    1    2    0    0 0.88576018E+02 0.46485889E+03 -.36323673E+03 0.60951245E+03 0.12500000E+03 0.0000E+00 0.9000E+01
        4  1    1    2  501    0 -.84040274E+02 -.31519565E+03 0.42082169E+03 0.53245128E+03 0.15500000E+01 0.0000E+00 0.9000E+01
        1  1    1    2  502    0 -.45357443E+01 -.14966324E+03 -.68305042E+03 0.69926936E+03 0.32000000E+00 0.0000E+00 0.9000E+01
#aMCatNLO 1  0  0  4  4 0.13786644D+03 0.00000000D+00  -5  6  0 0.00000000D+00 0.00000000D+00 0.00000000D+00 0.00000000D+00 0.00000000D+00
  <mgrwgt>
 0.2490225563D-02    4    2    0
 0.865871271450747D+03 0.000000000000000D+00 0.000000000000000D+00 0.865871271450747D+03
 0.865871271450747D+03 -.000000000000000D+00 -.000000000000000D+00 -.865871271450747D+03
 0.516713938737133D+03 0.885580107250611D+02 0.464905285654799D+03 -.165495766084489D+03
 0.717867428739526D+03 -.840124388219110D+02 -.315091257664164D+03 0.639525648204908D+03
 0.497161175424835D+03 -.454557190315002D+01 -.149814027990634D+03 -.474029882120420D+03
 0.000000000000000D+00 0.000000000000000D+00 0.000000000000000D+00 0.000000000000000D+00
 0.865871271450747D+03 0.000000000000000D+00 0.000000000000000D+00 0.865871271450747D+03
 0.865871271450747D+03 -.000000000000000D+00 -.000000000000000D+00 -.865871271450747D+03
 0.467277443283144D+03 0.797824866725075D+02 0.431992410500173D+03 -.986940783017579D+02
 0.444649478681482D+03 -.292046802805699D+03 -.258688167389163D+03 0.213312577959011D+03
 0.448392965998796D+03 -.129783013585831D+02 -.181441241376101D+03 -.409837640510170D+03
 0.371422654938072D+03 0.225242617491775D+03 0.813699826509149D+01 0.295219140852916D+03
0.466285175520D-02 0.000000000000D+00 0.000000000000D+00 0.105528020576D-04 0.000000000000D+00  6 3 2 25 4 1 21 0 0.93520586D-01 0.18974604D+00 0.23303602D+06 0.23303602D+06 0.23303602D+06 0.10927623D+01  1  2  2  3  6  4        4 0.747830845478D-02 0.100000000000D+01
0.529986216643D-03 0.000000000000D+00 -.179065784970D-04 0.105528020576D-04 0.000000000000D+00  6 3 2 25 4 1 21 2 0.93520586D-01 0.18974604D+00 0.23303602D+06 0.23303602D+06 0.23303602D+06 0.10927623D+01  1  2  3  3  6  4        4 0.101500406066D-02 0.100000000000D+01
-.302142440569D-02 0.000000000000D+00 0.000000000000D+00 0.105528020576D-04 0.000000000000D+00  6 3 2 25 4 1 21 2 0.93520586D-01 0.18974604D+00 0.23303602D+06 0.23303602D+06 0.23303602D+06 0.10927623D+01  1  2 15  3  6  4        4 -.578648641127D-02 0.100000000000D+01
-.113098366760D-03 0.000000000000D+00 0.000000000000D+00 0.105528020576D-04 0.000000000000D+00  6 3 2 25 4 1 21 2 0.93520586D-01 0.18974604D+00 0.23303602D+06 0.23303602D+06 0.23303602D+06 0.10927623D+01  1  2  4  3  6  4        4 -.216600541506D-03 0.100000000000D+01
  </mgrwgt>
  </event>
  <event>
  5     66 0.20805674E-05 0.33750328E+02 0.75467711E-02 0.92825209E-01
        3 -1    0    0  501    0 0.00000000E+00 0.00000000E+00 0.21386431E+03 0.21386490E+03 0.50000000E+00 0.0000E+00 0.9000E+01
        2 -1    0    0  502    0 0.00000000E+00 0.00000000E+00 -.30887765E+04 0.30887765E+04 0.32000000E+00 0.0000E+00 0.9000E+01
       25  1    1    2    0    0 -.52925379E+03 0.31983402E+02 -.47862352E+03 0.72514687E+03 0.12500000E+03 0.0000E+00 0.9000E+01
        4  1    1    2  501    0 0.56112167E+03 -.43004862E+02 -.78517231E+03 0.96602532E+03 0.15500000E+01 0.0000E+00 0.9000E+01
        1  1    1    2  502    0 -.31867884E+02 0.11021459E+02 -.16111164E+04 0.16114692E+04 0.32000000E+00 0.0000E+00 0.9000E+01
#aMCatNLO 1  0  0  2  4 0.30622559D+02 0.00000000D+00  -5  6  0 0.00000000D+00 0.00000000D+00 0.00000000D+00 0.00000000D+00 0.00000000D+00
  <mgrwgt>
 0.2335884551D-02    4    2    0
 0.812760758681343D+03 0.000000000000000D+00 0.000000000000000D+00 0.812760758681343D+03
 0.812760758681343D+03 0.000000000000000D+00 0.000000000000000D+00 -.812760758681343D+03
 0.626729941429132D+03 -.528804392775708D+03 0.319408837775739D+02 0.310662378810800D+03
 0.573619345576131D+03 0.560700875520374D+03 -.429726111449942D+02 0.113168177953239D+03
 0.425172230357422D+03 -.318964827446657D+02 0.110317273674202D+02 -.423830556764039D+03
 0.000000000000000D+00 0.000000000000000D+00 0.000000000000000D+00 0.000000000000000D+00
 0.838819221303291D+03 0.000000000000000D+00 0.000000000000000D+00 0.838819221303291D+03
 0.821951544181031D+03 0.000000000000000D+00 0.000000000000000D+00 -.821951544181031D+03
 0.633140851402317D+03 -.536835829987864D+03 0.232059420689202D+02 0.310662378810800D+03
 0.567167694418527D+03 0.553428574633418D+03 -.508819208559894D+02 0.113168177953239D+03
 0.425501389119255D+03 -.373193656321320D+02 0.513383329645867D+01 -.423830556764039D+03
 0.349608305442234D+02 0.207266209865780D+02 0.225421454906105D+02 0.168676771222595D+02
0.449861430640D-02 0.000000000000D+00 0.000000000000D+00 0.482957179807D-05 0.000000000000D+00  6 3 2 25 4 1 21 0 0.32902248D-01 0.47519643D+00 0.32513429D+06 0.32513429D+06 0.32513429D+06 0.10819762D+01  1  2  2  2  6  2        2 0.549177326986D-02 0.100000000000D+01
0.228184748121D-02 0.000000000000D+00 -.172758634489D-04 0.482957179807D-05 0.000000000000D+00  6 3 2 25 4 1 21 2 0.32902248D-01 0.47519643D+00 0.32513429D+06 0.32513429D+06 0.32513429D+06 0.10819762D+01  1  2  3  2  6  2        2 0.326103785938D-02 0.100000000000D+01
-.284772453584D-02 0.000000000000D+00 0.000000000000D+00 0.482957179807D-05 0.000000000000D+00  6 3 2 25 4 1 21 2 0.32902248D-01 0.47519643D+00 0.32513429D+06 0.32513429D+06 0.32513429D+06 0.10819762D+01  1  2 15  2  6  2        2 -.406974506444D-02 0.100000000000D+01
-.164239437154D-02 0.000000000000D+00 0.000000000000D+00 0.482957179807D-05 0.000000000000D+00  6 3 2 25 4 1 21 2 0.32902248D-01 0.47519643D+00 0.32513429D+06 0.32513429D+06 0.32513429D+06 0.10819762D+01  1  2  4  2  6  2        2 -.234718151399D-02 0.100000000000D+01
  </mgrwgt>
  </event>
  <event>
  5     66 0.20805674E-05 0.65123824E+02 0.75467711E-02 0.88393098E-01
        3 -1    0    0  501    0 0.00000000E+00 0.00000000E+00 0.88437268E+03 0.88437282E+03 0.50000000E+00 0.0000E+00 0.9000E+01
        2 -1    0    0  502    0 0.00000000E+00 0.00000000E+00 -.22566484E+04 0.22566485E+04 0.32000000E+00 0.0000E+00 0.9000E+01
       25  1    1    2    0    0 0.46661541E+03 0.44000190E+03 -.39939664E+02 0.65463867E+03 0.12500000E+03 0.0000E+00 0.9000E+01
        4  1    1    2  501    0 -.45260332E+02 0.46892744E+02 0.52064660E+03 0.52471203E+03 0.15500000E+01 0.0000E+00 0.9000E+01
        1  1    1    2  502    0 -.42135507E+03 -.48689465E+03 -.18529827E+04 0.19616706E+04 0.32000000E+00 0.0000E+00 0.9000E+01
#aMCatNLO 1  0  0  2  4 0.30622559D+02 0.00000000D+00  -5  6  0 0.00000000D+00 0.00000000D+00 0.00000000D+00 0.00000000D+00 0.00000000D+00
  <mgrwgt>
 0.2677894474D-02    4    2    0
 0.141269900796479D+04 0.000000000000000D+00 0.000000000000000D+00 0.141269900796479D+04
 0.141269900796479D+04 0.000000000000000D+00 0.000000000000000D+00 -.141269900796479D+04
 0.708891505283696D+03 0.466820236373540D+03 0.440293225161666D+03 0.274085587093294D+03
 0.835578344290465D+03 -.452266749990531D+02 0.468578733561980D+02 0.833036648065533D+03
 0.128092816635542D+04 -.421593561374487D+03 -.487151098517864D+03 -.110712223515883D+04
 0.000000000000000D+00 0.000000000000000D+00 0.000000000000000D+00 0.000000000000000D+00
 0.168285977638408D+04 0.000000000000000D+00 0.000000000000000D+00 0.168285977638408D+04
 0.151248911017299D+04 0.000000000000000D+00 0.000000000000000D+00 -.151248911017299D+04
 0.648889601656603D+03 0.396969440501547D+03 0.415602056532060D+03 0.274085587093294D+03
 0.843526618291106D+03 -.131607916709829D+03 0.163234495333948D+02 0.833036648065533D+03
 0.134985592876069D+04 -.556933758606528D+03 -.534991750732399D+03 -.110712223515883D+04
 0.353076737848668D+03 0.291572234814809D+03 0.103066244666945D+03 0.170370666211083D+03
0.274604778697D-01 0.000000000000D+00 0.000000000000D+00 0.868169195425D-04 0.000000000000D+00  6 3 2 25 4 1 21 0 0.13605735D+00 0.34717670D+00 0.46453417D+06 0.46453417D+06 0.46453417D+06 0.10707760D+01  1  2  2  2  6  2        2 0.442279378803D-02 0.100000000000D+01
0.108873818146D-01 0.000000000000D+00 -.105455465529D-03 0.868169195425D-04 0.000000000000D+00  6 3 2 25 4 1 21 2 0.13605735D+00 0.34717670D+00 0.46453417D+06 0.46453417D+06 0.46453417D+06 0.10707760D+01  1  2  3  2  6  2        2 0.201052410582D-02 0.100000000000D+01
-.201999277070D-01 0.000000000000D+00 0.000000000000D+00 0.868169195425D-04 0.000000000000D+00  6 3 2 25 4 1 21 2 0.13605735D+00 0.34717670D+00 0.46453417D+06 0.46453417D+06 0.46453417D+06 0.10707760D+01  1  2 15  2  6  2        2 -.373023030537D-02 0.100000000000D+01
-.136425646924D-03 0.000000000000D+00 0.000000000000D+00 0.868169195425D-04 0.000000000000D+00  6 3 2 25 4 1 21 2 0.13605735D+00 0.34717670D+00 0.46453417D+06 0.46453417D+06 0.46453417D+06 0.10707760D+01  1  2  4  2  6  2        2 -.251931140530D-04 0.100000000000D+01
  </mgrwgt>
  </event>
  <event>
  5     66 -.20805674E-05 0.52721799E+02 0.75467711E-02 0.92247119E-01
        3 -1    0    0  501    0 0.00000000E+00 0.00000000E+00 0.15767491E+04 0.15767492E+04 0.50000000E+00 0.0000E+00 0.9000E+01
        2 -1    0    0  502    0 -.00000000E+00 -.00000000E+00 -.24398426E+04 0.24398426E+04 0.32000000E+00 0.0000E+00 0.9000E+01
       25  1    1    2    0    0 -.46860819E+03 0.23625770E+03 -.19029457E+03 0.57205626E+03 0.12500000E+03 0.0000E+00 0.9000E+01
        4  1    1    2  501    0 -.52726482E+02 0.47290124E+00 0.13455304E+04 0.13465640E+04 0.15500000E+01 0.0000E+00 0.9000E+01
        1  1    1    2  502    0 0.52133467E+03 -.23673061E+03 -.20183293E+04 0.20979715E+04 0.32000000E+00 0.0000E+00 0.9000E+01
#aMCatNLO 1  0  0  4  2 0.11342966D+03 0.00000000D+00  -5  6  0 0.00000000D+00 0.00000000D+00 0.00000000D+00 0.00000000D+00 0.00000000D+00
  <mgrwgt>
 -.1463954211D-01    4    2    0
 0.196138212100283D+04 0.000000000000000D+00 0.000000000000000D+00 0.196138212100283D+04
 0.196138212100283D+04 -.000000000000000D+00 -.000000000000000D+00 -.196138212100283D+04
 0.544062599194635D+03 -.468810067016369D+03 0.236348401500612D+03 -.688161755304269D+02
 0.167460128062499D+04 -.527196783457229D+02 0.472840220623967D+00 0.167377114953273D+04
 0.170410036218603D+04 0.521529745362091D+03 -.236821241721236D+03 -.160495497400230D+04
 0.000000000000000D+00 0.000000000000000D+00 0.000000000000000D+00 0.000000000000000D+00
 0.196138212100283D+04 0.000000000000000D+00 0.000000000000000D+00 0.196138212100283D+04
 0.196138212100283D+04 -.000000000000000D+00 -.000000000000000D+00 -.196138212100283D+04
 0.543997450257996D+03 -.468830874406965D+03 0.236348588121083D+03 -.681555719158209D+02
 0.593520788064611D+03 -.382480585232233D+02 -.569145902385578D+02 0.589546216425836D+03
 0.170213272967191D+04 0.521464606657258D+03 -.236820657495374D+03 -.160288691728631D+04
 0.108311327401113D+04 -.143856737270707D+02 0.573866596128489D+02 0.108149627277629D+04
0.384447660934D-01 0.000000000000D+00 0.000000000000D+00 0.145584469495D-02 0.000000000000D+00  6 3 2 25 4 1 21 0 0.24257679D+00 0.37536041D+00 0.33942001D+06 0.33942001D+06 0.33942001D+06 0.10806073D+01  1  2  2  3  6  4        4 0.648601297172D-03 0.100000000000D+01
0.206467664274D-01 0.000000000000D+00 -.147638024538D-03 0.145584469495D-02 0.000000000000D+00  6 3 2 25 4 1 21 2 0.24257679D+00 0.37536041D+00 0.33942001D+06 0.33942001D+06 0.33942001D+06 0.10806073D+01  1  2  3  3  6  4        4 0.406750778504D-03 0.100000000000D+01
-.260354620631D-01 0.000000000000D+00 0.000000000000D+00 0.145584469495D-02 0.000000000000D+00  6 3 2 25 4 1 21 2 0.24257679D+00 0.37536041D+00 0.33942001D+06 0.33942001D+06 0.33942001D+06 0.10806073D+01  1  2 15  3  6  4        4 -.512910556726D-03 0.100000000000D+01
-.770641106282D+00 0.000000000000D+00 0.000000000000D+00 0.145584469495D-02 0.000000000000D+00  6 3 2 25 4 1 21 2 0.24257679D+00 0.37536041D+00 0.33942001D+06 0.33942001D+06 0.33942001D+06 0.10806073D+01  1  2  5  3  6  4        4 -.151819836307D-01 0.100000000000D+01
  </mgrwgt>
  </event>
  <event>
  6     66 0.20805674E-05 0.41955308E+02 0.75467711E-02 0.94997952E-01
        3 -1    0    0  501    0 0.00000000E+00 0.00000000E+00 0.38121114E+03 0.38121146E+03 0.50000000E+00 0.0000E+00 0.9000E+01
        2 -1    0    0  503    0 0.00000000E+00 0.00000000E+00 -.13831122E+04 0.13831122E+04 0.32000000E+00 0.0000E+00 0.9000E+01
       25  1    1    2    0    0 -.26609443E+03 0.38260178E+03 -.25792735E+03 0.54712145E+03 0.12500000E+03 0.0000E+00 0.9000E+01
        4  1    1    2  501    0 0.45548607E+02 -.56302088E+01 0.18371006E+03 0.18936252E+03 0.15500000E+01 0.0000E+00 0.9000E+01
        1  1    1    2  502    0 0.21329261E+03 -.37444735E+03 -.88357706E+03 0.98306311E+03 0.32000000E+00 0.0000E+00 0.9000E+01
       21  1    1    2  503  502 0.72532092E+01 -.25242174E+01 -.44106699E+02 0.44776602E+02 0.75000000E+00 0.0000E+00 0.9000E+01
#aMCatNLO 2  0  0  2  5 0.76798905D+01 0.00000000D+00  -5  6  0 0.00000000D+00 0.00000000D+00 0.00000000D+00 0.00000000D+00 0.00000000D+00
  <mgrwgt>
 0.5153712480D-02    5    2    0
 0.714040122060446D+03 0.000000000000000D+00 0.000000000000000D+00 0.714040122060446D+03
 0.714040122060446D+03 0.000000000000000D+00 0.000000000000000D+00 -.714040122060446D+03
 0.484257146707051D+03 -.263804873386857D+03 0.382146488110052D+03 0.570178440433521D+02
 0.350694624407840D+03 0.472298942809711D+02 -.623759634872504D+01 0.347443735109089D+03
 0.593128473006001D+03 0.216574979105886D+03 -.375908891761327D+03 -.404461579152441D+03
 0.000000000000000D+00 0.000000000000000D+00 -.000000000000000D+00 -.000000000000000D+00
 0.714672624220409D+03 0.000000000000000D+00 0.000000000000000D+00 0.714672624220409D+03
 0.737749777060727D+03 0.000000000000000D+00 0.000000000000000D+00 -.737749777060727D+03
 0.486279478971663D+03 -.266269529819005D+03 0.383004222717670D+03 0.570178440433521D+02
 0.350448789875139D+03 0.454493559889083D+02 -.561794433825811D+01 0.347443735109089D+03
 0.591372625476107D+03 0.213566964597193D+03 -.374862061010125D+03 -.404461579152441D+03
 0.243215069582275D+02 0.725320923290312D+01 -.252421736928722D+01 -.230771528403187D+02
-.156029382029D-02 0.000000000000D+00 0.000000000000D+00 0.183183687341D-04 0.000000000000D+00  6 3 2 25 4 1 21 2 0.58595517D-01 0.21348114D+00 0.23417419D+06 0.23417419D+06 0.23417419D+06 0.10926022D+01  1  2 13  2  6  2        2 -.688005985206D-02 0.100000000000D+01
-.101037337711D-01 0.000000000000D+00 0.000000000000D+00 0.183183687341D-04 0.000000000000D+00  6 3 2 25 4 1 21 2 0.58595517D-01 0.20594636D+00 0.23153565D+06 0.23153565D+06 0.23153565D+06 0.10929748D+01  1  2  8  2  6  2        2 -.474947451539D-01 0.100000000000D+01
-.308129740916D-02 0.000000000000D+00 0.000000000000D+00 0.183183687341D-04 0.000000000000D+00  6 3 2 25 4 1 21 2 0.58595517D-01 0.21286013D+00 0.23153565D+06 0.23153565D+06 0.23153565D+06 0.10929748D+01  1  2  9  2  6  2        2 -.136718692899D-01 0.100000000000D+01
0.307961842022D-02 0.000000000000D+00 0.000000000000D+00 0.183183687341D-04 0.000000000000D+00  6 3 2 25 4 1 21 2 0.58595517D-01 0.20594636D+00 0.23153565D+06 0.23153565D+06 0.23153565D+06 0.10929748D+01  1  2 10  2  6  2        2 0.144764000471D-01 0.100000000000D+01
0.132653564334D-01 0.000000000000D+00 0.000000000000D+00 0.183183687341D-04 0.366150185316D-05  6 3 2 25 4 1 21 2 0.58647421D-01 0.21278480D+00 0.23417419D+06 0.23417419D+06 0.23417419D+06 0.10926022D+01  1  2  1  2  6  2        2 0.587239867285D-01 0.100000000000D+01
  </mgrwgt>
  </event>
  <event>
  6     66 0.20805674E-05 0.52659685E+02 0.75467711E-02 0.94111161E-01
        3 -1    0    0  503    0 0.00000000E+00 0.00000000E+00 0.29779884E+04 0.29779885E+04 0.50000000E+00 0.0000E+00 0.9000E+01
        2 -1    0    0  502    0 0.00000000E+00 0.00000000E+00 -.17969920E+03 0.17969948E+03 0.32000000E+00 0.0000E+00 0.9000E+01
       25  1    1    2    0    0 -.21272132E+03 0.46930280E+03 0.80104628E+03 0.96062252E+03 0.12500000E+03 0.0000E+00 0.9000E+01
        4  1    1    2  501    0 0.17144881E+03 -.40384630E+03 0.18837371E+04 0.19341547E+04 0.15500000E+01 0.0000E+00 0.9000E+01
        1  1    1    2  502    0 0.35176023E+02 -.48479388E+02 -.62158299E+02 0.86321262E+02 0.32000000E+00 0.0000E+00 0.9000E+01
       21  1    1    2  503  501 0.60964827E+01 -.16977109E+02 0.17566412E+03 0.17658945E+03 0.75000000E+00 0.0000E+00 0.9000E+01
#aMCatNLO 2  0  0  1  4 0.18038551D+02 0.00000000D+00  -5  6  0 0.00000000D+00 0.00000000D+00 0.00000000D+00 0.00000000D+00 0.00000000D+00
  <mgrwgt>
 0.3034086976D-02    5    2    0
 0.708600807204876D+03 0.000000000000000D+00 0.000000000000000D+00 0.708600807204876D+03
 0.708600807204876D+03 0.000000000000000D+00 0.000000000000000D+00 -.708600807204876D+03
 0.531560384295409D+03 -.210394027171439D+03 0.462797224314966D+03 -.921114794649939D+02
 0.587879212687721D+03 0.173898788333327D+03 -.410697501879323D+03 0.382999663285256D+03
 0.297762017426623D+03 0.364952388381119D+02 -.520997224356429D+02 -.290888183820262D+03
 0.000000000000000D+00 0.000000000000000D+00 -.000000000000000D+00 0.000000000000000D+00
 0.753201695638419D+03 0.000000000000000D+00 0.000000000000000D+00 0.753201695638419D+03
 0.710484449959824D+03 0.000000000000000D+00 0.000000000000000D+00 -.710484449959824D+03
 0.538052504378293D+03 -.212694551075902D+03 0.469203581360099D+03 -.921114794649939D+02
 0.582258882221284D+03 0.171382054767972D+03 -.403689057508954D+03 0.382999663285256D+03
 0.297005023103709D+03 0.352160136073619D+02 -.485374149310659D+02 -.290888183820262D+03
 0.463697358949566D+02 0.609648270056797D+01 -.169771089200793D+02 0.427172456785953D+02
-.759141429232D-01 0.000000000000D+00 0.000000000000D+00 0.563945553273D-05 0.000000000000D+00  6 3 2 25 4 1 21 2 0.46216110D+00 0.27572643D-01 0.27388321D+06 0.27388321D+06 0.27388321D+06 0.10874906D+01  1  2 13  1  6  1        3 -.275583538301D-02 0.100000000000D+01
-.550360118767D-01 0.000000000000D+00 0.000000000000D+00 0.563945553273D-05 0.000000000000D+00  6 3 2 25 4 1 21 2 0.43102075D+00 0.27572643D-01 0.26683737D+06 0.26683737D+06 0.26683737D+06 0.10883360D+01  1  2  8  1  6  1        3 -.239743431039D-02 0.100000000000D+01
-.125299286966D-02 0.000000000000D+00 0.000000000000D+00 0.563945553273D-05 0.000000000000D+00  6 3 2 25 4 1 21 2 0.45847668D+00 0.27572643D-01 0.26683737D+06 0.26683737D+06 0.26683737D+06 0.10883360D+01  1  2  9  1  6  1        3 -.464298488998D-04 0.100000000000D+01
0.125060754209D-02 0.000000000000D+00 0.000000000000D+00 0.563945553273D-05 0.000000000000D+00  6 3 2 25 4 1 21 2 0.43102075D+00 0.27572643D-01 0.26683737D+06 0.26683737D+06 0.26683737D+06 0.10883360D+01  1  2 10  1  6  1        3 0.544779559422D-04 0.100000000000D+01
0.221602273055D+00 0.000000000000D+00 0.000000000000D+00 0.563945553273D-05 0.408574102718D-06  6 3 2 25 4 1 21 2 0.45815014D+00 0.27645938D-01 0.27388321D+06 0.27388321D+06 0.27388321D+06 0.10874906D+01  1  2  1  1  6  1        3 0.817930856203D-02 0.100000000000D+01
  </mgrwgt>
  </event>
  <event>
  5     66 -.20805674E-05 0.17878347E+02 0.75467711E-02 0.92413360E-01
        3 -1    0    0  501    0 0.00000000E+00 0.00000000E+00 0.16718377E+03 0.16718452E+03 0.50000000E+00 0.0000E+00 0.9000E+01
        2 -1    0    0  502    0 0.00000000E+00 0.00000000E+00 -.42192304E+04 0.42192304E+04 0.32000000E+00 0.0000E+00 0.9000E+01
       25  1    1    2    0    0 -.14373137E+03 0.54735248E+03 -.21524960E+04 0.22291517E+04 0.12500000E+03 0.0000E+00 0.9000E+01
        4  1    1    2  501    0 0.15543714E+03 -.56084833E+03 -.52865352E+03 0.78624964E+03 0.15500000E+01 0.0000E+00 0.9000E+01
        1  1    1    2  502    0 -.11705768E+02 0.13495846E+02 -.13708972E+04 0.13710136E+04 0.32000000E+00 0.0000E+00 0.9000E+01
#aMCatNLO 1  0  0  1  4 0.70234890D+01 0.00000000D+00  -5  6  0 0.00000000D+00 0.00000000D+00 0.00000000D+00 0.00000000D+00 0.00000000D+00
  <mgrwgt>
 -.1144555001D-01    7    2    0
 0.839874102104554D+03 0.000000000000000D+00 0.000000000000000D+00 0.839874102104554D+03
 0.839874102104554D+03 0.000000000000000D+00 0.000000000000000D+00 -.839874102104554D+03
 0.628450475875765D+03 -.143705708002853D+03 0.547282619360415D+03 -.243218841091471D+03
 0.777822344520502D+03 0.155420462717544D+03 -.560788167501233D+03 0.516109204136725D+03
 0.273475383812840D+03 -.117147547146909D+02 0.135055481408183D+02 -.272890363045255D+03
 0.000000000000000D+00 0.000000000000000D+00 -.000000000000000D+00 0.000000000000000D+00
 0.101523436594927D+04 0.000000000000000D+00 0.000000000000000D+00 0.101523436594927D+04
 0.842165509268359D+03 0.000000000000000D+00 0.000000000000000D+00 -.842165509268359D+03
 0.634294028065797D+03 -.157745358255988D+03 0.550149898960952D+03 -.243218841091471D+03
 0.772019148941807D+03 0.138188764263828D+03 -.557268984575154D+03 0.516109204136725D+03
 0.273867698453593D+03 -.178003131309083D+02 0.147483851908938D+02 -.272890363045255D+03
 0.177218999756430D+03 0.373569071230682D+02 -.762929957669159D+01 0.173068856680909D+03
0.623453155276D-03 0.000000000000D+00 0.000000000000D+00 0.232859682367D-04 0.000000000000D+00  6 3 2 25 4 1 21 0 0.25720638D-01 0.64911243D+00 0.34767715D+06 0.34767715D+06 0.34767715D+06 0.10798444D+01  1  2  2  1  6  1        3 0.170381027951D-03 0.100000000000D+01
0.401249844396D-03 0.000000000000D+00 -.239422427525D-05 0.232859682367D-04 0.000000000000D+00  6 3 2 25 4 1 21 2 0.25720638D-01 0.64911243D+00 0.34767715D+06 0.34767715D+06 0.34767715D+06 0.10798444D+01  1  2  3  1  6  1        3 0.127865867088D-03 0.100000000000D+01
-.449638010126D-03 0.000000000000D+00 0.000000000000D+00 0.232859682367D-04 0.000000000000D+00  6 3 2 25 4 1 21 2 0.25720638D-01 0.64911243D+00 0.34767715D+06 0.34767715D+06 0.34767715D+06 0.10798444D+01  1  2 15  1  6  1        3 -.143285673112D-03 0.100000000000D+01
-.361328972578D-01 0.000000000000D+00 0.000000000000D+00 0.232859682367D-04 0.000000000000D+00  6 3 2 25 4 1 21 2 0.25720638D-01 0.64911243D+00 0.34767715D+06 0.34767715D+06 0.34767715D+06 0.10798444D+01  1  2  4  1  6  1        3 -.115144324734D-01 0.100000000000D+01
-.331820701871D-01 0.000000000000D+00 -.887295968087D-03 0.232859682367D-04 0.000000000000D+00  6 3 2 25 4 1 21 2 0.31134245D-01 0.64911243D+00 0.34767715D+06 0.34767715D+06 0.34767715D+06 0.10798444D+01  1  2  5  1  6  1        3 -.740736044194D-02 0.100000000000D+01
0.327678873999D-01 0.000000000000D+00 0.871351259564D-03 0.232859682367D-04 0.000000000000D+00  6 3 2 25 4 1 21 2 0.25720638D-01 0.64911243D+00 0.34767715D+06 0.34767715D+06 0.34767715D+06 0.10798444D+01  1  2  6  1  6  1        3 0.104421083112D-01 0.100000000000D+01
-.907091488031D-03 0.000000000000D+00 -.245082239492D-04 0.232859682367D-04 0.000000000000D+00  6 21 2 25 4 1 -3 2 0.31134245D-01 0.64911243D+00 0.34767715D+06 0.34767715D+06 0.34767715D+06 0.10798444D+01  1  2  5  5  6  1        3 -.312082662795D-02 0.100000000000D+01
  </mgrwgt>
  </event>
  <event>
  6     66 0.20805674E-05 0.73793543E+02 0.75467711E-02 0.93853948E-01
        3 -1    0    0  501    0 0.00000000E+00 0.00000000E+00 0.11615395E+04 0.11615396E+04 0.50000000E+00 0.0000E+00 0.9000E+01
        2 -1    0    0  502    0 0.00000000E+00 0.00000000E+00 -.10111174E+04 0.10111175E+04 0.32000000E+00 0.0000E+00 0.9000E+01
       25  1    1    2    0    0 0.29450784E+03 0.36898824E+03 0.60476309E+03 0.77733557E+03 0.12500000E+03 0.0000E+00 0.9000E+01
        4  1    1    2  501    0 -.25848548E+03 -.43231843E+03 0.33297236E+03 0.60381037E+03 0.15500000E+01 0.0000E+00 0.9000E+01
        1  1    1    2  503    0 0.41307938E+01 -.11010632E+01 -.84550524E+02 0.84659136E+02 0.32000000E+00 0.0000E+00 0.9000E+01
       21  1    1    2  502  503 -.40153152E+02 0.64431247E+02 -.70276281E+03 0.70685203E+03 0.75000000E+00 0.0000E+00 0.9000E+01
#aMCatNLO 2  0  0  5  4 0.11138852D+02 0.00000000D+00  -5  6  0 0.00000000D+00 0.00000000D+00 0.00000000D+00 0.00000000D+00 0.00000000D+00
  <mgrwgt>
 0.5219993344D-02    1    2    0
 0.108372183960256D+04 0.000000000000000D+00 0.000000000000000D+00 0.108372183960256D+04
 0.108372183960256D+04 -.000000000000000D+00 -.000000000000000D+00 -.108372183960256D+04
 0.737645094086167D+03 0.294243264630513D+03 0.368421811180719D+03 0.553336746561519D+03
 0.581583901535305D+03 -.258174612967065D+03 -.431828932742734D+03 0.291735285131238D+03
 0.848214683583658D+03 -.360686516634482D+02 0.634071215620158D+02 -.845072031692758D+03
 0.000000000000000D+00 -.000000000000000D+00 0.000000000000000D+00 0.000000000000000D+00
 0.108372183960256D+04 0.000000000000000D+00 0.000000000000000D+00 0.108372183960256D+04
 0.108372183960256D+04 -.000000000000000D+00 -.000000000000000D+00 -.108372183960256D+04
 0.737455082835827D+03 0.294232149178235D+03 0.368441351662585D+03 0.553076316592385D+03
 0.581473376036060D+03 -.258183377055001D+03 -.431813525857156D+03 0.291529946554483D+03
 0.907544119097090D+02 0.408290737905112D+01 -.105234523619213D+01 -.906564157570509D+02
 0.757760808423534D+03 -.401316795022856D+02 0.644245194307630D+02 -.753949847389817D+03
0.121804712271D-01 0.000000000000D+00 0.000000000000D+00 0.125920743055D-04 0.239977003766D-07  6 3 2 25 4 1 21 2 0.17869840D+00 0.15555654D+00 0.28677505D+06 0.28677505D+06 0.28677505D+06 0.10860035D+01  1  2  1  4  6  5        1 0.521999334419D-02 0.100000000000D+01
  </mgrwgt>
  </event>
  <event>
  5     66 -.20805674E-05 0.44792187E+02 0.75467711E-02 0.91119985E-01
        3 -1    0    0  501    0 0.00000000E+00 0.00000000E+00 0.90890249E+03 0.90890263E+03 0.50000000E+00 0.0000E+00 0.9000E+01
        2 -1    0    0  502    0 -.00000000E+00 -.00000000E+00 -.36869029E+04 0.36869029E+04 0.32000000E+00 0.0000E+00 0.9000E+01
       25  1    1    2    0    0 -.56283989E+03 -.29964008E+03 0.23874497E+03 0.69224062E+03 0.12500000E+03 0.0000E+00 0.9000E+01
        4  1    1    2  501    0 -.43022211E+02 -.12630787E+02 0.40860344E+03 0.41105914E+03 0.15500000E+01 0.0000E+00 0.9000E+01
        1  1    1    2  502    0 0.60586210E+03 0.31227087E+03 -.34253488E+04 0.34925057E+04 0.32000000E+00 0.0000E+00 0.9000E+01
#aMCatNLO 1  0  0  4  1 0.72529670D+01 0.00000000D+00  -5  6  0 0.00000000D+00 0.00000000D+00 0.00000000D+00 0.00000000D+00 0.00000000D+00
  <mgrwgt>
 -.1045001172D-01    8    2    0
 0.183058338836286D+04 0.000000000000000D+00 0.000000000000000D+00 0.183058338836286D+04
 0.183058338836286D+04 -.000000000000000D+00 -.000000000000000D+00 -.183058338836286D+04
 0.105091707385570D+04 -.563135647485390D+03 -.299783696197938D+03 0.825717672177683D+03
 0.825188349774441D+03 -.429782405639594D+02 -.126178782916865D+02 0.823971766863955D+03
 0.178506135309558D+04 0.606113888049351D+03 0.312401574489625D+03 -.164968943904164D+04
 0.000000000000000D+00 0.000000000000000D+00 0.000000000000000D+00 0.000000000000000D+00
 0.183058338836286D+04 0.000000000000000D+00 0.000000000000000D+00 0.183058338836286D+04
 0.183058338836286D+04 -.000000000000000D+00 -.000000000000000D+00 -.183058338836286D+04
 0.105096022135174D+04 -.563138398661126D+03 -.299784503909007D+03 0.825770417266877D+03
 0.641214966927324D+03 -.401823205419296D+02 -.726878986499259D+01 0.639913415722294D+03
 0.178497673302455D+04 0.606109215178018D+03 0.312400202592568D+03 -.164959985152018D+04
 0.184014855422098D+03 -.278849597496099D+01 -.534690881856858D+01 0.183916018531011D+03
0.125684302263D-02 0.000000000000D+00 0.000000000000D+00 0.320511415339D-03 0.000000000000D+00  6 3 2 25 4 1 21 0 0.13983116D+00 0.56721584D+00 0.47387280D+06 0.47387280D+06 0.47387280D+06 0.10701616D+01  1  2  2  3  6  4        4 0.226428594670D-04 0.100000000000D+01
0.545904757638D-03 0.000000000000D+00 -.482660814125D-05 0.320511415339D-03 0.000000000000D+00  6 3 2 25 4 1 21 2 0.13983116D+00 0.56721584D+00 0.47387280D+06 0.47387280D+06 0.47387280D+06 0.10701616D+01  1  2  3  3  6  4        4 0.112633049188D-04 0.100000000000D+01
-.952348655313D-03 0.000000000000D+00 0.000000000000D+00 0.320511415339D-03 0.000000000000D+00  6 3 2 25 4 1 21 2 0.13983116D+00 0.56721584D+00 0.47387280D+06 0.47387280D+06 0.47387280D+06 0.10701616D+01  1  2 15  3  6  4        4 -.196492028027D-04 0.100000000000D+01
0.819992826799D+00 0.000000000000D+00 0.000000000000D+00 0.320511415339D-03 0.000000000000D+00  6 3 2 25 4 1 21 2 0.13983116D+00 0.56721584D+00 0.47529925D+06 0.47529925D+06 0.47529925D+06 0.10700689D+01  1  2 12  3  6  4        4 0.169101480591D-01 0.100000000000D+01
-.164564701533D+01 0.000000000000D+00 0.000000000000D+00 0.320511415339D-03 0.000000000000D+00  6 3 2 25 4 1 21 2 0.13983116D+00 0.56721584D+00 0.47387280D+06 0.47387280D+06 0.47387280D+06 0.10701616D+01  1  2  4  3  6  4        4 -.339535859746D-01 0.100000000000D+01
-.100433979143D+01 0.000000000000D+00 0.000000000000D+00 0.320511415339D-03 0.000000000000D+00  6 3 2 25 4 1 21 2 0.13983116D+00 0.56721584D+00 0.47387280D+06 0.47387280D+06 0.47387280D+06 0.10701616D+01  1  2  5  3  6  4        4 -.207219027764D-01 0.100000000000D+01
0.128144713592D+01 0.000000000000D+00 -.000000000000D+00 0.320511415339D-03 0.000000000000D+00  6 3 2 25 4 1 21 2 0.13983116D+00 0.56721584D+00 0.47387280D+06 0.47387280D+06 0.47387280D+06 0.10701616D+01  1  2  6  3  6  4        4 0.264392819943D-01 0.100000000000D+01
0.417892043807D-01 0.000000000000D+00 0.000000000000D+00 0.320511415339D-03 0.639950188562D-04  6 3 2 25 4 1 21 2 0.13983116D+00 0.56721584D+00 0.47529925D+06 0.47529925D+06 0.47529925D+06 0.10700689D+01  1  2 11  3  6  4        4 0.861790018467D-03 0.100000000000D+01
  </mgrwgt>
  </event>
  <event>
  6     66 0.20805674E-05 0.19117455E+03 0.75467711E-02 0.94157680E-01
        3 -1    0    0  501    0 0.00000000E+00 0.00000000E+00 0.89951540E+03 0.89951554E+03 0.50000000E+00 0.0000E+00 0.9000E+01
        2 -1    0    0  502    0 -.00000000E+00 -.00000000E+00 -.21644680E+04 0.21644681E+04 0.32000000E+00 0.0000E+00 0.9000E+01
       25  1    1    2    0    0 0.46153941E+03 -.90019144E+02 0.95983542E+02 0.49594346E+03 0.12500000E+03 0.0000E+00 0.9000E+01
        4  1    1    2  503    0 -.30044813E+03 -.41985354E+02 0.30593125E+03 0.43084589E+03 0.15500000E+01 0.0000E+00 0.9000E+01
        1  1    1    2  502    0 -.26643514E+02 -.31514944E+02 -.18541119E+04 0.18545711E+04 0.32000000E+00 0.0000E+00 0.9000E+01
       21  1    1    2  501  503 -.13444777E+03 0.16351944E+03 0.18724443E+03 0.28262316E+03 0.75000000E+00 0.0000E+00 0.9000E+01
#aMCatNLO 2  0  0  4  1 0.85089164D+00 0.00000000D+00  -5  6  0 0.00000000D+00 0.00000000D+00 0.00000000D+00 0.00000000D+00 0.00000000D+00
  <mgrwgt>
 0.8709554154D-02    1    2    0
 0.139533959437955D+04 0.000000000000000D+00 0.000000000000000D+00 0.139533959437955D+04
 0.139533959437955D+04 -.000000000000000D+00 -.000000000000000D+00 -.139533959437955D+04
 0.587490923523711D+03 0.464216869467193D+03 -.907354539968125D+02 0.325254301605396D+03
 0.995149718765182D+03 -.443583320080344D+03 0.123961837812741D+03 0.882150930210363D+03
 0.120803854647021D+04 -.206335493868488D+02 -.332263838159285D+02 -.120740523181576D+04
 0.000000000000000D+00 0.000000000000000D+00 0.000000000000000D+00 0.000000000000000D+00
 0.139533959437955D+04 0.000000000000000D+00 0.000000000000000D+00 0.139533959437955D+04
 0.139533959437955D+04 -.000000000000000D+00 -.000000000000000D+00 -.139533959437955D+04
 0.588316729384289D+03 0.461268699383776D+03 -.899115713908148D+02 0.331117306059743D+03
 0.610714668634595D+03 -.299992409115888D+03 -.420967481110031D+02 0.530287492551717D+03
 0.119613040361095D+04 -.266616603253850D+02 -.315417945253648D+02 -.119541717132945D+04
 0.395517387129268D+03 -.134614629942503D+03 0.163550114027183D+03 0.334012372717991D+03
0.408579780356D-01 0.000000000000D+00 0.000000000000D+00 0.630085036112D-03 0.654096626903D-07  6 3 2 25 4 1 21 2 0.13838700D+00 0.33299510D+00 0.27162173D+06 0.27162173D+06 0.27162173D+06 0.10877593D+01  1  2  1  3  6  4        4 0.870955415433D-02 0.100000000000D+01
  </mgrwgt>
  </event>
  <event>
  6     66 0.20805674E-05 0.59066660E+02 0.75467711E-02 0.93770094E-01
        3 -1    0    0  501    0 0.00000000E+00 0.00000000E+00 0.67198069E+03 0.67198088E+03 0.50000000E+00 0.0000E+00 0.9000E+01
       21 -1    0    0  502  503 0.00000000E+00 0.00000000E+00 -.18444565E+04 0.18444566E+04 0.75000000E+00 0.0000E+00 0.9000E+01
       25  1    1    2    0    0 0.45155052E+03 -.77975004E+02 -.19834895E+03 0.51472836E+03 0.12500000E+03 0.0000E+00 0.9000E+01
        4  1    1    2  501    0 -.29891785E+02 0.11352452E+03 0.45276828E+03 0.46774229E+03 0.15500000E+01 0.0000E+00 0.9000E+01
        1  1    1    2  502    0 -.36381509E+03 0.65542982E+02 -.64484915E+03 0.74329525E+03 0.32000000E+00 0.0000E+00 0.9000E+01
       -2  1    1    2    0  503 -.57843642E+02 -.10109250E+03 -.78204598E+03 0.79067161E+03 0.32000000E+00 0.0000E+00 0.9000E+01
#aMCatNLO 2  0  0  2  5 0.27283982D+02 0.00000000D+00  -5  6  0 0.00000000D+00 0.00000000D+00 0.00000000D+00 0.00000000D+00 0.00000000D+00
  <mgrwgt>
 0.3106937989D-04    1    2    0
 0.838490747751051D+03 0.000000000000000D+00 0.000000000000000D+00 0.838490747751051D+03
 0.838490747751051D+03 0.000000000000000D+00 0.000000000000000D+00 -.838490747751051D+03
 0.472878365122990D+03 0.435434143758078D+03 -.106723679172319D+03 -.836427579350740D+02
 0.580494076929804D+03 -.499430642582856D+02 0.783520073494920D+02 0.573009621758120D+03
 0.623609053449307D+03 -.385491079499792D+03 0.283716718228273D+02 -.489366863823046D+03
 0.000000000000000D+00 -.000000000000000D+00 -.000000000000000D+00 -.000000000000000D+00
 0.845939891546812D+03 0.000000000000000D+00 0.000000000000000D+00 0.845939891546812D+03
 0.146516255272166D+04 0.000000000000000D+00 0.000000000000000D+00 -.146516255272166D+04
 0.482603252611284D+03 0.451892896343521D+03 -.779589552923133D+02 -.836427579350740D+02
 0.584893038710871D+03 -.298685616759369D+02 0.113435925210948D+03 0.573009621758120D+03
 0.613524980434394D+03 -.364180692569474D+03 0.656155268868388D+02 -.489366863823046D+03
 0.630081172511926D+03 -.578436420981100D+02 -.101092496805474D+03 -.619222661174851D+03
0.195226869721D-03 0.000000000000D+00 0.000000000000D+00 0.226140964452D-04 0.393770837832D-09  6 3 21 25 4 1 -2 2 0.10338167D+00 0.28376255D+00 0.29112389D+06 0.29112389D+06 0.29112389D+06 0.10855182D+01  1  2  1  6  6  2        2 0.310693798948D-04 0.100000000000D+01
  </mgrwgt>
  </event>
  <event>
  6     66 0.20805674E-05 0.45316457E+02 0.75467711E-02 0.92491874E-01
       21 -1    0    0  501  503 0.00000000E+00 0.00000000E+00 0.25925859E+03 0.25925968E+03 0.75000000E+00 0.0000E+00 0.9000E+01
        2 -1    0    0  502    0 0.00000000E+00 0.00000000E+00 -.28710643E+04 0.28710643E+04 0.32000000E+00 0.0000E+00 0.9000E+01
       25  1    1    2    0    0 0.51473763E+03 -.22927056E+02 -.52775169E+03 0.74808243E+03 0.12500000E+03 0.0000E+00 0.9000E+01
        4  1    1    2  501    0 0.23822079E+02 -.60327292E+02 0.25499602E+02 0.69710155E+02 0.15500000E+01 0.0000E+00 0.9000E+01
        1  1    1    2  502    0 -.57407867E+03 0.68936692E+02 -.21673757E+04 0.22431755E+04 0.32000000E+00 0.0000E+00 0.9000E+01
       -3  1    1    2    0  503 0.35518964E+02 0.14317655E+02 0.57822136E+02 0.69355904E+02 0.50000000E+00 0.0000E+00 0.9000E+01
#aMCatNLO 2  0  0  1  2 0.38296110D+02 0.00000000D+00  -5  6  0 0.00000000D+00 0.00000000D+00 0.00000000D+00 0.00000000D+00 0.00000000D+00
  <mgrwgt>
 0.2304122949D-02    1    2    0
 0.748522917208964D+03 0.000000000000000D+00 0.000000000000000D+00 0.748522917208964D+03
 0.748522917208964D+03 0.000000000000000D+00 0.000000000000000D+00 -.748522917208964D+03
 0.601400446023516D+03 0.529543963790583D+03 -.175779418623208D+02 0.255600670676206D+03
 0.186841317050340D+03 0.281085144715024D+02 -.581725869453076D+02 0.175315542093112D+03
 0.708804071344073D+03 -.557652478262086D+03 0.757505288076284D+02 -.430916212769318D+03
 0.000000000000000D+00 0.000000000000000D+00 0.000000000000000D+00 0.000000000000000D+00
 0.992102558131877D+03 0.000000000000000D+00 0.000000000000000D+00 0.992102558131877D+03
 0.750274555269905D+03 0.000000000000000D+00 0.000000000000000D+00 -.750274555269905D+03
 0.589201325254686D+03 0.515422143315745D+03 -.232704321308508D+02 0.255600670676206D+03
 0.186791896388410D+03 0.236768217839008D+02 -.599589973831287D+02 0.175315542093112D+03
 0.721542361367866D+03 -.574617928866025D+03 0.689117743682679D+02 -.430916212769318D+03
 0.244841530390820D+03 0.355189637663798D+02 0.143176551457116D+02 0.241828002861972D+03
0.115527197404D-03 0.000000000000D+00 0.000000000000D+00 0.127847551119D-05 0.992306650664D-09  6 21 2 25 4 1 -3 2 0.39886009D-01 0.44170213D+00 0.36745983D+06 0.36745983D+06 0.36745983D+06 0.10780942D+01  1  2  1  5  6  1        3 0.230412294938D-02 0.100000000000D+01
  </mgrwgt>
  </event>
  <event>
  5     66 0.20805674E-05 0.96068742E+02 0.75467711E-02 0.92806496E-01
        3 -1    0    0  501    0 0.00000000E+00 0.00000000E+00 0.10735263E+04 0.10735264E+04 0.50000000E+00 0.0000E+00 0.9000E+01
        2 -1    0    0  502    0 0.00000000E+00 0.00000000E+00 -.21515626E+04 0.21515627E+04 0.32000000E+00 0.0000E+00 0.9000E+01
       25  1    1    2    0    0 0.27637739E+02 -.56022442E+03 0.40806397E+03 0.70480951E+03 0.12500000E+03 0.0000E+00 0.9000E+01
        4  1    1    2  501    0 -.29006297E+02 0.91705612E+02 0.48490475E+03 0.49435443E+03 0.15500000E+01 0.0000E+00 0.9000E+01
        1  1    1    2  502    0 0.13685579E+01 0.46851880E+03 -.19710050E+04 0.20259251E+04 0.32000000E+00 0.0000E+00 0.9000E+01
#aMCatNLO 1  0  0  2  5 0.32769617D+02 0.00000000D+00  -5  6  0 0.00000000D+00 0.00000000D+00 0.00000000D+00 0.00000000D+00 0.00000000D+00
  <mgrwgt>
 0.3928006124D-02    7    2    0
 0.151978923542284D+04 0.000000000000000D+00 0.000000000000000D+00 0.151978923542284D+04
 0.151978923542284D+04 0.000000000000000D+00 0.000000000000000D+00 -.151978923542284D+04
 0.893284221090284D+03 0.276047246164378D+02 -.560360709837568D+03 0.683787652490203D+03
 0.695671693644574D+03 -.289716595163633D+02 0.915961035190549D+02 0.689006460131764D+03
 0.145062255611083D+04 0.136693489992546D+01 0.468764606318513D+03 -.137279411262197D+04
 0.000000000000000D+00 -.000000000000000D+00 -.000000000000000D+00 -.000000000000000D+00
 0.152796200605224D+04 0.000000000000000D+00 0.000000000000000D+00 0.152796200605224D+04
 0.155308475152366D+04 0.000000000000000D+00 0.000000000000000D+00 -.155308475152366D+04
 0.890736848508655D+03 0.360741048267692D+02 -.555805936055036D+03 0.683787652490203D+03
 0.695904756307654D+03 -.223653529837627D+02 0.951489292331906D+02 0.689006460131764D+03
 0.145311350509881D+04 0.151519989621807D+02 0.476178117912276D+03 -.137279411262197D+04
 0.412916476607850D+02 -.288607508051872D+02 -.155211110904308D+02 -.251227454714209D+02
0.825039008366D-02 0.000000000000D+00 0.000000000000D+00 0.105196316714D-03 0.000000000000D+00  6 3 2 25 4 1 21 0 0.16515790D+00 0.33100965D+00 0.32469025D+06 0.32469025D+06 0.32469025D+06 0.10820198D+01  1  2  2  2  6  2        2 0.882281752241D-03 0.100000000000D+01
0.145977910168D-02 0.000000000000D+00 -.316836702988D-04 0.105196316714D-03 0.000000000000D+00  6 3 2 25 4 1 21 2 0.16515790D+00 0.33100965D+00 0.32469025D+06 0.32469025D+06 0.32469025D+06 0.10820198D+01  1  2  3  2  6  2        2 0.182763868597D-03 0.100000000000D+01
-.632237966514D-02 0.000000000000D+00 0.000000000000D+00 0.105196316714D-03 0.000000000000D+00  6 3 2 25 4 1 21 2 0.16515790D+00 0.33100965D+00 0.32469025D+06 0.32469025D+06 0.32469025D+06 0.10820198D+01  1  2 15  2  6  2        2 -.791559877116D-03 0.100000000000D+01
-.823248595231D-03 0.000000000000D+00 0.000000000000D+00 0.105196316714D-03 0.000000000000D+00  6 3 2 25 4 1 21 2 0.16515790D+00 0.33100965D+00 0.32469025D+06 0.32469025D+06 0.32469025D+06 0.10820198D+01  1  2  4  2  6  2        2 -.103070456282D-03 0.100000000000D+01
-.451520324303D+00 0.000000000000D+00 -.614466884590D-01 0.105196316714D-03 0.000000000000D+00  6 3 2 25 4 1 21 2 0.16515790D+00 0.33895407D+00 0.32469025D+06 0.32469025D+06 0.32469025D+06 0.10820198D+01  1  2  5  2  6  2        2 -.529053803271D-01 0.100000000000D+01
0.452867564024D+00 0.000000000000D+00 0.614294106083D-01 0.105196316714D-03 0.000000000000D+00  6 3 2 25 4 1 21 2 0.16515790D+00 0.33100965D+00 0.32469025D+06 0.32469025D+06 0.32469025D+06 0.10820198D+01  1  2  6  2  6  2        2 0.566988716772D-01 0.100000000000D+01
-.192575037540D-02 0.000000000000D+00 -.263784389784D-03 0.105196316714D-03 0.000000000000D+00  6 3 21 25 4 1 -2 2 0.16515790D+00 0.33895407D+00 0.32469025D+06 0.32469025D+06 0.32469025D+06 0.10820198D+01  1  2  5  6  6  2        2 -.359005139430D-04 0.100000000000D+01
  </mgrwgt>
  </event>
  <event>
  5     66 0.20805674E-05 0.12029274E+03 0.75467711E-02 0.92017289E-01
        3 -1    0    0  501    0 0.00000000E+00 0.00000000E+00 0.21727175E+03 0.21727233E+03 0.50000000E+00 0.0000E+00 0.9000E+01
        2 -1    0    0  502    0 0.00000000E+00 0.00000000E+00 -.34508664E+04 0.34508664E+04 0.32000000E+00 0.0000E+00 0.9000E+01
       25  1    1    2    0    0 -.55037688E+03 0.26623146E+03 -.18623960E+04 0.19641634E+04 0.12500000E+03 0.0000E+00 0.9000E+01
        4  1    1    2  501    0 0.46101863E+03 -.18589279E+03 -.21507136E+03 0.54162016E+03 0.15500000E+01 0.0000E+00 0.9000E+01
        1  1    1    2  502    0 0.89358257E+02 -.80338676E+02 -.11561273E+04 0.11623553E+04 0.32000000E+00 0.0000E+00 0.9000E+01
#aMCatNLO 1  0  0  2  5 0.21685747D+02 0.00000000D+00  -5  6  0 0.00000000D+00 0.00000000D+00 0.00000000D+00 0.00000000D+00 0.00000000D+00
  <mgrwgt>
 0.1619397124D-02    7    2    0
 0.865896570631403D+03 0.000000000000000D+00 0.000000000000000D+00 0.865896570631403D+03
 0.865896570631403D+03 0.000000000000000D+00 0.000000000000000D+00 -.865896570631403D+03
 0.682663210021381D+03 -.550364019407235D+03 0.266263707771016D+03 -.276779952999923D+03
 0.745445053077032D+03 0.460902635139986D+03 -.185846018460928D+03 0.555624284476711D+03
 0.303684878164394D+03 0.894613842672482D+02 -.804176893100886D+02 -.278844331476788D+03
 0.000000000000000D+00 -.000000000000000D+00 -.000000000000000D+00 -.000000000000000D+00
 0.873748178567160D+03 0.000000000000000D+00 0.000000000000000D+00 0.873748178567160D+03
 0.881068784171168D+03 0.000000000000000D+00 0.000000000000000D+00 -.881068784171168D+03
 0.675912004958612D+03 -.541860972164164D+03 0.266479985946108D+03 -.276779952999923D+03
 0.751213940072209D+03 0.470269920797190D+03 -.185607758059734D+03 0.555624284476711D+03
 0.304802966827736D+03 0.932697865078842D+02 -.803208211799849D+02 -.278844331476788D+03
 0.228880508797717D+02 -.216787351409101D+02 -.551406706388776D+00 -.732060560400817D+01
0.361450185052D-03 0.000000000000D+00 0.000000000000D+00 0.890392946271D-06 0.000000000000D+00  6 3 2 25 4 1 21 0 0.33426468D-01 0.53090257D+00 0.38520039D+06 0.38520039D+06 0.38520039D+06 0.10766099D+01  1  2  2  2  6  2        2 0.241645911267D-03 0.100000000000D+01
0.449454105731D-04 0.000000000000D+00 -.138806388262D-05 0.890392946271D-06 0.000000000000D+00  6 3 2 25 4 1 21 2 0.33426468D-01 0.53090257D+00 0.38520039D+06 0.38520039D+06 0.38520039D+06 0.10766099D+01  1  2  3  2  6  2        2 0.348283683385D-04 0.100000000000D+01
-.216557532332D-03 0.000000000000D+00 0.000000000000D+00 0.890392946271D-06 0.000000000000D+00  6 3 2 25 4 1 21 2 0.33426468D-01 0.53090257D+00 0.38520039D+06 0.38520039D+06 0.38520039D+06 0.10766099D+01  1  2 15  2  6  2        2 -.167811249388D-03 0.100000000000D+01
-.127605510572D-04 0.000000000000D+00 0.000000000000D+00 0.890392946271D-06 0.000000000000D+00  6 3 2 25 4 1 21 2 0.33426468D-01 0.53090257D+00 0.38520039D+06 0.38520039D+06 0.38520039D+06 0.10766099D+01  1  2  4  2  6  2        2 -.988819918995D-05 0.100000000000D+01
-.179504740053D-01 0.000000000000D+00 -.225831588528D-02 0.890392946271D-06 0.000000000000D+00  6 3 2 25 4 1 21 2 0.33426468D-01 0.54151029D+00 0.38520039D+06 0.38520039D+06 0.38520039D+06 0.10766099D+01  1  2  5  2  6  2        2 -.124272300002D-01 0.100000000000D+01
0.180014147962D-01 0.000000000000D+00 0.226388930669D-02 0.890392946271D-06 0.000000000000D+00  6 3 2 25 4 1 21 2 0.33426468D-01 0.53090257D+00 0.38520039D+06 0.38520039D+06 0.38520039D+06 0.10766099D+01  1  2  6  2  6  2        2 0.139493642875D-01 0.100000000000D+01
-.643297380151D-04 0.000000000000D+00 -.813388115974D-05 0.890392946271D-06 0.000000000000D+00  6 3 21 25 4 1 -2 2 0.33426468D-01 0.54151029D+00 0.38520039D+06 0.38520039D+06 0.38520039D+06 0.10766099D+01  1  2  5  6  6  2        2 -.151199462910D-05 0.100000000000D+01
  </mgrwgt>
  </event>
  <event>
  5     66 0.20805674E-05 0.11760437E+03 0.75467711E-02 0.94333460E-01
        3 -1    0    0  501    0 0.00000000E+00 0.00000000E+00 0.17834188E+04 0.17834189E+04 0.50000000E+00 0.0000E+00 0.9000E+01
        2 -1    0    0  502    0 0.00000000E+00 0.00000000E+00 -.10055541E+04 0.10055541E+04 0.32000000E+00 0.0000E+00 0.9000E+01
       25  1    1    2    0    0 0.40752997E+03 -.27994164E+03 -.55466712E+03 0.75347768E+03 0.12500000E+03 0.0000E+00 0.9000E+01
        4  1    1    2  501    0 -.12088857E+03 0.88373934E+01 0.15702190E+04 0.15748912E+04 0.15500000E+01 0.0000E+00 0.9000E+01
        1  1    1    2  502    0 -.28664141E+03 0.27110425E+03 -.23768718E+03 0.46060407E+03 0.32000000E+00 0.0000E+00 0.9000E+01
#aMCatNLO 1  0  0  4  5 0.12237920D+03 0.00000000D+00  -5  6  0 0.00000000D+00 0.00000000D+00 0.00000000D+00 0.00000000D+00 0.00000000D+00
  <mgrwgt>
 0.4283247567D-03    1    2    0
 0.133915053669121D+04 0.000000000000000D+00 0.000000000000000D+00 0.133915053669121D+04
 0.133915053669121D+04 -.000000000000000D+00 -.000000000000000D+00 -.133915053669121D+04
 0.945683928535035D+03 0.407712601034781D+03 -.280091831108364D+03 -.796248763762478D+03
 0.118376226250428D+04 -.120871923861744D+03 0.883617666062216D+01 0.117754192882174D+04
 0.548854882343112D+03 -.286840677173037D+03 0.271255654447742D+03 -.381293165059265D+03
 0.000000000000000D+00 0.000000000000000D+00 0.000000000000000D+00 -.000000000000000D+00
 0.133915053669121D+04 0.000000000000000D+00 0.000000000000000D+00 0.133915053669121D+04
 0.133915053669121D+04 -.000000000000000D+00 -.000000000000000D+00 -.133915053669121D+04
 0.809621573607796D+03 0.391603100929469D+03 -.278914168138363D+03 -.639308994622532D+03
 0.897335729983011D+03 0.258887782793966D+03 0.301451710197924D+03 0.804559130606890D+03
 0.494732689734754D+03 -.296418311426315D+03 0.271955814299170D+03 -.287987246266623D+03
 0.476611080056864D+03 -.354072572297119D+03 -.294493356358731D+03 0.122737110282265D+03
0.631788039009D-02 0.000000000000D+00 0.000000000000D+00 0.172594762901D-04 0.000000000000D+00  6 3 2 25 4 1 21 2 0.27437213D+00 0.15470063D+00 0.26326337D+06 0.26326337D+06 0.26326337D+06 0.10887742D+01  1  2 14  3  6  4        4 0.428324756689D-03 0.100000000000D+01
  </mgrwgt>
  </event>
  <event>
  6     66 0.20805674E-05 0.56336501E+02 0.75467711E-02 0.93710493E-01
        3 -1    0    0  501    0 0.00000000E+00 0.00000000E+00 0.76781031E+03 0.76781047E+03 0.50000000E+00 0.0000E+00 0.9000E+01
        2 -1    0    0  503    0 0.00000000E+00 0.00000000E+00 -.16560615E+04 0.16560615E+04 0.32000000E+00 0.0000E+00 0.9000E+01
       25  1    1    2    0    0 0.27394185E+03 0.42002258E+03 -.65371467E+03 0.83332525E+03 0.12500000E+03 0.0000E+00 0.9000E+01
        4  1    1    2  501    0 0.35255436E+02 -.71020131E+02 0.56772086E+03 0.57323310E+03 0.15500000E+01 0.0000E+00 0.9000E+01
        1  1    1    2  502    0 0.11957847E+02 -.44135669E+02 0.43202978E+02 0.62909039E+02 0.32000000E+00 0.0000E+00 0.9000E+01
       21  1    1    2  503  502 -.32115513E+03 -.30486678E+03 -.84546032E+03 0.95440458E+03 0.75000000E+00 0.0000E+00 0.9000E+01
#aMCatNLO 2  0  0  2  2 0.29120395D+03 0.00000000D+00  -5  6  0 0.00000000D+00 0.00000000D+00 0.00000000D+00 0.00000000D+00 0.00000000D+00
  <mgrwgt>
 0.2757941032D-02    1    2    0
 0.700253345087146D+03 0.000000000000000D+00 0.000000000000000D+00 0.700253345087146D+03
 0.700253345087146D+03 0.000000000000000D+00 0.000000000000000D+00 -.700253345087146D+03
 0.700100871011865D+03 0.104450258246740D+03 0.259231352766060D+03 -.629607400597261D+03
 0.626052263813063D+03 -.100848224044137D+03 -.200199823970132D+03 0.584543499848329D+03
 0.743535553493634D+02 -.360203420260299D+01 -.590315287959286D+02 0.450639007489322D+02
 0.000000000000000D+00 -.000000000000000D+00 -.000000000000000D+00 -.000000000000000D+00
 0.790504105692798D+03 0.000000000000000D+00 0.000000000000000D+00 0.790504105692798D+03
 0.160851896117177D+04 0.000000000000000D+00 0.000000000000000D+00 -.160851896117177D+04
 0.814644366948134D+03 0.273989719421848D+03 0.420172106837928D+03 -.629607400597261D+03
 0.589894399459028D+03 0.352478909609563D+02 -.710062355078653D+02 0.584543499848329D+03
 0.643054598382040D+02 0.119175225735789D+02 -.442990933315967D+02 0.450639007489322D+02
 0.930178840619200D+03 -.321155132956384D+03 -.304866777998466D+03 -.818014855478970D+03
0.450506855334D-02 0.000000000000D+00 0.000000000000D+00 0.314073920656D-07 0.388114565825D-09  6 3 2 25 4 1 21 2 0.11812466D+00 0.25477866D+00 0.29425984D+06 0.29425984D+06 0.29425984D+06 0.10851732D+01  1  2  1  2  6  2        2 0.275794103213D-02 0.100000000000D+01
  </mgrwgt>
  </event>
  <event>
  6     66 0.20805674E-05 0.47259845E+02 0.75467711E-02 0.92967598E-01
        3 -1    0    0  501    0 0.00000000E+00 0.00000000E+00 0.61101592E+03 0.61101612E+03 0.50000000E+00 0.0000E+00 0.9000E+01
        2 -1    0    0  503    0 0.00000000E+00 0.00000000E+00 -.14141545E+04 0.14141546E+04 0.32000000E+00 0.0000E+00 0.9000E+01
       25  1    1    2    0    0 -.65231992E+02 0.46334493E+03 -.13650125E+03 0.50319115E+03 0.12500000E+03 0.0000E+00 0.9000E+01
        4  1    1    2  501    0 0.35673489E+02 0.31098658E+02 0.25341270E+03 0.25779861E+03 0.15500000E+01 0.0000E+00 0.9000E+01
        1  1    1    2  502    0 0.70050071E+02 -.55258493E+03 -.28592084E+03 0.62610539E+03 0.32000000E+00 0.0000E+00 0.9000E+01
       21  1    1    2  503  502 -.40491568E+02 0.58141344E+02 -.63412920E+03 0.63807554E+03 0.75000000E+00 0.0000E+00 0.9000E+01
#aMCatNLO 2  0  0  2  2 0.70851838D+02 0.00000000D+00  -5  6  0 0.00000000D+00 0.00000000D+00 0.00000000D+00 0.00000000D+00 0.00000000D+00
  <mgrwgt>
 0.3874220673D-02    1    2    0
 0.687467956120802D+03 0.000000000000000D+00 0.000000000000000D+00 0.687467956120802D+03
 0.687467956120802D+03 0.000000000000000D+00 0.000000000000000D+00 -.687467956120802D+03
 0.512940831987013D+03 -.800144434067270D+02 0.485179406936509D+03 -.753785715610087D+02
 0.290615573098542D+03 0.270231599867449D+02 0.432729686711801D+02 0.286102447270392D+03
 0.571379507156050D+03 0.529912834199821D+02 -.528452375607689D+03 -.210723875709384D+03
 0.000000000000000D+00 -.000000000000000D+00 0.000000000000000D+00 -.000000000000000D+00
 0.690610072401445D+03 0.000000000000000D+00 0.000000000000000D+00 0.690610072401445D+03
 0.125116991020752D+04 0.000000000000000D+00 0.000000000000000D+00 -.125116991020752D+04
 0.490748435179619D+03 -.652450248411659D+02 0.463972180539030D+03 -.753785715610087D+02
 0.289967134344048D+03 0.355665103030762D+02 0.310056770681184D+02 0.286102447270392D+03
 0.596044665868068D+03 0.701700824955378D+02 -.553119201834797D+03 -.210723875709384D+03
 0.565019747217235D+03 -.404915679574481D+02 0.581413442276485D+02 -.560559837806079D+03
0.269060699920D-02 0.000000000000D+00 0.000000000000D+00 0.290347904587D-05 0.388323174272D-08  6 3 2 25 4 1 21 2 0.94002434D-01 0.21756217D+00 0.33669765D+06 0.33669765D+06 0.33669765D+06 0.10808632D+01  1  2  1  2  6  2        2 0.387422067301D-02 0.100000000000D+01
  </mgrwgt>
  </event>
  <event>
  5     66 0.20805674E-05 0.23133775E+03 0.75467711E-02 0.85837768E-01
        3 -1    0    0  501    0 0.00000000E+00 0.00000000E+00 0.12486070E+04 0.12486071E+04 0.50000000E+00 0.0000E+00 0.9000E+01
        2 -1    0    0  502    0 0.00000000E+00 0.00000000E+00 -.96808765E+03 0.96808770E+03 0.32000000E+00 0.0000E+00 0.9000E+01
       25  1    1    2    0    0 0.62728086E+03 -.13365201E+03 0.25975355E+03 0.70316502E+03 0.12500000E+03 0.0000E+00 0.9000E+01
        4  1    1    2  501    0 -.39742863E+03 0.10915123E+03 0.69098639E+03 0.80456703E+03 0.15500000E+01 0.0000E+00 0.9000E+01
        1  1    1    2  502    0 -.22985223E+03 0.24500783E+02 -.67022063E+03 0.70896271E+03 0.32000000E+00 0.0000E+00 0.9000E+01
#aMCatNLO 1  0  0  1  4 0.89031898D+02 0.00000000D+00  -5  6  0 0.00000000D+00 0.00000000D+00 0.00000000D+00 0.00000000D+00 0.00000000D+00
  <mgrwgt>
 0.4417560209D-03    3    2    0
 0.109943673969387D+04 0.000000000000000D+00 0.000000000000000D+00 0.109943673969387D+04
 0.109943673969387D+04 0.000000000000000D+00 0.000000000000000D+00 -.109943673969387D+04
 0.675826444396183D+03 0.627179770482043D+03 -.133597282231765D+03 0.172955730242060D+03
 0.722419285660516D+03 -.397145563658617D+03 0.109073487288206D+03 0.593521692890259D+03
 0.800627749331034D+03 -.230034206823426D+03 0.245237949435596D+02 -.766477423132319D+03
 0.000000000000000D+00 -.000000000000000D+00 0.000000000000000D+00 -.000000000000000D+00
 0.160698033969664D+04 0.000000000000000D+00 0.000000000000000D+00 0.160698033969664D+04
 0.163200373807310D+04 0.000000000000000D+00 0.000000000000000D+00 -.163200373807310D+04
 0.858847358200372D+03 0.723390476377995D+03 -.410836121525129D+03 0.172955730242060D+03
 0.684665409906747D+03 -.308933585590789D+03 -.145116378419091D+03 0.593521692890259D+03
 0.822265496923271D+03 -.128292908736677D+03 -.268651887815432D+03 -.766477423132319D+03
 0.873205812739352D+03 -.286163982050529D+03 0.824604387759652D+03 -.250233983764640D+02
0.381931064038D-02 0.000000000000D+00 0.000000000000D+00 0.204104785545D-05 0.000000000000D+00  6 3 2 25 4 1 21 0 0.19209339D+00 0.14893657D+00 0.42023437D+06 0.42023437D+06 0.42023437D+06 0.10738860D+01  1  2  2  1  6  1        3 0.112264303712D-02 0.100000000000D+01
0.419528789183D-03 0.000000000000D+00 -.146671585066D-04 0.204104785545D-05 0.000000000000D+00  6 3 2 25 4 1 21 2 0.19209339D+00 0.14893657D+00 0.42023437D+06 0.42023437D+06 0.42023437D+06 0.10738860D+01  1  2  3  1  6  1        3 0.142211549459D-03 0.100000000000D+01
-.242816807751D-02 0.000000000000D+00 0.000000000000D+00 0.204104785545D-05 0.000000000000D+00  6 3 2 25 4 1 21 2 0.19209339D+00 0.14893657D+00 0.42023437D+06 0.42023437D+06 0.42023437D+06 0.10738860D+01  1  2 15  1  6  1        3 -.823098565709D-03 0.100000000000D+01
  </mgrwgt>
  </event>
  <event>
  6     66 -.20805674E-05 0.47092282E+02 0.75467711E-02 0.94356231E-01
        3 -1    0    0  501    0 0.00000000E+00 0.00000000E+00 0.22361566E+03 0.22361622E+03 0.50000000E+00 0.0000E+00 0.9000E+01
        2 -1    0    0  502    0 -.00000000E+00 -.00000000E+00 -.14550476E+04 0.14550477E+04 0.32000000E+00 0.0000E+00 0.9000E+01
       25  1    1    2    0    0 0.13874932E+03 0.42414604E+03 -.43170221E+03 0.63335854E+03 0.12500000E+03 0.0000E+00 0.9000E+01
        4  1    1    2  503    0 -.20936146E+03 -.38262604E+03 -.29443465E+03 0.52624050E+03 0.15500000E+01 0.0000E+00 0.9000E+01
        1  1    1    2  502    0 0.67215920E+02 -.12445301E+01 -.41111177E+03 0.41657235E+03 0.32000000E+00 0.0000E+00 0.9000E+01
       21  1    1    2  501  503 0.33962201E+01 -.40275471E+02 -.94183341E+02 0.10249250E+03 0.75000000E+00 0.0000E+00 0.9000E+01
#aMCatNLO 2  0  0  4  1 0.40693877D+02 0.00000000D+00  -5  6  0 0.00000000D+00 0.00000000D+00 0.00000000D+00 0.00000000D+00 0.00000000D+00
  <mgrwgt>
 -.1882903862D-01    2    2    0
 0.570413827705214D+03 0.000000000000000D+00 0.000000000000000D+00 0.570413827705214D+03
 0.570413827705214D+03 -.000000000000000D+00 -.000000000000000D+00 -.570413827705214D+03
 0.474536850045862D+03 0.142662844065878D+03 0.432457876571210D+03 0.467730688110580D+02
 0.495329551351116D+03 -.211498444406059D+03 -.434262648056351D+03 0.109707451700425D+03
 0.170961254013450D+03 0.688356003401815D+02 0.180477148514092D+01 -.156480520511483D+03
 0.000000000000000D+00 0.000000000000000D+00 -.000000000000000D+00 0.000000000000000D+00
 0.570413827705214D+03 0.000000000000000D+00 0.000000000000000D+00 0.570413827705214D+03
 0.570413827705214D+03 -.000000000000000D+00 -.000000000000000D+00 -.570413827705214D+03
 0.465758607139999D+03 0.138514936492211D+03 0.423941117349212D+03 0.489246513963285D+02
 0.456182345948831D+03 -.209247096683696D+03 -.382297747007066D+03 0.134782854689104D+03
 0.169641491085072D+03 0.673331058899434D+02 -.128024987509979D+01 -.155701153846198D+03
 0.492452112365270D+02 0.339905430154133D+01 -.403631204670463D+02 -.280063522392340D+02
-.161400504662D-02 0.000000000000D+00 0.000000000000D+00 0.363912293230D-06 0.000000000000D+00  6 3 2 25 4 1 21 2 0.34402455D-01 0.22385353D+00 0.25343649D+06 0.25343649D+06 0.25343649D+06 0.10900133D+01  1  2 13  3  6  4        4 -.187876194049D-01 0.100000000000D+01
-.356855495451D-05 0.000000000000D+00 0.000000000000D+00 0.363912293230D-06 0.000000000000D+00  6 3 2 25 4 1 21 2 0.34402455D-01 0.22385353D+00 0.26220183D+06 0.26220183D+06 0.26220183D+06 0.10889056D+01  1  2  8  3  6  4        4 -.414192106990D-04 0.100000000000D+01
  </mgrwgt>
  </event>
  <event>
  5     66 -.20805674E-05 0.68721677E+02 0.75467711E-02 0.93874284E-01
        3 -1    0    0  501    0 0.00000000E+00 0.00000000E+00 0.64549568E+03 0.64549587E+03 0.50000000E+00 0.0000E+00 0.9000E+01
        2 -1    0    0  502    0 -.00000000E+00 -.00000000E+00 -.14294961E+04 0.14294962E+04 0.32000000E+00 0.0000E+00 0.9000E+01
       25  1    1    2    0    0 -.47381455E+03 -.38926641E+02 -.19813056E+02 0.49196856E+03 0.12500000E+03 0.0000E+00 0.9000E+01
        4  1    1    2  501    0 -.15021224E+02 0.67148190E+02 0.35489498E+03 0.36150707E+03 0.15500000E+01 0.0000E+00 0.9000E+01
        1  1    1    2  502    0 0.48883577E+03 -.28221549E+02 -.11190824E+04 0.12215164E+04 0.32000000E+00 0.0000E+00 0.9000E+01
#aMCatNLO 1  0  0  5  1 0.88107947D+02 0.00000000D+00  -5  6  0 0.00000000D+00 0.00000000D+00 0.00000000D+00 0.00000000D+00 0.00000000D+00
  <mgrwgt>
 -.3090889575D-02    6    2    0
 0.960590344846469D+03 0.000000000000000D+00 0.000000000000000D+00 0.960590344846469D+03
 0.960590344846469D+03 -.000000000000000D+00 -.000000000000000D+00 -.960590344846469D+03
 0.523820312961263D+03 -.474221265279395D+03 -.388443038342491D+02 0.179911177771915D+03
 0.534603706494516D+03 -.150024177460568D+02 0.670641216003199D+02 0.530168326150690D+03
 0.862756670237160D+03 0.489223683025452D+03 -.282198177660707D+02 -.710079503922605D+03
 0.000000000000000D+00 0.000000000000000D+00 0.000000000000000D+00 -.000000000000000D+00
 0.960590344846469D+03 0.000000000000000D+00 0.000000000000000D+00 0.960590344846469D+03
 0.960590344846469D+03 -.000000000000000D+00 -.000000000000000D+00 -.960590344846469D+03
 0.518093907121727D+03 -.470116273597314D+03 -.390810914657947D+02 0.173953022927094D+03
 0.528442825117298D+03 -.108141678058798D+02 0.668225313949160D+02 0.524089326823771D+03
 0.677268264193427D+03 0.438952482941146D+03 0.322631341811679D+02 -.514754416762196D+03
 0.197375693260487D+03 0.419779584620479D+02 -.600045741102893D+02 -.183287932988670D+03
0.100133608186D-02 0.000000000000D+00 0.000000000000D+00 0.388945235027D-04 0.000000000000D+00  6 3 2 25 4 1 21 0 0.99307045D-01 0.21992250D+00 0.27599974D+06 0.27599974D+06 0.27599974D+06 0.10872412D+01  1  2  2  4  6  5        1 0.107139512910D-02 0.100000000000D+01
0.283118825463D-03 0.000000000000D+00 -.384539421217D-05 0.388945235027D-04 0.000000000000D+00  6 3 2 25 4 1 21 2 0.99307045D-01 0.21992250D+00 0.27599974D+06 0.27599974D+06 0.27599974D+06 0.10872412D+01  1  2  3  4  6  5        1 0.358088509156D-03 0.100000000000D+01
-.701080109047D-03 0.000000000000D+00 0.000000000000D+00 0.388945235027D-04 0.000000000000D+00  6 3 2 25 4 1 21 2 0.99307045D-01 0.21992250D+00 0.27599974D+06 0.27599974D+06 0.27599974D+06 0.10872412D+01  1  2 15  4  6  5        1 -.886725673001D-03 0.100000000000D+01
-.437097052045D-02 0.000000000000D+00 0.000000000000D+00 0.388945235027D-04 0.000000000000D+00  6 3 2 25 4 1 21 2 0.99307045D-01 0.21992250D+00 0.27599974D+06 0.27599974D+06 0.27599974D+06 0.10872412D+01  1  2  4  4  6  5        1 -.552840071542D-02 0.100000000000D+01
-.589596892953D-02 0.000000000000D+00 0.000000000000D+00 0.388945235027D-04 0.000000000000D+00  6 3 2 25 4 1 21 2 0.99307045D-01 0.21992250D+00 0.27599974D+06 0.27599974D+06 0.27599974D+06 0.10872412D+01  1  2  5  4  6  5        1 -.745721772672D-02 0.100000000000D+01
0.739403513314D-02 0.000000000000D+00 -.000000000000D+00 0.388945235027D-04 0.000000000000D+00  6 3 2 25 4 1 21 2 0.99307045D-01 0.21992250D+00 0.27599974D+06 0.27599974D+06 0.27599974D+06 0.10872412D+01  1  2  6  4  6  5        1 0.935197090178D-02 0.100000000000D+01
  </mgrwgt>
  </event>
  <event>
  6     66 0.20805674E-05 0.75208892E+02 0.75467711E-02 0.92814467E-01
        3 -1    0    0  501    0 0.00000000E+00 0.00000000E+00 0.65869103E+03 0.65869122E+03 0.50000000E+00 0.0000E+00 0.9000E+01
        2 -1    0    0  502    0 -.00000000E+00 -.00000000E+00 -.16749012E+04 0.16749012E+04 0.32000000E+00 0.0000E+00 0.9000E+01
       25  1    1    2    0    0 -.46950735E+03 -.19660727E+03 0.19515567E+03 0.55928732E+03 0.12500000E+03 0.0000E+00 0.9000E+01
        4  1    1    2  503    0 0.90437520E+02 0.77945969E+02 0.21554814E+03 0.24641007E+03 0.15500000E+01 0.0000E+00 0.9000E+01
        1  1    1    2  502    0 0.44214699E+03 0.58635121E+02 -.12965714E+04 0.13711417E+04 0.32000000E+00 0.0000E+00 0.9000E+01
       21  1    1    2  501  503 -.63077162E+02 0.60026185E+02 -.13034254E+03 0.15675335E+03 0.75000000E+00 0.0000E+00 0.9000E+01
#aMCatNLO 2  0  0  4  5 0.10312301D+03 0.00000000D+00  -5  6  0 0.00000000D+00 0.00000000D+00 0.00000000D+00 0.00000000D+00 0.00000000D+00
  <mgrwgt>
 0.4186229264D-03    1    2    0
 0.105035358599794D+04 0.000000000000000D+00 0.000000000000000D+00 0.105035358599794D+04
 0.105035358599794D+04 -.000000000000000D+00 -.000000000000000D+00 -.105035358599794D+04
 0.693019295252774D+03 -.474842838192632D+03 -.221125235630755D+03 0.436209413902383D+03
 0.455536208751924D+03 0.387040083730630D+02 0.195175639368748D+03 0.409782511848584D+03
 0.952151667991173D+03 0.436138829819569D+03 0.259495962620067D+02 -.845991925750967D+03
 0.000000000000000D+00 0.000000000000000D+00 0.000000000000000D+00 -.000000000000000D+00
 0.105035358599794D+04 0.000000000000000D+00 0.000000000000000D+00 0.105035358599794D+04
 0.105035358599794D+04 -.000000000000000D+00 -.000000000000000D+00 -.105035358599794D+04
 0.716758788455276D+03 -.469880565448034D+03 -.196101606390250D+03 0.488747966761269D+03
 0.376507558023869D+03 0.903964040594078D+02 0.771406198804668D+02 0.357261467481007D+03
 0.896260054701273D+03 0.442645047513197D+03 0.587589938310197D+02 -.777106703232660D+03
 0.111180770815453D+03 -.631608861245710D+02 0.602019926787636D+02 -.689027310096155D+02
0.486183770143D-03 0.000000000000D+00 0.000000000000D+00 0.151752540222D-05 0.614040815554D-09  6 3 2 25 4 1 21 2 0.10133710D+00 0.25767712D+00 0.34627324D+06 0.34627324D+06 0.34627324D+06 0.10799727D+01  1  2  1  3  6  4        4 0.418622926444D-03 0.100000000000D+01
  </mgrwgt>
  </event>
  <event>
  6     66 0.20805674E-05 0.10424528E+03 0.75467711E-02 0.92515951E-01
       21 -1    0    0  501  503 0.00000000E+00 0.00000000E+00 0.95815467E+03 0.95815497E+03 0.75000000E+00 0.0000E+00 0.9000E+01
        2 -1    0    0  502    0 0.00000000E+00 0.00000000E+00 -.57828097E+03 0.57828106E+03 0.32000000E+00 0.0000E+00 0.9000E+01
       25  1    1    2    0    0 -.37623074E+03 -.32346985E+03 0.24460683E+02 0.51225545E+03 0.12500000E+03 0.0000E+00 0.9000E+01
        4  1    1    2  501    0 0.33784267E+02 -.10923130E+03 0.24500977E+03 0.27037944E+03 0.15500000E+01 0.0000E+00 0.9000E+01
        1  1    1    2  502    0 0.33770853E+03 0.45135667E+03 -.73864971E+02 0.56852971E+03 0.32000000E+00 0.0000E+00 0.9000E+01
       -3  1    1    2    0  503 0.47379439E+01 -.18655509E+02 0.18426822E+03 0.18527143E+03 0.50000000E+00 0.0000E+00 0.9000E+01
#aMCatNLO 2  0  0  1  4 0.19247756D+02 0.00000000D+00  -5  6  0 0.00000000D+00 0.00000000D+00 0.00000000D+00 0.00000000D+00 0.00000000D+00
  <mgrwgt>
 0.2460334493D-03    2    2    0
 0.668396176105470D+03 0.000000000000000D+00 0.000000000000000D+00 0.668396176105470D+03
 0.668396176105470D+03 0.000000000000000D+00 0.000000000000000D+00 -.668396176105470D+03
 0.518033993435375D+03 -.374746315488055D+03 -.331367947518121D+03 -.499469792916192D+02
 0.238097006807323D+03 0.344870385392987D+02 -.112095730800725D+03 0.207208532545469D+03
 0.580661351968241D+03 0.340259276948756D+03 0.443463678318847D+03 -.157261553253850D+03
 0.000000000000000D+00 0.000000000000000D+00 -.000000000000000D+00 0.000000000000000D+00
 0.828168405480270D+03 0.000000000000000D+00 0.000000000000000D+00 0.828168405480270D+03
 0.669045402708509D+03 0.000000000000000D+00 0.000000000000000D+00 -.669045402708509D+03
 0.514791507095259D+03 -.376576523327980D+03 -.324161560206114D+03 -.499469792916192D+02
 0.236435111153989D+03 0.336461487644596D+02 -.108784753068030D+03 0.207208532545469D+03
 0.585704295843995D+03 0.338192430659863D+03 0.451601822275630D+03 -.157261553253850D+03
 0.160282894095536D+03 0.473794390365773D+01 -.186555090014863D+02 0.159123002771762D+03
-.155860964226D-04 0.000000000000D+00 0.000000000000D+00 0.125423463525D-06 0.000000000000D+00  6 21 2 25 4 1 -3 2 0.15011063D+00 0.88879950D-01 0.36582945D+06 0.36582945D+06 0.36582945D+06 0.10782345D+01  1  2 13  5  6  1        3 -.283751729876D-03 0.100000000000D+01
0.275982262912D-04 0.000000000000D+00 0.000000000000D+00 0.125423463525D-06 0.110639347691D-09  6 21 2 25 4 1 -3 2 0.14740835D+00 0.88966281D-01 0.36582945D+06 0.36582945D+06 0.36582945D+06 0.10782345D+01  1  2  1  5  6  1        3 0.529785179186D-03 0.100000000000D+01
  </mgrwgt>
  </event>
  <event>
  5     66 0.20805674E-05 0.71854804E+02 0.75467711E-02 0.95108016E-01
        3 -1    0    0  501    0 0.00000000E+00 0.00000000E+00 0.11512790E+04 0.11512791E+04 0.50000000E+00 0.0000E+00 0.9000E+01
        2 -1    0    0  502    0 0.00000000E+00 0.00000000E+00 -.20764262E+03 0.20764287E+03 0.32000000E+00 0.0000E+00 0.9000E+01
       25  1    1    2    0    0 0.41283578E+03 0.20630135E+03 0.50187772E+03 0.69318099E+03 0.12500000E+03 0.0000E+00 0.9000E+01
        4  1    1    2  501    0 -.98940335E+02 -.11887884E+03 0.22987237E+03 0.27706512E+03 0.15500000E+01 0.0000E+00 0.9000E+01
        1  1    1    2  502    0 -.31389545E+03 -.87422502E+02 0.21188630E+03 0.38867590E+03 0.32000000E+00 0.0000E+00 0.9000E+01
#aMCatNLO 1  0  0  2  2 0.36118553D+03 0.00000000D+00  -5  6  0 0.00000000D+00 0.00000000D+00 0.00000000D+00 0.00000000D+00 0.00000000D+00
  <mgrwgt>
 0.2915729826D-04    1    2    0
 0.488932346247562D+03 0.000000000000000D+00 0.000000000000000D+00 0.488932346247562D+03
 0.488932346247562D+03 0.000000000000000D+00 0.000000000000000D+00 -.488932346247562D+03
 0.479053813969629D+03 0.412993210908455D+03 0.206017813528446D+03 0.293398181884323D+02
 0.162192693589630D+03 -.983301263401131D+02 -.118145666097062D+03 0.517615464440407D+02
 0.336618184935865D+03 -.314663084568342D+03 -.878721474313845D+02 -.811013646324730D+02
 0.000000000000000D+00 -.000000000000000D+00 -.000000000000000D+00 -.000000000000000D+00
 0.494768530575479D+03 0.000000000000000D+00 0.000000000000000D+00 0.494768530575479D+03
 0.720219257748039D+03 0.000000000000000D+00 0.000000000000000D+00 -.720219257748039D+03
 0.510976295784416D+03 0.444603666860557D+03 0.216653015987269D+03 0.293398181884323D+02
 0.153733785647947D+03 -.882429785274846D+02 -.114751888437482D+03 0.517615464440407D+02
 0.315376580799615D+03 -.293845685561758D+03 -.808682227351828D+02 -.811013646324730D+02
 0.234901126091540D+03 -.625150027713136D+02 -.210329048146045D+02 -.225450727172560D+03
0.100646724273D-04 0.000000000000D+00 0.000000000000D+00 0.487697053222D-08 0.000000000000D+00  6 3 2 25 4 1 21 2 0.17711988D+00 0.31945047D-01 0.22971326D+06 0.22971326D+06 0.22971326D+06 0.10932349D+01  1  2 14  2  6  2        2 0.291572982569D-04 0.100000000000D+01
  </mgrwgt>
  </event>
  <event>
  6     66 -.20805674E-05 0.14669491E+03 0.75467711E-02 0.91061760E-01
        3 -1    0    0  501    0 0.00000000E+00 0.00000000E+00 0.89323915E+03 0.89323929E+03 0.50000000E+00 0.0000E+00 0.9000E+01
        2 -1    0    0  502    0 -.00000000E+00 -.00000000E+00 -.18048433E+04 0.18048433E+04 0.32000000E+00 0.0000E+00 0.9000E+01
       25  1    1    2    0    0 0.16430847E+03 0.53970156E+03 -.58747396E+03 0.82403016E+03 0.12500000E+03 0.0000E+00 0.9000E+01
        4  1    1    2  503    0 -.55728736E+02 0.61772004E+02 0.37114655E+03 0.38035988E+03 0.15500000E+01 0.0000E+00 0.9000E+01
        1  1    1    2  502    0 -.33647573E+02 -.63956838E+03 -.99450171E+03 0.11828836E+04 0.32000000E+00 0.0000E+00 0.9000E+01
       21  1    1    2  501  503 -.74932159E+02 0.38094813E+02 0.29922500E+03 0.31080895E+03 0.75000000E+00 0.0000E+00 0.9000E+01
#aMCatNLO 2  0  0  4  1 0.17660763D+02 0.00000000D+00  -5  6  0 0.00000000D+00 0.00000000D+00 0.00000000D+00 0.00000000D+00 0.00000000D+00
  <mgrwgt>
 -.4354953208D-03    2    2    0
 0.126970740484063D+04 0.000000000000000D+00 0.000000000000000D+00 0.126970740484063D+04
 0.126970740484063D+04 -.000000000000000D+00 -.000000000000000D+00 -.126970740484063D+04
 0.665071189704577D+03 0.164373763119078D+03 0.540248595885890D+03 -.328340384382517D+03
 0.974236989694644D+03 -.130645216591394D+03 0.998548345687854D+02 0.960259627123993D+03
 0.900106630282032D+03 -.337285465276839D+02 -.640103430454676D+03 -.631919242741476D+03
 0.000000000000000D+00 -.000000000000000D+00 0.000000000000000D+00 0.000000000000000D+00
 0.126970740484063D+04 0.000000000000000D+00 0.000000000000000D+00 0.126970740484063D+04
 0.126970740484063D+04 -.000000000000000D+00 -.000000000000000D+00 -.126970740484063D+04
 0.664997267216073D+03 0.164351047197950D+03 0.540265958133093D+03 -.328173419356769D+03
 0.535673732189229D+03 -.555303238604939D+02 0.615880213979559D+02 0.529216067509077D+03
 0.899932449089956D+03 -.337592889646926D+02 -.640079933375779D+03 -.631693281762046D+03
 0.438811361185994D+03 -.750614343727634D+02 0.382259538447300D+02 0.430650633609738D+03
-.599613927384D-02 0.000000000000D+00 0.000000000000D+00 0.300422369007D-05 0.000000000000D+00  6 3 2 25 4 1 21 2 0.13742142D+00 0.27766821D+00 0.48060252D+06 0.48060252D+06 0.48060252D+06 0.10697270D+01  1  2 13  3  6  4        4 -.190983635408D-02 0.100000000000D+01
0.462885427521D-02 0.000000000000D+00 0.000000000000D+00 0.300422369007D-05 0.158101934777D-07  6 3 2 25 4 1 21 2 0.13742142D+00 0.27766821D+00 0.48060252D+06 0.48060252D+06 0.48060252D+06 0.10697270D+01  1  2  1  3  6  4        4 0.147434103325D-02 0.100000000000D+01
  </mgrwgt>
  </event>
  <event>
  5     66 0.20805674E-05 0.10863705E+03 0.75467711E-02 0.85432843E-01
        3 -1    0    0  501    0 0.00000000E+00 0.00000000E+00 0.78305341E+03 0.78305357E+03 0.50000000E+00 0.0000E+00 0.9000E+01
        2 -1    0    0  502    0 0.00000000E+00 0.00000000E+00 -.27423265E+04 0.27423265E+04 0.32000000E+00 0.0000E+00 0.9000E+01
       25  1    1    2    0    0 -.20437948E+03 -.74564480E+03 0.34559292E+03 0.85604709E+03 0.12500000E+03 0.0000E+00 0.9000E+01
        4  1    1    2  501    0 0.98213519E+02 0.47675795E+02 0.10903711E+03 0.15430609E+03 0.15500000E+01 0.0000E+00 0.9000E+01
        1  1    1    2  502    0 0.10616596E+03 0.69796901E+03 -.24139031E+04 0.25150269E+04 0.32000000E+00 0.0000E+00 0.9000E+01
#aMCatNLO 1  0  0  2  5 0.54284557D+02 0.00000000D+00  -5  6  0 0.00000000D+00 0.00000000D+00 0.00000000D+00 0.00000000D+00 0.00000000D+00
  <mgrwgt>
 0.1393042480D-03    7    2    0
 0.146539701567495D+04 0.000000000000000D+00 0.000000000000000D+00 0.146539701567495D+04
 0.146539701567495D+04 0.000000000000000D+00 0.000000000000000D+00 -.146539701567495D+04
 0.126175136571929D+04 -.203994583353985D+03 -.745800764591783D+03 0.989221379869557D+03
 0.257228604189183D+03 0.977308285807522D+02 0.474414823320696D+02 0.233162058903611D+03
 0.141181406144142D+04 0.106263754773232D+03 0.698359282259714D+03 -.122238343877317D+04
 0.000000000000000D+00 -.000000000000000D+00 0.000000000000000D+00 -.000000000000000D+00
 0.183876227263701D+04 0.000000000000000D+00 0.000000000000000D+00 0.183876227263701D+04
 0.188323291215853D+04 0.000000000000000D+00 0.000000000000000D+00 -.188323291215853D+04
 0.128979013698108D+04 0.914287596407465D+02 -.813028560982457D+03 0.989221379869557D+03
 0.285004996265096D+03 0.160511881822779D+03 0.331547579934913D+02 0.233162058903611D+03
 0.143982781195930D+04 0.436433408832247D+03 0.623224467073988D+03 -.122238343877317D+04
 0.707372239590064D+03 -.688374050295772D+03 0.156649335914978D+03 -.444706395215186D+02
0.101778646049D-02 0.000000000000D+00 0.000000000000D+00 0.697663522945D-06 0.000000000000D+00  6 3 2 25 4 1 21 0 0.12046977D+00 0.42189640D+00 0.63861679D+06 0.63861679D+06 0.63861679D+06 0.10610799D+01  1  2  2  2  6  2        2 0.115475417828D-03 0.100000000000D+01
0.117536021326D-03 0.000000000000D+00 -.390856799761D-05 0.697663522945D-06 0.000000000000D+00  6 3 2 25 4 1 21 2 0.12046977D+00 0.42189640D+00 0.63861679D+06 0.63861679D+06 0.63861679D+06 0.10610799D+01  1  2  3  2  6  2        2 0.150141241195D-04 0.100000000000D+01
-.745762557753D-03 0.000000000000D+00 0.000000000000D+00 0.697663522945D-06 0.000000000000D+00  6 3 2 25 4 1 21 2 0.12046977D+00 0.42189640D+00 0.63861679D+06 0.63861679D+06 0.63861679D+06 0.10610799D+01  1  2 15  2  6  2        2 -.952641707578D-04 0.100000000000D+01
-.114825853928D-04 0.000000000000D+00 0.000000000000D+00 0.697663522945D-06 0.000000000000D+00  6 3 2 25 4 1 21 2 0.12046977D+00 0.42189640D+00 0.63861679D+06 0.63861679D+06 0.63861679D+06 0.10610799D+01  1  2  4  2  6  2        2 -.146679256585D-05 0.100000000000D+01
-.826869140402D-03 0.000000000000D+00 -.594165167382D-03 0.697663522945D-06 0.000000000000D+00  6 3 2 25 4 1 21 2 0.12046977D+00 0.57903096D+00 0.63861679D+06 0.63861679D+06 0.63861679D+06 0.10610799D+01  1  2  5  2  6  2        2 -.213351661301D-04 0.100000000000D+01
0.993361087936D-03 0.000000000000D+00 0.565582560855D-03 0.697663522945D-06 0.000000000000D+00  6 3 2 25 4 1 21 2 0.12046977D+00 0.42189640D+00 0.63861679D+06 0.63861679D+06 0.63861679D+06 0.10610799D+01  1  2  6  2  6  2        2 0.126892560268D-03 0.100000000000D+01
-.187581060912D-04 0.000000000000D+00 -.238774146981D-04 0.697663522945D-06 0.000000000000D+00  6 3 21 25 4 1 -2 2 0.12046977D+00 0.57903096D+00 0.63861679D+06 0.63861679D+06 0.63861679D+06 0.10610799D+01  1  2  5  6  6  2        2 -.117247484263D-07 0.100000000000D+01
  </mgrwgt>
  </event>
  <event>
  6     66 0.20805674E-05 0.22931196E+03 0.75467711E-02 0.93821335E-01
       21 -1    0    0  501  503 0.00000000E+00 0.00000000E+00 0.92425754E+03 0.92425784E+03 0.75000000E+00 0.0000E+00 0.9000E+01
        2 -1    0    0  502    0 0.00000000E+00 0.00000000E+00 -.18996524E+04 0.18996524E+04 0.32000000E+00 0.0000E+00 0.9000E+01
       25  1    1    2    0    0 -.21913337E+03 -.43187730E+03 0.52514031E+03 0.72521361E+03 0.12500000E+03 0.0000E+00 0.9000E+01
        4  1    1    2  501    0 0.14542005E+03 0.23586078E+03 0.19988778E+03 0.34166479E+03 0.15500000E+01 0.0000E+00 0.9000E+01
        1  1    1    2  502    0 0.10568939E+03 0.22884485E+03 -.16917024E+04 0.17103793E+04 0.32000000E+00 0.0000E+00 0.9000E+01
       -3  1    1    2    0  503 -.31976065E+02 -.32828332E+02 -.87205925E+01 0.46652619E+02 0.50000000E+00 0.0000E+00 0.9000E+01
#aMCatNLO 2  0  0  1  2 0.45827591D+02 0.00000000D+00  -5  6  0 0.00000000D+00 0.00000000D+00 0.00000000D+00 0.00000000D+00 0.00000000D+00
  <mgrwgt>
 0.3649264581D-04    1    2    0
 0.130159524515778D+04 0.000000000000000D+00 0.000000000000000D+00 0.130159524515778D+04
 0.130159524515778D+04 0.000000000000000D+00 0.000000000000000D+00 -.130159524515778D+04
 0.977546869510643D+03 -.230809092735710D+03 -.443734609061815D+03 0.830541775903738D+03
 0.432948683287318D+03 0.139729960899975D+03 0.229814476892752D+03 0.339271877109825D+03
 0.119269493751760D+04 0.910791318357345D+02 0.213920132169063D+03 -.116981365301356D+04
 0.000000000000000D+00 -.000000000000000D+00 -.000000000000000D+00 0.000000000000000D+00
 0.132906843767976D+04 0.000000000000000D+00 0.000000000000000D+00 0.132906843767976D+04
 0.132104931712150D+04 0.000000000000000D+00 0.000000000000000D+00 -.132104931712150D+04
 0.969267361003048D+03 -.218853256782154D+03 -.431460111227357D+03 0.830541775903738D+03
 0.437630273469812D+03 0.145076387399467D+03 0.235303403032675D+03 0.339271877109825D+03
 0.119669620808124D+04 0.105752934871435D+03 0.228985039740952D+03 -.116981365301356D+04
 0.465239122471494D+02 -.319760654887479D+02 -.328283315462708D+02 0.801912055825880D+01
0.106643743837D-04 0.000000000000D+00 0.000000000000D+00 0.530530021538D-05 0.263420972873D-10  6 21 2 25 4 1 -3 2 0.14219335D+00 0.29225394D+00 0.28845771D+06 0.28845771D+06 0.28845771D+06 0.10858147D+01  1  2  1  5  6  1        3 0.364926458141D-04 0.100000000000D+01
  </mgrwgt>
  </event>
  <event>
  5     66 -.20805674E-05 0.11047434E+03 0.75467711E-02 0.94515529E-01
        3 -1    0    0  501    0 0.00000000E+00 0.00000000E+00 0.22038074E+03 0.22038131E+03 0.50000000E+00 0.0000E+00 0.9000E+01
        2 -1    0    0  502    0 -.00000000E+00 -.00000000E+00 -.23990037E+04 0.23990037E+04 0.32000000E+00 0.0000E+00 0.9000E+01
       25  1    1    2    0    0 -.20607804E+03 -.42239650E+03 -.13818655E+04 0.14649451E+04 0.12500000E+03 0.0000E+00 0.9000E+01
        4  1    1    2  501    0 -.49392791E+02 0.98973136E+02 0.11148557E+03 0.15705657E+03 0.15500000E+01 0.0000E+00 0.9000E+01
        1  1    1    2  502    0 0.25547083E+03 0.32342337E+03 -.90824305E+03 0.99738335E+03 0.32000000E+00 0.0000E+00 0.9000E+01
#aMCatNLO 1  0  0  4  1 0.14273509D+02 0.00000000D+00  -5  6  0 0.00000000D+00 0.00000000D+00 0.00000000D+00 0.00000000D+00 0.00000000D+00
  <mgrwgt>
 -.6455455643D-02    7    2    0
 0.727114144656485D+03 0.000000000000000D+00 0.000000000000000D+00 0.727114144656485D+03
 0.727114144656485D+03 -.000000000000000D+00 -.000000000000000D+00 -.727114144656485D+03
 0.568634675388121D+03 -.206353578450188D+03 -.422732934154531D+03 -.293999083494587D+03
 0.449344929828538D+03 -.493306876111344D+02 0.988486930089975D+02 0.435552849965236D+03
 0.436248684096310D+03 0.255684266061322D+03 0.323884241145533D+03 -.141553766470650D+03
 0.000000000000000D+00 0.000000000000000D+00 0.000000000000000D+00 0.000000000000000D+00
 0.727114144656485D+03 0.000000000000000D+00 0.000000000000000D+00 0.727114144656485D+03
 0.727114144656485D+03 -.000000000000000D+00 -.000000000000000D+00 -.727114144656485D+03
 0.568370056834334D+03 -.206400087218997D+03 -.422639740014475D+03 -.293588446064131D+03
 0.315262038839604D+03 -.388842479706229D+02 0.824380822347488D+02 0.301798162669225D+03
 0.436178735631831D+03 0.255648579732130D+03 0.323955749311540D+03 -.141238683038062D+03
 0.134417458007200D+03 -.103642445425101D+02 0.162459084681866D+02 0.133028966432968D+03
0.159874615441D-04 0.000000000000D+00 0.000000000000D+00 0.950884822949D-06 0.000000000000D+00  6 3 2 25 4 1 21 0 0.33904775D-01 0.36907754D+00 0.25495064D+06 0.25495064D+06 0.25495064D+06 0.10898190D+01  1  2  2  3  6  4        4 0.487152534449D-04 0.100000000000D+01
0.241589125458D-05 0.000000000000D+00 -.613960619245D-07 0.950884822949D-06 0.000000000000D+00  6 3 2 25 4 1 21 2 0.33904775D-01 0.36907754D+00 0.25495064D+06 0.25495064D+06 0.25495064D+06 0.10898190D+01  1  2  3  3  6  4        4 0.874322396715D-05 0.100000000000D+01
-.115555916817D-04 0.000000000000D+00 0.000000000000D+00 0.950884822949D-06 0.000000000000D+00  6 3 2 25 4 1 21 2 0.33904775D-01 0.36907754D+00 0.25495064D+06 0.25495064D+06 0.25495064D+06 0.10898190D+01  1  2 15  3  6  4        4 -.418202292651D-04 0.100000000000D+01
0.909167479298D-03 0.000000000000D+00 0.000000000000D+00 0.950884822949D-06 0.000000000000D+00  6 3 2 25 4 1 21 2 0.33904775D-01 0.36907754D+00 0.25490883D+06 0.25490883D+06 0.25490883D+06 0.10898244D+01  1  2 12  3  6  4        4 0.329037675080D-02 0.100000000000D+01
-.303589873214D-02 0.000000000000D+00 0.000000000000D+00 0.950884822949D-06 0.000000000000D+00  6 3 2 25 4 1 21 2 0.33904775D-01 0.36907754D+00 0.25495064D+06 0.25495064D+06 0.25495064D+06 0.10898190D+01  1  2  4  3  6  4        4 -.109870601611D-01 0.100000000000D+01
-.992529789128D-03 0.000000000000D+00 0.000000000000D+00 0.950884822949D-06 0.000000000000D+00  6 3 2 25 4 1 21 2 0.33904775D-01 0.36907754D+00 0.25495064D+06 0.25495064D+06 0.25495064D+06 0.10898190D+01  1  2  5  3  6  4        4 -.359201194340D-02 0.100000000000D+01
0.133117958370D-02 0.000000000000D+00 -.000000000000D+00 0.950884822949D-06 0.000000000000D+00  6 3 2 25 4 1 21 2 0.33904775D-01 0.36907754D+00 0.25495064D+06 0.25495064D+06 0.25495064D+06 0.10898190D+01  1  2  6  3  6  4        4 0.481760146229D-02 0.100000000000D+01
  </mgrwgt>
  </event>
  <event>
  5     66 0.20805674E-05 0.12114263E+03 0.75467711E-02 0.92595343E-01
        3 -1    0    0  501    0 0.00000000E+00 0.00000000E+00 0.61167426E+03 0.61167446E+03 0.50000000E+00 0.0000E+00 0.9000E+01
        2 -1    0    0  502    0 -.00000000E+00 -.00000000E+00 -.88645288E+03 0.88645294E+03 0.32000000E+00 0.0000E+00 0.9000E+01
       25  1    1    2    0    0 0.98868529E+02 -.58431149E+03 0.13531976E+02 0.60580774E+03 0.12500000E+03 0.0000E+00 0.9000E+01
        4  1    1    2  501    0 -.55740393E+02 0.47126734E+03 0.10053317E+03 0.48508681E+03 0.15500000E+01 0.0000E+00 0.9000E+01
        1  1    1    2  502    0 -.43128135E+02 0.11304415E+03 -.38884376E+03 0.40723285E+03 0.32000000E+00 0.0000E+00 0.9000E+01
#aMCatNLO 1  0  0  5  2 0.39031960D+01 0.00000000D+00  -5  6  0 0.00000000D+00 0.00000000D+00 0.00000000D+00 0.00000000D+00 0.00000000D+00
  <mgrwgt>
 0.2219003747D-03    8    2    0
 0.736356301140578D+03 0.000000000000000D+00 0.000000000000000D+00 0.736356301140578D+03
 0.736356301140578D+03 -.000000000000000D+00 -.000000000000000D+00 -.736356301140578D+03
 0.618680491433722D+03 0.988681353257102D+02 -.584046019902722D+03 0.127498584045775D+03
 0.511769027597815D+03 -.556920632533521D+02 0.470858722257354D+03 0.192608399020318D+03
 0.342263083249618D+03 -.431760720723581D+02 0.113187297645369D+03 -.320106983066093D+03
 0.000000000000000D+00 -.000000000000000D+00 0.000000000000000D+00 0.000000000000000D+00
 0.736356301140578D+03 0.000000000000000D+00 0.000000000000000D+00 0.736356301140578D+03
 0.736356301140578D+03 -.000000000000000D+00 -.000000000000000D+00 -.736356301140578D+03
 0.618655841603515D+03 0.988622130819140D+02 -.584030494572624D+03 0.127454676587231D+03
 0.511767708676468D+03 -.556969621914377D+02 0.470871564962505D+03 0.192572078340471D+03
 0.248283969277287D+03 -.275994311121018D+02 0.812261533241936D+02 -.232992516657784D+03
 0.940050827238863D+02 -.155658197783745D+02 0.319327762859245D+02 -.870342382699187D+02
0.148292030964D-05 0.000000000000D+00 0.000000000000D+00 0.284362670053D-06 0.000000000000D+00  6 3 2 25 4 1 21 0 0.94103752D-01 0.13637739D+00 0.36041045D+06 0.36041045D+06 0.36041045D+06 0.10787058D+01  1  2  2  4  6  5        1 0.375060139594D-05 0.100000000000D+01
0.197112649394D-06 0.000000000000D+00 -.569480445092D-08 0.284362670053D-06 0.000000000000D+00  6 3 2 25 4 1 21 2 0.94103752D-01 0.13637739D+00 0.36041045D+06 0.36041045D+06 0.36041045D+06 0.10787058D+01  1  2  3  4  6  5        1 0.580101053020D-06 0.100000000000D+01
-.106508949901D-05 0.000000000000D+00 0.000000000000D+00 0.284362670053D-06 0.000000000000D+00  6 3 2 25 4 1 21 2 0.94103752D-01 0.13637739D+00 0.36041045D+06 0.36041045D+06 0.36041045D+06 0.10787058D+01  1  2 15  4  6  5        1 -.313455043010D-05 0.100000000000D+01
0.639569588366D-04 0.000000000000D+00 0.000000000000D+00 0.284362670053D-06 0.000000000000D+00  6 3 2 25 4 1 21 2 0.94103752D-01 0.13637739D+00 0.36051035D+06 0.36051035D+06 0.36051035D+06 0.10786971D+01  1  2 12  4  6  5        1 0.188220032275D-03 0.100000000000D+01
-.803332896099D-03 0.000000000000D+00 0.000000000000D+00 0.284362670053D-06 0.000000000000D+00  6 3 2 25 4 1 21 2 0.94103752D-01 0.13637739D+00 0.36041045D+06 0.36041045D+06 0.36041045D+06 0.10787058D+01  1  2  4  4  6  5        1 -.236420270533D-02 0.100000000000D+01
-.725638422806D-03 0.000000000000D+00 0.000000000000D+00 0.284362670053D-06 0.000000000000D+00  6 3 2 25 4 1 21 2 0.94103752D-01 0.13637739D+00 0.36041045D+06 0.36041045D+06 0.36041045D+06 0.10787058D+01  1  2  5  4  6  5        1 -.213554845149D-02 0.100000000000D+01
0.970020697886D-03 0.000000000000D+00 -.000000000000D+00 0.284362670053D-06 0.000000000000D+00  6 3 2 25 4 1 21 2 0.94103752D-01 0.13637739D+00 0.36041045D+06 0.36041045D+06 0.36041045D+06 0.10787058D+01  1  2  6  4  6  5        1 0.285476365938D-02 0.100000000000D+01
0.570003024626D-03 0.000000000000D+00 0.000000000000D+00 0.284362670053D-06 0.552688686855D-07  6 3 2 25 4 1 21 2 0.94103752D-01 0.13637739D+00 0.36051035D+06 0.36051035D+06 0.36051035D+06 0.10786971D+01  1  2 11  4  6  5        1 0.167747168789D-02 0.100000000000D+01
  </mgrwgt>
  </event>
  <event>
  5     66 0.20805674E-05 0.69560377E+02 0.75467711E-02 0.94320733E-01
        3 -1    0    0  501    0 0.00000000E+00 0.00000000E+00 0.42360801E+03 0.42360830E+03 0.50000000E+00 0.0000E+00 0.9000E+01
        2 -1    0    0  502    0 -.00000000E+00 -.00000000E+00 -.23190287E+04 0.23190287E+04 0.32000000E+00 0.0000E+00 0.9000E+01
       25  1    1    2    0    0 0.45617776E+03 0.82213713E+02 -.10329724E+04 0.11390848E+04 0.12500000E+03 0.0000E+00 0.9000E+01
        4  1    1    2  501    0 -.45310611E+03 -.15166225E+03 0.21493162E+03 0.52393186E+03 0.15500000E+01 0.0000E+00 0.9000E+01
        1  1    1    2  502    0 -.30716453E+01 0.69448541E+02 -.10773799E+04 0.10796204E+04 0.32000000E+00 0.0000E+00 0.9000E+01
#aMCatNLO 1  0  0  4  1 0.63166279D+01 0.00000000D+00  -5  6  0 0.00000000D+00 0.00000000D+00 0.00000000D+00 0.00000000D+00 0.00000000D+00
  <mgrwgt>
 0.1633126143D-01    8    2    0
 0.991140539127005D+03 0.000000000000000D+00 0.000000000000000D+00 0.991140539127005D+03
 0.991140539127005D+03 -.000000000000000D+00 -.000000000000000D+00 -.991140539127005D+03
 0.588062071353915D+03 0.456152247199456D+03 0.821587679423837D+02 -.339657274307695D+03
 0.930342536439267D+03 -.453072259540761D+03 -.151650923616901D+03 0.798288644607337D+03
 0.463876470460829D+03 -.307998765869560D+01 0.694921556745169D+02 -.458631370299642D+03
 0.000000000000000D+00 0.000000000000000D+00 -.000000000000000D+00 0.000000000000000D+00
 0.991140539127005D+03 0.000000000000000D+00 0.000000000000000D+00 0.991140539127005D+03
 0.991140539127005D+03 -.000000000000000D+00 -.000000000000000D+00 -.991140539127005D+03
 0.587677277874894D+03 0.455943118122696D+03 0.820887689146834D+02 -.339288800264716D+03
 0.916316113026849D+03 -.443229393703549D+03 -.144466435780709D+03 0.788867778834093D+03
 0.463581947205381D+03 -.324495493885604D+01 0.694369383446626D+02 -.458340706936987D+03
 0.147057401468871D+02 -.946876948029168D+01 -.705927147863707D+01 0.876172836760903D+01
0.289514058455D-02 0.000000000000D+00 0.000000000000D+00 0.389213661699D-04 0.000000000000D+00  6 3 2 25 4 1 21 0 0.65170487D-01 0.35677367D+00 0.26388311D+06 0.26388311D+06 0.26388311D+06 0.10886977D+01  1  2  2  3  6  4        4 0.261747114452D-02 0.100000000000D+01
0.677765609259D-03 0.000000000000D+00 -.111181021527D-04 0.389213661699D-04 0.000000000000D+00  6 3 2 25 4 1 21 2 0.65170487D-01 0.35677367D+00 0.26388311D+06 0.26388311D+06 0.26388311D+06 0.10886977D+01  1  2  3  3  6  4        4 0.726283887108D-03 0.100000000000D+01
-.227711449135D-02 0.000000000000D+00 0.000000000000D+00 0.389213661699D-04 0.000000000000D+00  6 3 2 25 4 1 21 2 0.65170487D-01 0.35677367D+00 0.26388311D+06 0.26388311D+06 0.26388311D+06 0.10886977D+01  1  2 15  3  6  4        4 -.244012316585D-02 0.100000000000D+01
0.101845141376D-01 0.000000000000D+00 0.000000000000D+00 0.389213661699D-04 0.000000000000D+00  6 3 2 25 4 1 21 2 0.65170487D-01 0.35677367D+00 0.26385874D+06 0.26385874D+06 0.26385874D+06 0.10887007D+01  1  2 12  3  6  4        4 0.109136970654D-01 0.100000000000D+01
-.255738529637D-01 0.000000000000D+00 0.000000000000D+00 0.389213661699D-04 0.000000000000D+00  6 3 2 25 4 1 21 2 0.65170487D-01 0.35677367D+00 0.26388311D+06 0.26388311D+06 0.26388311D+06 0.10886977D+01  1  2  4  3  6  4        4 -.274045733290D-01 0.100000000000D+01
-.515913568225D+00 0.000000000000D+00 0.000000000000D+00 0.389213661699D-04 0.000000000000D+00  6 3 2 25 4 1 21 2 0.65170487D-01 0.35677367D+00 0.26388311D+06 0.26388311D+06 0.26388311D+06 0.10886977D+01  1  2  5  3  6  4        4 -.552845565818D+00 0.100000000000D+01
0.524132955390D+00 0.000000000000D+00 -.000000000000D+00 0.389213661699D-04 0.000000000000D+00  6 3 2 25 4 1 21 2 0.65170487D-01 0.35677367D+00 0.26388311D+06 0.26388311D+06 0.26388311D+06 0.10886977D+01  1  2  6  3  6  4        4 0.561653342987D+00 0.100000000000D+01
0.215666186536D-01 0.000000000000D+00 0.000000000000D+00 0.389213661699D-04 0.199742006265D-05  6 3 2 25 4 1 21 2 0.65170487D-01 0.35677367D+00 0.26385874D+06 0.26385874D+06 0.26385874D+06 0.10887007D+01  1  2 11  3  6  4        4 0.231107286544D-01 0.100000000000D+01
  </mgrwgt>
  </event>
  <event>
  5     66 0.20805674E-05 0.64041062E+02 0.75467711E-02 0.92403171E-01
        3 -1    0    0  501    0 0.00000000E+00 0.00000000E+00 0.10067593E+04 0.10067595E+04 0.50000000E+00 0.0000E+00 0.9000E+01
        2 -1    0    0  502    0 0.00000000E+00 0.00000000E+00 -.18255569E+04 0.18255569E+04 0.32000000E+00 0.0000E+00 0.9000E+01
       25  1    1    2    0    0 0.45726369E+03 0.26632308E+03 -.42589550E+02 0.54539612E+03 0.12500000E+03 0.0000E+00 0.9000E+01
        4  1    1    2  501    0 -.60013634E+02 0.22434470E+02 0.71451534E+03 0.71738380E+03 0.15500000E+01 0.0000E+00 0.9000E+01
        1  1    1    2  502    0 -.39725005E+03 -.28875755E+03 -.14907233E+04 0.15695365E+04 0.32000000E+00 0.0000E+00 0.9000E+01
#aMCatNLO 1  0  0  1  2 0.12110497D+04 0.00000000D+00  -5  6  0 0.00000000D+00 0.00000000D+00 0.00000000D+00 0.00000000D+00 0.00000000D+00
  <mgrwgt>
 0.1451237039D-01    7    2    0
 0.135569047586431D+04 0.000000000000000D+00 0.000000000000000D+00 0.135569047586431D+04
 0.135569047586431D+04 0.000000000000000D+00 0.000000000000000D+00 -.135569047586431D+04
 0.557199287409067D+03 0.457468886079135D+03 0.266492891309246D+03 0.120622564391270D+03
 0.964719977287262D+03 -.599866978994283D+02 0.224244009158887D+02 0.962592009574057D+03
 0.118946168703230D+04 -.397482188179706D+03 -.288917292225134D+03 -.108321457396533D+04
 0.000000000000000D+00 -.000000000000000D+00 -.000000000000000D+00 0.000000000000000D+00
 0.252386020500783D+04 0.000000000000000D+00 0.000000000000000D+00 0.252386020500783D+04
 0.136066574781156D+04 0.000000000000000D+00 0.000000000000000D+00 -.136066574781156D+04
 0.575259347038291D+03 0.464036870260924D+03 0.292264086663144D+03 0.120622564391270D+03
 0.966109653299246D+03 -.487883564451193D+02 0.663640081486273D+02 0.962592009574057D+03
 0.117300431759156D+04 -.383780460914449D+03 -.235154999219336D+03 -.108321457396533D+04
 0.117015263489030D+04 -.314680529013561D+02 -.123473095592436D+03 0.116319445719627D+04
0.203451625249D-02 0.000000000000D+00 0.000000000000D+00 0.308871417555D-03 0.000000000000D+00  6 3 2 25 4 1 21 0 0.15488606D+00 0.28085492D+00 0.30218036D+06 0.30218036D+06 0.30218036D+06 0.10843193D+01  1  2  2  1  6  1        3 0.402626688060D-03 0.100000000000D+01
0.791135106246D-03 0.000000000000D+00 -.781307810998D-05 0.308871417555D-03 0.000000000000D+00  6 3 2 25 4 1 21 2 0.15488606D+00 0.28085492D+00 0.30218036D+06 0.30218036D+06 0.30218036D+06 0.10843193D+01  1  2  3  1  6  1        3 0.184079912177D-03 0.100000000000D+01
-.137045198467D-02 0.000000000000D+00 0.000000000000D+00 0.308871417555D-03 0.000000000000D+00  6 3 2 25 4 1 21 2 0.15488606D+00 0.28085492D+00 0.30218036D+06 0.30218036D+06 0.30218036D+06 0.10843193D+01  1  2 15  1  6  1        3 -.318874335103D-03 0.100000000000D+01
-.612208280736D-02 0.000000000000D+00 0.000000000000D+00 0.308871417555D-03 0.000000000000D+00  6 3 2 25 4 1 21 2 0.15488606D+00 0.28085492D+00 0.30218036D+06 0.30218036D+06 0.30218036D+06 0.10843193D+01  1  2  4  1  6  1        3 -.142447536031D-02 0.100000000000D+01
-.990176162741D-01 0.000000000000D+00 -.111074726616D-02 0.308871417555D-03 0.000000000000D+00  6 3 2 25 4 1 21 2 0.28861516D+00 0.28085492D+00 0.30218036D+06 0.30218036D+06 0.30218036D+06 0.10843193D+01  1  2  5  1  6  1        3 -.164930880853D-02 0.100000000000D+01
0.832431520837D-01 0.000000000000D+00 0.925601282514D-03 0.308871417555D-03 0.000000000000D+00  6 3 2 25 4 1 21 2 0.15488606D+00 0.28085492D+00 0.30218036D+06 0.30218036D+06 0.30218036D+06 0.10843193D+01  1  2  6  1  6  1        3 0.193688688619D-01 0.100000000000D+01
-.665284275104D-02 0.000000000000D+00 -.753245054409D-04 0.308871417555D-03 0.000000000000D+00  6 21 2 25 4 1 -3 2 0.28861516D+00 0.28085492D+00 0.30218036D+06 0.30218036D+06 0.30218036D+06 0.10843193D+01  1  2  5  5  6  1        3 -.205054656689D-02 0.100000000000D+01
  </mgrwgt>
  </event>
  <event>
  5     66 0.20805674E-05 0.40740516E+02 0.75467711E-02 0.91334769E-01
        3 -1    0    0  501    0 0.00000000E+00 0.00000000E+00 0.82874467E+03 0.82874482E+03 0.50000000E+00 0.0000E+00 0.9000E+01
        2 -1    0    0  502    0 0.00000000E+00 0.00000000E+00 -.75039462E+03 0.75039469E+03 0.32000000E+00 0.0000E+00 0.9000E+01
       25  1    1    2    0    0 -.15213070E+03 0.47357168E+03 -.93109022E+02 0.52125634E+03 0.12500000E+03 0.0000E+00 0.9000E+01
        4  1    1    2  501    0 0.17228896E+03 -.43821332E+03 0.52314785E+03 0.70384692E+03 0.15500000E+01 0.0000E+00 0.9000E+01
        1  1    1    2  502    0 -.20158261E+02 -.35358352E+02 -.35168878E+03 0.35403626E+03 0.32000000E+00 0.0000E+00 0.9000E+01
#aMCatNLO 1  0  0  1  4 0.16446768D+02 0.00000000D+00  -5  6  0 0.00000000D+00 0.00000000D+00 0.00000000D+00 0.00000000D+00 0.00000000D+00
  <mgrwgt>
 0.4345820597D-02    4    2    0
 0.788597311139390D+03 0.000000000000000D+00 0.000000000000000D+00 0.788597311139390D+03
 0.788597311139390D+03 0.000000000000000D+00 0.000000000000000D+00 -.788597311139390D+03
 0.526310388105668D+03 -.152066240591835D+03 0.473487890219272D+03 -.118586259389134D+03
 0.678539960764031D+03 0.172242050500123D+03 -.438094015788808D+03 0.488694984344224D+03
 0.372344273409082D+03 -.201758099082885D+02 -.353938744304647D+02 -.370108724955090D+03
 0.000000000000000D+00 -.000000000000000D+00 -.000000000000000D+00 -.000000000000000D+00
 0.910418516348733D+03 0.000000000000000D+00 0.000000000000000D+00 0.910418516348733D+03
 0.106298760635885D+04 0.000000000000000D+00 0.000000000000000D+00 -.106298760635885D+04
 0.633493203728367D+03 -.142702888381213D+03 0.592673454696414D+03 -.118586259389134D+03
 0.604918265360408D+03 0.182603694060667D+03 -.306201258911262D+03 0.488694984344224D+03
 0.372660170269005D+03 -.141612234267921D+02 0.411654462880879D+02 -.370108724955090D+03
 0.362334483349803D+03 -.257395822526613D+02 -.327637642073240D+03 -.152569090010116D+03
0.466972773537D-02 0.000000000000D+00 0.000000000000D+00 0.281841232774D-04 0.000000000000D+00  6 3 2 25 4 1 21 0 0.12749920D+00 0.11544534D+00 0.26227436D+06 0.26227436D+06 0.26227436D+06 0.10888966D+01  1  2  2  1  6  1        3 0.691974371346D-02 0.100000000000D+01
0.184386492417D-02 0.000000000000D+00 -.179329840714D-04 0.281841232774D-04 0.000000000000D+00  6 3 2 25 4 1 21 2 0.12749920D+00 0.11544534D+00 0.26227436D+06 0.26227436D+06 0.26227436D+06 0.10888966D+01  1  2  3  1  6  1        3 0.323967038631D-02 0.100000000000D+01
-.325595835233D-02 0.000000000000D+00 0.000000000000D+00 0.281841232774D-04 0.000000000000D+00  6 3 2 25 4 1 21 2 0.12749920D+00 0.11544534D+00 0.26227436D+06 0.26227436D+06 0.26227436D+06 0.10888966D+01  1  2 15  1  6  1        3 -.572071832096D-02 0.100000000000D+01
-.528600970296D-04 0.000000000000D+00 0.000000000000D+00 0.281841232774D-04 0.000000000000D+00  6 3 2 25 4 1 21 2 0.12749920D+00 0.11544534D+00 0.26227436D+06 0.26227436D+06 0.26227436D+06 0.10888966D+01  1  2  4  1  6  1        3 -.928751822973D-04 0.100000000000D+01
  </mgrwgt>
  </event>
  <event>
  5     66 0.20805674E-05 0.12436547E+02 0.75467711E-02 0.93882118E-01
        3 -1    0    0  501    0 0.00000000E+00 0.00000000E+00 0.28980623E+03 0.28980666E+03 0.50000000E+00 0.0000E+00 0.9000E+01
        2 -1    0    0  502    0 0.00000000E+00 0.00000000E+00 -.34839851E+04 0.34839851E+04 0.32000000E+00 0.0000E+00 0.9000E+01
       25  1    1    2    0    0 -.87374566E+02 -.50692137E+03 -.20408115E+04 0.21083501E+04 0.12500000E+03 0.0000E+00 0.9000E+01
        4  1    1    2  501    0 0.91959912E+02 0.51847503E+03 -.14770163E+02 0.52677656E+03 0.15500000E+01 0.0000E+00 0.9000E+01
        1  1    1    2  502    0 -.45853458E+01 -.11553663E+02 -.11385972E+04 0.11386651E+04 0.32000000E+00 0.0000E+00 0.9000E+01
#aMCatNLO 1  0  0  1  4 0.62629330D+03 0.00000000D+00  -5  6  0 0.00000000D+00 0.00000000D+00 0.00000000D+00 0.00000000D+00 0.00000000D+00
  <mgrwgt>
 0.5934545072D-02    7    2    0
 0.100482904592935D+04 0.000000000000000D+00 0.000000000000000D+00 0.100482904592935D+04
 0.100482904592935D+04 0.000000000000000D+00 0.000000000000000D+00 -.100482904592935D+04
 0.715235146656936D+03 -.873688401600028D+02 -.506896983745043D+03 -.480997347864457D+03
 0.965683797423753D+03 0.919566074159630D+02 0.518456399939897D+03 0.809501167584499D+03
 0.328739147778020D+03 -.458776725596022D+01 -.115594161948536D+02 -.328503819720042D+03
 0.000000000000000D+00 0.000000000000000D+00 -.000000000000000D+00 0.000000000000000D+00
 0.140270556796968D+04 0.000000000000000D+00 0.000000000000000D+00 0.140270556796968D+04
 0.114757156197873D+04 0.000000000000000D+00 0.000000000000000D+00 -.114757156197873D+04
 0.665589091110262D+03 -.186405955907565D+03 -.401594583074186D+03 -.480997347864457D+03
 0.105370070730237D+04 -.528800861061509D+02 0.672455750768965D+03 0.809501167584499D+03
 0.334907685001659D+03 -.521866334952890D+02 0.390506489951329D+02 -.328503819720042D+03
 0.496079646534112D+03 0.291472675509005D+03 -.309911816689912D+03 0.255134005990950D+03
0.934981915059D-02 0.000000000000D+00 0.000000000000D+00 0.121014237352D-03 0.000000000000D+00  6 3 2 25 4 1 21 0 0.44585608D-01 0.53599774D+00 0.28533049D+06 0.28533049D+06 0.28533049D+06 0.10861664D+01  1  2  2  1  6  1        3 0.344700454496D-02 0.100000000000D+01
0.700938907288D-02 0.000000000000D+00 -.359057674022D-04 0.121014237352D-03 0.000000000000D+00  6 3 2 25 4 1 21 2 0.44585608D-01 0.53599774D+00 0.28533049D+06 0.28533049D+06 0.28533049D+06 0.10861664D+01  1  2  3  1  6  1        3 0.304867798453D-02 0.100000000000D+01
-.722019426562D-02 0.000000000000D+00 0.000000000000D+00 0.121014237352D-03 0.000000000000D+00  6 3 2 25 4 1 21 2 0.44585608D-01 0.53599774D+00 0.28533049D+06 0.28533049D+06 0.28533049D+06 0.10861664D+01  1  2 15  1  6  1        3 -.314036602516D-02 0.100000000000D+01
-.537667739932D-03 0.000000000000D+00 0.000000000000D+00 0.121014237352D-03 0.000000000000D+00  6 3 2 25 4 1 21 2 0.44585608D-01 0.53599774D+00 0.28533049D+06 0.28533049D+06 0.28533049D+06 0.10861664D+01  1  2  4  1  6  1        3 -.233854303803D-03 0.100000000000D+01
-.550870395516D-02 0.000000000000D+00 -.613878493908D-02 0.121014237352D-03 0.000000000000D+00  6 3 2 25 4 1 21 2 0.76495844D-01 0.53599774D+00 0.28533049D+06 0.28533049D+06 0.28533049D+06 0.10861664D+01  1  2  5  1  6  1        3 -.770371034344D-03 0.100000000000D+01
0.837041238176D-02 0.000000000000D+00 0.534142462373D-02 0.121014237352D-03 0.000000000000D+00  6 3 2 25 4 1 21 2 0.44585608D-01 0.53599774D+00 0.28533049D+06 0.28533049D+06 0.28533049D+06 0.10861664D+01  1  2  6  1  6  1        3 0.364064423937D-02 0.100000000000D+01
-.297149478051D-04 0.000000000000D+00 -.368236783218D-03 0.121014237352D-03 0.000000000000D+00  6 21 2 25 4 1 -3 2 0.76495844D-01 0.53599774D+00 0.28533049D+06 0.28533049D+06 0.28533049D+06 0.10861664D+01  1  2  5  5  6  1        3 -.571903331654D-04 0.100000000000D+01
  </mgrwgt>
  </event>
  <event>
  5     66 -.20805674E-05 0.36634289E+02 0.75467711E-02 0.92946481E-01
        3 -1    0    0  501    0 0.00000000E+00 0.00000000E+00 0.96407126E+03 0.96407139E+03 0.50000000E+00 0.0000E+00 0.9000E+01
        2 -1    0    0  502    0 0.00000000E+00 0.00000000E+00 -.27827069E+04 0.27827069E+04 0.32000000E+00 0.0000E+00 0.9000E+01
       25  1    1    2    0    0 -.55853806E+03 -.85078032E+02 -.32503979E+03 0.66368585E+03 0.12500000E+03 0.0000E+00 0.9000E+01
        4  1    1    2  501    0 0.52931126E+03 0.10713764E+03 0.70283478E+03 0.88635660E+03 0.15500000E+01 0.0000E+00 0.9000E+01
        1  1    1    2  502    0 0.29226799E+02 -.22059606E+02 -.21964306E+04 0.21967358E+04 0.32000000E+00 0.0000E+00 0.9000E+01
#aMCatNLO 1  0  0  1  4 0.81727017D+01 0.00000000D+00  -5  6  0 0.00000000D+00 0.00000000D+00 0.00000000D+00 0.00000000D+00 0.00000000D+00
  <mgrwgt>
 -.9399619401D-02   11    2    0
 0.163790353331264D+04 0.000000000000000D+00 0.000000000000000D+00 0.163790353331264D+04
 0.163790353331264D+04 0.000000000000000D+00 0.000000000000000D+00 -.163790353331264D+04
 0.578583707560881D+03 -.558473071117366D+03 -.850521182121811D+02 -.284124607422024D+01
 0.140377494478191D+04 0.529232622674989D+03 0.107121720253402D+03 0.129577076049120D+04
 0.129344841428250D+04 0.292404484423774D+02 -.220696020412208D+02 -.129292951441698D+04
 0.000000000000000D+00 0.000000000000000D+00 0.000000000000000D+00 0.000000000000000D+00
 0.198736693733784D+04 0.000000000000000D+00 0.000000000000000D+00 0.198736693733784D+04
 0.163795641403308D+04 0.000000000000000D+00 0.000000000000000D+00 -.163795641403308D+04
 0.579393672171293D+03 -.559113755703907D+03 -.863467593807326D+02 -.284124607422024D+01
 0.140295415735887D+04 0.527679718355948D+03 0.103983742683026D+03 0.129577076049120D+04
 0.129346943197971D+04 0.278091610789483D+02 -.249618263644680D+02 -.129292951441698D+04
 0.349506089861051D+03 0.362487626901029D+01 0.732484306217490D+01 0.349410523304766D+03
0.410291468059D-03 0.000000000000D+00 0.000000000000D+00 0.108267424703D-02 0.000000000000D+00  6 3 2 25 4 1 21 0 0.14831867D+00 0.42810876D+00 0.33360793D+06 0.33360793D+06 0.33360793D+06 0.10811565D+01  1  2  2  1  6  1        3 0.261570988916D-04 0.100000000000D+01
0.269022565685D-03 0.000000000000D+00 -.157562726957D-05 0.108267424703D-02 0.000000000000D+00  6 3 2 25 4 1 21 2 0.14831867D+00 0.42810876D+00 0.33360793D+06 0.33360793D+06 0.33360793D+06 0.10811565D+01  1  2  3  1  6  1        3 0.200476236500D-04 0.100000000000D+01
-.273306608146D-03 0.000000000000D+00 0.000000000000D+00 0.108267424703D-02 0.000000000000D+00  6 3 2 25 4 1 21 2 0.14831867D+00 0.42810876D+00 0.33360793D+06 0.33360793D+06 0.33360793D+06 0.10811565D+01  1  2 15  1  6  1        3 -.203668714823D-04 0.100000000000D+01
0.151308713689D+01 0.000000000000D+00 0.000000000000D+00 0.108267424703D-02 0.000000000000D+00  6 3 2 25 4 1 21 2 0.18004299D+00 0.42810876D+00 0.33800037D+06 0.33800037D+06 0.33800037D+06 0.10807405D+01  1  2 12  1  6  1        3 0.612811156585D-01 0.100000000000D+01
-.161433533622D+01 0.000000000000D+00 0.000000000000D+00 0.108267424703D-02 0.000000000000D+00  6 3 2 25 4 1 21 2 0.14831867D+00 0.42810876D+00 0.33360793D+06 0.33360793D+06 0.33360793D+06 0.10811565D+01  1  2  4  1  6  1        3 -.120300641632D+00 0.100000000000D+01
-.152231377588D+01 0.000000000000D+00 -.504949926215D-03 0.108267424703D-02 0.000000000000D+00  6 3 2 25 4 1 21 2 0.17996612D+00 0.42810876D+00 0.33360793D+06 0.33360793D+06 0.33360793D+06 0.10811565D+01  1  2  5  1  6  1        3 -.618703192006D-01 0.100000000000D+01
0.149438427195D+01 0.000000000000D+00 0.495650913388D-03 0.108267424703D-02 0.000000000000D+00  6 3 2 25 4 1 21 2 0.14831867D+00 0.42810876D+00 0.33360793D+06 0.33360793D+06 0.33360793D+06 0.10811565D+01  1  2  6  1  6  1        3 0.111361860653D+00 0.100000000000D+01
0.515800825121D-02 0.000000000000D+00 0.000000000000D+00 0.108267424703D-02 0.108738472198D-03  6 3 2 25 4 1 21 2 0.17996397D+00 0.42812258D+00 0.33800037D+06 0.33800037D+06 0.33800037D+06 0.10807405D+01  1  2 11  1  6  1        3 0.209187308748D-03 0.100000000000D+01
0.422689096891D-01 0.000000000000D+00 0.000000000000D+00 0.108267424703D-02 0.000000000000D+00  6 21 2 25 4 1 -3 2 0.18004299D+00 0.42810876D+00 0.33800037D+06 0.33800037D+06 0.33800037D+06 0.10807405D+01  1  2 12  5  6  1        3 0.213361753896D-01 0.100000000000D+01
-.424488514527D-01 0.000000000000D+00 -.140820612417D-04 0.108267424703D-02 0.000000000000D+00  6 21 2 25 4 1 -3 2 0.17996612D+00 0.42810876D+00 0.33360793D+06 0.33360793D+06 0.33360793D+06 0.10811565D+01  1  2  5  5  6  1        3 -.215105418952D-01 0.100000000000D+01
0.133958352486D-03 0.000000000000D+00 0.000000000000D+00 0.108267424703D-02 0.282296937364D-05  6 21 2 25 4 1 -3 2 0.17996397D+00 0.42812258D+00 0.33800037D+06 0.33800037D+06 0.33800037D+06 0.10807405D+01  1  2 11  5  6  1        3 0.677064655846D-04 0.100000000000D+01
  </mgrwgt>
  </event>
  <event>
  5     66 0.20805674E-05 0.12025053E+03 0.75467711E-02 0.89022237E-01
        3 -1    0    0  501    0 0.00000000E+00 0.00000000E+00 0.95365795E+03 0.95365808E+03 0.50000000E+00 0.0000E+00 0.9000E+01
        2 -1    0    0  502    0 0.00000000E+00 0.00000000E+00 -.19219671E+04 0.19219671E+04 0.32000000E+00 0.0000E+00 0.9000E+01
       25  1    1    2    0    0 0.39940088E+03 0.37338500E+03 -.45773969E+03 0.72393926E+03 0.12500000E+03 0.0000E+00 0.9000E+01
        4  1    1    2  501    0 -.70609761E+02 -.97370483E+02 0.78122378E+03 0.79043010E+03 0.15500000E+01 0.0000E+00 0.9000E+01
        1  1    1    2  502    0 -.32879112E+03 -.27601452E+03 -.12917932E+04 0.13612558E+04 0.32000000E+00 0.0000E+00 0.9000E+01
#aMCatNLO 1  0  0  1  1 0.70357089D+02 0.00000000D+00  -5  6  0 0.00000000D+00 0.00000000D+00 0.00000000D+00 0.00000000D+00 0.00000000D+00
  <mgrwgt>
 0.2323112891D-02    4    2    0
 0.135384615237189D+04 0.000000000000000D+00 0.000000000000000D+00 0.135384615237189D+04
 0.135384615237189D+04 0.000000000000000D+00 0.000000000000000D+00 -.135384615237189D+04
 0.605235732193933D+03 0.399578377525202D+03 0.373531422208377D+03 -.226928817829820D+03
 0.111857504627146D+04 -.705937520758203D+02 -.973484064417155D+02 0.111209259689664D+04
 0.983881526278387D+03 -.328984625449382D+03 -.276183015766662D+03 -.885163779066818D+03
 0.000000000000000D+00 0.000000000000000D+00 -.000000000000000D+00 -.000000000000000D+00
 0.146881388754229D+04 0.000000000000000D+00 0.000000000000000D+00 0.146881388754229D+04
 0.180088987674115D+04 0.000000000000000D+00 0.000000000000000D+00 -.180088987674115D+04
 0.579148716816936D+03 0.317119751136156D+03 0.409544394746658D+03 -.226928817829820D+03
 0.113549451828727D+04 -.227525464776114D+03 -.288100653687459D+02 0.111209259689664D+04
 0.102448653811870D+04 -.468810230228403D+03 -.215115594617814D+03 -.885163779066818D+03
 0.530573991060541D+03 0.379215943868362D+03 -.165618734760098D+03 -.332075989198863D+03
0.229484460680D-01 0.000000000000D+00 0.000000000000D+00 0.866783129803D-04 0.000000000000D+00  6 3 2 25 4 1 21 0 0.14671662D+00 0.29568725D+00 0.30851189D+06 0.30851189D+06 0.30851189D+06 0.10836541D+01  1  2  2  1  6  1        3 0.471355348313D-02 0.100000000000D+01
0.548478427810D-02 0.000000000000D+00 -.881280753659D-04 0.866783129803D-04 0.000000000000D+00  6 3 2 25 4 1 21 2 0.14671662D+00 0.29568725D+00 0.30851189D+06 0.30851189D+06 0.30851189D+06 0.10836541D+01  1  2  3  1  6  1        3 0.132292744061D-02 0.100000000000D+01
-.150428112348D-01 0.000000000000D+00 0.000000000000D+00 0.866783129803D-04 0.000000000000D+00  6 3 2 25 4 1 21 2 0.14671662D+00 0.29568725D+00 0.30851189D+06 0.30851189D+06 0.30851189D+06 0.10836541D+01  1  2 15  1  6  1        3 -.362831913844D-02 0.100000000000D+01
-.352608027764D-03 0.000000000000D+00 0.000000000000D+00 0.866783129803D-04 0.000000000000D+00  6 3 2 25 4 1 21 2 0.14671662D+00 0.29568725D+00 0.30851189D+06 0.30851189D+06 0.30851189D+06 0.10836541D+01  1  2  4  1  6  1        3 -.850488938227D-04 0.100000000000D+01
  </mgrwgt>
  </event>
  <event>
  5     66 -.20805674E-05 0.42488898E+02 0.75467711E-02 0.89461079E-01
        3 -1    0    0  501    0 0.00000000E+00 0.00000000E+00 0.67819709E+03 0.67819727E+03 0.50000000E+00 0.0000E+00 0.9000E+01
        2 -1    0    0  502    0 -.00000000E+00 -.00000000E+00 -.35993972E+04 0.35993972E+04 0.32000000E+00 0.0000E+00 0.9000E+01
       25  1    1    2    0    0 -.76684157E+03 0.24003862E+03 -.15269251E+04 0.17299681E+04 0.12500000E+03 0.0000E+00 0.9000E+01
        4  1    1    2  501    0 0.42501950E+02 0.32103868E+00 0.50186429E+03 0.50366327E+03 0.15500000E+01 0.0000E+00 0.9000E+01
        1  1    1    2  502    0 0.72433962E+03 -.24035966E+03 -.18961393E+04 0.20439631E+04 0.32000000E+00 0.0000E+00 0.9000E+01
#aMCatNLO 1  0  0  4  2 0.53653053D+03 0.00000000D+00  -5  6  0 0.00000000D+00 0.00000000D+00 0.00000000D+00 0.00000000D+00 0.00000000D+00
  <mgrwgt>
 -.3994893341D-03    1    2    0
 0.156240235396532D+04 0.000000000000000D+00 0.000000000000000D+00 0.156240235396532D+04
 0.156240235396532D+04 -.000000000000000D+00 -.000000000000000D+00 -.156240235396532D+04
 0.940933643522552D+03 -.767195617226778D+03 0.240155974224504D+03 -.472723084336831D+03
 0.115824676670236D+04 0.424876860414201D+02 0.320930939545204D+00 0.115746717712195D+04
 0.102562429770572D+04 0.724707931185358D+03 -.240476905164049D+03 -.684744092785116D+03
 0.000000000000000D+00 0.000000000000000D+00 0.000000000000000D+00 -.000000000000000D+00
 0.156240235396532D+04 0.000000000000000D+00 0.000000000000000D+00 0.156240235396532D+04
 0.156240235396532D+04 -.000000000000000D+00 -.000000000000000D+00 -.156240235396532D+04
 0.896120432113982D+03 -.763879073250738D+03 0.240181025755276D+03 -.382372416851539D+03
 0.110222837837590D+04 -.127451495293732D+01 0.880548017722710D+02 0.109870474905393D+04
 0.965703109123758D+03 0.728302994065123D+03 -.240449749839408D+03 -.586805897728742D+03
 0.160752788316991D+03 0.368505941385515D+02 -.877860776881389D+02 -.129526434473644D+03
-.810491209271D-02 0.000000000000D+00 0.000000000000D+00 0.525256764593D-04 0.000000000000D+00  6 3 2 25 4 1 21 2 0.10433803D+00 0.55375343D+00 0.65579143D+06 0.65579143D+06 0.65579143D+06 0.10602835D+01  1  2 14  3  6  4        4 -.399489334076D-03 0.100000000000D+01
  </mgrwgt>
  </event>
  <event>
  5     66 0.20805674E-05 0.74097234E+02 0.75467711E-02 0.86782703E-01
        3 -1    0    0  501    0 0.00000000E+00 0.00000000E+00 0.15008363E+04 0.15008364E+04 0.50000000E+00 0.0000E+00 0.9000E+01
        2 -1    0    0  502    0 0.00000000E+00 0.00000000E+00 -.11890184E+04 0.11890184E+04 0.32000000E+00 0.0000E+00 0.9000E+01
       25  1    1    2    0    0 -.33759834E+03 -.66825053E+03 0.21274103E+03 0.78829890E+03 0.12500000E+03 0.0000E+00 0.9000E+01
        4  1    1    2  501    0 0.40942289E+03 0.68629750E+03 0.83856330E+03 0.11583705E+04 0.15500000E+01 0.0000E+00 0.9000E+01
        1  1    1    2  502    0 -.71824552E+02 -.18046977E+02 -.73948636E+03 0.74318547E+03 0.32000000E+00 0.0000E+00 0.9000E+01
#aMCatNLO 1  0  0  2  5 0.20672431D+02 0.00000000D+00  -5  6  0 0.00000000D+00 0.00000000D+00 0.00000000D+00 0.00000000D+00 0.00000000D+00
  <mgrwgt>
 0.1245592255D-02    7    2    0
 0.133586008590295D+04 0.000000000000000D+00 0.000000000000000D+00 0.133586008590295D+04
 0.133586008590295D+04 0.000000000000000D+00 0.000000000000000D+00 -.133586008590295D+04
 0.768681927180186D+03 -.337445880968657D+03 -.668052823782195D+03 0.122811266695556D+03
 0.106806754193727D+04 0.409309751100149D+03 0.686107856306173D+03 0.708865157353073D+03
 0.834970702688443D+03 -.718638701314924D+02 -.180550325239781D+02 -.831676424048629D+03
 0.000000000000000D+00 -.000000000000000D+00 0.000000000000000D+00 -.000000000000000D+00
 0.146413687934558D+04 0.000000000000000D+00 0.000000000000000D+00 0.146413687934558D+04
 0.175723765550980D+04 0.000000000000000D+00 0.000000000000000D+00 -.175723765550980D+04
 0.860678602995057D+03 -.294656101227601D+03 -.789454135739060D+03 0.122811266695556D+03
 0.100023274362907D+04 0.463626835636515D+03 0.532001773865656D+03 0.708865157353073D+03
 0.844367768963666D+03 -.277615846140284D+02 -.143180129089485D+03 -.831676424048629D+03
 0.516095419267590D+03 -.141209149794885D+03 0.400632490962889D+03 -.293100776164215D+03
0.642162371325D-02 0.000000000000D+00 0.000000000000D+00 0.125509939685D-04 0.000000000000D+00  6 3 2 25 4 1 21 0 0.23089791D+00 0.18292591D+00 0.66571595D+06 0.66571595D+06 0.66571595D+06 0.10598336D+01  1  2  2  2  6  2        2 0.641891368365D-03 0.100000000000D+01
0.270128598937D-02 0.000000000000D+00 -.246607259113D-04 0.125509939685D-04 0.000000000000D+00  6 3 2 25 4 1 21 2 0.23089791D+00 0.18292591D+00 0.66571595D+06 0.66571595D+06 0.66571595D+06 0.10598336D+01  1  2  3  2  6  2        2 0.303293141078D-03 0.100000000000D+01
-.405984573717D-02 0.000000000000D+00 0.000000000000D+00 0.125509939685D-04 0.000000000000D+00  6 3 2 25 4 1 21 2 0.23089791D+00 0.18292591D+00 0.66571595D+06 0.66571595D+06 0.66571595D+06 0.10598336D+01  1  2 15  2  6  2        2 -.455828583410D-03 0.100000000000D+01
-.341993773014D-03 0.000000000000D+00 0.000000000000D+00 0.125509939685D-04 0.000000000000D+00  6 3 2 25 4 1 21 2 0.23089791D+00 0.18292591D+00 0.66571595D+06 0.66571595D+06 0.66571595D+06 0.10598336D+01  1  2  4  2  6  2        2 -.383981429789D-04 0.100000000000D+01
-.134975480409D-01 0.000000000000D+00 -.526996085813D-02 0.125509939685D-04 0.000000000000D+00  6 3 2 25 4 1 21 2 0.23089791D+00 0.25162958D+00 0.66571595D+06 0.66571595D+06 0.66571595D+06 0.10598336D+01  1  2  5  2  6  2        2 -.846381882098D-03 0.100000000000D+01
0.146822374235D-01 0.000000000000D+00 0.501293042828D-02 0.125509939685D-04 0.000000000000D+00  6 3 2 25 4 1 21 2 0.23089791D+00 0.18292591D+00 0.66571595D+06 0.66571595D+06 0.66571595D+06 0.10598336D+01  1  2  6  2  6  2        2 0.164848221320D-02 0.100000000000D+01
-.415475618088D-03 0.000000000000D+00 -.212879505628D-03 0.125509939685D-04 0.000000000000D+00  6 3 21 25 4 1 -2 2 0.23089791D+00 0.25162958D+00 0.66571595D+06 0.66571595D+06 0.66571595D+06 0.10598336D+01  1  2  5  6  6  2        2 -.746585921343D-05 0.100000000000D+01
  </mgrwgt>
  </event>
  <event>
  6     66 0.20805674E-05 0.10756268E+03 0.75467711E-02 0.93754160E-01
        3 -1    0    0  501    0 0.00000000E+00 0.00000000E+00 0.29265728E+03 0.29265771E+03 0.50000000E+00 0.0000E+00 0.9000E+01
        2 -1    0    0  502    0 -.00000000E+00 -.00000000E+00 -.25853220E+04 0.25853220E+04 0.32000000E+00 0.0000E+00 0.9000E+01
       25  1    1    2    0    0 -.82441131E+02 -.47783303E+03 -.11030305E+04 0.12113721E+04 0.12500000E+03 0.0000E+00 0.9000E+01
        4  1    1    2  501    0 0.62163910E+02 0.13599987E+03 0.17746061E+03 0.23206677E+03 0.15500000E+01 0.0000E+00 0.9000E+01
        1  1    1    2  503    0 0.10318847E+03 0.33041308E+03 -.10065123E+04 0.10643721E+04 0.32000000E+00 0.0000E+00 0.9000E+01
       21  1    1    2  502  503 -.82911253E+02 0.11420072E+02 -.36058243E+03 0.37016881E+03 0.75000000E+00 0.0000E+00 0.9000E+01
#aMCatNLO 2  0  0  5  2 0.10840403D+03 0.00000000D+00  -5  6  0 0.00000000D+00 0.00000000D+00 0.00000000D+00 0.00000000D+00 0.00000000D+00
  <mgrwgt>
 0.2463320815D-03    1    2    0
 0.869835581710630D+03 0.000000000000000D+00 0.000000000000000D+00 0.869835581710630D+03
 0.869835581710630D+03 -.000000000000000D+00 -.000000000000000D+00 -.869835581710630D+03
 0.557062578502071D+03 -.833158750962143D+02 -.492737803645609D+03 -.212041595407198D+03
 0.631399734092895D+03 0.611496029739905D+02 0.119422243577449D+03 0.616980289804812D+03
 0.551208850826295D+03 0.221662721222238D+02 0.373315560068160D+03 -.404938694397614D+03
 0.000000000000000D+00 0.000000000000000D+00 0.000000000000000D+00 -.000000000000000D+00
 0.869835581710630D+03 0.000000000000000D+00 0.000000000000000D+00 0.869835581710630D+03
 0.869835581710630D+03 -.000000000000000D+00 -.000000000000000D+00 -.869835581710630D+03
 0.550398706345257D+03 -.824453987621119D+02 -.478077586609578D+03 -.227943662669200D+03
 0.617416227289137D+03 0.621311855854154D+02 0.135953668451992D+03 0.599048506827409D+03
 0.434430007267746D+03 0.103348812547269D+03 0.330598043088343D+03 -.262208672751076D+03
 0.137426222519121D+03 -.830345993705722D+02 0.115258750692427D+02 -.108896171407133D+03
0.154017367844D-03 0.000000000000D+00 0.000000000000D+00 0.619153335357D-05 0.106342350051D-08  6 3 2 25 4 1 21 2 0.45024231D-01 0.39774187D+00 0.29195857D+06 0.29195857D+06 0.29195857D+06 0.10854260D+01  1  2  1  4  6  5        1 0.246332081518D-03 0.100000000000D+01
  </mgrwgt>
  </event>
  <event>
  5     66 0.20805674E-05 0.13730154E+03 0.75467711E-02 0.90727944E-01
        3 -1    0    0  501    0 0.00000000E+00 0.00000000E+00 0.66280663E+03 0.66280682E+03 0.50000000E+00 0.0000E+00 0.9000E+01
        2 -1    0    0  502    0 -.00000000E+00 -.00000000E+00 -.25952291E+04 0.25952291E+04 0.32000000E+00 0.0000E+00 0.9000E+01
       25  1    1    2    0    0 0.19867795E+03 -.43525359E+03 -.49799516E+02 0.49701469E+03 0.12500000E+03 0.0000E+00 0.9000E+01
        4  1    1    2  501    0 -.64102980E+02 0.40844097E+03 0.33931179E+03 0.53485335E+03 0.15500000E+01 0.0000E+00 0.9000E+01
        1  1    1    2  502    0 -.13457497E+03 0.26812619E+02 -.22219348E+04 0.22261679E+04 0.32000000E+00 0.0000E+00 0.9000E+01
#aMCatNLO 1  0  0  5  1 0.52881706D+02 0.00000000D+00  -5  6  0 0.00000000D+00 0.00000000D+00 0.00000000D+00 0.00000000D+00 0.00000000D+00
  <mgrwgt>
 0.2038760780D-02    6    2    0
 0.131153932152713D+04 0.000000000000000D+00 0.000000000000000D+00 0.131153932152713D+04
 0.131153932152713D+04 -.000000000000000D+00 -.000000000000000D+00 -.131153932152713D+04
 0.580852201952983D+03 0.198725152523411D+03 -.435069699733791D+03 0.304937617623219D+03
 0.913836837226492D+03 -.640710165040129D+02 0.408237305873761D+03 0.815067464697981D+03
 0.112838960387479D+04 -.134654136019399D+03 0.268323938600297D+02 -.112000508232120D+04
 0.000000000000000D+00 0.000000000000000D+00 0.000000000000000D+00 -.000000000000000D+00
 0.131153932152713D+04 0.000000000000000D+00 0.000000000000000D+00 0.131153932152713D+04
 0.131153932152713D+04 -.000000000000000D+00 -.000000000000000D+00 -.131153932152713D+04
 0.566314615630263D+03 0.195652633382626D+03 -.434457441943832D+03 0.279381499148599D+03
 0.879203566856825D+03 -.688734139211162D+02 0.409194274762927D+03 0.775122835639524D+03
 0.668344756391827D+03 -.228042875156258D+03 -.182999865308693D+03 -.600992686963759D+03
 0.509215704175350D+03 0.101263655694747D+03 0.208263032489598D+03 -.453511647824364D+03
0.872778466285D-02 0.000000000000D+00 0.000000000000D+00 0.582432839813D-04 0.000000000000D+00  6 3 2 25 4 1 21 0 0.10197027D+00 0.39926603D+00 0.27295752D+06 0.27295752D+06 0.27295752D+06 0.10876003D+01  1  2  2  4  6  5        1 0.197313288074D-02 0.100000000000D+01
0.167487818087D-02 0.000000000000D+00 -.335169911838D-04 0.582432839813D-04 0.000000000000D+00  6 3 2 25 4 1 21 2 0.10197027D+00 0.39926603D+00 0.27295752D+06 0.27295752D+06 0.27295752D+06 0.10876003D+01  1  2  3  4  6  5        1 0.447892875050D-03 0.100000000000D+01
-.631015359000D-02 0.000000000000D+00 0.000000000000D+00 0.582432839813D-04 0.000000000000D+00  6 3 2 25 4 1 21 2 0.10197027D+00 0.39926603D+00 0.27295752D+06 0.27295752D+06 0.27295752D+06 0.10876003D+01  1  2 15  4  6  5        1 -.168744978931D-02 0.100000000000D+01
-.266081174442D-03 0.000000000000D+00 0.000000000000D+00 0.582432839813D-04 0.000000000000D+00  6 3 2 25 4 1 21 2 0.10197027D+00 0.39926603D+00 0.27295752D+06 0.27295752D+06 0.27295752D+06 0.10876003D+01  1  2  4  4  6  5        1 -.711549434333D-04 0.100000000000D+01
-.958137771658D-02 0.000000000000D+00 0.000000000000D+00 0.582432839813D-04 0.000000000000D+00  6 3 2 25 4 1 21 2 0.10197027D+00 0.39926603D+00 0.27295752D+06 0.27295752D+06 0.27295752D+06 0.10876003D+01  1  2  5  4  6  5        1 -.256223459201D-02 0.100000000000D+01
0.147281473041D-01 0.000000000000D+00 -.000000000000D+00 0.582432839813D-04 0.000000000000D+00  6 3 2 25 4 1 21 2 0.10197027D+00 0.39926603D+00 0.27295752D+06 0.27295752D+06 0.27295752D+06 0.10876003D+01  1  2  6  4  6  5        1 0.393857434859D-02 0.100000000000D+01
  </mgrwgt>
  </event>
  <event>
  5     66 0.20805674E-05 0.87710275E+02 0.75467711E-02 0.92160228E-01
        3 -1    0    0  501    0 0.00000000E+00 0.00000000E+00 0.50560573E+03 0.50560598E+03 0.50000000E+00 0.0000E+00 0.9000E+01
        2 -1    0    0  502    0 0.00000000E+00 0.00000000E+00 -.30601877E+04 0.30601877E+04 0.32000000E+00 0.0000E+00 0.9000E+01
       25  1    1    2    0    0 0.11305230E+03 -.60672551E+03 -.89231445E+03 0.10921295E+04 0.12500000E+03 0.0000E+00 0.9000E+01
        4  1    1    2  501    0 -.35502169E+02 0.80245289E+02 0.36619146E+03 0.37656115E+03 0.15500000E+01 0.0000E+00 0.9000E+01
        1  1    1    2  502    0 -.77550131E+02 0.52648022E+03 -.20284590E+04 0.20971031E+04 0.32000000E+00 0.0000E+00 0.9000E+01
#aMCatNLO 1  0  0  2  5 0.96976111D+01 0.00000000D+00  -5  6  0 0.00000000D+00 0.00000000D+00 0.00000000D+00 0.00000000D+00 0.00000000D+00
  <mgrwgt>
 0.4134195077D-03    1    2    0
 0.124388459971130D+04 0.000000000000000D+00 0.000000000000000D+00 0.124388459971130D+04
 0.124388459971130D+04 0.000000000000000D+00 0.000000000000000D+00 -.124388459971130D+04
 0.649307129176881D+03 0.113093906009597D+03 -.607034697081674D+03 -.157141315262333D+03
 0.915367422970651D+03 -.354869081782123D+02 0.802107953169883D+02 0.911155544733443D+03
 0.923094647275067D+03 -.776069978313852D+02 0.526823901764686D+03 -.754014229471110D+03
 0.000000000000000D+00 -.000000000000000D+00 -.000000000000000D+00 0.000000000000000D+00
 0.836245987591276D+04 0.000000000000000D+00 0.000000000000000D+00 0.836245987591276D+04
 0.236918946850535D+04 0.000000000000000D+00 0.000000000000000D+00 -.236918946850535D+04
 0.648835311436536D+03 0.584212666939031D+03 -.198404708090698D+03 -.157141315262333D+03
 0.149683372269170D+04 0.839943383061634D+03 0.839524794118423D+03 0.911155544733443D+03
 0.183498670306649D+04 0.923349313019595D+03 0.139501426097806D+04 -.754014229471110D+03
 0.675099360722338D+04 -.234750536302026D+04 -.203613434700578D+04 0.599327040740741D+04
0.166225240855D-02 0.000000000000D+00 0.000000000000D+00 0.441385439585D-04 0.000000000000D+00  6 3 2 25 4 1 21 2 0.77785517D-01 0.47079813D+00 0.39076547D+06 0.39076547D+06 0.39076547D+06 0.10761596D+01  1  2 14  2  6  2        2 0.413419507650D-03 0.100000000000D+01
  </mgrwgt>
  </event>
  <event>
  5     66 -.20805674E-05 0.26665463E+02 0.75467711E-02 0.93744339E-01
        3 -1    0    0  501    0 0.00000000E+00 0.00000000E+00 0.49775809E+03 0.49775834E+03 0.50000000E+00 0.0000E+00 0.9000E+01
        2 -1    0    0  502    0 0.00000000E+00 0.00000000E+00 -.10259745E+04 0.10259746E+04 0.32000000E+00 0.0000E+00 0.9000E+01
       25  1    1    2    0    0 0.48283152E+03 -.29268973E+02 -.61694257E+03 0.79386780E+03 0.12500000E+03 0.0000E+00 0.9000E+01
        4  1    1    2  501    0 -.17826188E+02 -.19913465E+02 0.23762717E+03 0.23913049E+03 0.15500000E+01 0.0000E+00 0.9000E+01
        1  1    1    2  502    0 -.46500533E+03 0.49182437E+02 -.14890106E+03 0.49073465E+03 0.32000000E+00 0.0000E+00 0.9000E+01
#aMCatNLO 1  0  0  2  1 0.95787105D+02 0.00000000D+00  -5  6  0 0.00000000D+00 0.00000000D+00 0.00000000D+00 0.00000000D+00 0.00000000D+00
  <mgrwgt>
 -.1238821708D-02    7    2    0
 0.714623929771142D+03 0.000000000000000D+00 0.000000000000000D+00 0.714623929771142D+03
 0.714623929771142D+03 0.000000000000000D+00 0.000000000000000D+00 -.714623929771142D+03
 0.618563173919713D+03 0.483337576842378D+03 -.293243180688653D+02 -.364033338186990D+03
 0.341970965456454D+03 -.177853124200732D+02 -.198678029053931D+02 0.340929749779998D+03
 0.468713720166117D+03 -.465552264422305D+03 0.491921209742583D+02 0.231035884069918D+02
 0.000000000000000D+00 -.000000000000000D+00 -.000000000000000D+00 -.000000000000000D+00
 0.730886929902715D+03 0.000000000000000D+00 0.000000000000000D+00 0.730886929902715D+03
 0.872694111821360D+03 0.000000000000000D+00 0.000000000000000D+00 -.872694111821360D+03
 0.645867543980069D+03 0.518617645875586D+03 -.594562374762507D+01 -.364033338186990D+03
 0.341008981482865D+03 0.127115254491828D+01 -.723984379225742D+01 0.340929749779998D+03
 0.445577527373724D+03 -.440041765608070D+03 0.660969108486479D+02 0.231035884069918D+02
 0.171126988887417D+03 -.798470328124343D+02 -.529114433087654D+02 -.141807181918644D+03
0.770418496435D-04 0.000000000000D+00 0.000000000000D+00 0.233730374024D-05 0.000000000000D+00  6 3 2 25 4 1 21 0 0.76578191D-01 0.15784226D+00 0.24746125D+06 0.24746125D+06 0.24746125D+06 0.10907927D+01  1  2  2  2  6  2        2 0.258309104775D-03 0.100000000000D+01
0.393314706269D-04 0.000000000000D+00 -.295860988216D-06 0.233730374024D-05 0.000000000000D+00  6 3 2 25 4 1 21 2 0.76578191D-01 0.15784226D+00 0.24746125D+06 0.24746125D+06 0.24746125D+06 0.10907927D+01  1  2  3  2  6  2        2 0.156905323170D-03 0.100000000000D+01
-.600860113563D-04 0.000000000000D+00 0.000000000000D+00 0.233730374024D-05 0.000000000000D+00  6 3 2 25 4 1 21 2 0.76578191D-01 0.15784226D+00 0.24746125D+06 0.24746125D+06 0.24746125D+06 0.10907927D+01  1  2 15  2  6  2        2 -.239701564157D-03 0.100000000000D+01
-.524645921286D-03 0.000000000000D+00 0.000000000000D+00 0.233730374024D-05 0.000000000000D+00  6 3 2 25 4 1 21 2 0.76578191D-01 0.15784226D+00 0.24746125D+06 0.24746125D+06 0.24746125D+06 0.10907927D+01  1  2  4  2  6  2        2 -.209297380741D-02 0.100000000000D+01
-.608217847287D-03 0.000000000000D+00 -.914495373416D-04 0.233730374024D-05 0.000000000000D+00  6 3 2 25 4 1 21 2 0.76578191D-01 0.19466415D+00 0.24746125D+06 0.24746125D+06 0.24746125D+06 0.10907927D+01  1  2  5  2  6  2        2 -.175464167409D-02 0.100000000000D+01
0.615780849166D-03 0.000000000000D+00 0.894754039847D-04 0.233730374024D-05 0.000000000000D+00  6 3 2 25 4 1 21 2 0.76578191D-01 0.15784226D+00 0.24746125D+06 0.24746125D+06 0.24746125D+06 0.10907927D+01  1  2  6  2  6  2        2 0.245653904113D-02 0.100000000000D+01
-.169029125549D-04 0.000000000000D+00 -.271316572077D-05 0.233730374024D-05 0.000000000000D+00  6 3 21 25 4 1 -2 2 0.76578191D-01 0.19466415D+00 0.24746125D+06 0.24746125D+06 0.24746125D+06 0.10907927D+01  1  2  5  6  6  2        2 -.232581311915D-04 0.100000000000D+01
  </mgrwgt>
  </event>
  <event>
  5     66 0.20805674E-05 0.75066629E+02 0.75467711E-02 0.93927560E-01
        3 -1    0    0  501    0 0.00000000E+00 0.00000000E+00 0.42806784E+03 0.42806813E+03 0.50000000E+00 0.0000E+00 0.9000E+01
        2 -1    0    0  502    0 0.00000000E+00 0.00000000E+00 -.28110738E+04 0.28110739E+04 0.32000000E+00 0.0000E+00 0.9000E+01
       25  1    1    2    0    0 -.26493420E+03 0.39036980E+03 -.87074633E+03 0.99819982E+03 0.12500000E+03 0.0000E+00 0.9000E+01
        4  1    1    2  501    0 0.26933565E+03 -.31548469E+03 0.24520881E+03 0.48187347E+03 0.15500000E+01 0.0000E+00 0.9000E+01
        1  1    1    2  502    0 -.44014416E+01 -.74885119E+02 -.17574685E+04 0.17590687E+04 0.32000000E+00 0.0000E+00 0.9000E+01
#aMCatNLO 1  0  0  2  2 0.58240777D+02 0.00000000D+00  -5  6  0 0.00000000D+00 0.00000000D+00 0.00000000D+00 0.00000000D+00 0.00000000D+00
  <mgrwgt>
 0.2738915576D-01    7    2    0
 0.109696436395575D+04 0.000000000000000D+00 0.000000000000000D+00 0.109696436395575D+04
 0.109696436395575D+04 0.000000000000000D+00 0.000000000000000D+00 -.109696436395575D+04
 0.527766620214826D+03 -.264893428917589D+03 0.390374705909061D+03 -.200877240412338D+03
 0.977636741385434D+03 0.269295140569223D+03 -.315437240332647D+03 0.885298295934120D+03
 0.688525366311242D+03 -.440171165163372D+01 -.749374655764142D+02 -.684421055521782D+03
 0.000000000000000D+00 -.000000000000000D+00 0.000000000000000D+00 -.000000000000000D+00
 0.109950047713401D+04 0.000000000000000D+00 0.000000000000000D+00 0.109950047713401D+04
 0.149183017171134D+04 0.000000000000000D+00 0.000000000000000D+00 -.149183017171134D+04
 0.515430504350132D+03 -.257301465411779D+03 0.378797960654366D+03 -.200877240412338D+03
 0.988903767210975D+03 0.283606820904988D+03 -.337260669447785D+03 0.885298295934120D+03
 0.690367359938858D+03 0.563330762670692D+01 -.902395493815309D+02 -.684421055521782D+03
 0.396629017345384D+03 -.319386631199164D+02 0.487022581749504D+02 -.392329694577326D+03
0.190070604617D-02 0.000000000000D+00 0.000000000000D+00 0.145244492112D-03 0.000000000000D+00  6 3 2 25 4 1 21 0 0.65856615D-01 0.43247292D+00 0.23905409D+06 0.23905409D+06 0.23905409D+06 0.10919249D+01  1  2  2  2  6  2        2 0.872206527136D-03 0.100000000000D+01
0.519387821789D-03 0.000000000000D+00 -.729921168471D-05 0.145244492112D-03 0.000000000000D+00  6 3 2 25 4 1 21 2 0.65856615D-01 0.43247292D+00 0.23905409D+06 0.23905409D+06 0.23905409D+06 0.10919249D+01  1  2  3  2  6  2        2 0.284172247630D-03 0.100000000000D+01
-.137930831855D-02 0.000000000000D+00 0.000000000000D+00 0.145244492112D-03 0.000000000000D+00  6 3 2 25 4 1 21 2 0.65856615D-01 0.43247292D+00 0.23905409D+06 0.23905409D+06 0.23905409D+06 0.10919249D+01  1  2 15  2  6  2        2 -.754659868050D-03 0.100000000000D+01
-.792548131678D-02 0.000000000000D+00 0.000000000000D+00 0.145244492112D-03 0.000000000000D+00  6 3 2 25 4 1 21 2 0.65856615D-01 0.43247292D+00 0.23905409D+06 0.23905409D+06 0.23905409D+06 0.10919249D+01  1  2  4  2  6  2        2 -.433626231663D-02 0.100000000000D+01
-.757893754341D-01 0.000000000000D+00 -.111262985040D-02 0.145244492112D-03 0.000000000000D+00  6 3 2 25 4 1 21 2 0.65856615D-01 0.58838506D+00 0.23905409D+06 0.23905409D+06 0.23905409D+06 0.10919249D+01  1  2  5  2  6  2        2 -.845015804426D-02 0.100000000000D+01
0.727096605930D-01 0.000000000000D+00 0.106190787622D-02 0.145244492112D-03 0.000000000000D+00  6 3 2 25 4 1 21 2 0.65856615D-01 0.43247292D+00 0.23905409D+06 0.23905409D+06 0.23905409D+06 0.10919249D+01  1  2  6  2  6  2        2 0.397815790212D-01 0.100000000000D+01
-.295892489967D-02 0.000000000000D+00 -.438198086267D-04 0.145244492112D-03 0.000000000000D+00  6 3 21 25 4 1 -2 2 0.65856615D-01 0.58838506D+00 0.23905409D+06 0.23905409D+06 0.23905409D+06 0.10919249D+01  1  2  5  6  6  2        2 -.772180676099D-05 0.100000000000D+01
  </mgrwgt>
  </event>
  <event>
  5     66 0.20805674E-05 0.10313941E+03 0.75467711E-02 0.95127961E-01
        3 -1    0    0  501    0 0.00000000E+00 0.00000000E+00 0.57514675E+03 0.57514697E+03 0.50000000E+00 0.0000E+00 0.9000E+01
        2 -1    0    0  502    0 -.00000000E+00 -.00000000E+00 -.18738193E+04 0.18738193E+04 0.32000000E+00 0.0000E+00 0.9000E+01
       25  1    1    2    0    0 0.42242317E+03 0.15753471E+03 -.64812552E+03 0.79934361E+03 0.12500000E+03 0.0000E+00 0.9000E+01
        4  1    1    2  501    0 -.38073325E+03 -.63279242E+02 0.42214632E+03 0.57198950E+03 0.15500000E+01 0.0000E+00 0.9000E+01
        1  1    1    2  502    0 -.41689918E+02 -.94255472E+02 -.10726934E+04 0.10776332E+04 0.32000000E+00 0.0000E+00 0.9000E+01
#aMCatNLO 1  0  0  5  2 0.64068793D+02 0.00000000D+00  -5  6  0 0.00000000D+00 0.00000000D+00 0.00000000D+00 0.00000000D+00 0.00000000D+00
  <mgrwgt>
 0.1087138610D-01    4    2    0
 0.103813361007854D+04 0.000000000000000D+00 0.000000000000000D+00 0.103813361007854D+04
 0.103813361007854D+04 -.000000000000000D+00 -.000000000000000D+00 -.103813361007854D+04
 0.537224794087181D+03 0.422410183534175D+03 0.157592237368211D+03 -.264045077496097D+03
 0.938583475461272D+03 -.380682439119992D+03 -.632707966043386D+02 0.855579702454228D+03
 0.600458950608637D+03 -.417277444141834D+02 -.943214407638721D+02 -.591534624958131D+03
 0.000000000000000D+00 0.000000000000000D+00 0.000000000000000D+00 0.000000000000000D+00
 0.103813361007854D+04 0.000000000000000D+00 0.000000000000000D+00 0.103813361007854D+04
 0.103813361007854D+04 -.000000000000000D+00 -.000000000000000D+00 -.103813361007854D+04
 0.581074136166891D+03 0.415708205811847D+03 0.142443079329310D+03 -.359052654208234D+03
 0.812508339260016D+03 -.391176751521191D+03 -.869921522492127D+02 0.706811796649891D+03
 0.321505072026754D+03 -.272670206755906D+03 0.101085059467791D+03 -.137106821270909D+03
 0.361179672703428D+03 0.248138752465250D+03 -.156535986547887D+03 -.210652321170749D+03
0.507127328265D-01 0.000000000000D+00 0.000000000000D+00 0.568088894017D-04 0.000000000000D+00  6 3 2 25 4 1 21 0 0.88484134D-01 0.28827991D+00 0.22891512D+06 0.22891512D+06 0.22891512D+06 0.10933495D+01  1  2  2  4  6  5        1 0.412009144956D-01 0.100000000000D+01
0.882989111526D-02 0.000000000000D+00 -.194750247023D-03 0.568088894017D-04 0.000000000000D+00  6 3 2 25 4 1 21 2 0.88484134D-01 0.28827991D+00 0.22891512D+06 0.22891512D+06 0.22891512D+06 0.10933495D+01  1  2  3  4  6  5        1 0.857557484979D-02 0.100000000000D+01
-.390255578258D-01 0.000000000000D+00 0.000000000000D+00 0.568088894017D-04 0.000000000000D+00  6 3 2 25 4 1 21 2 0.88484134D-01 0.28827991D+00 0.22891512D+06 0.22891512D+06 0.22891512D+06 0.10933495D+01  1  2 15  4  6  5        1 -.379015536909D-01 0.100000000000D+01
-.103331070531D-02 0.000000000000D+00 0.000000000000D+00 0.568088894017D-04 0.000000000000D+00  6 3 2 25 4 1 21 2 0.88484134D-01 0.28827991D+00 0.22891512D+06 0.22891512D+06 0.22891512D+06 0.10933495D+01  1  2  4  4  6  5        1 -.100354955467D-02 0.100000000000D+01
  </mgrwgt>
  </event>
  <event>
  5     66 0.20805674E-05 0.87780163E+02 0.75467711E-02 0.89988268E-01
        3 -1    0    0  501    0 0.00000000E+00 0.00000000E+00 0.73061875E+03 0.73061892E+03 0.50000000E+00 0.0000E+00 0.9000E+01
        2 -1    0    0  502    0 0.00000000E+00 0.00000000E+00 -.15164549E+04 0.15164550E+04 0.32000000E+00 0.0000E+00 0.9000E+01
       25  1    1    2    0    0 -.47675301E+03 -.12781334E+03 -.87805664E+03 0.10150065E+04 0.12500000E+03 0.0000E+00 0.9000E+01
        4  1    1    2  501    0 0.39918363E+03 0.86866730E+02 0.59496993E+03 0.72172364E+03 0.15500000E+01 0.0000E+00 0.9000E+01
        1  1    1    2  502    0 0.77569378E+02 0.40946610E+02 -.50274946E+03 0.51034376E+03 0.32000000E+00 0.0000E+00 0.9000E+01
#aMCatNLO 1  0  0  1  2 0.62014920D+03 0.00000000D+00  -5  6  0 0.00000000D+00 0.00000000D+00 0.00000000D+00 0.00000000D+00 0.00000000D+00
  <mgrwgt>
 0.3456068151D-02    7    2    0
 0.105259233792395D+04 0.000000000000000D+00 0.000000000000000D+00 0.105259233792395D+04
 0.105259233792395D+04 0.000000000000000D+00 0.000000000000000D+00 -.105259233792395D+04
 0.755416546321438D+03 -.476787680705932D+03 -.127835710784273D+03 -.557997040343000D+03
 0.992395721106603D+03 0.399157565015054D+03 0.868610576652364D+02 0.904421175240399D+03
 0.357372408419867D+03 0.776301156908786D+02 0.409746531190364D+02 -.346424134897400D+03
 0.000000000000000D+00 0.000000000000000D+00 0.000000000000000D+00 0.000000000000000D+00
 0.146807313902596D+04 0.000000000000000D+00 0.000000000000000D+00 0.146807313902596D+04
 0.135663581954023D+04 0.000000000000000D+00 0.000000000000000D+00 -.135663581954023D+04
 0.929329224549670D+03 -.691771609207827D+03 -.241079139007414D+03 -.557997040343000D+03
 0.918600208928830D+03 0.155302723831671D+03 -.415902102823237D+02 0.904421175240399D+03
 0.346697539727999D+03 -.122135426283765D+02 -.635076298569047D+01 -.346424134897400D+03
 0.630081985359696D+03 0.548682428004533D+03 0.289020112275429D+03 0.111437319485729D+03
0.566495187292D-02 0.000000000000D+00 0.000000000000D+00 0.220369786828D-04 0.000000000000D+00  6 3 2 25 4 1 21 0 0.11240290D+00 0.23330077D+00 0.25275155D+06 0.25275155D+06 0.25275155D+06 0.10901017D+01  1  2  2  1  6  1        3 0.401691251691D-02 0.100000000000D+01
0.735081829942D-03 0.000000000000D+00 -.217549068081D-04 0.220369786828D-04 0.000000000000D+00  6 3 2 25 4 1 21 2 0.11240290D+00 0.23330077D+00 0.25275155D+06 0.25275155D+06 0.25275155D+06 0.10901017D+01  1  2  3  1  6  1        3 0.619392352116D-03 0.100000000000D+01
-.396430952425D-02 0.000000000000D+00 0.000000000000D+00 0.220369786828D-04 0.000000000000D+00  6 3 2 25 4 1 21 2 0.11240290D+00 0.23330077D+00 0.25275155D+06 0.25275155D+06 0.25275155D+06 0.10901017D+01  1  2 15  1  6  1        3 -.334039409046D-02 0.100000000000D+01
-.819556082773D-04 0.000000000000D+00 0.000000000000D+00 0.220369786828D-04 0.000000000000D+00  6 3 2 25 4 1 21 2 0.11240290D+00 0.23330077D+00 0.25275155D+06 0.25275155D+06 0.25275155D+06 0.10901017D+01  1  2  4  1  6  1        3 -.690571782790D-04 0.100000000000D+01
-.390843872304D-03 0.000000000000D+00 -.348829340837D-02 0.220369786828D-04 0.000000000000D+00  6 3 2 25 4 1 21 2 0.19088711D+00 0.23330077D+00 0.25275155D+06 0.25275155D+06 0.25275155D+06 0.10901017D+01  1  2  5  1  6  1        3 -.694890544780D-04 0.100000000000D+01
0.234016994024D-02 0.000000000000D+00 0.305042745478D-02 0.220369786828D-04 0.000000000000D+00  6 3 2 25 4 1 21 2 0.11240290D+00 0.23330077D+00 0.25275155D+06 0.25275155D+06 0.25275155D+06 0.10901017D+01  1  2  6  1  6  1        3 0.197186667469D-02 0.100000000000D+01
0.144440570754D-03 0.000000000000D+00 -.205985666880D-03 0.220369786828D-04 0.000000000000D+00  6 21 2 25 4 1 -3 2 0.19088711D+00 0.23330077D+00 0.25275155D+06 0.25275155D+06 0.25275155D+06 0.10901017D+01  1  2  5  5  6  1        3 0.326836930212D-03 0.100000000000D+01
  </mgrwgt>
  </event>
  <event>
  5     66 -.20805674E-05 0.14701778E+03 0.75467711E-02 0.89759239E-01
        3 -1    0    0  501    0 0.00000000E+00 0.00000000E+00 0.14723153E+04 0.14723154E+04 0.50000000E+00 0.0000E+00 0.9000E+01
        2 -1    0    0  502    0 -.00000000E+00 -.00000000E+00 -.14746209E+04 0.14746209E+04 0.32000000E+00 0.0000E+00 0.9000E+01
       25  1    1    2    0    0 -.61189664E+03 0.26241675E+03 0.29546165E+03 0.73905523E+03 0.12500000E+03 0.0000E+00 0.9000E+01
        4  1    1    2  501    0 0.72850353E+03 -.17299729E+03 0.80266091E+03 0.10976850E+04 0.15500000E+01 0.0000E+00 0.9000E+01
        1  1    1    2  502    0 -.11660688E+03 -.89419460E+02 -.11004281E+04 0.11101960E+04 0.32000000E+00 0.0000E+00 0.9000E+01
#aMCatNLO 1  0  0  5  2 0.62458089D+01 0.00000000D+00  -5  6  0 0.00000000D+00 0.00000000D+00 0.00000000D+00 0.00000000D+00 0.00000000D+00
  <mgrwgt>
 -.6219836653D-02    8    2    0
 0.147346768389669D+04 0.000000000000000D+00 0.000000000000000D+00 0.147346768389669D+04
 0.147346768389669D+04 -.000000000000000D+00 -.000000000000000D+00 -.147346768389669D+04
 0.739289448854513D+03 -.611588810319986D+03 0.262404225222811D+03 0.296693509979929D+03
 0.109793020475669D+04 0.728250129214693D+03 -.172937116826015D+03 0.803240460534546D+03
 0.110971571418218D+04 -.116661318894707D+03 -.894671083967959D+02 -.109993397051448D+04
 0.000000000000000D+00 0.000000000000000D+00 0.000000000000000D+00 -.000000000000000D+00
 0.147346768389669D+04 0.000000000000000D+00 0.000000000000000D+00 0.147346768389669D+04
 0.147346768389669D+04 -.000000000000000D+00 -.000000000000000D+00 -.147346768389669D+04
 0.739283455570121D+03 -.611590666583921D+03 0.262402801661271D+03 0.296676008311171D+03
 0.109790969382383D+04 0.728247372462964D+03 -.172939230968115D+03 0.803214468672775D+03
 0.536464901041251D+03 -.594362457595805D+02 -.486486327345807D+02 -.530938069149559D+03
 0.573277317358181D+03 -.572204601194629D+02 -.408149379585759D+02 -.568952407834387D+03
0.891721742874D-04 0.000000000000D+00 0.000000000000D+00 0.496892894610D-05 0.000000000000D+00  6 3 2 25 4 1 21 0 0.22651005D+00 0.22686476D+00 0.61831673D+06 0.61831673D+06 0.61831673D+06 0.10620517D+01  1  2  2  4  6  5        1 0.669991897076D-05 0.100000000000D+01
0.215625453266D-04 0.000000000000D+00 -.342444628836D-06 0.496892894610D-05 0.000000000000D+00  6 3 2 25 4 1 21 2 0.22651005D+00 0.22686476D+00 0.61831673D+06 0.61831673D+06 0.61831673D+06 0.10620517D+01  1  2  3  4  6  5        1 0.182739132266D-05 0.100000000000D+01
-.570679798511D-04 0.000000000000D+00 0.000000000000D+00 0.496892894610D-05 0.000000000000D+00  6 3 2 25 4 1 21 2 0.22651005D+00 0.22686476D+00 0.61831673D+06 0.61831673D+06 0.61831673D+06 0.10620517D+01  1  2 15  4  6  5        1 -.483642026494D-05 0.100000000000D+01
0.101825298327D+00 0.000000000000D+00 0.000000000000D+00 0.496892894610D-05 0.000000000000D+00  6 3 2 25 4 1 21 2 0.22651005D+00 0.22686476D+00 0.61837479D+06 0.61837479D+06 0.61837479D+06 0.10620489D+01  1  2 12  4  6  5        1 0.862941965115D-02 0.100000000000D+01
-.272290830120D+00 0.000000000000D+00 0.000000000000D+00 0.496892894610D-05 0.000000000000D+00  6 3 2 25 4 1 21 2 0.22651005D+00 0.22686476D+00 0.61831673D+06 0.61831673D+06 0.61831673D+06 0.10620517D+01  1  2  4  4  6  5        1 -.230762135296D-01 0.100000000000D+01
-.120996246190D+00 0.000000000000D+00 0.000000000000D+00 0.496892894610D-05 0.000000000000D+00  6 3 2 25 4 1 21 2 0.22651005D+00 0.22686476D+00 0.61831673D+06 0.61831673D+06 0.61831673D+06 0.10620517D+01  1  2  5  4  6  5        1 -.102542388671D-01 0.100000000000D+01
0.196155447266D+00 0.000000000000D+00 -.000000000000D+00 0.496892894610D-05 0.000000000000D+00  6 3 2 25 4 1 21 2 0.22651005D+00 0.22686476D+00 0.61831673D+06 0.61831673D+06 0.61831673D+06 0.10620517D+01  1  2  6  4  6  5        1 0.166238612741D-01 0.100000000000D+01
0.218726001979D-01 0.000000000000D+00 0.000000000000D+00 0.496892894610D-05 0.268285553286D-06  6 3 2 25 4 1 21 2 0.22651005D+00 0.22686476D+00 0.61837479D+06 0.61837479D+06 0.61837479D+06 0.10620489D+01  1  2 11  4  6  5        1 0.185364392809D-02 0.100000000000D+01
  </mgrwgt>
  </event>
  <event>
  5     66 0.20805674E-05 0.22256029E+02 0.75467711E-02 0.94891796E-01
        3 -1    0    0  501    0 0.00000000E+00 0.00000000E+00 0.59194331E+03 0.59194352E+03 0.50000000E+00 0.0000E+00 0.9000E+01
        2 -1    0    0  502    0 0.00000000E+00 0.00000000E+00 -.69374456E+03 0.69374463E+03 0.32000000E+00 0.0000E+00 0.9000E+01
       25  1    1    2    0    0 0.21614431E+03 -.42103175E+03 0.27342744E+03 0.56069034E+03 0.12500000E+03 0.0000E+00 0.9000E+01
        4  1    1    2  501    0 -.22598427E+02 -.75989199E+00 0.75037246E+02 0.78385312E+02 0.15500000E+01 0.0000E+00 0.9000E+01
        1  1    1    2  502    0 -.19354588E+03 0.42179164E+03 -.45026594E+03 0.64661249E+03 0.32000000E+00 0.0000E+00 0.9000E+01
#aMCatNLO 1  0  0  1  4 0.23923827D+03 0.00000000D+00  -5  6  0 0.00000000D+00 0.00000000D+00 0.00000000D+00 0.00000000D+00 0.00000000D+00
  <mgrwgt>
 0.2373762216D-02    5    2    0
 0.640825740538346D+03 0.000000000000000D+00 0.000000000000000D+00 0.640825740538346D+03
 0.640825740538346D+03 0.000000000000000D+00 0.000000000000000D+00 -.640825740538346D+03
 0.585158824458940D+03 0.216100651391275D+03 -.421560964343609D+03 0.319957359115431D+03
 0.832496523746686D+02 -.222434574113676D+02 -.747955837602708D+00 0.802195349335611D+02
 0.613243004243084D+03 -.193857193979907D+03 0.422308920181212D+03 -.400176894048992D+03
 0.000000000000000D+00 0.000000000000000D+00 -.000000000000000D+00 0.000000000000000D+00
 0.183321226976877D+04 0.000000000000000D+00 0.000000000000000D+00 0.183321226976877D+04
 0.144546312445738D+04 0.000000000000000D+00 0.000000000000000D+00 -.144546312445738D+04
 0.414461488310195D+03 -.142697917973233D+03 -.182805683298647D+03 0.319957359115431D+03
 0.140440073807568D+03 -.102533496249605D+03 0.526794333013423D+02 0.802195349335611D+02
 0.131200991706052D+04 -.884897567014131D+03 0.882147817447234D+03 -.400176894048992D+03
 0.141176391504786D+04 0.113012898123697D+04 -.752021567449929D+03 0.387749145311389D+03
0.100939168869D-02 0.000000000000D+00 0.000000000000D+00 0.390100132112D-05 0.000000000000D+00  6 3 2 25 4 1 21 0 0.91068223D-01 0.10672995D+00 0.23856908D+06 0.23856908D+06 0.23856908D+06 0.10919915D+01  1  2  2  1  6  1        3 0.381996550041D-02 0.100000000000D+01
0.329114859184D-03 0.000000000000D+00 -.387632986350D-05 0.390100132112D-05 0.000000000000D+00  6 3 2 25 4 1 21 2 0.91068223D-01 0.10672995D+00 0.23856908D+06 0.23856908D+06 0.23856908D+06 0.10919915D+01  1  2  3  1  6  1        3 0.148520271806D-02 0.100000000000D+01
-.663014255035D-03 0.000000000000D+00 0.000000000000D+00 0.390100132112D-05 0.000000000000D+00  6 3 2 25 4 1 21 2 0.91068223D-01 0.10672995D+00 0.23856908D+06 0.23856908D+06 0.23856908D+06 0.10919915D+01  1  2 15  1  6  1        3 -.299199670331D-02 0.100000000000D+01
0.111858376594D-02 0.000000000000D+00 -.693082487106D-03 0.390100132112D-05 0.000000000000D+00  6 3 2 25 4 1 21 2 0.40825343D+00 0.10672995D+00 0.23856908D+06 0.23856908D+06 0.23856908D+06 0.10919915D+01  1  2  5  1  6  1        3 0.127918099618D-04 0.100000000000D+01
0.197248589591D-03 0.000000000000D+00 -.125683207599D-03 0.390100132112D-05 0.000000000000D+00  6 21 2 25 4 1 -3 2 0.40825343D+00 0.10672995D+00 0.23856908D+06 0.23856908D+06 0.23856908D+06 0.10919915D+01  1  2  5  5  6  1        3 0.477988913124D-04 0.100000000000D+01
  </mgrwgt>
  </event>
  <event>
  5     66 0.20805674E-05 0.39200656E+02 0.75467711E-02 0.93235987E-01
        3 -1    0    0  501    0 0.00000000E+00 0.00000000E+00 0.36917156E+03 0.36917190E+03 0.50000000E+00 0.0000E+00 0.9000E+01
        2 -1    0    0  502    0 0.00000000E+00 0.00000000E+00 -.22624963E+04 0.22624963E+04 0.32000000E+00 0.0000E+00 0.9000E+01
       25  1    1    2    0    0 -.14921628E+03 -.46915879E+03 -.55475894E+03 0.75216883E+03 0.12500000E+03 0.0000E+00 0.9000E+01
        4  1    1    2  501    0 0.13491480E+03 0.43269605E+03 0.80121613E+02 0.46027138E+03 0.15500000E+01 0.0000E+00 0.9000E+01
        1  1    1    2  502    0 0.14301482E+02 0.36462749E+02 -.14186874E+04 0.14192280E+04 0.32000000E+00 0.0000E+00 0.9000E+01
#aMCatNLO 1  0  0  2  5 0.15915771D+03 0.00000000D+00  -5  6  0 0.00000000D+00 0.00000000D+00 0.00000000D+00 0.00000000D+00 0.00000000D+00
  <mgrwgt>
 0.7366720048D-02    7    2    0
 0.913919994747092D+03 0.000000000000000D+00 0.000000000000000D+00 0.913919994747092D+03
 0.913919994747092D+03 0.000000000000000D+00 0.000000000000000D+00 -.913919994747092D+03
 0.508171415482884D+03 -.149181231701594D+03 -.469038695589225D+03 -.189960433204081D+02
 0.745414324932192D+03 0.134867607693816D+03 0.432544701244702D+03 0.591910741272866D+03
 0.574254249079108D+03 0.143136240077778D+02 0.364939943445232D+02 -.572914697952458D+03
 0.000000000000000D+00 -.000000000000000D+00 -.000000000000000D+00 -.000000000000000D+00
 0.923851907373988D+03 0.000000000000000D+00 0.000000000000000D+00 0.923851907373988D+03
 0.121588170008485D+04 0.000000000000000D+00 0.000000000000000D+00 -.121588170008485D+04
 0.496660093797801D+03 -.121720405919879D+03 -.464617629768942D+03 -.189960433204081D+02
 0.757743839585694D+03 0.175947096241839D+03 0.439158308722425D+03 0.591910741272866D+03
 0.576239262326293D+03 0.457552155461579D+02 0.415559450225761D+02 -.572914697952458D+03
 0.309090411749051D+03 -.999819058681177D+02 -.160966239760588D+02 -.292029792710864D+03
0.697221682835D-03 0.000000000000D+00 0.000000000000D+00 0.960179352681D-04 0.000000000000D+00  6 3 2 25 4 1 21 0 0.56795653D-01 0.34807638D+00 0.25004994D+06 0.25004994D+06 0.25004994D+06 0.10904526D+01  1  2  2  2  6  2        2 0.909502313506D-03 0.100000000000D+01
0.337459814888D-03 0.000000000000D+00 -.267751484477D-05 0.960179352681D-04 0.000000000000D+00  6 3 2 25 4 1 21 2 0.56795653D-01 0.34807638D+00 0.25004994D+06 0.25004994D+06 0.25004994D+06 0.10904526D+01  1  2  3  2  6  2        2 0.523441988243D-03 0.100000000000D+01
-.537260715814D-03 0.000000000000D+00 0.000000000000D+00 0.960179352681D-04 0.000000000000D+00  6 3 2 25 4 1 21 2 0.56795653D-01 0.34807638D+00 0.25004994D+06 0.25004994D+06 0.25004994D+06 0.10904526D+01  1  2 15  2  6  2        2 -.833357943328D-03 0.100000000000D+01
-.806101357930D-04 0.000000000000D+00 0.000000000000D+00 0.960179352681D-04 0.000000000000D+00  6 3 2 25 4 1 21 2 0.56795653D-01 0.34807638D+00 0.25004994D+06 0.25004994D+06 0.25004994D+06 0.10904526D+01  1  2  4  2  6  2        2 -.125036309186D-03 0.100000000000D+01
-.712130386692D-02 0.000000000000D+00 -.493543887682D-03 0.960179352681D-04 0.000000000000D+00  6 3 2 25 4 1 21 2 0.56795653D-01 0.46427259D+00 0.25004994D+06 0.25004994D+06 0.25004994D+06 0.10904526D+01  1  2  5  2  6  2        2 -.394265513515D-02 0.100000000000D+01
0.699120876284D-02 0.000000000000D+00 0.473753302214D-03 0.960179352681D-04 0.000000000000D+00  6 3 2 25 4 1 21 2 0.56795653D-01 0.34807638D+00 0.25004994D+06 0.25004994D+06 0.25004994D+06 0.10904526D+01  1  2  6  2  6  2        2 0.108442310865D-01 0.100000000000D+01
-.256911122922D-03 0.000000000000D+00 -.185250490530D-04 0.960179352681D-04 0.000000000000D+00  6 3 21 25 4 1 -2 2 0.56795653D-01 0.46427259D+00 0.25004994D+06 0.25004994D+06 0.25004994D+06 0.10904526D+01  1  2  5  6  6  2        2 -.940595232955D-05 0.100000000000D+01
  </mgrwgt>
  </event>
  <event>
  5     66 0.20805674E-05 0.15345563E+03 0.75467711E-02 0.81355434E-01
        3 -1    0    0  501    0 0.00000000E+00 0.00000000E+00 0.47152312E+03 0.47152339E+03 0.50000000E+00 0.0000E+00 0.9000E+01
        2 -1    0    0  502    0 0.00000000E+00 0.00000000E+00 -.10300371E+04 0.10300372E+04 0.32000000E+00 0.0000E+00 0.9000E+01
       25  1    1    2    0    0 -.13644028E+03 0.60914924E+03 -.52854142E+03 0.82744170E+03 0.12500000E+03 0.0000E+00 0.9000E+01
        4  1    1    2  501    0 0.10991317E+03 -.43597555E+03 0.94200788E+02 0.45938195E+03 0.15500000E+01 0.0000E+00 0.9000E+01
        1  1    1    2  502    0 0.26527108E+02 -.17317369E+03 -.12417339E+03 0.21473693E+03 0.32000000E+00 0.0000E+00 0.9000E+01
#aMCatNLO 1  0  0  2  2 0.12400855D+03 0.00000000D+00  -5  6  0 0.00000000D+00 0.00000000D+00 0.00000000D+00 0.00000000D+00 0.00000000D+00
  <mgrwgt>
 0.3809715987D-05    5    2    0
 0.696912164084269D+03 0.000000000000000D+00 0.000000000000000D+00 0.696912164084269D+03
 0.696912164084269D+03 0.000000000000000D+00 0.000000000000000D+00 -.696912164084269D+03
 0.679517212669988D+03 -.136442464208912D+03 0.609231886098867D+03 -.237357547248463D+03
 0.532301863685674D+03 0.109844495791123D+03 -.435703148953519D+03 0.285380845222001D+03
 0.182005251812875D+03 0.265979684177890D+02 -.173528737145348D+03 -.480232979735382D+02
 0.000000000000000D+00 0.000000000000000D+00 0.000000000000000D+00 -.000000000000000D+00
 0.169043980080414D+04 0.000000000000000D+00 0.000000000000000D+00 0.169043980080414D+04
 0.246545480698201D+04 0.000000000000000D+00 0.000000000000000D+00 -.246545480698201D+04
 0.913994984917846D+03 -.829092829082967D+03 0.275732312184063D+03 -.237357547248463D+03
 0.968468833031047D+03 -.542494012973777D+03 -.749793237913294D+03 0.285380845222001D+03
 0.356952691091873D+03 -.207670345542931D+03 -.286325014819793D+03 -.480232979735382D+02
 0.191647809874539D+04 0.157925718759968D+04 0.760385940549024D+03 -.775015006177868D+03
0.337456204632D-05 0.000000000000D+00 0.000000000000D+00 0.340930602544D-08 0.000000000000D+00  6 3 2 25 4 1 21 0 0.72542043D-01 0.15846728D+00 0.39791231D+06 0.39791231D+06 0.39791231D+06 0.10755915D+01  1  2  2  2  6  2        2 0.124962589501D-04 0.100000000000D+01
0.151416131502D-06 0.000000000000D+00 -.129592068005D-07 0.340930602544D-08 0.000000000000D+00  6 3 2 25 4 1 21 2 0.72542043D-01 0.15846728D+00 0.39791231D+06 0.39791231D+06 0.39791231D+06 0.10755915D+01  1  2  3  2  6  2        2 0.648678436192D-06 0.100000000000D+01
-.219011760740D-05 0.000000000000D+00 0.000000000000D+00 0.340930602544D-08 0.000000000000D+00  6 3 2 25 4 1 21 2 0.72542043D-01 0.15846728D+00 0.39791231D+06 0.39791231D+06 0.39791231D+06 0.10755915D+01  1  2 15  2  6  2        2 -.938263347868D-05 0.100000000000D+01
0.250530932676D-05 0.000000000000D+00 -.222393414561D-05 0.340930602544D-08 0.000000000000D+00  6 3 2 25 4 1 21 2 0.72542043D-01 0.70032412D+00 0.39791231D+06 0.39791231D+06 0.39791231D+06 0.10755915D+01  1  2  5  2  6  2        2 0.473244466798D-07 0.100000000000D+01
0.437136598642D-06 0.000000000000D+00 -.398900795421D-06 0.340930602544D-08 0.000000000000D+00  6 3 21 25 4 1 -2 2 0.72542043D-01 0.70032412D+00 0.39791231D+06 0.39791231D+06 0.39791231D+06 0.10755915D+01  1  2  5  6  6  2        2 0.876326346748D-10 0.100000000000D+01
  </mgrwgt>
  </event>
  <event>
  6     66 0.20805674E-05 0.16465873E+02 0.75467711E-02 0.94896314E-01
        3 -1    0    0  503    0 0.00000000E+00 0.00000000E+00 0.28544743E+03 0.28544787E+03 0.50000000E+00 0.0000E+00 0.9000E+01
        2 -1    0    0  502    0 0.00000000E+00 0.00000000E+00 -.12812381E+04 0.12812381E+04 0.32000000E+00 0.0000E+00 0.9000E+01
       25  1    1    2    0    0 0.28338990E+02 -.45373428E+03 -.22624075E+03 0.52296058E+03 0.12500000E+03 0.0000E+00 0.9000E+01
        4  1    1    2  501    0 -.88595045E+01 0.45383559E+03 -.51690333E+03 0.68792200E+03 0.15500000E+01 0.0000E+00 0.9000E+01
        1  1    1    2  502    0 -.15916677E+02 -.23140667E+02 -.30089998E+03 0.30220809E+03 0.32000000E+00 0.0000E+00 0.9000E+01
       21  1    1    2  503  501 -.35628087E+01 0.23039360E+02 0.48253398E+02 0.53595322E+02 0.75000000E+00 0.0000E+00 0.9000E+01
#aMCatNLO 2  0  0  1  1 0.10711053D+03 0.00000000D+00  -5  6  0 0.00000000D+00 0.00000000D+00 0.00000000D+00 0.00000000D+00 0.00000000D+00
  <mgrwgt>
 0.1875549681D-01    1    2    0
 0.547465046286875D+03 0.000000000000000D+00 0.000000000000000D+00 0.547465046286875D+03
 0.547465046286875D+03 0.000000000000000D+00 0.000000000000000D+00 -.547465046286875D+03
 0.497230501943478D+03 0.267233150923433D+02 -.442971452822108D+03 0.186213126492495D+03
 0.467162195320814D+03 -.103603530698255D+02 0.463391132562906D+03 -.583252782530694D+02
 0.130537395309457D+03 -.163629620225178D+02 -.204196797407988D+02 -.127887848239426D+03
 0.000000000000000D+00 -.000000000000000D+00 0.000000000000000D+00 0.000000000000000D+00
 0.666491136909567D+03 0.000000000000000D+00 0.000000000000000D+00 0.666491136909567D+03
 0.548731887947835D+03 0.000000000000000D+00 0.000000000000000D+00 -.548731887947835D+03
 0.506751094640944D+03 0.283565650686796D+02 -.453533073390675D+03 0.186213126492495D+03
 0.457483756157205D+03 -.885616416486090D+01 0.453664101974900D+03 -.583252782530694D+02
 0.130943405622495D+03 -.159375921617680D+02 -.231703885334734D+02 -.127887848239426D+03
 0.120044768436757D+03 -.356280874205077D+01 0.230393599492485D+02 0.117759248961732D+03
0.206286056259D-02 0.000000000000D+00 0.000000000000D+00 0.636615426271D-06 0.850109479403D-08  6 3 2 25 4 1 21 2 0.43914933D-01 0.19711317D+00 0.23838012D+06 0.23838012D+06 0.23838012D+06 0.10920175D+01  1  2  1  1  6  1        3 0.187554968060D-01 0.100000000000D+01
  </mgrwgt>
  </event>
  <event>
  5     66 -.20805674E-05 0.45114263E+02 0.75467711E-02 0.90461528E-01
        3 -1    0    0  501    0 0.00000000E+00 0.00000000E+00 0.51802738E+03 0.51802762E+03 0.50000000E+00 0.0000E+00 0.9000E+01
        2 -1    0    0  502    0 -.00000000E+00 -.00000000E+00 -.16970137E+04 0.16970137E+04 0.32000000E+00 0.0000E+00 0.9000E+01
       25  1    1    2    0    0 0.36657385E+03 -.62745757E+03 0.48586287E+02 0.73896212E+03 0.12500000E+03 0.0000E+00 0.9000E+01
        4  1    1    2  501    0 -.35379511E+01 0.45857059E+02 0.21823517E+02 0.50931869E+02 0.15500000E+01 0.0000E+00 0.9000E+01
        1  1    1    2  502    0 -.36303590E+03 0.58160051E+03 -.12493961E+04 0.14251473E+04 0.32000000E+00 0.0000E+00 0.9000E+01
#aMCatNLO 1  0  0  4  1 0.38631685D+00 0.00000000D+00  -5  6  0 0.00000000D+00 0.00000000D+00 0.00000000D+00 0.00000000D+00 0.00000000D+00
  <mgrwgt>
 -.1657286987D-03    7    2    0
 0.937603250495925D+03 0.000000000000000D+00 0.000000000000000D+00 0.937603250495925D+03
 0.937603250495925D+03 -.000000000000000D+00 -.000000000000000D+00 -.937603250495925D+03
 0.904150890319616D+03 0.366821884332890D+03 -.627232993320964D+03 0.523339574014660D+03
 0.724548903360612D+02 -.347033004335335D+01 0.449805905523063D+02 0.566958059874505D+02
 0.898600720336173D+03 -.363351554289537D+03 0.582252402768658D+03 -.580035380002110D+03
 0.000000000000000D+00 0.000000000000000D+00 0.000000000000000D+00 0.000000000000000D+00
 0.937603250495925D+03 0.000000000000000D+00 0.000000000000000D+00 0.937603250495925D+03
 0.937603250495925D+03 -.000000000000000D+00 -.000000000000000D+00 -.937603250495925D+03
 0.904150912233879D+03 0.366821512928761D+03 -.627228179376219D+03 0.523345641753521D+03
 0.499004901456048D+01 -.581755580063293D+00 0.321626005933290D+01 0.377065257528740D+01
 0.898600077089374D+03 -.363351923413649D+03 0.582257187161021D+03 -.580029349512562D+03
 0.674654626540372D+02 -.288783393504830D+01 0.417547321558645D+02 0.529130551837529D+02
0.408373194582D-05 0.000000000000D+00 0.000000000000D+00 0.131743983660D-06 0.000000000000D+00  6 3 2 25 4 1 21 0 0.79696541D-01 0.26107905D+00 0.53929550D+06 0.53929550D+06 0.53929550D+06 0.10661960D+01  1  2  2  3  6  4        4 0.503794682143D-05 0.100000000000D+01
0.104643290266D-05 0.000000000000D+00 -.156826059433D-07 0.131743983660D-06 0.000000000000D+00  6 3 2 25 4 1 21 2 0.79696541D-01 0.26107905D+00 0.53929550D+06 0.53929550D+06 0.53929550D+06 0.10661960D+01  1  2  3  3  6  4        4 0.146751252125D-05 0.100000000000D+01
-.265005274025D-05 0.000000000000D+00 0.000000000000D+00 0.131743983660D-06 0.000000000000D+00  6 3 2 25 4 1 21 2 0.79696541D-01 0.26107905D+00 0.53929550D+06 0.53929550D+06 0.53929550D+06 0.10661960D+01  1  2 15  3  6  4        4 -.371642134760D-05 0.100000000000D+01
-.111385734946D-02 0.000000000000D+00 0.000000000000D+00 0.131743983660D-06 0.000000000000D+00  6 3 2 25 4 1 21 2 0.79696541D-01 0.26107905D+00 0.53929550D+06 0.53929550D+06 0.53929550D+06 0.10661960D+01  1  2  4  3  6  4        4 -.156206824447D-02 0.100000000000D+01
-.182054933816D-03 0.000000000000D+00 0.000000000000D+00 0.131743983660D-06 0.000000000000D+00  6 3 2 25 4 1 21 2 0.79696541D-01 0.26107905D+00 0.53929550D+06 0.53929550D+06 0.53929550D+06 0.10661960D+01  1  2  5  3  6  4        4 -.255312972528D-03 0.100000000000D+01
0.992457503609D-03 0.000000000000D+00 -.000000000000D+00 0.131743983660D-06 0.000000000000D+00  6 3 2 25 4 1 21 2 0.79696541D-01 0.26107905D+00 0.53929550D+06 0.53929550D+06 0.53929550D+06 0.10661960D+01  1  2  6  3  6  4        4 0.139181767856D-02 0.100000000000D+01
0.183290782950D-03 0.000000000000D+00 0.000000000000D+00 0.131743983660D-06 0.186163861658D-06  6 3 2 25 4 1 21 2 0.79696541D-01 0.26107905D+00 0.53930184D+06 0.53930184D+06 0.53930184D+06 0.10661956D+01  1  2 11  3  6  4        4 0.257045801772D-03 0.100000000000D+01
  </mgrwgt>
  </event>
  <event>
  5     66 0.20805674E-05 0.23937076E+03 0.75467711E-02 0.87877842E-01
        3 -1    0    0  501    0 0.00000000E+00 0.00000000E+00 0.30702959E+03 0.30703000E+03 0.50000000E+00 0.0000E+00 0.9000E+01
        2 -1    0    0  502    0 0.00000000E+00 0.00000000E+00 -.30882206E+04 0.30882206E+04 0.32000000E+00 0.0000E+00 0.9000E+01
       25  1    1    2    0    0 0.49324333E+03 -.18041808E+03 -.97607750E+03 0.11154335E+04 0.12500000E+03 0.0000E+00 0.9000E+01
        4  1    1    2  501    0 0.23961496E+03 -.46137579E+01 0.76893605E+02 0.25169753E+03 0.15500000E+01 0.0000E+00 0.9000E+01
        1  1    1    2  502    0 -.73285829E+03 0.18503184E+03 -.18820071E+04 0.20281195E+04 0.32000000E+00 0.0000E+00 0.9000E+01
#aMCatNLO 1  0  0  2  4 0.29705673D+02 0.00000000D+00  -5  6  0 0.00000000D+00 0.00000000D+00 0.00000000D+00 0.00000000D+00 0.00000000D+00
  <mgrwgt>
 0.2902983397D-03    7    2    0
 0.973743197185267D+03 0.000000000000000D+00 0.000000000000000D+00 0.973743197185267D+03
 0.973743197185267D+03 0.000000000000000D+00 0.000000000000000D+00 -.973743197185267D+03
 0.551329943552004D+03 0.493870207881271D+03 -.180565778962647D+03 -.108756259093346D+03
 0.547958141972815D+03 0.239326398515193D+03 -.460820163839752D+01 0.492909489466075D+03
 0.848198308845715D+03 -.733196606396464D+03 0.185173980601045D+03 -.384153230372730D+03
 0.000000000000000D+00 0.000000000000000D+00 -.000000000000000D+00 -.000000000000000D+00
 0.102891117785424D+04 0.000000000000000D+00 0.000000000000000D+00 0.102891117785424D+04
 0.163160196786817D+04 0.000000000000000D+00 0.000000000000000D+00 -.163160196786817D+04
 0.520047075946398D+03 0.484337968884614D+03 -.917211491704401D+02 -.108756259093346D+03
 0.550576414828350D+03 0.229552533898965D+03 0.864884844363512D+02 0.492909489466075D+03
 0.904145414867947D+03 -.748787531789422D+03 0.330488213190173D+03 -.384153230372730D+03
 0.685744240079722D+03 0.348970290058427D+02 -.325255548456084D+03 -.602690790013928D+03
0.341614261895D-03 0.000000000000D+00 0.000000000000D+00 0.739226707159D-07 0.000000000000D+00  6 3 2 25 4 1 21 0 0.47235354D-01 0.47511089D+00 0.58989022D+06 0.58989022D+06 0.58989022D+06 0.10634726D+01  1  2  2  2  6  2        2 0.197651175241D-03 0.100000000000D+01
0.231081756845D-04 0.000000000000D+00 -.131188871478D-05 0.739226707159D-07 0.000000000000D+00  6 3 2 25 4 1 21 2 0.47235354D-01 0.47511089D+00 0.58989022D+06 0.58989022D+06 0.58989022D+06 0.10634726D+01  1  2  3  2  6  2        2 0.151210398183D-04 0.100000000000D+01
-.230711729121D-03 0.000000000000D+00 0.000000000000D+00 0.739226707159D-07 0.000000000000D+00  6 3 2 25 4 1 21 2 0.47235354D-01 0.47511089D+00 0.58989022D+06 0.58989022D+06 0.58989022D+06 0.10634726D+01  1  2 15  2  6  2        2 -.150968267258D-03 0.100000000000D+01
-.337802711185D-03 0.000000000000D+00 0.000000000000D+00 0.739226707159D-07 0.000000000000D+00  6 3 2 25 4 1 21 2 0.47235354D-01 0.47511089D+00 0.58989022D+06 0.58989022D+06 0.58989022D+06 0.10634726D+01  1  2  4  2  6  2        2 -.221044201684D-03 0.100000000000D+01
-.706591674183D-03 0.000000000000D+00 -.131221031136D-03 0.739226707159D-07 0.000000000000D+00  6 3 2 25 4 1 21 2 0.47235354D-01 0.79967498D+00 0.58989022D+06 0.58989022D+06 0.58989022D+06 0.10634726D+01  1  2  5  2  6  2        2 -.497537809546D-05 0.100000000000D+01
0.694596329940D-03 0.000000000000D+00 0.115244494615D-03 0.739226707159D-07 0.000000000000D+00  6 3 2 25 4 1 21 2 0.47235354D-01 0.47511089D+00 0.58989022D+06 0.58989022D+06 0.58989022D+06 0.10634726D+01  1  2  6  2  6  2        2 0.454515272260D-03 0.100000000000D+01
-.349630584576D-04 0.000000000000D+00 -.764227480733D-05 0.739226707159D-07 0.000000000000D+00  6 3 21 25 4 1 -2 2 0.47235354D-01 0.79967498D+00 0.58989022D+06 0.58989022D+06 0.58989022D+06 0.10634726D+01  1  2  5  6  6  2        2 -.130053241739D-08 0.100000000000D+01
  </mgrwgt>
  </event>
  <event>
  5     66 0.20805674E-05 0.14779509E+03 0.75467711E-02 0.90934199E-01
        3 -1    0    0  501    0 0.00000000E+00 0.00000000E+00 0.12582497E+04 0.12582498E+04 0.50000000E+00 0.0000E+00 0.9000E+01
        2 -1    0    0  502    0 0.00000000E+00 0.00000000E+00 -.33519978E+04 0.33519978E+04 0.32000000E+00 0.0000E+00 0.9000E+01
       25  1    1    2    0    0 -.54352163E+03 -.37590034E+03 0.14443740E+03 0.68789824E+03 0.12500000E+03 0.0000E+00 0.9000E+01
        4  1    1    2  501    0 0.12756460E+03 0.74751937E+02 0.81397195E+03 0.82729277E+03 0.15500000E+01 0.0000E+00 0.9000E+01
        1  1    1    2  502    0 0.41595703E+03 0.30114840E+03 -.30521574E+04 0.30950566E+04 0.32000000E+00 0.0000E+00 0.9000E+01
#aMCatNLO 1  0  0  2  5 0.67798979D+02 0.00000000D+00  -5  6  0 0.00000000D+00 0.00000000D+00 0.00000000D+00 0.00000000D+00 0.00000000D+00
  <mgrwgt>
 0.5721298063D-03    9    2    0
 0.205369194959978D+04 0.000000000000000D+00 0.000000000000000D+00 0.205369194959978D+04
 0.205369194959978D+04 0.000000000000000D+00 0.000000000000000D+00 -.205369194959978D+04
 0.846190853016149D+03 -.543631976929323D+03 -.375986487237786D+03 0.513334583680766D+03
 0.134297229948837D+04 0.127514433667520D+03 0.747225378682629D+02 0.133481504663907D+04
 0.191822074669505D+04 0.416117543261802D+03 0.301263949369523D+03 -.184814963031983D+04
 0.000000000000000D+00 0.000000000000000D+00 -.000000000000000D+00 -.000000000000000D+00
 0.205577141012668D+04 0.000000000000000D+00 0.000000000000000D+00 0.205577141012668D+04
 0.269251005101514D+04 0.000000000000000D+00 0.000000000000000D+00 -.269251005101514D+04
 0.846393783623813D+03 -.551669665575600D+03 -.364562233696847D+03 0.513334583680766D+03
 0.134295285245990D+04 0.114759603196282D+03 0.928514333241224D+02 0.133481504663907D+04
 0.191859679061507D+04 0.397897393976567D+03 0.327160897378908D+03 -.184814963031983D+04
 0.640338034443042D+03 0.390126684027508D+02 -.554500970061825D+02 -.636738640888458D+03
0.319477912269D-02 0.000000000000D+00 0.000000000000D+00 0.152170069742D-03 0.000000000000D+00  6 3 2 25 4 1 21 0 0.19357689D+00 0.51569198D+00 0.44503670D+06 0.44503670D+06 0.44503670D+06 0.10721032D+01  1  2  2  2  6  2        2 0.358320031555D-04 0.100000000000D+01
0.627809507205D-03 0.000000000000D+00 -.122687930358D-04 0.152170069742D-03 0.000000000000D+00  6 3 2 25 4 1 21 2 0.19357689D+00 0.51569198D+00 0.44503670D+06 0.44503670D+06 0.44503670D+06 0.10721032D+01  1  2  3  2  6  2        2 0.809340540669D-05 0.100000000000D+01
-.211358472155D-02 0.000000000000D+00 0.000000000000D+00 0.152170069742D-03 0.000000000000D+00  6 3 2 25 4 1 21 2 0.19357689D+00 0.51569198D+00 0.44503670D+06 0.44503670D+06 0.44503670D+06 0.10721032D+01  1  2 15  2  6  2        2 -.272472745580D-04 0.100000000000D+01
0.213842223497D+00 0.000000000000D+00 0.000000000000D+00 0.152170069742D-03 0.000000000000D+00  6 3 2 25 4 1 21 2 0.19357689D+00 0.69295060D+00 0.49245390D+06 0.49245390D+06 0.49245390D+06 0.10689775D+01  1  2 12  2  6  2        2 0.306923595895D-03 0.100000000000D+01
-.180642444091D+00 0.000000000000D+00 0.000000000000D+00 0.152170069742D-03 0.000000000000D+00  6 3 2 25 4 1 21 2 0.19357689D+00 0.51569198D+00 0.44503670D+06 0.44503670D+06 0.44503670D+06 0.10721032D+01  1  2  4  2  6  2        2 -.232875182186D-02 0.100000000000D+01
-.239048273827D+00 0.000000000000D+00 -.176319881091D-02 0.152170069742D-03 0.000000000000D+00  6 3 2 25 4 1 21 2 0.19357689D+00 0.67619836D+00 0.44503670D+06 0.44503670D+06 0.44503670D+06 0.10721032D+01  1  2  5  2  6  2        2 -.447333269136D-03 0.100000000000D+01
0.234626090297D+00 0.000000000000D+00 0.172696153337D-02 0.152170069742D-03 0.000000000000D+00  6 3 2 25 4 1 21 2 0.19357689D+00 0.51569198D+00 0.44503670D+06 0.44503670D+06 0.44503670D+06 0.10721032D+01  1  2  6  2  6  2        2 0.302468192337D-02 0.100000000000D+01
0.817528160088D-02 0.000000000000D+00 0.000000000000D+00 0.152170069742D-03 0.000000000000D+00  6 3 21 25 4 1 -2 2 0.19357689D+00 0.69295060D+00 0.49245390D+06 0.49245390D+06 0.49245390D+06 0.10689775D+01  1  2 12  6  6  2        2 0.129991353665D-06 0.100000000000D+01
-.854903780081D-02 0.000000000000D+00 -.633052998377D-04 0.152170069742D-03 0.000000000000D+00  6 3 21 25 4 1 -2 2 0.19357689D+00 0.67619836D+00 0.44503670D+06 0.44503670D+06 0.44503670D+06 0.10721032D+01  1  2  5  6  6  2        2 -.198747334848D-06 0.100000000000D+01
  </mgrwgt>
  </event>
  <event>
  5     66 0.20805674E-05 0.36987519E+02 0.75467711E-02 0.90487085E-01
        3 -1    0    0  501    0 0.00000000E+00 0.00000000E+00 0.62350442E+03 0.62350462E+03 0.50000000E+00 0.0000E+00 0.9000E+01
        2 -1    0    0  502    0 0.00000000E+00 0.00000000E+00 -.16671986E+04 0.16671986E+04 0.32000000E+00 0.0000E+00 0.9000E+01
       25  1    1    2    0    0 -.13561451E+00 -.62461886E+03 -.46250551E+03 0.78720079E+03 0.12500000E+03 0.0000E+00 0.9000E+01
        4  1    1    2  501    0 0.35953735E+02 0.61550028E+03 0.25448848E+03 0.66700829E+03 0.15500000E+01 0.0000E+00 0.9000E+01
        1  1    1    2  502    0 -.35818121E+02 0.91185828E+01 -.83567717E+03 0.83649419E+03 0.32000000E+00 0.0000E+00 0.9000E+01
#aMCatNLO 1  0  0  2  5 0.98376924D+01 0.00000000D+00  -5  6  0 0.00000000D+00 0.00000000D+00 0.00000000D+00 0.00000000D+00 0.00000000D+00
  <mgrwgt>
 0.7603932588D-02    7    2    0
 0.101956165388109D+04 0.000000000000000D+00 0.000000000000000D+00 0.101956165388109D+04
 0.101956165388109D+04 0.000000000000000D+00 0.000000000000000D+00 -.101956165388109D+04
 0.647377892239668D+03 -.102120216103675D+00 -.624493810921383D+03 -.116106007824848D+03
 0.879365909082600D+03 0.359459591415367D+02 0.615367157297888D+03 0.627148747744248D+03
 0.512379506439908D+03 -.358438389254331D+02 0.912665362349526D+01 -.511042739919401D+03
 0.000000000000000D+00 0.000000000000000D+00 0.000000000000000D+00 -.000000000000000D+00
 0.103178662390739D+04 0.000000000000000D+00 0.000000000000000D+00 0.103178662390739D+04
 0.165945014171081D+04 0.000000000000000D+00 0.000000000000000D+00 -.165945014171081D+04
 0.679047685801629D+03 -.388894812974328D+02 -.656115662657081D+03 -.116106007824848D+03
 0.850385253403369D+03 -.146354560776014D+02 0.574130064387970D+03 0.627148747744248D+03
 0.515503768317343D+03 -.659012204985041D+02 -.153779797717489D+02 -.511042739919401D+03
 0.646300058095860D+03 0.119426157873538D+03 0.973635780408601D+02 -.627663517803416D+03
0.920673613029D-03 0.000000000000D+00 0.000000000000D+00 0.349367644010D-04 0.000000000000D+00  6 3 2 25 4 1 21 0 0.95923774D-01 0.25649211D+00 0.41620868D+06 0.41620868D+06 0.41620868D+06 0.10741862D+01  1  2  2  2  6  2        2 0.775941200020D-03 0.100000000000D+01
0.486503890830D-03 0.000000000000D+00 -.353562909296D-05 0.349367644010D-04 0.000000000000D+00  6 3 2 25 4 1 21 2 0.95923774D-01 0.25649211D+00 0.41620868D+06 0.41620868D+06 0.41620868D+06 0.10741862D+01  1  2  3  2  6  2        2 0.473117027380D-03 0.100000000000D+01
-.633468859800D-03 0.000000000000D+00 0.000000000000D+00 0.349367644010D-04 0.000000000000D+00  6 3 2 25 4 1 21 2 0.95923774D-01 0.25649211D+00 0.41620868D+06 0.41620868D+06 0.41620868D+06 0.10741862D+01  1  2 15  2  6  2        2 -.616038041083D-03 0.100000000000D+01
-.166191024632D-03 0.000000000000D+00 0.000000000000D+00 0.349367644010D-04 0.000000000000D+00  6 3 2 25 4 1 21 2 0.95923774D-01 0.25649211D+00 0.41620868D+06 0.41620868D+06 0.41620868D+06 0.10741862D+01  1  2  4  2  6  2        2 -.161618036429D-03 0.100000000000D+01
-.110959551081D-01 0.000000000000D+00 -.517505055177D-03 0.349367644010D-04 0.000000000000D+00  6 3 2 25 4 1 21 2 0.95923774D-01 0.41861254D+00 0.41620868D+06 0.41620868D+06 0.41620868D+06 0.10741862D+01  1  2  5  2  6  2        2 -.273674449377D-02 0.100000000000D+01
0.101621077629D-01 0.000000000000D+00 0.461072644189D-03 0.349367644010D-04 0.000000000000D+00  6 3 2 25 4 1 21 2 0.95923774D-01 0.25649211D+00 0.41620868D+06 0.41620868D+06 0.41620868D+06 0.10741862D+01  1  2  6  2  6  2        2 0.988248256043D-02 0.100000000000D+01
-.592777050925D-03 0.000000000000D+00 -.287100447388D-04 0.349367644010D-04 0.000000000000D+00  6 3 21 25 4 1 -2 2 0.95923774D-01 0.41861254D+00 0.41620868D+06 0.41620868D+06 0.41620868D+06 0.10741862D+01  1  2  5  6  6  2        2 -.132076283346D-04 0.100000000000D+01
  </mgrwgt>
  </event>
  <event>
  5     66 0.20805674E-05 0.77278163E+02 0.75467711E-02 0.91209300E-01
        3 -1    0    0  501    0 0.00000000E+00 0.00000000E+00 0.12892557E+04 0.12892558E+04 0.50000000E+00 0.0000E+00 0.9000E+01
        2 -1    0    0  502    0 0.00000000E+00 0.00000000E+00 -.94433909E+03 0.94433915E+03 0.32000000E+00 0.0000E+00 0.9000E+01
       25  1    1    2    0    0 -.62843067E+03 -.18592424E+03 0.55581428E+03 0.86835905E+03 0.12500000E+03 0.0000E+00 0.9000E+01
        4  1    1    2  501    0 0.54622737E+02 -.54940965E+02 0.45048832E+03 0.45710424E+03 0.15500000E+01 0.0000E+00 0.9000E+01
        1  1    1    2  502    0 0.57380794E+03 0.24086520E+03 -.66138599E+03 0.90813166E+03 0.32000000E+00 0.0000E+00 0.9000E+01
#aMCatNLO 1  0  0  4  1 0.21118864D+02 0.00000000D+00  -5  6  0 0.00000000D+00 0.00000000D+00 0.00000000D+00 0.00000000D+00 0.00000000D+00
  <mgrwgt>
 0.7273904456D-03    7    2    0
 0.110340143835317D+04 0.000000000000000D+00 0.000000000000000D+00 0.110340143835317D+04
 0.110340143835317D+04 -.000000000000000D+00 -.000000000000000D+00 -.110340143835317D+04
 0.792808419777097D+03 -.628722884597716D+03 -.186206276558371D+03 0.427732331514527D+03
 0.391251468547249D+03 0.544849694907453D+02 -.548023951446626D+02 0.383543735741284D+03
 0.102274298838199D+04 0.574237915106971D+03 0.241008671703033D+03 -.811276067255811D+03
 0.000000000000000D+00 0.000000000000000D+00 0.000000000000000D+00 0.000000000000000D+00
 0.110340143835317D+04 0.000000000000000D+00 0.000000000000000D+00 0.110340143835317D+04
 0.110340143835317D+04 -.000000000000000D+00 -.000000000000000D+00 -.110340143835317D+04
 0.793423630772666D+03 -.628533355400820D+03 -.186396909939225D+03 0.429066511140376D+03
 0.739062194088056D+02 0.263585959220470D+02 -.224431413208246D+02 0.652967004983732D+02
 0.102145906034125D+04 0.574482164346831D+03 0.240762999484040D+03 -.809556689108344D+03
 0.318013966183609D+03 0.276925951319425D+02 -.319229482239907D+02 0.315193477469596D+03
0.606034907575D-03 0.000000000000D+00 0.000000000000D+00 0.687447580777D-05 0.000000000000D+00  6 3 2 25 4 1 21 0 0.19834704D+00 0.14528295D+00 0.46755995D+06 0.46755995D+06 0.46755995D+06 0.10705754D+01  1  2  2  3  6  4        4 0.162957520133D-03 0.100000000000D+01
0.140138254234D-03 0.000000000000D+00 -.232733361774D-05 0.687447580777D-05 0.000000000000D+00  6 3 2 25 4 1 21 2 0.19834704D+00 0.14528295D+00 0.46755995D+06 0.46755995D+06 0.46755995D+06 0.10705754D+01  1  2  3  3  6  4        4 0.431884908180D-04 0.100000000000D+01
-.456772024128D-03 0.000000000000D+00 0.000000000000D+00 0.687447580777D-05 0.000000000000D+00  6 3 2 25 4 1 21 2 0.19834704D+00 0.14528295D+00 0.46755995D+06 0.46755995D+06 0.46755995D+06 0.10705754D+01  1  2 15  3  6  4        4 -.140770230640D-03 0.100000000000D+01
0.159528590713D-02 0.000000000000D+00 0.000000000000D+00 0.687447580777D-05 0.000000000000D+00  6 3 2 25 4 1 21 2 0.19834704D+00 0.14528295D+00 0.46729075D+06 0.46729075D+06 0.46729075D+06 0.10705932D+01  1  2 12  3  6  4        4 0.491676680925D-03 0.100000000000D+01
-.203427937902D-02 0.000000000000D+00 0.000000000000D+00 0.687447580777D-05 0.000000000000D+00  6 3 2 25 4 1 21 2 0.19834704D+00 0.14528295D+00 0.46755995D+06 0.46755995D+06 0.46755995D+06 0.10705754D+01  1  2  4  3  6  4        4 -.626934142730D-03 0.100000000000D+01
-.175742512429D-02 0.000000000000D+00 0.000000000000D+00 0.687447580777D-05 0.000000000000D+00  6 3 2 25 4 1 21 2 0.19834704D+00 0.14528295D+00 0.46755995D+06 0.46755995D+06 0.46755995D+06 0.10705754D+01  1  2  5  3  6  4        4 -.541611847947D-03 0.100000000000D+01
0.434441813846D-02 0.000000000000D+00 -.000000000000D+00 0.687447580777D-05 0.000000000000D+00  6 3 2 25 4 1 21 2 0.19834704D+00 0.14528295D+00 0.46755995D+06 0.46755995D+06 0.46755995D+06 0.10705754D+01  1  2  6  3  6  4        4 0.133888397503D-02 0.100000000000D+01
  </mgrwgt>
  </event>
  <event>
  5     66 0.20805674E-05 0.74007070E+02 0.75467711E-02 0.91342089E-01
        3 -1    0    0  501    0 0.00000000E+00 0.00000000E+00 0.76287772E+03 0.76287788E+03 0.50000000E+00 0.0000E+00 0.9000E+01
        2 -1    0    0  502    0 0.00000000E+00 0.00000000E+00 -.31251610E+04 0.31251610E+04 0.32000000E+00 0.0000E+00 0.9000E+01
       25  1    1    2    0    0 -.21909898E+03 -.42225546E+03 0.12870677E+03 0.50842351E+03 0.12500000E+03 0.0000E+00 0.9000E+01
        4  1    1    2  501    0 0.67348953E+02 0.30815061E+02 0.42608883E+03 0.43248068E+03 0.15500000E+01 0.0000E+00 0.9000E+01
        1  1    1    2  502    0 0.15175002E+03 0.39144040E+03 -.29170788E+04 0.29471347E+04 0.32000000E+00 0.0000E+00 0.9000E+01
#aMCatNLO 1  0  0  2  5 0.47470363D+01 0.00000000D+00  -5  6  0 0.00000000D+00 0.00000000D+00 0.00000000D+00 0.00000000D+00 0.00000000D+00
  <mgrwgt>
 0.1417533590D-01    7    2    0
 0.154405828919126D+04 0.000000000000000D+00 0.000000000000000D+00 0.154405828919126D+04
 0.154405828919126D+04 0.000000000000000D+00 0.000000000000000D+00 -.154405828919126D+04
 0.739182518124382D+03 -.219126992721929D+03 -.422429099051811D+03 0.551636485772670D+03
 0.869779424062136D+03 0.672973477755926D+02 0.307914499660271D+02 0.866625178559463D+03
 0.147915463619600D+04 0.151829644946337D+03 0.391637649085784D+03 -.141826166433213D+04
 0.000000000000000D+00 0.000000000000000D+00 0.000000000000000D+00 -.000000000000000D+00
 0.161997155485463D+04 0.000000000000000D+00 0.000000000000000D+00 0.161997155485463D+04
 0.242982585865256D+04 0.000000000000000D+00 0.000000000000000D+00 -.242982585865256D+04
 0.817071412599772D+03 -.268283148675594D+03 -.525073359625942D+03 0.551636485772670D+03
 0.870774602145936D+03 0.123198511929805D+02 -.840085049014422D+02 0.866625178559463D+03
 0.143347790807940D+04 0.598306358158021D+02 0.199532101315579D+03 -.141826166433213D+04
 0.928473490682086D+03 0.196132661666812D+03 0.409549763211806D+03 -.809854303797926D+03
0.855529983550D-01 0.000000000000D+00 0.000000000000D+00 0.601005384956D-03 0.000000000000D+00  6 3 2 25 4 1 21 0 0.11736582D+00 0.48079401D+00 0.24308345D+06 0.24308345D+06 0.24308345D+06 0.10913769D+01  1  2  2  2  6  2        2 0.648997552820D-02 0.100000000000D+01
0.211655496738D-01 0.000000000000D+00 -.328546040305D-03 0.601005384956D-03 0.000000000000D+00  6 3 2 25 4 1 21 2 0.11736582D+00 0.48079401D+00 0.24308345D+06 0.24308345D+06 0.24308345D+06 0.10913769D+01  1  2  3  2  6  2        2 0.191243604268D-02 0.100000000000D+01
-.551148457014D-01 0.000000000000D+00 0.000000000000D+00 0.601005384956D-03 0.000000000000D+00  6 3 2 25 4 1 21 2 0.11736582D+00 0.48079401D+00 0.24308345D+06 0.24308345D+06 0.24308345D+06 0.10913769D+01  1  2 15  2  6  2        2 -.497996125924D-02 0.100000000000D+01
-.164318681727D-01 0.000000000000D+00 0.000000000000D+00 0.601005384956D-03 0.000000000000D+00  6 3 2 25 4 1 21 2 0.11736582D+00 0.48079401D+00 0.24308345D+06 0.24308345D+06 0.24308345D+06 0.10913769D+01  1  2  4  2  6  2        2 -.148471915099D-02 0.100000000000D+01
-.134518127797D+00 0.000000000000D+00 -.348889851482D-01 0.601005384956D-03 0.000000000000D+00  6 3 2 25 4 1 21 2 0.11736582D+00 0.76026757D+00 0.24308345D+06 0.24308345D+06 0.24308345D+06 0.10913769D+01  1  2  5  2  6  2        2 -.323633046069D-03 0.100000000000D+01
0.139020370334D+00 0.000000000000D+00 0.315213098364D-01 0.601005384956D-03 0.000000000000D+00  6 3 2 25 4 1 21 2 0.11736582D+00 0.48079401D+00 0.24308345D+06 0.24308345D+06 0.24308345D+06 0.10913769D+01  1  2  6  2  6  2        2 0.125613353299D-01 0.100000000000D+01
-.566746401480D-02 0.000000000000D+00 -.183818729424D-02 0.601005384956D-03 0.000000000000D+00  6 3 21 25 4 1 -2 2 0.11736582D+00 0.76026757D+00 0.24308345D+06 0.24308345D+06 0.24308345D+06 0.10913769D+01  1  2  5  6  6  2        2 -.975442231794D-07 0.100000000000D+01
  </mgrwgt>
  </event>
  <event>
  5     66 0.20805674E-05 0.56965213E+02 0.75467711E-02 0.89324195E-01
        3 -1    0    0  501    0 0.00000000E+00 0.00000000E+00 0.25301933E+03 0.25301982E+03 0.50000000E+00 0.0000E+00 0.9000E+01
        2 -1    0    0  502    0 0.00000000E+00 0.00000000E+00 -.23586239E+04 0.23586239E+04 0.32000000E+00 0.0000E+00 0.9000E+01
       25  1    1    2    0    0 -.43883721E+03 -.47142837E+03 -.85957648E+03 0.10813508E+04 0.12500000E+03 0.0000E+00 0.9000E+01
        4  1    1    2  501    0 0.48057802E+03 0.51013505E+03 -.73309587E+03 0.10142115E+04 0.15500000E+01 0.0000E+00 0.9000E+01
        1  1    1    2  502    0 -.41740808E+02 -.38706674E+02 -.51293219E+03 0.51608142E+03 0.32000000E+00 0.0000E+00 0.9000E+01
#aMCatNLO 1  0  0  2  1 0.22300645D+03 0.00000000D+00  -5  6  0 0.00000000D+00 0.00000000D+00 0.00000000D+00 0.00000000D+00 0.00000000D+00
  <mgrwgt>
 0.7338040639D-03    4    2    0
 0.772514139212057D+03 0.000000000000000D+00 0.000000000000000D+00 0.772514139212057D+03
 0.772514139212057D+03 0.000000000000000D+00 0.000000000000000D+00 -.772514139212057D+03
 0.656302143215758D+03 -.438753607737415D+03 -.471344382816216D+03 0.209104680626807D+02
 0.715211667733999D+03 0.480523996086548D+03 0.510077703131226D+03 0.142986557466908D+03
 0.173514467474355D+03 -.417703883491325D+02 -.387333203150096D+02 -.163897025529589D+03
 0.000000000000000D+00 -.000000000000000D+00 -.000000000000000D+00 0.000000000000000D+00
 0.933313749495310D+03 0.000000000000000D+00 0.000000000000000D+00 0.933313749495310D+03
 0.861890532240376D+03 0.000000000000000D+00 0.000000000000000D+00 -.861890532240376D+03
 0.582965733324778D+03 -.419476318682689D+03 -.384482010789471D+03 0.209104680626807D+02
 0.809525284999205D+03 0.504241866553998D+03 0.616949083353680D+03 0.142986557466908D+03
 0.168548462071620D+03 -.364494677535209D+02 -.147575536504817D+02 -.163897025529589D+03
 0.234164801340083D+03 -.483160801177887D+02 -.217709518913727D+03 0.714232172549334D+02
0.757753773638D-03 0.000000000000D+00 0.000000000000D+00 0.311496720430D-06 0.000000000000D+00  6 3 2 25 4 1 21 0 0.38926090D-01 0.36286525D+00 0.49964187D+06 0.49964187D+06 0.49964187D+06 0.10685324D+01  1  2  2  2  6  2        2 0.180638591648D-02 0.100000000000D+01
0.182192821977D-03 0.000000000000D+00 -.290997401192D-05 0.311496720430D-06 0.000000000000D+00  6 3 2 25 4 1 21 2 0.38926090D-01 0.36286525D+00 0.49964187D+06 0.49964187D+06 0.49964187D+06 0.10685324D+01  1  2  3  2  6  2        2 0.495894253214D-03 0.100000000000D+01
-.549557744338D-03 0.000000000000D+00 0.000000000000D+00 0.311496720430D-06 0.000000000000D+00  6 3 2 25 4 1 21 2 0.38926090D-01 0.36286525D+00 0.49964187D+06 0.49964187D+06 0.49964187D+06 0.10685324D+01  1  2 15  2  6  2        2 -.149579178954D-02 0.100000000000D+01
-.267044044314D-04 0.000000000000D+00 0.000000000000D+00 0.311496720430D-06 0.000000000000D+00  6 3 2 25 4 1 21 2 0.38926090D-01 0.36286525D+00 0.49964187D+06 0.49964187D+06 0.49964187D+06 0.10685324D+01  1  2  4  2  6  2        2 -.726843162607D-04 0.100000000000D+01
  </mgrwgt>
  </event>
  <event>
  6     66 0.20805674E-05 0.85796358E+01 0.75467711E-02 0.93649547E-01
        3 -1    0    0  503    0 0.00000000E+00 0.00000000E+00 0.10223402E+04 0.10223403E+04 0.50000000E+00 0.0000E+00 0.9000E+01
        2 -1    0    0  502    0 0.00000000E+00 0.00000000E+00 -.16138959E+04 0.16138960E+04 0.32000000E+00 0.0000E+00 0.9000E+01
       25  1    1    2    0    0 -.19904537E+03 0.48548429E+03 0.24970606E+03 0.59438386E+03 0.12500000E+03 0.0000E+00 0.9000E+01
        4  1    1    2  501    0 0.88180186E+01 0.19153865E+01 0.34010832E+02 0.35221660E+02 0.15500000E+01 0.0000E+00 0.9000E+01
        1  1    1    2  502    0 0.18125007E+03 -.49678604E+03 -.13923492E+04 0.14893906E+04 0.32000000E+00 0.0000E+00 0.9000E+01
       21  1    1    2  503  501 0.89772740E+01 0.93863601E+01 0.51707652E+03 0.51724016E+03 0.75000000E+00 0.0000E+00 0.9000E+01
#aMCatNLO 2  0  0  1  4 0.51468281D+02 0.00000000D+00  -5  6  0 0.00000000D+00 0.00000000D+00 0.00000000D+00 0.00000000D+00 0.00000000D+00
  <mgrwgt>
 0.2960171193D-01    1    2    0
 0.902899525388032D+03 0.000000000000000D+00 0.000000000000000D+00 0.902899525388032D+03
 0.902899525388032D+03 0.000000000000000D+00 0.000000000000000D+00 -.902899525388032D+03
 0.853574077617992D+03 -.194786377413106D+03 0.490382806638588D+03 0.659201544376942D+03
 0.608208870845625D+02 0.891855673157171D+01 0.218765140224070D+01 0.601236545206719D+02
 0.891404086073509D+03 0.185867820681534D+03 -.492570458040829D+03 -.719325198897614D+03
 0.000000000000000D+00 0.000000000000000D+00 0.000000000000000D+00 0.000000000000000D+00
 0.182725120013131D+04 0.000000000000000D+00 0.000000000000000D+00 0.182725120013131D+04
 0.902968506163636D+03 0.000000000000000D+00 0.000000000000000D+00 -.902968506163636D+03
 0.852015548952058D+03 -.199025871121745D+03 0.485950123131337D+03 0.659201544376942D+03
 0.607667517435570D+02 0.861633278401127D+01 0.187165538952871D+01 0.601236545206719D+02
 0.893063458772286D+03 0.181432264313348D+03 -.497208138601288D+03 -.719325198897614D+03
 0.924373946827046D+03 0.897727402438583D+01 0.938636008042220D+01 0.924282693967675D+03
0.101986234301D+00 0.000000000000D+00 0.000000000000D+00 0.132088327944D-04 0.308397151208D-05  6 3 2 25 4 1 21 2 0.15728309D+00 0.24829165D+00 0.29750579D+06 0.29750579D+06 0.29750579D+06 0.10848202D+01  1  2  1  1  6  1        3 0.296017119276D-01 0.100000000000D+01
  </mgrwgt>
  </event>
  <event>
  5     66 0.20805674E-05 0.13369682E+03 0.75467711E-02 0.88299522E-01
        3 -1    0    0  501    0 0.00000000E+00 0.00000000E+00 0.36532939E+04 0.36532939E+04 0.50000000E+00 0.0000E+00 0.9000E+01
        2 -1    0    0  502    0 0.00000000E+00 0.00000000E+00 -.48571603E+03 0.48571613E+03 0.32000000E+00 0.0000E+00 0.9000E+01
       25  1    1    2    0    0 0.52082354E+03 -.99064917E+02 0.18384098E+04 0.19174062E+04 0.12500000E+03 0.0000E+00 0.9000E+01
        4  1    1    2  501    0 -.38876325E+03 0.11939574E+03 0.17413998E+04 0.17882583E+04 0.15500000E+01 0.0000E+00 0.9000E+01
        1  1    1    2  502    0 -.13206029E+03 -.20330826E+02 -.41223171E+03 0.43334553E+03 0.32000000E+00 0.0000E+00 0.9000E+01
#aMCatNLO 1  0  0  1  4 0.51468281D+02 0.00000000D+00  -5  6  0 0.00000000D+00 0.00000000D+00 0.00000000D+00 0.00000000D+00 0.00000000D+00
  <mgrwgt>
 0.1525781835D-02    7    2    0
 0.133208997150899D+04 0.000000000000000D+00 0.000000000000000D+00 0.133208997150899D+04
 0.133208997150899D+04 0.000000000000000D+00 0.000000000000000D+00 -.133208997150899D+04
 0.793478363875360D+03 0.520510254519186D+03 -.989334024595651D+02 0.577290369533794D+03
 0.707042193376844D+03 -.388369945390060D+03 0.119274952481392D+03 0.578663057783561D+03
 0.116365938576577D+04 -.132140309129125D+03 -.203415500218264D+02 -.115595342731736D+04
 0.000000000000000D+00 -.000000000000000D+00 0.000000000000000D+00 0.000000000000000D+00
 0.185695177109121D+04 0.000000000000000D+00 0.000000000000000D+00 0.185695177109121D+04
 0.154930531717674D+04 0.000000000000000D+00 0.000000000000000D+00 -.154930531717674D+04
 0.902886031143727D+03 0.636082568173624D+03 -.248420975248980D+03 0.577290369533794D+03
 0.649938059779802D+03 -.295919674739965D+03 -.305301008467097D+00 0.578663057783561D+03
 0.117829621171482D+04 0.274157554001289D+02 -.226720119906877D+03 -.115595342731736D+04
 0.675136785629600D+03 -.367578648833788D+03 0.475446396164324D+03 0.307646453914475D+03
0.216261227595D+00 0.000000000000D+00 0.000000000000D+00 0.290654881816D-04 0.000000000000D+00  6 3 2 25 4 1 21 0 0.56204523D+00 0.74725554D-01 0.29395071D+06 0.29395071D+06 0.29395071D+06 0.10852070D+01  1  2  2  1  6  1        3 0.141816592181D-02 0.100000000000D+01
0.425499646566D-01 0.000000000000D+00 -.830500056853D-03 0.290654881816D-04 0.000000000000D+00  6 3 2 25 4 1 21 2 0.56204523D+00 0.74725554D-01 0.29395071D+06 0.29395071D+06 0.29395071D+06 0.10852070D+01  1  2  3  1  6  1        3 0.328603929822D-03 0.100000000000D+01
-.141496318609D+00 0.000000000000D+00 0.000000000000D+00 0.290654881816D-04 0.000000000000D+00  6 3 2 25 4 1 21 2 0.56204523D+00 0.74725554D-01 0.29395071D+06 0.29395071D+06 0.29395071D+06 0.10852070D+01  1  2 15  1  6  1        3 -.109274465268D-02 0.100000000000D+01
-.807522882147D-02 0.000000000000D+00 0.000000000000D+00 0.290654881816D-04 0.000000000000D+00  6 3 2 25 4 1 21 2 0.56204523D+00 0.74725554D-01 0.29395071D+06 0.29395071D+06 0.29395071D+06 0.10852070D+01  1  2  4  1  6  1        3 -.623631992733D-04 0.100000000000D+01
-.994555974716D-01 0.000000000000D+00 -.852565432759D-01 0.290654881816D-04 0.000000000000D+00  6 3 2 25 4 1 21 2 0.79617850D+00 0.74725554D-01 0.29395071D+06 0.29395071D+06 0.29395071D+06 0.10852070D+01  1  2  5  1  6  1        3 -.767584118742D-04 0.100000000000D+01
0.130926884251D+00 0.000000000000D+00 0.874828797089D-01 0.290654881816D-04 0.000000000000D+00  6 3 2 25 4 1 21 2 0.56204523D+00 0.74725554D-01 0.29395071D+06 0.29395071D+06 0.29395071D+06 0.10852070D+01  1  2  6  1  6  1        3 0.101111925783D-02 0.100000000000D+01
-.188732947625D-02 0.000000000000D+00 -.366960962920D-02 0.290654881816D-04 0.000000000000D+00  6 21 2 25 4 1 -3 2 0.79617850D+00 0.74725554D-01 0.29395071D+06 0.29395071D+06 0.29395071D+06 0.10852070D+01  1  2  5  5  6  1        3 -.241011108246D-06 0.100000000000D+01
  </mgrwgt>
  </event>
  <event>
  5     66 0.20805674E-05 0.25397304E+03 0.75467711E-02 0.94070242E-01
        3 -1    0    0  501    0 0.00000000E+00 0.00000000E+00 0.43457541E+03 0.43457570E+03 0.50000000E+00 0.0000E+00 0.9000E+01
        2 -1    0    0  502    0 -.00000000E+00 -.00000000E+00 -.10325335E+04 0.10325335E+04 0.32000000E+00 0.0000E+00 0.9000E+01
       25  1    1    2    0    0 0.33916236E+03 -.35512157E+03 -.56999228E+03 0.76266548E+03 0.12500000E+03 0.0000E+00 0.9000E+01
        4  1    1    2  501    0 -.23972317E+03 0.84657531E+02 0.21076195E+03 0.33023794E+03 0.15500000E+01 0.0000E+00 0.9000E+01
        1  1    1    2  502    0 -.99439186E+02 0.27046404E+03 -.23872774E+03 0.37420581E+03 0.32000000E+00 0.0000E+00 0.9000E+01
#aMCatNLO 1  0  0  5  2 0.26738778D+02 0.00000000D+00  -5  6  0 0.00000000D+00 0.00000000D+00 0.00000000D+00 0.00000000D+00 0.00000000D+00
  <mgrwgt>
 0.6165973518D-04    7    2    0
 0.669861113616665D+03 0.000000000000000D+00 0.000000000000000D+00 0.669861113616665D+03
 0.669861113616665D+03 -.000000000000000D+00 -.000000000000000D+00 -.669861113616665D+03
 0.580759163468031D+03 0.339240941703574D+03 -.355419947137789D+03 -.283281574763927D+03
 0.455240374680905D+03 -.239478642330798D+03 0.845711749941689D+02 0.377811454256106D+03
 0.303722689084394D+03 -.997622993727762D+02 0.270848772143620D+03 -.945298794921788D+02
 0.000000000000000D+00 0.000000000000000D+00 0.000000000000000D+00 -.000000000000000D+00
 0.669861113616665D+03 0.000000000000000D+00 0.000000000000000D+00 0.669861113616665D+03
 0.669861113616665D+03 -.000000000000000D+00 -.000000000000000D+00 -.669861113616665D+03
 0.579163020820387D+03 0.338343599578850D+03 -.352983716074526D+03 -.284131852308118D+03
 0.455417307886116D+03 -.240183147780250D+03 0.864838658318132D+02 0.377143899321456D+03
 0.781677531081618D+02 0.709087063882144D+00 0.752559655061557D+02 -.211242627622990D+02
 0.226974145418665D+03 -.988695388624812D+02 0.191243884736557D+03 -.718877842510393D+02
0.280245360872D-04 0.000000000000D+00 0.000000000000D+00 0.574450323199D-07 0.000000000000D+00  6 3 2 25 4 1 21 0 0.66857781D-01 0.15885133D+00 0.27541213D+06 0.27541213D+06 0.27541213D+06 0.10873103D+01  1  2  2  4  6  5        1 0.124932472766D-03 0.100000000000D+01
0.908238617142D-06 0.000000000000D+00 -.107621597605D-06 0.574450323199D-07 0.000000000000D+00  6 3 2 25 4 1 21 2 0.66857781D-01 0.15885133D+00 0.27541213D+06 0.27541213D+06 0.27541213D+06 0.10873103D+01  1  2  3  4  6  5        1 0.478678402096D-05 0.100000000000D+01
-.185280560080D-04 0.000000000000D+00 0.000000000000D+00 0.574450323199D-07 0.000000000000D+00  6 3 2 25 4 1 21 2 0.66857781D-01 0.15885133D+00 0.27541213D+06 0.27541213D+06 0.27541213D+06 0.10873103D+01  1  2 15  4  6  5        1 -.976503319336D-04 0.100000000000D+01
0.550203423191D-04 0.000000000000D+00 0.000000000000D+00 0.574450323199D-07 0.000000000000D+00  6 3 2 25 4 1 21 2 0.66857781D-01 0.15885133D+00 0.27588994D+06 0.27588994D+06 0.27588994D+06 0.10872541D+01  1  2 12  4  6  5        1 0.289934959555D-03 0.100000000000D+01
-.104050637943D-03 0.000000000000D+00 0.000000000000D+00 0.574450323199D-07 0.000000000000D+00  6 3 2 25 4 1 21 2 0.66857781D-01 0.15885133D+00 0.27541213D+06 0.27541213D+06 0.27541213D+06 0.10873103D+01  1  2  4  4  6  5        1 -.548388850328D-03 0.100000000000D+01
-.537201852252D-04 0.000000000000D+00 0.000000000000D+00 0.574450323199D-07 0.000000000000D+00  6 3 2 25 4 1 21 2 0.66857781D-01 0.15885133D+00 0.27541213D+06 0.27541213D+06 0.27541213D+06 0.10873103D+01  1  2  5  4  6  5        1 -.283127054263D-03 0.100000000000D+01
0.108373438820D-03 0.000000000000D+00 -.000000000000D+00 0.574450323199D-07 0.000000000000D+00  6 3 2 25 4 1 21 2 0.66857781D-01 0.15885133D+00 0.27541213D+06 0.27541213D+06 0.27541213D+06 0.10873103D+01  1  2  6  4  6  5        1 0.571171755361D-03 0.100000000000D+01
  </mgrwgt>
  </event>
  <event>
  5     66 0.20805674E-05 0.19284553E+02 0.75467711E-02 0.93101901E-01
        3 -1    0    0  501    0 0.00000000E+00 0.00000000E+00 0.69202469E+03 0.69202487E+03 0.50000000E+00 0.0000E+00 0.9000E+01
        2 -1    0    0  502    0 -.00000000E+00 -.00000000E+00 -.16703843E+04 0.16703844E+04 0.32000000E+00 0.0000E+00 0.9000E+01
       25  1    1    2    0    0 -.42792749E+03 -.27308102E+03 0.37145997E+03 0.64132885E+03 0.12500000E+03 0.0000E+00 0.9000E+01
        4  1    1    2  501    0 0.19104412E+02 -.33048706E+01 0.14531518E+03 0.14661107E+03 0.15500000E+01 0.0000E+00 0.9000E+01
        1  1    1    2  502    0 0.40882307E+03 0.27638589E+03 -.14951348E+04 0.15744693E+04 0.32000000E+00 0.0000E+00 0.9000E+01
#aMCatNLO 1  0  0  4  4 0.10385202D+03 0.00000000D+00  -5  6  0 0.00000000D+00 0.00000000D+00 0.00000000D+00 0.00000000D+00 0.00000000D+00
  <mgrwgt>
 0.2208216310D-02    6    2    0
 0.107514996681948D+04 0.000000000000000D+00 0.000000000000000D+00 0.107514996681948D+04
 0.107514996681948D+04 -.000000000000000D+00 -.000000000000000D+00 -.107514996681948D+04
 0.874694599722495D+03 -.428130038237188D+03 -.273297493508826D+03 0.701055485096945D+03
 0.225970321850130D+03 0.190023217931143D+02 -.328721008214719D+01 0.225145935724805D+03
 0.104963501206633D+04 0.409127716444074D+03 0.276584703590973D+03 -.926201420821750D+03
 0.000000000000000D+00 0.000000000000000D+00 0.000000000000000D+00 0.000000000000000D+00
 0.107514996681948D+04 0.000000000000000D+00 0.000000000000000D+00 0.107514996681948D+04
 0.107514996681948D+04 -.000000000000000D+00 -.000000000000000D+00 -.107514996681948D+04
 0.887607260352444D+03 -.426712347546915D+03 -.273542739704589D+03 0.717852763898196D+03
 0.141210823323206D+03 0.547216370284480D+02 0.427532555035125D+02 0.122956082437576D+03
 0.103275077870582D+04 0.410802899916337D+03 0.276294913740058D+03 -.906353280448184D+03
 0.887310712574788D+02 -.388121893978704D+02 -.455054295389811D+02 0.655444341124130D+02
0.235295018445D-02 0.000000000000D+00 0.000000000000D+00 0.101535920862D-03 0.000000000000D+00  6 3 2 25 4 1 21 0 0.10646535D+00 0.25698222D+00 0.26843304D+06 0.26843304D+06 0.26843304D+06 0.10881424D+01  1  2  2  3  6  4        4 0.156924407908D-02 0.100000000000D+01
0.997867330510D-03 0.000000000000D+00 -.903594825428D-05 0.101535920862D-03 0.000000000000D+00  6 3 2 25 4 1 21 2 0.10646535D+00 0.25698222D+00 0.26843304D+06 0.26843304D+06 0.26843304D+06 0.10881424D+01  1  2  3  3  6  4        4 0.787992416406D-03 0.100000000000D+01
-.172754339631D-02 0.000000000000D+00 0.000000000000D+00 0.101535920862D-03 0.000000000000D+00  6 3 2 25 4 1 21 2 0.10646535D+00 0.25698222D+00 0.26843304D+06 0.26843304D+06 0.26843304D+06 0.10881424D+01  1  2 15  3  6  4        4 -.136420048405D-02 0.100000000000D+01
-.110159888428D-03 0.000000000000D+00 0.000000000000D+00 0.101535920862D-03 0.000000000000D+00  6 3 2 25 4 1 21 2 0.10646535D+00 0.25698222D+00 0.26843304D+06 0.26843304D+06 0.26843304D+06 0.10881424D+01  1  2  4  3  6  4        4 -.869906790405D-04 0.100000000000D+01
-.172075424137D-02 0.000000000000D+00 0.000000000000D+00 0.101535920862D-03 0.000000000000D+00  6 3 2 25 4 1 21 2 0.10646535D+00 0.25698222D+00 0.26843304D+06 0.26843304D+06 0.26843304D+06 0.10881424D+01  1  2  5  3  6  4        4 -.135883924770D-02 0.100000000000D+01
0.336974711256D-02 0.000000000000D+00 -.000000000000D+00 0.101535920862D-03 0.000000000000D+00  6 3 2 25 4 1 21 2 0.10646535D+00 0.25698222D+00 0.26843304D+06 0.26843304D+06 0.26843304D+06 0.10881424D+01  1  2  6  3  6  4        4 0.266101022523D-02 0.100000000000D+01
  </mgrwgt>
  </event>
  <event>
  5     66 0.20805674E-05 0.39452722E+02 0.75467711E-02 0.88520626E-01
        3 -1    0    0  501    0 0.00000000E+00 0.00000000E+00 0.44558577E+03 0.44558605E+03 0.50000000E+00 0.0000E+00 0.9000E+01
        2 -1    0    0  502    0 0.00000000E+00 0.00000000E+00 -.15414499E+04 0.15414500E+04 0.32000000E+00 0.0000E+00 0.9000E+01
       25  1    1    2    0    0 0.41940520E+03 -.33675434E+03 -.47085779E+03 0.72569709E+03 0.12500000E+03 0.0000E+00 0.9000E+01
        4  1    1    2  501    0 -.38071488E+03 0.32922858E+03 0.11825603E+03 0.51703208E+03 0.15500000E+01 0.0000E+00 0.9000E+01
        1  1    1    2  502    0 -.38690319E+02 0.75257593E+01 -.74326239E+03 0.74430683E+03 0.32000000E+00 0.0000E+00 0.9000E+01
#aMCatNLO 1  0  0  2  1 0.18857961D+03 0.00000000D+00  -5  6  0 0.00000000D+00 0.00000000D+00 0.00000000D+00 0.00000000D+00 0.00000000D+00
  <mgrwgt>
 0.1711211499D-01    3    2    0
 0.828763209577845D+03 0.000000000000000D+00 0.000000000000000D+00 0.828763209577845D+03
 0.828763209577845D+03 0.000000000000000D+00 0.000000000000000D+00 -.828763209577845D+03
 0.558454275958676D+03 0.419323773463309D+03 -.336660804335691D+03 -.841026406783170D+02
 0.697782619776785D+03 -.380597103851884D+03 0.329126726051699D+03 0.483448060499368D+03
 0.401289523420228D+03 -.387266696114256D+02 0.753407828399219D+01 -.399345419821052D+03
 0.000000000000000D+00 -.000000000000000D+00 0.000000000000000D+00 0.000000000000000D+00
 0.174502120446650D+04 0.000000000000000D+00 0.000000000000000D+00 0.174502120446650D+04
 0.984394786603468D+03 0.000000000000000D+00 0.000000000000000D+00 -.984394786603468D+03
 0.784251492923633D+03 0.572062268095090D+03 -.514875627123466D+03 -.841026406783170D+02
 0.562329776796941D+03 -.237253956767822D+03 0.161874366932843D+03 0.483448060499368D+03
 0.415435397292832D+03 0.541792654109680D+02 -.100868291307670D+03 -.399345419821052D+03
 0.967399324056559D+03 -.388987576738236D+03 0.453869551498293D+03 0.760626417863027D+03
0.935627270920D-02 0.000000000000D+00 0.000000000000D+00 0.256053845623D-04 0.000000000000D+00  6 3 2 25 4 1 21 0 0.68551681D-01 0.23714617D+00 0.29959548D+06 0.29959548D+06 0.29959548D+06 0.10845952D+01  1  2  2  2  6  2        2 0.201552192977D-01 0.100000000000D+01
0.406440308490D-02 0.000000000000D+00 -.359305507665D-04 0.256053845623D-04 0.000000000000D+00  6 3 2 25 4 1 21 2 0.68551681D-01 0.23714617D+00 0.29959548D+06 0.29959548D+06 0.29959548D+06 0.10845952D+01  1  2  3  2  6  2        2 0.102995156913D-01 0.100000000000D+01
-.526527532901D-02 0.000000000000D+00 0.000000000000D+00 0.256053845623D-04 0.000000000000D+00  6 3 2 25 4 1 21 2 0.68551681D-01 0.23714617D+00 0.29959548D+06 0.29959548D+06 0.29959548D+06 0.10845952D+01  1  2 15  2  6  2        2 -.133426199955D-01 0.100000000000D+01
  </mgrwgt>
  </event>
  <event>
  5     66 0.20805674E-05 0.15667973E+03 0.75467711E-02 0.91972246E-01
        3 -1    0    0  501    0 0.00000000E+00 0.00000000E+00 0.64467322E+03 0.64467341E+03 0.50000000E+00 0.0000E+00 0.9000E+01
        2 -1    0    0  502    0 -.00000000E+00 -.00000000E+00 -.26181613E+04 0.26181613E+04 0.32000000E+00 0.0000E+00 0.9000E+01
       25  1    1    2    0    0 -.49276833E+03 0.50013772E+02 -.31171958E+03 0.59842803E+03 0.12500000E+03 0.0000E+00 0.9000E+01
        4  1    1    2  501    0 -.10588781E+03 -.11557969E+03 0.44576026E+03 0.47252038E+03 0.15500000E+01 0.0000E+00 0.9000E+01
        1  1    1    2  502    0 0.59865614E+03 0.65565921E+02 -.21075287E+04 0.21918863E+04 0.32000000E+00 0.0000E+00 0.9000E+01
#aMCatNLO 1  0  0  4  1 0.37515071D+02 0.00000000D+00  -5  6  0 0.00000000D+00 0.00000000D+00 0.00000000D+00 0.00000000D+00 0.00000000D+00
  <mgrwgt>
 0.3025015839D-02    7    2    0
 0.129917620178282D+04 0.000000000000000D+00 0.000000000000000D+00 0.129917620178282D+04
 0.129917620178282D+04 -.000000000000000D+00 -.000000000000000D+00 -.129917620178282D+04
 0.515095090824343D+03 -.493143576729119D+03 0.499497921578714D+02 0.633433783874503D+02
 0.931495378079317D+03 -.105839628150092D+03 -.115527100300640D+03 0.918223884241913D+03
 0.115176193466199D+04 0.598983204879210D+03 0.655773081427690D+02 -.981567262629364D+03
 0.000000000000000D+00 -.000000000000000D+00 0.000000000000000D+00 0.000000000000000D+00
 0.129917620178282D+04 0.000000000000000D+00 0.000000000000000D+00 0.129917620178282D+04
 0.129917620178282D+04 -.000000000000000D+00 -.000000000000000D+00 -.129917620178282D+04
 0.515226207191564D+03 -.493211749576337D+03 0.498753794686352D+02 0.639348197753978D+02
 0.456679002435917D+03 -.191739014768113D+02 -.387609958008029D+02 0.454626943737997D+03
 0.115054706804962D+04 0.598830868942649D+03 0.654110289396947D+02 -.980245654666226D+03
 0.475900125888547D+03 -.864452178895009D+02 -.765254126075270D+02 0.461683891152831D+03
0.409728473273D-03 0.000000000000D+00 0.000000000000D+00 0.102748048212D-04 0.000000000000D+00  6 3 2 25 4 1 21 0 0.99180511D-01 0.40279406D+00 0.40349647D+06 0.40349647D+06 0.40349647D+06 0.10751553D+01  1  2  2  3  6  4        4 0.933161707773D-04 0.100000000000D+01
0.706203017767D-04 0.000000000000D+00 -.157346522135D-05 0.102748048212D-04 0.000000000000D+00  6 3 2 25 4 1 21 2 0.99180511D-01 0.40279406D+00 0.40349647D+06 0.40349647D+06 0.40349647D+06 0.10751553D+01  1  2  3  3  6  4        4 0.185922817960D-04 0.100000000000D+01
-.294545024725D-03 0.000000000000D+00 0.000000000000D+00 0.102748048212D-04 0.000000000000D+00  6 3 2 25 4 1 21 2 0.99180511D-01 0.40279406D+00 0.40349647D+06 0.40349647D+06 0.40349647D+06 0.10751553D+01  1  2 15  3  6  4        4 -.775451812515D-04 0.100000000000D+01
0.910015158675D-02 0.000000000000D+00 0.000000000000D+00 0.102748048212D-04 0.000000000000D+00  6 3 2 25 4 1 21 2 0.99180511D-01 0.40279406D+00 0.40470701D+06 0.40470701D+06 0.40470701D+06 0.10750615D+01  1  2 12  3  6  4        4 0.239485774512D-02 0.100000000000D+01
-.446999310563D-02 0.000000000000D+00 0.000000000000D+00 0.102748048212D-04 0.000000000000D+00  6 3 2 25 4 1 21 2 0.99180511D-01 0.40279406D+00 0.40349647D+06 0.40349647D+06 0.40349647D+06 0.10751553D+01  1  2  4  3  6  4        4 -.117681982879D-02 0.100000000000D+01
-.109673139495D-01 0.000000000000D+00 0.000000000000D+00 0.102748048212D-04 0.000000000000D+00  6 3 2 25 4 1 21 2 0.99180511D-01 0.40279406D+00 0.40349647D+06 0.40349647D+06 0.40349647D+06 0.10751553D+01  1  2  5  3  6  4        4 -.288737638278D-02 0.100000000000D+01
0.177003541949D-01 0.000000000000D+00 -.000000000000D+00 0.102748048212D-04 0.000000000000D+00  6 3 2 25 4 1 21 2 0.99180511D-01 0.40279406D+00 0.40349647D+06 0.40349647D+06 0.40349647D+06 0.10751553D+01  1  2  6  3  6  4        4 0.465999103375D-02 0.100000000000D+01
  </mgrwgt>
  </event>
  <event>
  6     66 0.20805674E-05 0.29259917E+02 0.75467711E-02 0.93107586E-01
        3 -1    0    0  501    0 0.00000000E+00 0.00000000E+00 0.34206615E+03 0.34206652E+03 0.50000000E+00 0.0000E+00 0.9000E+01
        2 -1    0    0  502    0 -.00000000E+00 -.00000000E+00 -.21256119E+04 0.21256119E+04 0.32000000E+00 0.0000E+00 0.9000E+01
       25  1    1    2    0    0 -.51062729E+02 0.55924392E+03 -.89481510E+02 0.58223114E+03 0.12500000E+03 0.0000E+00 0.9000E+01
        4  1    1    2  503    0 0.21518802E+02 -.22548452E+02 0.36177078E+02 0.47777349E+02 0.15500000E+01 0.0000E+00 0.9000E+01
        1  1    1    2  502    0 0.27366943E+02 -.53522684E+03 -.17435640E+04 0.18240702E+04 0.32000000E+00 0.0000E+00 0.9000E+01
       21  1    1    2  501  503 0.21769843E+01 -.14686231E+01 0.13322678E+02 0.13599719E+02 0.75000000E+00 0.0000E+00 0.9000E+01
#aMCatNLO 2  0  0  4  1 0.55721554D+01 0.00000000D+00  -5  6  0 0.00000000D+00 0.00000000D+00 0.00000000D+00 0.00000000D+00 0.00000000D+00
  <mgrwgt>
 0.4559118067D-02    5    2    0
 0.852701801272907D+03 0.000000000000000D+00 0.000000000000000D+00 0.852701801272907D+03
 0.852701801272907D+03 -.000000000000000D+00 -.000000000000000D+00 -.852701801272907D+03
 0.750221791483308D+03 -.508736385870342D+02 0.559744386087261D+03 0.480942648927224D+03
 0.138607664895099D+03 0.234697978238121D+02 -.237880223795135D+02 0.134519081728405D+03
 0.816574146167407D+03 0.274038407632221D+02 -.535956363707748D+03 -.615461730655629D+03
 0.000000000000000D+00 0.000000000000000D+00 0.000000000000000D+00 0.000000000000000D+00
 0.852701801272907D+03 0.000000000000000D+00 0.000000000000000D+00 0.852701801272907D+03
 0.852701801272907D+03 -.000000000000000D+00 -.000000000000000D+00 -.852701801272907D+03
 0.750351343397738D+03 -.508281994255559D+02 0.559698330820903D+03 0.481203087228501D+03
 0.104795610737499D+03 0.211342954804750D+02 -.221547717645224D+02 0.100222889962580D+03
 0.816395118834431D+03 0.274532890389486D+02 -.536006482447519D+03 -.615178313785414D+03
 0.338615295761461D+02 0.224061490613226D+01 -.153707660886168D+01 0.337523365943327D+02
-.266694409771D-03 0.000000000000D+00 0.000000000000D+00 0.604774650436D-05 0.000000000000D+00  6 3 2 25 4 1 21 2 0.52625592D-01 0.32701724D+00 0.32820277D+06 0.32820277D+06 0.32820277D+06 0.10816767D+01  1  2 13  3  6  4        4 -.560381624141D-03 0.100000000000D+01
-.221411851231D-02 0.000000000000D+00 0.000000000000D+00 0.604774650436D-05 0.000000000000D+00  6 3 2 25 4 1 21 2 0.52625592D-01 0.32701724D+00 0.32824724D+06 0.32824724D+06 0.32824724D+06 0.10816724D+01  1  2  8  3  6  4        4 -.465226595548D-02 0.100000000000D+01
-.586416252192D-03 0.000000000000D+00 0.000000000000D+00 0.604774650436D-05 0.000000000000D+00  6 3 2 25 4 1 21 2 0.52625592D-01 0.32701724D+00 0.32824724D+06 0.32824724D+06 0.32824724D+06 0.10816724D+01  1  2  9  3  6  4        4 -.123216727137D-02 0.100000000000D+01
0.746510691161D-03 0.000000000000D+00 0.000000000000D+00 0.604774650436D-05 0.000000000000D+00  6 3 2 25 4 1 21 2 0.52625592D-01 0.32701724D+00 0.32824724D+06 0.32824724D+06 0.32824724D+06 0.10816724D+01  1  2 10  3  6  4        4 0.156855482422D-02 0.100000000000D+01
0.449044451722D-02 0.000000000000D+00 0.000000000000D+00 0.604774650436D-05 0.651625461752D-05  6 3 2 25 4 1 21 2 0.52625592D-01 0.32701724D+00 0.32820277D+06 0.32820277D+06 0.32820277D+06 0.10816767D+01  1  2  1  3  6  4        4 0.943537809373D-02 0.100000000000D+01
  </mgrwgt>
  </event>
  <event>
  5     66 0.20805674E-05 0.19710170E+03 0.75467711E-02 0.82222242E-01
        3 -1    0    0  501    0 0.00000000E+00 0.00000000E+00 0.14861219E+04 0.14861220E+04 0.50000000E+00 0.0000E+00 0.9000E+01
        2 -1    0    0  502    0 0.00000000E+00 0.00000000E+00 -.26078436E+04 0.26078436E+04 0.32000000E+00 0.0000E+00 0.9000E+01
       25  1    1    2    0    0 0.56218100E+03 -.43477119E+03 -.11125372E+04 0.13260609E+04 0.12500000E+03 0.0000E+00 0.9000E+01
        4  1    1    2  501    0 -.37206179E+03 0.38308376E+03 0.13201381E+04 0.14240611E+04 0.15500000E+01 0.0000E+00 0.9000E+01
        1  1    1    2  502    0 -.19011922E+03 0.51687426E+02 -.13293225E+04 0.13438435E+04 0.32000000E+00 0.0000E+00 0.9000E+01
#aMCatNLO 1  0  0  2  5 0.48987572D+00 0.00000000D+00  -5  6  0 0.00000000D+00 0.00000000D+00 0.00000000D+00 0.00000000D+00 0.00000000D+00
  <mgrwgt>
 0.1743063578D-02    3    2    0
 0.196864767099119D+04 0.000000000000000D+00 0.000000000000000D+00 0.196864767099119D+04
 0.196864767099119D+04 0.000000000000000D+00 0.000000000000000D+00 -.196864767099119D+04
 0.106162180396589D+04 0.562242657907896D+03 -.434783268419962D+03 -.778628639202618D+03
 0.185675184225714D+04 -.372046424244327D+03 0.383067948531872D+03 0.177830475699186D+04
 0.101892169575934D+04 -.190196233663568D+03 0.517153198880902D+02 -.999676117789237D+03
 0.000000000000000D+00 -.000000000000000D+00 0.000000000000000D+00 0.000000000000000D+00
 0.407403922776346D+04 0.000000000000000D+00 0.000000000000000D+00 0.407403922776346D+04
 0.245318291667319D+04 0.000000000000000D+00 0.000000000000000D+00 -.245318291667319D+04
 0.134360848134435D+04 0.607221177556750D+03 -.902595499036273D+03 -.778628639202618D+03
 0.183476414397173D+04 -.303013980517535D+03 -.334924144957317D+03 0.177830475699186D+04
 0.107150175646102D+04 -.151104695155025D+03 -.354867643950535D+03 -.999676117789237D+03
 0.227734776265954D+04 -.153102501884190D+03 0.159238728794413D+04 0.162085631109027D+04
0.315321394078D+00 0.000000000000D+00 0.000000000000D+00 0.207258723299D-04 0.000000000000D+00  6 3 2 25 4 1 21 0 0.22863415D+00 0.40120671D+00 0.52762411D+06 0.52762411D+06 0.52762411D+06 0.10668637D+01  1  2  2  2  6  2        2 0.531649535853D-02 0.100000000000D+01
0.359749354773D-01 0.000000000000D+00 -.121091717929D-02 0.207258723299D-04 0.000000000000D+00  6 3 2 25 4 1 21 2 0.22863415D+00 0.40120671D+00 0.52762411D+06 0.52762411D+06 0.52762411D+06 0.10668637D+01  1  2  3  2  6  2        2 0.690382730835D-03 0.100000000000D+01
-.222181762500D+00 0.000000000000D+00 0.000000000000D+00 0.207258723299D-04 0.000000000000D+00  6 3 2 25 4 1 21 2 0.22863415D+00 0.40120671D+00 0.52762411D+06 0.52762411D+06 0.52762411D+06 0.10668637D+01  1  2 15  2  6  2        2 -.426381451146D-02 0.100000000000D+01
  </mgrwgt>
  </event>
  <event>
  6     66 0.20805674E-05 0.63017430E+02 0.75467711E-02 0.92059064E-01
        3 -1    0    0  501    0 0.00000000E+00 0.00000000E+00 0.10917059E+04 0.10917060E+04 0.50000000E+00 0.0000E+00 0.9000E+01
        2 -1    0    0  502    0 -.00000000E+00 -.00000000E+00 -.30879329E+04 0.30879329E+04 0.32000000E+00 0.0000E+00 0.9000E+01
       25  1    1    2    0    0 0.20295916E+03 0.56597025E+03 -.92081665E+03 0.11068166E+04 0.12500000E+03 0.0000E+00 0.9000E+01
        4  1    1    2  503    0 0.46869058E+02 -.36458936E+02 0.77903072E+03 0.78129202E+03 0.15500000E+01 0.0000E+00 0.9000E+01
        1  1    1    2  502    0 -.25256653E+03 -.52236449E+03 -.20323008E+04 0.21135044E+04 0.32000000E+00 0.0000E+00 0.9000E+01
       21  1    1    2  501  503 0.27383160E+01 -.71468276E+01 0.17785971E+03 0.17802588E+03 0.75000000E+00 0.0000E+00 0.9000E+01
#aMCatNLO 2  0  0  4  1 0.65443031D+01 0.00000000D+00  -5  6  0 0.00000000D+00 0.00000000D+00 0.00000000D+00 0.00000000D+00 0.00000000D+00
  <mgrwgt>
 0.1703535085D-01    2    2    0
 0.183605961580127D+04 0.000000000000000D+00 0.000000000000000D+00 0.183605961580127D+04
 0.183605961580127D+04 -.000000000000000D+00 -.000000000000000D+00 -.183605961580127D+04
 0.759377772934132D+03 0.203109772208060D+03 0.566293160739949D+03 -.446192871479532D+03
 0.161177794428145D+04 0.496006460632825D+02 -.435998497447052D+02 0.161042446910263D+04
 0.130096351438696D+04 -.252710418271343D+03 -.522693310995243D+03 -.116423159762310D+04
 0.000000000000000D+00 0.000000000000000D+00 0.000000000000000D+00 0.000000000000000D+00
 0.183605961580127D+04 0.000000000000000D+00 0.000000000000000D+00 0.183605961580127D+04
 0.183605961580127D+04 -.000000000000000D+00 -.000000000000000D+00 -.183605961580127D+04
 0.759366906312766D+03 0.203110330468891D+03 0.566292670018753D+03 -.446174745971654D+03
 0.131186229194513D+04 0.468419285986466D+02 -.364345644843971D+02 0.131051937386042D+04
 0.130093587763007D+04 -.252709461864032D+03 -.522694151694274D+03 -.116420054516999D+04
 0.299954155714584D+03 0.275720279649497D+01 -.716395384008275D+01 0.299855917281225D+03
-.663583901599D+00 0.000000000000D+00 0.000000000000D+00 0.396607673581D-03 0.000000000000D+00  6 3 2 25 4 1 21 2 0.16795477D+00 0.47506661D+00 0.39820024D+06 0.39820024D+06 0.39820024D+06 0.10755688D+01  1  2 13  3  6  4        4 -.211883087349D-01 0.100000000000D+01
0.119710381235D+01 0.000000000000D+00 0.000000000000D+00 0.396607673581D-03 0.994016734822D-04  6 3 2 25 4 1 21 2 0.16795477D+00 0.47506661D+00 0.39820024D+06 0.39820024D+06 0.39820024D+06 0.10755688D+01  1  2  1  3  6  4        4 0.382236595895D-01 0.100000000000D+01
  </mgrwgt>
  </event>
  <event>
  5     66 0.20805674E-05 0.12035907E+03 0.75467711E-02 0.91422672E-01
        3 -1    0    0  501    0 0.00000000E+00 0.00000000E+00 0.61007113E+03 0.61007133E+03 0.50000000E+00 0.0000E+00 0.9000E+01
        2 -1    0    0  502    0 0.00000000E+00 0.00000000E+00 -.41734954E+04 0.41734955E+04 0.32000000E+00 0.0000E+00 0.9000E+01
       25  1    1    2    0    0 0.50566455E+03 -.21468266E+03 -.27773242E+04 0.28338913E+04 0.12500000E+03 0.0000E+00 0.9000E+01
        4  1    1    2  501    0 -.38808332E+03 0.18925319E+03 0.49847856E+03 0.65947608E+03 0.15500000E+01 0.0000E+00 0.9000E+01
        1  1    1    2  502    0 -.11758123E+03 0.25429469E+02 -.12845787E+04 0.12901994E+04 0.32000000E+00 0.0000E+00 0.9000E+01
#aMCatNLO 1  0  0  1  4 0.19291669D+02 0.00000000D+00  -5  6  0 0.00000000D+00 0.00000000D+00 0.00000000D+00 0.00000000D+00 0.00000000D+00
  <mgrwgt>
 0.1916277270D-02    7    2    0
 0.159565961265959D+04 0.000000000000000D+00 0.000000000000000D+00 0.159565961265959D+04
 0.159565961265959D+04 0.000000000000000D+00 0.000000000000000D+00 -.159565961265959D+04
 0.114641917317714D+04 0.505713305868972D+03 -.214694380588380D+03 -.998404875708750D+03
 0.154507474027739D+04 -.388074714456010D+03 0.189248998226160D+03 0.148352242507942D+04
 0.499825311864649D+03 -.117638591412962D+03 0.254453823622196D+02 -.485117549370674D+03
 0.000000000000000D+00 0.000000000000000D+00 -.000000000000000D+00 0.000000000000000D+00
 0.178247163421468D+04 0.000000000000000D+00 0.000000000000000D+00 0.178247163421468D+04
 0.164014907423134D+04 0.000000000000000D+00 0.000000000000000D+00 -.164014907423134D+04
 0.112220637635612D+04 0.469054096956809D+03 -.164006431042696D+03 -.998404875708750D+03
 0.156844079690048D+04 -.438386682666079D+03 0.258814342974501D+03 0.148352242507942D+04
 0.505528661638745D+03 -.133884322821971D+03 0.479080278591713D+02 -.485117549370674D+03
 0.226444873550674D+03 0.103216908531242D+03 -.142715939790976D+03 0.142322559983344D+03
0.724447616892D-01 0.000000000000D+00 0.000000000000D+00 0.314139085118D-04 0.000000000000D+00  6 3 2 25 4 1 21 0 0.93857114D-01 0.64207624D+00 0.31111831D+06 0.31111831D+06 0.31111831D+06 0.10833845D+01  1  2  2  1  6  1        3 0.153584784132D-02 0.100000000000D+01
0.527102506116D-02 0.000000000000D+00 -.278206960030D-03 0.314139085118D-04 0.000000000000D+00  6 3 2 25 4 1 21 2 0.93857114D-01 0.64207624D+00 0.31111831D+06 0.31111831D+06 0.31111831D+06 0.10833845D+01  1  2  3  1  6  1        3 0.131160040466D-03 0.100000000000D+01
-.451908098964D-01 0.000000000000D+00 0.000000000000D+00 0.314139085118D-04 0.000000000000D+00  6 3 2 25 4 1 21 2 0.93857114D-01 0.64207624D+00 0.31111831D+06 0.31111831D+06 0.31111831D+06 0.10833845D+01  1  2 15  1  6  1        3 -.112449255808D-02 0.100000000000D+01
-.883448734820D-02 0.000000000000D+00 0.000000000000D+00 0.314139085118D-04 0.000000000000D+00  6 3 2 25 4 1 21 2 0.93857114D-01 0.64207624D+00 0.31111831D+06 0.31111831D+06 0.31111831D+06 0.10833845D+01  1  2  4  1  6  1        3 -.219830432344D-03 0.100000000000D+01
-.414429110638D+00 0.000000000000D+00 -.118534217290D+00 0.314139085118D-04 0.000000000000D+00  6 3 2 25 4 1 21 2 0.10909880D+00 0.64207624D+00 0.31111831D+06 0.31111831D+06 0.31111831D+06 0.10833845D+01  1  2  5  1  6  1        3 -.714915008733D-02 0.100000000000D+01
0.428732347940D+00 0.000000000000D+00 0.117204700982D+00 0.314139085118D-04 0.000000000000D+00  6 3 2 25 4 1 21 2 0.93857114D-01 0.64207624D+00 0.31111831D+06 0.31111831D+06 0.31111831D+06 0.10833845D+01  1  2  6  1  6  1        3 0.106682384266D-01 0.100000000000D+01
-.865059142739D-02 0.000000000000D+00 -.271088424559D-02 0.314139085118D-04 0.000000000000D+00  6 21 2 25 4 1 -3 2 0.10909880D+00 0.64207624D+00 0.31111831D+06 0.31111831D+06 0.31111831D+06 0.10833845D+01  1  2  5  5  6  1        3 -.192549596067D-02 0.100000000000D+01
  </mgrwgt>
  </event>
  <event>
  6     66 0.20805674E-05 0.27658128E+02 0.75467711E-02 0.94026274E-01
        3 -1    0    0  501    0 0.00000000E+00 0.00000000E+00 0.99643548E+03 0.99643561E+03 0.50000000E+00 0.0000E+00 0.9000E+01
        2 -1    0    0  502    0 -.00000000E+00 -.00000000E+00 -.12785821E+04 0.12785821E+04 0.32000000E+00 0.0000E+00 0.9000E+01
       25  1    1    2    0    0 -.44832806E+03 -.24083783E+03 0.29996727E+03 0.60382636E+03 0.12500000E+03 0.0000E+00 0.9000E+01
        4  1    1    2  501    0 -.11203740E+02 0.12486557E+02 0.48527989E+03 0.48557225E+03 0.15500000E+01 0.0000E+00 0.9000E+01
        1  1    1    2  503    0 0.32107793E+03 0.16161939E+03 -.80325374E+03 0.88001622E+03 0.32000000E+00 0.0000E+00 0.9000E+01
       21  1    1    2  502  503 0.13845386E+03 0.66731879E+02 -.26413999E+03 0.30560287E+03 0.75000000E+00 0.0000E+00 0.9000E+01
#aMCatNLO 2  0  0  5  1 0.24186532D+02 0.00000000D+00  -5  6  0 0.00000000D+00 0.00000000D+00 0.00000000D+00 0.00000000D+00 0.00000000D+00
  <mgrwgt>
 0.4527428827D-02    1    2    0
 0.112872703180247D+04 0.000000000000000D+00 0.000000000000000D+00 0.112872703180247D+04
 0.112872703180247D+04 -.000000000000000D+00 -.000000000000000D+00 -.112872703180247D+04
 0.647054244381208D+03 -.448826827770663D+03 -.241064913715075D+03 0.378809162007208D+03
 0.549546117344053D+03 -.113398762573167D+02 0.123939075446626D+02 0.549289298412200D+03
 0.106085370187969D+04 0.460166704027980D+03 0.228671006170412D+03 -.928098460419407D+03
 0.000000000000000D+00 0.000000000000000D+00 0.000000000000000D+00 0.000000000000000D+00
 0.112872703180247D+04 0.000000000000000D+00 0.000000000000000D+00 0.112872703180247D+04
 0.112872703180247D+04 -.000000000000000D+00 -.000000000000000D+00 -.112872703180247D+04
 0.646686202827672D+03 -.448648113492083D+03 -.240976105086501D+03 0.378448717747870D+03
 0.549238726470812D+03 -.111880926896770D+02 0.124693334736325D+02 0.548983170015229D+03
 0.786442493403862D+03 0.321255646958804D+03 0.161711703557428D+03 -.699382534569543D+03
 0.275086640902603D+03 0.138580559222957D+03 0.667950680554407D+02 -.228049353193556D+03
0.933092910233D-02 0.000000000000D+00 0.000000000000D+00 0.301082629682D-03 0.135912093777D-05  6 3 2 25 4 1 21 2 0.15329778D+00 0.19670494D+00 0.27806462D+06 0.27806462D+06 0.27806462D+06 0.10870000D+01  1  2  1  4  6  5        1 0.452742882651D-02 0.100000000000D+01
  </mgrwgt>
  </event>
  <event>
  5     66 -.20805674E-05 0.42281760E+02 0.75467711E-02 0.93849813E-01
        3 -1    0    0  501    0 0.00000000E+00 0.00000000E+00 0.59806321E+03 0.59806342E+03 0.50000000E+00 0.0000E+00 0.9000E+01
        2 -1    0    0  502    0 0.00000000E+00 0.00000000E+00 -.16844741E+04 0.16844742E+04 0.32000000E+00 0.0000E+00 0.9000E+01
       25  1    1    2    0    0 0.50673902E+03 -.74334565E+02 -.71729911E+02 0.53205286E+03 0.12500000E+03 0.0000E+00 0.9000E+01
        4  1    1    2  501    0 -.31572782E+02 -.28203495E+02 0.32375172E+03 0.32651165E+03 0.15500000E+01 0.0000E+00 0.9000E+01
        1  1    1    2  502    0 -.47516624E+03 0.10253806E+03 -.13384327E+04 0.14239731E+04 0.32000000E+00 0.0000E+00 0.9000E+01
#aMCatNLO 1  0  0  2  5 0.16708267D+02 0.00000000D+00  -5  6  0 0.00000000D+00 0.00000000D+00 0.00000000D+00 0.00000000D+00 0.00000000D+00
  <mgrwgt>
 -.4673960818D-02    9    2    0
 0.100370427346100D+04 0.000000000000000D+00 0.000000000000000D+00 0.100370427346100D+04
 0.100370427346100D+04 0.000000000000000D+00 0.000000000000000D+00 -.100370427346100D+04
 0.566695758152169D+03 0.507075112383258D+03 -.744402785043828D+02 0.207008593167910D+03
 0.545783642229938D+03 -.315328522866009D+02 -.281678271689745D+02 0.544143397336609D+03
 0.894929146539888D+03 -.475542260096658D+03 0.102608105673357D+03 -.751151990504519D+03
 0.000000000000000D+00 -.000000000000000D+00 0.000000000000000D+00 -.000000000000000D+00
 0.100395852733010D+04 0.000000000000000D+00 0.000000000000000D+00 0.100395852733010D+04
 0.132171409931044D+04 0.000000000000000D+00 0.000000000000000D+00 -.132171409931044D+04
 0.569691255645403D+03 0.509847120329975D+03 -.782718532086086D+02 0.207008593167910D+03
 0.545838658365297D+03 -.288700396573442D+02 -.318484679566160D+02 0.544143397336609D+03
 0.891948165680188D+03 -.471183500229515D+03 0.965832621773218D+02 -.751151990504519D+03
 0.318194546949647D+03 -.979358044311583D+01 0.135370589879029D+02 -.317755571980341D+03
0.570560109573D-04 0.000000000000D+00 0.000000000000D+00 0.108002433275D-03 0.000000000000D+00  6 3 2 25 4 1 21 0 0.92009743D-01 0.25914988D+00 0.27894318D+06 0.27894318D+06 0.27894318D+06 0.10868980D+01  1  2  2  2  6  2        2 0.530465045716D-04 0.100000000000D+01
0.247423877794D-04 0.000000000000D+00 -.219110105269D-06 0.108002433275D-03 0.000000000000D+00  6 3 2 25 4 1 21 2 0.92009743D-01 0.25914988D+00 0.27894318D+06 0.27894318D+06 0.27894318D+06 0.10868980D+01  1  2  3  2  6  2        2 0.271753106494D-04 0.100000000000D+01
-.420226496502D-04 0.000000000000D+00 0.000000000000D+00 0.108002433275D-03 0.000000000000D+00  6 3 2 25 4 1 21 2 0.92009743D-01 0.25914988D+00 0.27894318D+06 0.27894318D+06 0.27894318D+06 0.10868980D+01  1  2 15  2  6  2        2 -.461547433794D-04 0.100000000000D+01
0.260237833940D-01 0.000000000000D+00 0.000000000000D+00 0.108002433275D-03 0.000000000000D+00  6 3 2 25 4 1 21 2 0.92009743D-01 0.34176629D+00 0.28698780D+06 0.28698780D+06 0.28698780D+06 0.10859795D+01  1  2 12  2  6  2        2 0.144622498773D-01 0.100000000000D+01
-.293570999333D-01 0.000000000000D+00 0.000000000000D+00 0.108002433275D-03 0.000000000000D+00  6 3 2 25 4 1 21 2 0.92009743D-01 0.25914988D+00 0.27894318D+06 0.27894318D+06 0.27894318D+06 0.10868980D+01  1  2  4  2  6  2        2 -.322437881729D-01 0.100000000000D+01
-.262213353740D-01 0.000000000000D+00 -.475650368313D-04 0.108002433275D-03 0.000000000000D+00  6 3 2 25 4 1 21 2 0.92009743D-01 0.34128254D+00 0.27894318D+06 0.27894318D+06 0.27894318D+06 0.10868980D+01  1  2  5  2  6  2        2 -.146826358029D-01 0.100000000000D+01
0.252723863331D-01 0.000000000000D+00 0.458177257383D-04 0.108002433275D-03 0.000000000000D+00  6 3 2 25 4 1 21 2 0.92009743D-01 0.25914988D+00 0.27894318D+06 0.27894318D+06 0.27894318D+06 0.10868980D+01  1  2  6  2  6  2        2 0.277574240439D-01 0.100000000000D+01
0.948739990110D-03 0.000000000000D+00 0.000000000000D+00 0.108002433275D-03 0.000000000000D+00  6 3 21 25 4 1 -2 2 0.92009743D-01 0.34176629D+00 0.28698780D+06 0.28698780D+06 0.28698780D+06 0.10859795D+01  1  2 12  6  6  2        2 0.828285735210D-04 0.100000000000D+01
-.951445588011D-03 0.000000000000D+00 -.172759538363D-05 0.108002433275D-03 0.000000000000D+00  6 3 21 25 4 1 -2 2 0.92009743D-01 0.34128254D+00 0.27894318D+06 0.27894318D+06 0.27894318D+06 0.10868980D+01  1  2  5  6  6  2        2 -.841064083513D-04 0.100000000000D+01
  </mgrwgt>
  </event>
  <event>
  5     66 0.20805674E-05 0.75537847E+02 0.75467711E-02 0.92793749E-01
        3 -1    0    0  501    0 0.00000000E+00 0.00000000E+00 0.54360072E+03 0.54360095E+03 0.50000000E+00 0.0000E+00 0.9000E+01
        2 -1    0    0  502    0 0.00000000E+00 0.00000000E+00 -.11662837E+04 0.11662838E+04 0.32000000E+00 0.0000E+00 0.9000E+01
       25  1    1    2    0    0 -.16710394E+02 -.54351404E+03 -.11181551E+03 0.56904697E+03 0.12500000E+03 0.0000E+00 0.9000E+01
        4  1    1    2  501    0 0.71825948E+02 0.23996158E+02 0.22554926E+03 0.23792784E+03 0.15500000E+01 0.0000E+00 0.9000E+01
        1  1    1    2  502    0 -.55115554E+02 0.51951788E+03 -.73641675E+03 0.90290990E+03 0.32000000E+00 0.0000E+00 0.9000E+01
#aMCatNLO 1  0  0  2  5 0.19147309D+02 0.00000000D+00  -5  6  0 0.00000000D+00 0.00000000D+00 0.00000000D+00 0.00000000D+00 0.00000000D+00
  <mgrwgt>
 0.7578684813D-03    9    2    0
 0.796236709820344D+03 0.000000000000000D+00 0.000000000000000D+00 0.796236709820344D+03
 0.796236709820344D+03 0.000000000000000D+00 0.000000000000000D+00 -.796236709820344D+03
 0.567849404521287D+03 -.165423675815503D+02 -.543984382538359D+03 0.103127531941461D+03
 0.342795427087306D+03 0.716452657750428D+02 0.239357941719534D+02 0.334369164967929D+03
 0.681828588032095D+03 -.551028981934925D+02 0.520048588366406D+03 -.437496696909390D+03
 0.000000000000000D+00 -.000000000000000D+00 -.000000000000000D+00 -.000000000000000D+00
 0.796473305186008D+03 0.000000000000000D+00 0.000000000000000D+00 0.796473305186008D+03
 0.130821130230416D+04 0.000000000000000D+00 0.000000000000000D+00 -.130821130230416D+04
 0.561346918590803D+03 -.162887415113016D+02 -.537200848907586D+03 0.103127531941461D+03
 0.343139984218751D+03 0.717993320779993D+02 0.280564823427305D+02 0.334369164967929D+03
 0.688101622738678D+03 -.547952014637376D+02 0.528278306677004D+03 -.437496696909390D+03
 0.512096081941939D+03 -.715389102960085D+00 -.191339401121488D+02 -.511737997118156D+03
0.660289314376D-05 0.000000000000D+00 0.000000000000D+00 0.382538113725D-05 0.000000000000D+00  6 3 2 25 4 1 21 0 0.83630901D-01 0.17942828D+00 0.33460667D+06 0.33460667D+06 0.33460667D+06 0.10810614D+01  1  2  2  2  6  2        2 0.147988353306D-04 0.100000000000D+01
0.150912315218D-05 0.000000000000D+00 -.253568482537D-07 0.382538113725D-05 0.000000000000D+00  6 3 2 25 4 1 21 2 0.83630901D-01 0.17942828D+00 0.33460667D+06 0.33460667D+06 0.33460667D+06 0.10810614D+01  1  2  3  2  6  2        2 0.395292555071D-05 0.100000000000D+01
-.545004617098D-05 0.000000000000D+00 0.000000000000D+00 0.382538113725D-05 0.000000000000D+00  6 3 2 25 4 1 21 2 0.83630901D-01 0.17942828D+00 0.33460667D+06 0.33460667D+06 0.33460667D+06 0.10810614D+01  1  2 15  2  6  2        2 -.142755922409D-04 0.100000000000D+01
0.353432738515D-02 0.000000000000D+00 0.000000000000D+00 0.382538113725D-05 0.000000000000D+00  6 3 2 25 4 1 21 2 0.83630901D-01 0.29499397D+00 0.34759207D+06 0.34759207D+06 0.34759207D+06 0.10798521D+01  1  2 12  2  6  2        2 0.352761069263D-02 0.100000000000D+01
-.284894521071D-02 0.000000000000D+00 0.000000000000D+00 0.382538113725D-05 0.000000000000D+00  6 3 2 25 4 1 21 2 0.83630901D-01 0.17942828D+00 0.33460667D+06 0.33460667D+06 0.33460667D+06 0.10810614D+01  1  2  4  2  6  2        2 -.746239185302D-02 0.100000000000D+01
-.354029096470D-02 0.000000000000D+00 -.406550736146D-05 0.382538113725D-05 0.000000000000D+00  6 3 2 25 4 1 21 2 0.83630901D-01 0.29482281D+00 0.33460667D+06 0.33460667D+06 0.33460667D+06 0.10810614D+01  1  2  5  2  6  2        2 -.355381797191D-02 0.100000000000D+01
0.314671784560D-02 0.000000000000D+00 0.361102326044D-05 0.382538113725D-05 0.000000000000D+00  6 3 2 25 4 1 21 2 0.83630901D-01 0.17942828D+00 0.33460667D+06 0.33460667D+06 0.33460667D+06 0.10810614D+01  1  2  6  2  6  2        2 0.824236335837D-02 0.100000000000D+01
0.198384257138D-03 0.000000000000D+00 0.000000000000D+00 0.382538113725D-05 0.000000000000D+00  6 3 21 25 4 1 -2 2 0.83630901D-01 0.29499397D+00 0.34759207D+06 0.34759207D+06 0.34759207D+06 0.10798521D+01  1  2 12  6  6  2        2 0.426263186894D-04 0.100000000000D+01
-.198353733052D-03 0.000000000000D+00 -.227989262707D-06 0.382538113725D-05 0.000000000000D+00  6 3 21 25 4 1 -2 2 0.83630901D-01 0.29482281D+00 0.33460667D+06 0.33460667D+06 0.33460667D+06 0.10810614D+01  1  2  5  6  6  2        2 -.429982320955D-04 0.100000000000D+01
  </mgrwgt>
  </event>
  <event>
  5     66 0.20805674E-05 0.89205944E+02 0.75467711E-02 0.94224896E-01
        3 -1    0    0  501    0 0.00000000E+00 0.00000000E+00 0.57071822E+03 0.57071844E+03 0.50000000E+00 0.0000E+00 0.9000E+01
        2 -1    0    0  502    0 -.00000000E+00 -.00000000E+00 -.13839270E+04 0.13839270E+04 0.32000000E+00 0.0000E+00 0.9000E+01
       25  1    1    2    0    0 -.39635931E+03 -.22225252E+03 0.19303946E+03 0.50929964E+03 0.12500000E+03 0.0000E+00 0.9000E+01
        4  1    1    2  501    0 -.38157543E+02 0.10760177E+03 0.15939892E+03 0.19607283E+03 0.15500000E+01 0.0000E+00 0.9000E+01
        1  1    1    2  502    0 0.43451685E+03 0.11465076E+03 -.11656472E+04 0.12492730E+04 0.32000000E+00 0.0000E+00 0.9000E+01
#aMCatNLO 1  0  0  5  2 0.42804764D+02 0.00000000D+00  -5  6  0 0.00000000D+00 0.00000000D+00 0.00000000D+00 0.00000000D+00 0.00000000D+00
  <mgrwgt>
 0.1540237938D-02    7    2    0
 0.888725275113767D+03 0.000000000000000D+00 0.000000000000000D+00 0.888725275113767D+03
 0.888725275113767D+03 -.000000000000000D+00 -.000000000000000D+00 -.888725275113767D+03
 0.649247159686487D+03 -.396859333780883D+03 -.222018188457992D+03 0.446214598086836D+03
 0.287507720731533D+03 -.380206980905856D+02 0.107215871214614D+03 0.264045210061908D+03
 0.840695669809514D+03 0.434880031871468D+03 0.114802317243378D+03 -.710259808148743D+03
 0.000000000000000D+00 0.000000000000000D+00 0.000000000000000D+00 0.000000000000000D+00
 0.888725275113767D+03 0.000000000000000D+00 0.000000000000000D+00 0.888725275113767D+03
 0.888725275113767D+03 -.000000000000000D+00 -.000000000000000D+00 -.888725275113767D+03
 0.647737079225744D+03 -.396031329617688D+03 -.221799606804075D+03 0.444862275526597D+03
 0.286945566232463D+03 -.376539629376849D+02 0.107312684225748D+03 0.263446246623141D+03
 0.451332001012094D+03 0.211419176368165D+03 0.287524699208836D+02 -.397713216369329D+03
 0.391435903757234D+03 0.222266116187207D+03 0.857344526574435D+02 -.310595305780409D+03
0.707418260861D-04 0.000000000000D+00 0.000000000000D+00 0.261093392368D-05 0.000000000000D+00  6 3 2 25 4 1 21 0 0.87802823D-01 0.21291187D+00 0.26788077D+06 0.26788077D+06 0.26788077D+06 0.10882093D+01  1  2  2  4  6  5        1 0.107472615155D-03 0.100000000000D+01
0.616358811490D-05 0.000000000000D+00 -.271667238921D-06 0.261093392368D-05 0.000000000000D+00  6 3 2 25 4 1 21 2 0.87802823D-01 0.21291187D+00 0.26788077D+06 0.26788077D+06 0.26788077D+06 0.10882093D+01  1  2  3  4  6  5        1 0.110886835955D-04 0.100000000000D+01
-.531318510756D-04 0.000000000000D+00 0.000000000000D+00 0.261093392368D-05 0.000000000000D+00  6 3 2 25 4 1 21 2 0.87802823D-01 0.21291187D+00 0.26788077D+06 0.26788077D+06 0.26788077D+06 0.10882093D+01  1  2 15  4  6  5        1 -.955875497257D-04 0.100000000000D+01
0.131859119418D-02 0.000000000000D+00 0.000000000000D+00 0.261093392368D-05 0.000000000000D+00  6 3 2 25 4 1 21 2 0.87802823D-01 0.21291187D+00 0.26839093D+06 0.26839093D+06 0.26839093D+06 0.10881475D+01  1  2 12  4  6  5        1 0.237175935580D-02 0.100000000000D+01
-.122625397442D-02 0.000000000000D+00 0.000000000000D+00 0.261093392368D-05 0.000000000000D+00  6 3 2 25 4 1 21 2 0.87802823D-01 0.21291187D+00 0.26788077D+06 0.26788077D+06 0.26788077D+06 0.10882093D+01  1  2  4  4  6  5        1 -.220610820785D-02 0.100000000000D+01
-.135190151155D-02 0.000000000000D+00 0.000000000000D+00 0.261093392368D-05 0.000000000000D+00  6 3 2 25 4 1 21 2 0.87802823D-01 0.21291187D+00 0.26788077D+06 0.26788077D+06 0.26788077D+06 0.10882093D+01  1  2  5  4  6  5        1 -.243215604846D-02 0.100000000000D+01
0.210318871377D-02 0.000000000000D+00 -.000000000000D+00 0.261093392368D-05 0.000000000000D+00  6 3 2 25 4 1 21 2 0.87802823D-01 0.21291187D+00 0.26788077D+06 0.26788077D+06 0.26788077D+06 0.10882093D+01  1  2  6  4  6  5        1 0.378376908936D-02 0.100000000000D+01
  </mgrwgt>
  </event>
  <event>
  5     66 -.20805674E-05 0.53323652E+02 0.75467711E-02 0.93914641E-01
        3 -1    0    0  501    0 0.00000000E+00 0.00000000E+00 0.81348339E+03 0.81348354E+03 0.50000000E+00 0.0000E+00 0.9000E+01
        2 -1    0    0  502    0 -.00000000E+00 -.00000000E+00 -.31538124E+04 0.31538125E+04 0.32000000E+00 0.0000E+00 0.9000E+01
       25  1    1    2    0    0 0.50019325E+03 -.13157830E+03 -.33516162E+03 0.62885964E+03 0.12500000E+03 0.0000E+00 0.9000E+01
        4  1    1    2  501    0 -.47248808E+02 -.24745525E+02 0.64403902E+03 0.64624566E+03 0.15500000E+01 0.0000E+00 0.9000E+01
        1  1    1    2  502    0 -.45294444E+03 0.15632383E+03 -.26492065E+04 0.26921907E+04 0.32000000E+00 0.0000E+00 0.9000E+01
#aMCatNLO 1  0  0  5  2 0.22571826D+01 0.00000000D+00  -5  6  0 0.00000000D+00 0.00000000D+00 0.00000000D+00 0.00000000D+00 0.00000000D+00
  <mgrwgt>
 -.5607561299D-02    8    2    0
 0.160174103851972D+04 0.000000000000000D+00 0.000000000000000D+00 0.160174103851972D+04
 0.160174103851972D+04 -.000000000000000D+00 -.000000000000000D+00 -.160174103851972D+04
 0.534183347406908D+03 0.500400407434662D+03 -.131656035189533D+03 0.446426845546498D+02
 0.127053033333723D+04 -.472373544274500D+02 -.247395269299757D+02 0.126941085393343D+04
 0.139876839629530D+04 -.453163053007213D+03 0.156395562119508D+03 -.131405353848808D+04
 0.000000000000000D+00 0.000000000000000D+00 0.000000000000000D+00 -.000000000000000D+00
 0.160174103851972D+04 0.000000000000000D+00 0.000000000000000D+00 0.160174103851972D+04
 0.160174103851972D+04 -.000000000000000D+00 -.000000000000000D+00 -.160174103851972D+04
 0.534176627863702D+03 0.500395091818394D+03 -.131654200664876D+03 0.446272706670421D+02
 0.127049408988717D+04 -.472499972735652D+02 -.247351636328979D+02 0.126937419300848D+04
 0.137237538075980D+04 -.446431686188200D+03 0.152198048264996D+03 -.128877798296956D+04
 0.264359785287698D+02 -.671340835662835D+01 0.419131603277754D+01 -.252234807059635D+02
0.177199058348D-02 0.000000000000D+00 0.000000000000D+00 0.113234373394D-02 0.000000000000D+00  6 3 2 25 4 1 21 0 0.12515130D+00 0.48520193D+00 0.28357218D+06 0.28357218D+06 0.28357218D+06 0.10863660D+01  1  2  2  4  6  5        1 0.107363044352D-03 0.100000000000D+01
0.846760394501D-03 0.000000000000D+00 -.680491041640D-05 0.113234373394D-02 0.000000000000D+00  6 3 2 25 4 1 21 2 0.12515130D+00 0.48520193D+00 0.28357218D+06 0.28357218D+06 0.28357218D+06 0.10863660D+01  1  2  3  4  6  5        1 0.605489022939D-04 0.100000000000D+01
-.113128394480D-02 0.000000000000D+00 0.000000000000D+00 0.113234373394D-02 0.000000000000D+00  6 3 2 25 4 1 21 2 0.12515130D+00 0.48520193D+00 0.28357218D+06 0.28357218D+06 0.28357218D+06 0.10863660D+01  1  2 15  4  6  5        1 -.808941956724D-04 0.100000000000D+01
0.679050099518D-03 0.000000000000D+00 0.000000000000D+00 0.113234373394D-02 0.000000000000D+00  6 3 2 25 4 1 21 2 0.12515130D+00 0.48520193D+00 0.28367280D+06 0.28367280D+06 0.28367280D+06 0.10863545D+01  1  2 12  4  6  5        1 0.485538867384D-04 0.100000000000D+01
-.925648100519D+01 0.000000000000D+00 0.000000000000D+00 0.113234373394D-02 0.000000000000D+00  6 3 2 25 4 1 21 2 0.12515130D+00 0.48520193D+00 0.28357218D+06 0.28357218D+06 0.28357218D+06 0.10863660D+01  1  2  4  4  6  5        1 -.661898888527D+00 0.100000000000D+01
-.698155665503D+01 0.000000000000D+00 0.000000000000D+00 0.113234373394D-02 0.000000000000D+00  6 3 2 25 4 1 21 2 0.12515130D+00 0.48520193D+00 0.28357218D+06 0.28357218D+06 0.28357218D+06 0.10863660D+01  1  2  5  4  6  5        1 -.499226929495D+00 0.100000000000D+01
0.711475100534D+01 0.000000000000D+00 -.000000000000D+00 0.113234373394D-02 0.000000000000D+00  6 3 2 25 4 1 21 2 0.12515130D+00 0.48520193D+00 0.28357218D+06 0.28357218D+06 0.28357218D+06 0.10863660D+01  1  2  6  4  6  5        1 0.508751196047D+00 0.100000000000D+01
0.904346091486D+01 0.000000000000D+00 0.000000000000D+00 0.113234373394D-02 0.177466067270D-02  6 3 2 25 4 1 21 2 0.12515130D+00 0.48520193D+00 0.28367280D+06 0.28367280D+06 0.28367280D+06 0.10863545D+01  1  2 11  4  6  5        1 0.646631489038D+00 0.100000000000D+01
  </mgrwgt>
  </event>
  <event>
  5     66 -.20805674E-05 0.13932679E+02 0.75467711E-02 0.95081806E-01
        3 -1    0    0  501    0 0.00000000E+00 0.00000000E+00 0.34049051E+03 0.34049088E+03 0.50000000E+00 0.0000E+00 0.9000E+01
        2 -1    0    0  502    0 0.00000000E+00 0.00000000E+00 -.91817361E+03 0.91817367E+03 0.32000000E+00 0.0000E+00 0.9000E+01
       25  1    1    2    0    0 -.34047845E+03 0.32738256E+03 -.23164021E+02 0.48914874E+03 0.12500000E+03 0.0000E+00 0.9000E+01
        4  1    1    2  501    0 0.33188723E+03 -.31643844E+03 -.38311199E+03 0.59754466E+03 0.15500000E+01 0.0000E+00 0.9000E+01
        1  1    1    2  502    0 0.85912191E+01 -.10944117E+02 -.17140709E+03 0.17197114E+03 0.32000000E+00 0.0000E+00 0.9000E+01
#aMCatNLO 1  0  0  2  1 0.52243482D+02 0.00000000D+00  -5  6  0 0.00000000D+00 0.00000000D+00 0.00000000D+00 0.00000000D+00 0.00000000D+00
  <mgrwgt>
 -.2981278629D-02    1    2    0
 0.559132960678920D+03 0.000000000000000D+00 0.000000000000000D+00 0.559132960678920D+03
 0.559132960678920D+03 0.000000000000000D+00 0.000000000000000D+00 -.559132960678920D+03
 0.538537927704264D+03 -.340360649062947D+03 0.327273836159638D+03 0.226813942055614D+03
 0.474467188110315D+03 0.331757402509117D+03 -.316314652941902D+03 -.122479299507943D+03
 0.105260805543260D+03 0.860324655383005D+01 -.109591832177354D+02 -.104334642547670D+03
 0.000000000000000D+00 -.000000000000000D+00 0.000000000000000D+00 0.000000000000000D+00
 0.263001327573897D+04 0.000000000000000D+00 0.000000000000000D+00 0.263001327573897D+04
 0.933541214968774D+03 0.000000000000000D+00 0.000000000000000D+00 -.933541214968774D+03
 0.360430089300087D+03 0.141813412587515D+02 0.250278194260235D+03 0.226813942055614D+03
 0.103642332356651D+04 0.927634140096635D+03 -.445720797082525D+03 -.122479299507943D+03
 0.156570542766655D+03 0.111866327778623D+03 -.333847560425475D+02 -.104334642547670D+03
 0.201013053507449D+04 -.105368180913401D+04 0.228827358864837D+03 0.169647206077020D+04
-.282991706060D-03 0.000000000000D+00 0.000000000000D+00 0.378740181531D-06 0.000000000000D+00  6 3 2 25 4 1 21 2 0.52383188D-01 0.14125751D+00 0.23076683D+06 0.23076683D+06 0.23076683D+06 0.10930843D+01  1  2 14  2  6  2        2 -.298127862901D-02 0.100000000000D+01
  </mgrwgt>
  </event>
  <event>
  6     66 0.20805674E-05 0.30348623E+02 0.75467711E-02 0.93212001E-01
        3 -1    0    0  501    0 0.00000000E+00 0.00000000E+00 0.40813409E+03 0.40813440E+03 0.50000000E+00 0.0000E+00 0.9000E+01
        2 -1    0    0  503    0 0.00000000E+00 0.00000000E+00 -.23116985E+04 0.23116986E+04 0.32000000E+00 0.0000E+00 0.9000E+01
       25  1    1    2    0    0 0.49234024E+03 0.22284626E+03 -.16626337E+03 0.57907501E+03 0.12500000E+03 0.0000E+00 0.9000E+01
        4  1    1    2  501    0 0.58398984E+01 0.20819534E+02 0.15813389E+03 0.15961292E+03 0.15500000E+01 0.0000E+00 0.9000E+01
        1  1    1    2  502    0 -.47058726E+03 -.21316295E+03 -.15627877E+04 0.16459637E+04 0.32000000E+00 0.0000E+00 0.9000E+01
       21  1    1    2  503  502 -.27592878E+02 -.30502839E+02 -.33264724E+03 0.33518136E+03 0.75000000E+00 0.0000E+00 0.9000E+01
#aMCatNLO 2  0  0  2  1 0.16991354D+04 0.00000000D+00  -5  6  0 0.00000000D+00 0.00000000D+00 0.00000000D+00 0.00000000D+00 0.00000000D+00
  <mgrwgt>
 0.4799734265D-02    1    2    0
 0.896812492930703D+03 0.000000000000000D+00 0.000000000000000D+00 0.896812492930703D+03
 0.896812492930703D+03 0.000000000000000D+00 0.000000000000000D+00 -.896812492930703D+03
 0.613672867542762D+03 0.483246871304768D+03 0.212556603042164D+03 0.286812726766936D+03
 0.349328067801889D+03 0.448310604261518D+00 0.148211507563720D+02 0.349013225339758D+03
 0.830624050516755D+03 -.483695181909029D+03 -.227377753798536D+03 -.635825952106694D+03
 0.000000000000000D+00 -.000000000000000D+00 -.000000000000000D+00 -.000000000000000D+00
 0.899840925226281D+03 0.000000000000000D+00 0.000000000000000D+00 0.899840925226281D+03
 0.104849811788960D+04 0.000000000000000D+00 0.000000000000000D+00 -.104849811788960D+04
 0.624883198266610D+03 0.492772506516235D+03 0.223086817320364D+03 0.286812726766936D+03
 0.349678856297075D+03 0.582431670771156D+01 0.207641136111844D+02 0.349013225339758D+03
 0.819534481305430D+03 -.471003945194641D+03 -.213348091829432D+03 -.635825952106694D+03
 0.154242507246765D+03 -.275928780293050D+02 -.305028391021157D+02 -.148657192663317D+03
0.419336274197D-02 0.000000000000D+00 0.000000000000D+00 0.665229862072D-04 0.475018996997D-06  6 3 2 25 4 1 21 2 0.62789822D-01 0.35564559D+00 0.32202275D+06 0.32202275D+06 0.32202275D+06 0.10822830D+01  1  2  1  2  6  2        2 0.479973426476D-02 0.100000000000D+01
  </mgrwgt>
  </event>
  <event>
  5     66 0.20805674E-05 0.31949957E+02 0.75467711E-02 0.91788906E-01
        3 -1    0    0  501    0 0.00000000E+00 0.00000000E+00 0.50142270E+03 0.50142295E+03 0.50000000E+00 0.0000E+00 0.9000E+01
        2 -1    0    0  502    0 -.00000000E+00 -.00000000E+00 -.38154070E+04 0.38154070E+04 0.32000000E+00 0.0000E+00 0.9000E+01
       25  1    1    2    0    0 -.36627405E+03 -.32333837E+03 -.13539450E+04 0.14448171E+04 0.12500000E+03 0.0000E+00 0.9000E+01
        4  1    1    2  501    0 -.44647793E+01 0.31641747E+02 0.43236323E+03 0.43354527E+03 0.15500000E+01 0.0000E+00 0.9000E+01
        1  1    1    2  502    0 0.37073883E+03 0.29169662E+03 -.23924026E+04 0.24384676E+04 0.32000000E+00 0.0000E+00 0.9000E+01
#aMCatNLO 1  0  0  5  2 0.35648971D+02 0.00000000D+00  -5  6  0 0.00000000D+00 0.00000000D+00 0.00000000D+00 0.00000000D+00 0.00000000D+00
  <mgrwgt>
 0.4030588288D-02    4    2    0
 0.138316023968414D+04 0.000000000000000D+00 0.000000000000000D+00 0.138316023968414D+04
 0.138316023968414D+04 -.000000000000000D+00 -.000000000000000D+00 -.138316023968414D+04
 0.632737941950356D+03 -.366472485641607D+03 -.323496832209011D+03 -.381811497996026D+03
 0.119430918772041D+04 -.446404765493885D+01 0.316365618664091D+02 0.119388175130756D+04
 0.939273349697506D+03 0.370936533296546D+03 0.291860270342602D+03 -.812070253311532D+03
 0.000000000000000D+00 0.000000000000000D+00 -.000000000000000D+00 0.000000000000000D+00
 0.138316023968414D+04 0.000000000000000D+00 0.000000000000000D+00 0.138316023968414D+04
 0.138316023968414D+04 -.000000000000000D+00 -.000000000000000D+00 -.138316023968414D+04
 0.644161534754556D+03 -.341691780651541D+03 -.303998878762892D+03 -.436062485893283D+03
 0.109919294786504D+04 0.400457989327449D+02 0.666577978243235D+02 0.109643887591296D+04
 0.839587405422152D+03 0.433861474900909D+03 0.358750261220612D+03 -.622871962777625D+03
 0.183378591326528D+03 -.132215493182113D+03 -.121409180282044D+03 -.375044272420573D+02
0.661094836695D-01 0.000000000000D+00 0.000000000000D+00 0.532890272398D-03 0.000000000000D+00  6 3 2 25 4 1 21 0 0.77141973D-01 0.58698572D+00 0.25426723D+06 0.25426723D+06 0.25426723D+06 0.10899066D+01  1  2  2  4  6  5        1 0.442062957244D-02 0.100000000000D+01
0.446371423937D-01 0.000000000000D+00 -.253877824318D-03 0.532890272398D-03 0.000000000000D+00  6 3 2 25 4 1 21 2 0.77141973D-01 0.58698572D+00 0.25426723D+06 0.25426723D+06 0.25426723D+06 0.10899066D+01  1  2  3  4  6  5        1 0.354564528423D-02 0.100000000000D+01
-.475109740502D-01 0.000000000000D+00 0.000000000000D+00 0.532890272398D-03 0.000000000000D+00  6 3 2 25 4 1 21 2 0.77141973D-01 0.58698572D+00 0.25426723D+06 0.25426723D+06 0.25426723D+06 0.10899066D+01  1  2 15  4  6  5        1 -.377392126953D-02 0.100000000000D+01
-.203650961329D-02 0.000000000000D+00 0.000000000000D+00 0.532890272398D-03 0.000000000000D+00  6 3 2 25 4 1 21 2 0.77141973D-01 0.58698572D+00 0.25426723D+06 0.25426723D+06 0.25426723D+06 0.10899066D+01  1  2  4  4  6  5        1 -.161765299466D-03 0.100000000000D+01
  </mgrwgt>
  </event>
  <event>
  6     66 -.20805674E-05 0.17815480E+03 0.75467711E-02 0.92977176E-01
        3 -1    0    0  501    0 0.00000000E+00 0.00000000E+00 0.15493657E+04 0.15493658E+04 0.50000000E+00 0.0000E+00 0.9000E+01
        2 -1    0    0  502    0 0.00000000E+00 0.00000000E+00 -.56127051E+03 0.56127060E+03 0.32000000E+00 0.0000E+00 0.9000E+01
       25  1    1    2    0    0 -.38108137E+03 -.34031203E+03 0.10165716E+04 0.11445864E+04 0.12500000E+03 0.0000E+00 0.9000E+01
        4  1    1    2  503    0 0.36211802E+03 0.18058383E+03 0.28898855E+03 0.49724920E+03 0.15500000E+01 0.0000E+00 0.9000E+01
        1  1    1    2  502    0 0.16307691E+02 0.19482419E+03 -.36236723E+03 0.41174327E+03 0.32000000E+00 0.0000E+00 0.9000E+01
       21  1    1    2  501  503 0.26556524E+01 -.35095993E+02 0.44902287E+02 0.57057507E+02 0.75000000E+00 0.0000E+00 0.9000E+01
#aMCatNLO 2  0  0  4  1 0.40385465D+02 0.00000000D+00  -5  6  0 0.00000000D+00 0.00000000D+00 0.00000000D+00 0.00000000D+00 0.00000000D+00
  <mgrwgt>
 -.1797703020D-03    3    2    0
 0.932530681414903D+03 0.000000000000000D+00 0.000000000000000D+00 0.932530681414903D+03
 0.932530681414903D+03 -.000000000000000D+00 -.000000000000000D+00 -.932530681414903D+03
 0.766620519625584D+03 -.398345723753286D+03 -.347431411885828D+03 0.541012125107646D+03
 0.438058320213678D+03 0.397849985220307D+03 0.158680126050030D+03 0.918210148352601D+02
 0.660382522990545D+03 0.495738532979487D+00 0.188751285835797D+03 -.632833139942906D+03
 0.000000000000000D+00 0.000000000000000D+00 -.000000000000000D+00 0.000000000000000D+00
 0.932530681414903D+03 0.000000000000000D+00 0.000000000000000D+00 0.932530681414903D+03
 0.932530681414903D+03 -.000000000000000D+00 -.000000000000000D+00 -.932530681414903D+03
 0.756965309845142D+03 -.380000404921812D+03 -.340114489395572D+03 0.545246097346327D+03
 0.408348403326671D+03 0.360945995736727D+03 0.180163619555427D+03 0.633046352943587D+02
 0.658922059442702D+03 0.163813307539119D+02 0.195087160838032D+03 -.629166855531264D+03
 0.408255902152910D+02 0.267307843117303D+01 -.351362909978872D+02 0.206161228905788D+02
-.765944648662D-03 0.000000000000D+00 0.000000000000D+00 0.194759908435D-06 0.000000000000D+00  6 3 2 25 4 1 21 2 0.23836397D+00 0.86349323D-01 0.33610868D+06 0.33610868D+06 0.33610868D+06 0.10809189D+01  1  2 13  3  6  4        4 -.220383731915D-03 0.100000000000D+01
-.547908375745D-03 0.000000000000D+00 0.000000000000D+00 0.194759908435D-06 0.000000000000D+00  6 3 2 25 4 1 21 2 0.23836397D+00 0.86349323D-01 0.33653330D+06 0.33653330D+06 0.33653330D+06 0.10808787D+01  1  2  8  3  6  4        4 -.157624734363D-03 0.100000000000D+01
0.688977628871D-03 0.000000000000D+00 0.000000000000D+00 0.194759908435D-06 0.352614490559D-09  6 3 2 25 4 1 21 2 0.23836397D+00 0.86349323D-01 0.33610868D+06 0.33610868D+06 0.33610868D+06 0.10809189D+01  1  2  1  3  6  4        4 0.198238164235D-03 0.100000000000D+01
  </mgrwgt>
  </event>
  <event>
  5     66 -.20805674E-05 0.37851417E+02 0.75467711E-02 0.93392344E-01
        3 -1    0    0  501    0 0.00000000E+00 0.00000000E+00 0.49202020E+03 0.49202045E+03 0.50000000E+00 0.0000E+00 0.9000E+01
        2 -1    0    0  502    0 -.00000000E+00 -.00000000E+00 -.29528379E+04 0.29528379E+04 0.32000000E+00 0.0000E+00 0.9000E+01
       25  1    1    2    0    0 0.51135016E+03 -.30845945E+02 -.53698918E+03 0.75260404E+03 0.12500000E+03 0.0000E+00 0.9000E+01
        4  1    1    2  501    0 -.37242446E+02 0.68579612E+01 0.35879463E+03 0.36079083E+03 0.15500000E+01 0.0000E+00 0.9000E+01
        1  1    1    2  502    0 -.47410771E+03 0.23987983E+02 -.22826232E+04 0.23314635E+04 0.32000000E+00 0.0000E+00 0.9000E+01
#aMCatNLO 1  0  0  4  4 0.72050307D+02 0.00000000D+00  -5  6  0 0.00000000D+00 0.00000000D+00 0.00000000D+00 0.00000000D+00 0.00000000D+00
  <mgrwgt>
 -.5124878412D-02    4    2    0
 0.120534491572626D+04 0.000000000000000D+00 0.000000000000000D+00 0.120534491572626D+04
 0.120534491572626D+04 -.000000000000000D+00 -.000000000000000D+00 -.120534491572626D+04
 0.527593488091472D+03 0.511640477237578D+03 -.308593626030152D+02 0.126904230258543D+01
 0.881421219310949D+03 -.372255396887913D+02 0.685484800589372D+01 0.880608105859408D+03
 0.100167512405011D+04 -.474414937548787D+03 0.240045145971216D+02 -.881877148161994D+03
 0.000000000000000D+00 0.000000000000000D+00 0.000000000000000D+00 0.000000000000000D+00
 0.120534491572626D+04 0.000000000000000D+00 0.000000000000000D+00 0.120534491572626D+04
 0.120534491572626D+04 -.000000000000000D+00 -.000000000000000D+00 -.120534491572626D+04
 0.527511290663538D+03 0.511546399178099D+03 -.308420387225877D+02 0.349455474520565D+01
 0.216907410595470D+03 -.417495212314274D+02 -.452351376688875D+02 0.207989385710557D+03
 0.998049174360727D+03 -.474593242287118D+03 0.240373482884584D+02 -.877659167732435D+03
 0.668221955832792D+03 0.479636434044568D+01 0.520398281030169D+02 0.666175227276671D+03
0.656897069218D-02 0.000000000000D+00 0.000000000000D+00 0.386983854574D-03 0.000000000000D+00  6 3 2 25 4 1 21 0 0.75695436D-01 0.45428278D+00 0.27064197D+06 0.27064197D+06 0.27064197D+06 0.10878765D+01  1  2  2  3  6  4        4 0.180279973775D-02 0.100000000000D+01
0.372726128360D-02 0.000000000000D+00 -.252265771077D-04 0.386983854574D-03 0.000000000000D+00  6 3 2 25 4 1 21 2 0.75695436D-01 0.45428278D+00 0.27064197D+06 0.27064197D+06 0.27064197D+06 0.10878765D+01  1  2  3  3  6  4        4 0.121059585614D-02 0.100000000000D+01
-.379280253160D-02 0.000000000000D+00 0.000000000000D+00 0.386983854574D-03 0.000000000000D+00  6 3 2 25 4 1 21 2 0.75695436D-01 0.45428278D+00 0.27064197D+06 0.27064197D+06 0.27064197D+06 0.10878765D+01  1  2 15  3  6  4        4 -.123188332627D-02 0.100000000000D+01
-.212638449554D-01 0.000000000000D+00 0.000000000000D+00 0.386983854574D-03 0.000000000000D+00  6 3 2 25 4 1 21 2 0.75695436D-01 0.45428278D+00 0.27064197D+06 0.27064197D+06 0.27064197D+06 0.10878765D+01  1  2  5  3  6  4        4 -.690639067938D-02 0.100000000000D+01
  </mgrwgt>
  </event>
  <event>
  5     66 -.20805674E-05 0.25632607E+02 0.75467711E-02 0.93862814E-01
        3 -1    0    0  501    0 0.00000000E+00 0.00000000E+00 0.80564137E+03 0.80564153E+03 0.50000000E+00 0.0000E+00 0.9000E+01
        2 -1    0    0  502    0 -.00000000E+00 -.00000000E+00 -.10575610E+04 0.10575610E+04 0.32000000E+00 0.0000E+00 0.9000E+01
       25  1    1    2    0    0 0.50652009E+03 -.13103183E+03 -.23969698E+03 0.58890711E+03 0.12500000E+03 0.0000E+00 0.9000E+01
        4  1    1    2  501    0 -.48544241E+03 0.14558183E+03 0.52892709E+03 0.73253988E+03 0.15500000E+01 0.0000E+00 0.9000E+01
        1  1    1    2  502    0 -.21077688E+02 -.14550009E+02 -.54114969E+03 0.54175554E+03 0.32000000E+00 0.0000E+00 0.9000E+01
#aMCatNLO 1  0  0  5  2 0.49125684D+00 0.00000000D+00  -5  6  0 0.00000000D+00 0.00000000D+00 0.00000000D+00 0.00000000D+00 0.00000000D+00
  <mgrwgt>
 -.1999407622D-01    7    2    0
 0.923046610698735D+03 0.000000000000000D+00 0.000000000000000D+00 0.923046610698735D+03
 0.923046610698735D+03 -.000000000000000D+00 -.000000000000000D+00 -.923046610698735D+03
 0.561426480489364D+03 0.506441066934498D+03 -.130991767404521D+03 -.161038180532326D+03
 0.811344104902489D+03 -.485345956374938D+03 0.145552908823405D+03 0.633666244898340D+03
 0.473322636005617D+03 -.210951105595605D+02 -.145611414188852D+02 -.472628064366013D+03
 0.000000000000000D+00 0.000000000000000D+00 0.000000000000000D+00 -.000000000000000D+00
 0.923046610698735D+03 0.000000000000000D+00 0.000000000000000D+00 0.923046610698735D+03
 0.923046610698735D+03 -.000000000000000D+00 -.000000000000000D+00 -.923046610698735D+03
 0.561427257027842D+03 0.506440930353071D+03 -.130991861681413D+03 -.161041240588116D+03
 0.811340744749255D+03 -.485346153754707D+03 0.145552772579762D+03 0.633661822678416D+03
 0.122988227554924D+02 -.101162734936120D+01 -.537574883722281D+00 -.122453527724353D+02
 0.461026396864880D+03 -.200831492490038D+02 -.140233360146267D+02 -.460375229317865D+03
0.697864640364D-04 0.000000000000D+00 0.000000000000D+00 0.860380038103D-04 0.000000000000D+00  6 3 2 25 4 1 21 0 0.12394484D+00 0.16270170D+00 0.28631540D+06 0.28631540D+06 0.28631540D+06 0.10860552D+01  1  2  2  4  6  5        1 0.698447557650D-04 0.100000000000D+01
0.424629427000D-04 0.000000000000D+00 -.267998397098D-06 0.860380038103D-04 0.000000000000D+00  6 3 2 25 4 1 21 2 0.12394484D+00 0.16270170D+00 0.28631540D+06 0.28631540D+06 0.28631540D+06 0.10860552D+01  1  2  3  4  6  5        1 0.501275526799D-04 0.100000000000D+01
-.504222959661D-04 0.000000000000D+00 0.000000000000D+00 0.860380038103D-04 0.000000000000D+00  6 3 2 25 4 1 21 2 0.12394484D+00 0.16270170D+00 0.28631540D+06 0.28631540D+06 0.28631540D+06 0.10860552D+01  1  2 15  4  6  5        1 -.595235783619D-04 0.100000000000D+01
-.420169150076D-01 0.000000000000D+00 0.000000000000D+00 0.860380038103D-04 0.000000000000D+00  6 3 2 25 4 1 21 2 0.12394484D+00 0.16270170D+00 0.28631540D+06 0.28631540D+06 0.28631540D+06 0.10860552D+01  1  2  4  4  6  5        1 -.496010164762D-01 0.100000000000D+01
-.122992093373D-01 0.000000000000D+00 0.000000000000D+00 0.860380038103D-04 0.000000000000D+00  6 3 2 25 4 1 21 2 0.12394484D+00 0.16270170D+00 0.28631540D+06 0.28631540D+06 0.28631540D+06 0.10860552D+01  1  2  5  4  6  5        1 -.145192307639D-01 0.100000000000D+01
0.245818287565D-01 0.000000000000D+00 -.000000000000D+00 0.860380038103D-04 0.000000000000D+00  6 3 2 25 4 1 21 2 0.12394484D+00 0.16270170D+00 0.28631540D+06 0.28631540D+06 0.28631540D+06 0.10860552D+01  1  2  6  4  6  5        1 0.290188771104D-01 0.100000000000D+01
0.127461697542D-01 0.000000000000D+00 0.000000000000D+00 0.860380038103D-04 0.302199513361D-04  6 3 2 25 4 1 21 2 0.12394484D+00 0.16270170D+00 0.28631950D+06 0.28631950D+06 0.28631950D+06 0.10860547D+01  1  2 11  4  6  5        1 0.150468451845D-01 0.100000000000D+01
  </mgrwgt>
  </event>
  <event>
  5     66 0.20805674E-05 0.22231525E+02 0.75467711E-02 0.85068802E-01
        3 -1    0    0  501    0 0.00000000E+00 0.00000000E+00 0.92179564E+03 0.92179577E+03 0.50000000E+00 0.0000E+00 0.9000E+01
        2 -1    0    0  502    0 0.00000000E+00 0.00000000E+00 -.21926094E+04 0.21926094E+04 0.32000000E+00 0.0000E+00 0.9000E+01
       25  1    1    2    0    0 0.72304440E+03 -.29846116E+03 -.35884062E+03 0.86963433E+03 0.12500000E+03 0.0000E+00 0.9000E+01
        4  1    1    2  501    0 0.22218294E+02 -.11221167E+01 0.56397559E+03 0.56441632E+03 0.15500000E+01 0.0000E+00 0.9000E+01
        1  1    1    2  502    0 -.74526270E+03 0.29958328E+03 -.14759487E+04 0.16803545E+04 0.32000000E+00 0.0000E+00 0.9000E+01
#aMCatNLO 1  0  0  1  4 0.15588568D+02 0.00000000D+00  -5  6  0 0.00000000D+00 0.00000000D+00 0.00000000D+00 0.00000000D+00 0.00000000D+00
  <mgrwgt>
 0.5140194228D-02    7    2    0
 0.142166733536504D+04 0.000000000000000D+00 0.000000000000000D+00 0.142166733536504D+04
 0.142166733536504D+04 0.000000000000000D+00 0.000000000000000D+00 -.142166733536504D+04
 0.792593369990949D+03 0.723455194979060D+03 -.298623704596987D+03 -.396409689465821D+01
 0.869699586071645D+03 0.222032261011156D+02 -.112135575219700D+01 0.869415395150770D+03
 0.118104171466748D+04 -.745658421080176D+03 0.299745060349184D+03 -.865451298256112D+03
 0.000000000000000D+00 0.000000000000000D+00 0.000000000000000D+00 0.000000000000000D+00
 0.239867370332616D+04 0.000000000000000D+00 0.000000000000000D+00 0.239867370332616D+04
 0.158051015146811D+04 0.000000000000000D+00 0.000000000000000D+00 -.158051015146811D+04
 0.744505829402094D+03 0.597779124534278D+03 -.425803163704243D+03 -.396409689465821D+01
 0.890065589375857D+03 -.121678425937442D+03 -.146724179081734D+03 0.869415395150770D+03
 0.128676439414645D+04 -.947430807987820D+03 0.955589894537806D+02 -.865451298256112D+03
 0.105784804186988D+04 0.471330109390984D+03 0.476968353332196D+03 0.818163551858053D+03
0.137032651528D-01 0.000000000000D+00 0.000000000000D+00 0.843553892230D-04 0.000000000000D+00  6 3 2 25 4 1 21 0 0.14181473D+00 0.33732453D+00 0.65485735D+06 0.65485735D+06 0.65485735D+06 0.10603262D+01  1  2  2  1  6  1        3 0.207862775367D-02 0.100000000000D+01
0.127724806547D-01 0.000000000000D+00 -.526241463392D-04 0.843553892230D-04 0.000000000000D+00  6 3 2 25 4 1 21 2 0.14181473D+00 0.33732453D+00 0.65485735D+06 0.65485735D+06 0.65485735D+06 0.10603262D+01  1  2  3  1  6  1        3 0.217824593747D-02 0.100000000000D+01
-.110791689172D-01 0.000000000000D+00 0.000000000000D+00 0.843553892230D-04 0.000000000000D+00  6 3 2 25 4 1 21 2 0.14181473D+00 0.33732453D+00 0.65485735D+06 0.65485735D+06 0.65485735D+06 0.10603262D+01  1  2 15  1  6  1        3 -.188946496274D-02 0.100000000000D+01
-.193708951009D-03 0.000000000000D+00 0.000000000000D+00 0.843553892230D-04 0.000000000000D+00  6 3 2 25 4 1 21 2 0.14181473D+00 0.33732453D+00 0.65485735D+06 0.65485735D+06 0.65485735D+06 0.10603262D+01  1  2  4  1  6  1        3 -.330355353038D-04 0.100000000000D+01
-.175126458919D-01 0.000000000000D+00 -.788915920295D-02 0.843553892230D-04 0.000000000000D+00  6 3 2 25 4 1 21 2 0.25032541D+00 0.33732453D+00 0.65485735D+06 0.65485735D+06 0.65485735D+06 0.10603262D+01  1  2  5  1  6  1        3 -.367374282238D-03 0.100000000000D+01
0.198293200903D-01 0.000000000000D+00 0.676693251403D-02 0.843553892230D-04 0.000000000000D+00  6 3 2 25 4 1 21 2 0.14181473D+00 0.33732453D+00 0.65485735D+06 0.65485735D+06 0.65485735D+06 0.10603262D+01  1  2  6  1  6  1        3 0.338173430026D-02 0.100000000000D+01
-.690065972311D-03 0.000000000000D+00 -.494008314304D-03 0.843553892230D-04 0.000000000000D+00  6 21 2 25 4 1 -3 2 0.25032541D+00 0.33732453D+00 0.65485735D+06 0.65485735D+06 0.65485735D+06 0.10603262D+01  1  2  5  5  6  1        3 -.208538983263D-03 0.100000000000D+01
  </mgrwgt>
  </event>
  <event>
  5     66 0.20805674E-05 0.22440664E+02 0.75467711E-02 0.92818031E-01
        3 -1    0    0  501    0 0.00000000E+00 0.00000000E+00 0.57673794E+03 0.57673816E+03 0.50000000E+00 0.0000E+00 0.9000E+01
        2 -1    0    0  502    0 0.00000000E+00 0.00000000E+00 -.13824978E+04 0.13824978E+04 0.32000000E+00 0.0000E+00 0.9000E+01
       25  1    1    2    0    0 -.92801363E+02 0.45079869E+03 -.27053865E+03 0.54831351E+03 0.12500000E+03 0.0000E+00 0.9000E+01
        4  1    1    2  501    0 -.21362174E+02 0.69358792E+01 0.38031989E+03 0.38098566E+03 0.15500000E+01 0.0000E+00 0.9000E+01
        1  1    1    2  502    0 0.11416354E+03 -.45773457E+03 -.91554108E+03 0.10299368E+04 0.32000000E+00 0.0000E+00 0.9000E+01
#aMCatNLO 1  0  0  2  5 0.30012638D+02 0.00000000D+00  -5  6  0 0.00000000D+00 0.00000000D+00 0.00000000D+00 0.00000000D+00 0.00000000D+00
  <mgrwgt>
 0.2870873658D-02    7    2    0
 0.892938505345521D+03 0.000000000000000D+00 0.000000000000000D+00 0.892938505345521D+03
 0.892938505345521D+03 0.000000000000000D+00 0.000000000000000D+00 -.892938505345521D+03
 0.479833223443945D+03 -.929073648948630D+02 0.451195046471597D+03 -.490527665722594D+02
 0.589055124618593D+03 -.213438399975427D+02 0.692992638923248D+01 0.588627519280083D+03
 0.716988662628505D+03 0.114251204892406D+03 -.458124972860830D+03 -.539574752707824D+03
 0.000000000000000D+00 0.000000000000000D+00 -.000000000000000D+00 -.000000000000000D+00
 0.933493059344648D+03 0.000000000000000D+00 0.000000000000000D+00 0.933493059344648D+03
 0.111389374523803D+04 0.000000000000000D+00 0.000000000000000D+00 -.111389374523803D+04
 0.527265512369974D+03 -.950384795972472D+02 0.500944541862891D+03 -.490527665722594D+02
 0.592719225791337D+03 -.238445845655753D+02 0.653081921029246D+02 0.588627519280083D+03
 0.674645617220196D+03 0.111306377172281D+03 -.389379872971744D+03 -.539574752707824D+03
 0.252756449201167D+03 0.757668699054175D+01 -.176872860994072D+03 -.180400685893378D+03
0.797951634039D-03 0.000000000000D+00 0.000000000000D+00 0.109257377518D-03 0.000000000000D+00  6 3 2 25 4 1 21 0 0.88728934D-01 0.21269199D+00 0.23615546D+06 0.23615546D+06 0.23615546D+06 0.10923253D+01  1  2  2  2  6  2        2 0.119194678001D-02 0.100000000000D+01
0.570031631155D-03 0.000000000000D+00 -.306434438020D-05 0.109257377518D-03 0.000000000000D+00  6 3 2 25 4 1 21 2 0.88728934D-01 0.21269199D+00 0.23615546D+06 0.23615546D+06 0.23615546D+06 0.10923253D+01  1  2  3  2  6  2        2 0.101597557289D-02 0.100000000000D+01
-.619316773599D-03 0.000000000000D+00 0.000000000000D+00 0.109257377518D-03 0.000000000000D+00  6 3 2 25 4 1 21 2 0.88728934D-01 0.21269199D+00 0.23615546D+06 0.23615546D+06 0.23615546D+06 0.10923253D+01  1  2 15  2  6  2        2 -.110381719096D-02 0.100000000000D+01
-.279400029438D-03 0.000000000000D+00 0.000000000000D+00 0.109257377518D-03 0.000000000000D+00  6 3 2 25 4 1 21 2 0.88728934D-01 0.21269199D+00 0.23615546D+06 0.23615546D+06 0.23615546D+06 0.10923253D+01  1  2  4  2  6  2        2 -.497978690058D-03 0.100000000000D+01
-.310721744323D-02 0.000000000000D+00 -.791748698674D-03 0.109257377518D-03 0.000000000000D+00  6 3 2 25 4 1 21 2 0.88728934D-01 0.27023848D+00 0.23615546D+06 0.23615546D+06 0.23615546D+06 0.10923253D+01  1  2  5  2  6  2        2 -.345893985361D-02 0.100000000000D+01
0.322604416602D-02 0.000000000000D+00 0.769578856091D-03 0.109257377518D-03 0.000000000000D+00  6 3 2 25 4 1 21 2 0.88728934D-01 0.21269199D+00 0.23615546D+06 0.23615546D+06 0.23615546D+06 0.10923253D+01  1  2  6  2  6  2        2 0.574982490552D-02 0.100000000000D+01
-.894984791362D-04 0.000000000000D+00 -.259544820617D-04 0.109257377518D-03 0.000000000000D+00  6 3 21 25 4 1 -2 2 0.88728934D-01 0.27023848D+00 0.23615546D+06 0.23615546D+06 0.23615546D+06 0.10923253D+01  1  2  5  6  6  2        2 -.261378660637D-04 0.100000000000D+01
  </mgrwgt>
  </event>
  <event>
  5     66 0.20805674E-05 0.74337540E+02 0.75467711E-02 0.94579800E-01
        3 -1    0    0  501    0 0.00000000E+00 0.00000000E+00 0.41822926E+03 0.41822956E+03 0.50000000E+00 0.0000E+00 0.9000E+01
        2 -1    0    0  502    0 0.00000000E+00 0.00000000E+00 -.93200546E+03 0.93200552E+03 0.32000000E+00 0.0000E+00 0.9000E+01
       25  1    1    2    0    0 0.38547584E+03 0.27031699E+03 -.38398979E+03 0.62027095E+03 0.12500000E+03 0.0000E+00 0.9000E+01
        4  1    1    2  501    0 0.99124231E+01 -.73895961E+02 0.17718735E+03 0.19224107E+03 0.15500000E+01 0.0000E+00 0.9000E+01
        1  1    1    2  502    0 -.39538826E+03 -.19642103E+03 -.30697376E+03 0.53772306E+03 0.32000000E+00 0.0000E+00 0.9000E+01
#aMCatNLO 1  0  0  1  5 0.99815354D+02 0.00000000D+00  -5  6  0 0.00000000D+00 0.00000000D+00 0.00000000D+00 0.00000000D+00 0.00000000D+00
  <mgrwgt>
 0.1492771079D-03    1    2    0
 0.624333399467345D+03 0.000000000000000D+00 0.000000000000000D+00 0.624333399467345D+03
 0.624333399467345D+03 0.000000000000000D+00 0.000000000000000D+00 -.624333399467345D+03
 0.513051996396595D+03 0.385981520688375D+03 0.270497579273042D+03 -.159520143872320D+03
 0.279949835961056D+03 0.988313630490299D+01 -.736776319624862D+02 0.269899686587075D+03
 0.455664966577039D+03 -.395864656993278D+03 -.196819947310556D+03 -.110379542714756D+03
 0.000000000000000D+00 0.000000000000000D+00 0.000000000000000D+00 0.000000000000000D+00
 0.758181423366133D+03 0.000000000000000D+00 0.000000000000000D+00 0.758181423366133D+03
 0.701798032575101D+03 0.000000000000000D+00 0.000000000000000D+00 -.701798032575101D+03
 0.457217577819042D+03 0.313282921276241D+03 0.264253757593512D+03 -.159520143872320D+03
 0.282598480991331D+03 -.322664640029831D+02 -.772977097949890D+02 0.269899686587075D+03
 0.523054348293356D+03 -.469196363252541D+03 -.203118144264017D+03 -.110379542714756D+03
 0.197109048837505D+03 0.188179905979283D+03 0.161620964654939D+02 0.563833907910319D+02
0.223972879216D-04 0.000000000000D+00 0.000000000000D+00 0.830115157657D-06 0.000000000000D+00  6 3 2 25 4 1 21 2 0.64342990D-01 0.14338548D+00 0.25203101D+06 0.25203101D+06 0.25203101D+06 0.10901949D+01  1  2 14  1  6  1        3 0.149277107872D-03 0.100000000000D+01
  </mgrwgt>
  </event>
  <event>
  6     66 0.20805674E-05 0.26000711E+03 0.75467711E-02 0.93032459E-01
        3 -1    0    0  501    0 0.00000000E+00 0.00000000E+00 0.27467047E+03 0.27467092E+03 0.50000000E+00 0.0000E+00 0.9000E+01
        2 -1    0    0  502    0 -.00000000E+00 -.00000000E+00 -.20726120E+04 0.20726120E+04 0.32000000E+00 0.0000E+00 0.9000E+01
       25  1    1    2    0    0 0.42821739E+03 -.30823965E+03 -.11517861E+04 0.12730350E+04 0.12500000E+03 0.0000E+00 0.9000E+01
        4  1    1    2  503    0 -.26175449E+03 0.25499043E+01 0.67062563E+02 0.27022529E+03 0.15500000E+01 0.0000E+00 0.9000E+01
        1  1    1    2  502    0 -.16351176E+03 0.30473848E+03 -.71875749E+03 0.79763029E+03 0.32000000E+00 0.0000E+00 0.9000E+01
       21  1    1    2  501  503 -.29511370E+01 0.95126503E+00 0.55395020E+01 0.63923937E+01 0.75000000E+00 0.0000E+00 0.9000E+01
#aMCatNLO 2  0  0  4  1 0.58731855D+01 0.00000000D+00  -5  6  0 0.00000000D+00 0.00000000D+00 0.00000000D+00 0.00000000D+00 0.00000000D+00
  <mgrwgt>
 0.1252023193D-03    5    2    0
 0.754510350347684D+03 0.000000000000000D+00 0.000000000000000D+00 0.754510350347684D+03
 0.754510350347684D+03 -.000000000000000D+00 -.000000000000000D+00 -.754510350347684D+03
 0.608272896377296D+03 0.428636714890550D+03 -.308708286941607D+03 -.274482561720486D+03
 0.515697365053731D+03 -.264728242359989D+03 0.350146846892741D+01 0.442549962986004D+03
 0.385050439264340D+03 -.163908472530561D+03 0.305206818472680D+03 -.168067401265518D+03
 0.000000000000000D+00 0.000000000000000D+00 0.000000000000000D+00 0.000000000000000D+00
 0.754510350347684D+03 0.000000000000000D+00 0.000000000000000D+00 0.754510350347684D+03
 0.754510350347684D+03 -.000000000000000D+00 -.000000000000000D+00 -.754510350347684D+03
 0.607931806383288D+03 0.428403958116998D+03 -.308705208348646D+03 -.274093458916034D+03
 0.499716733662963D+03 -.261497406192880D+03 0.254477331736638D+01 0.425827951860772D+03
 0.385007288637841D+03 -.164055845873048D+03 0.305208767728669D+03 -.167821035155572D+03
 0.163648720112752D+02 -.285070605106973D+01 0.951667302610980D+00 0.160865422108343D+02
-.255063328234D-04 0.000000000000D+00 0.000000000000D+00 0.858764401446D-07 0.000000000000D+00  6 3 2 25 4 1 21 2 0.42257032D-01 0.31886342D+00 0.33273147D+06 0.33273147D+06 0.33273147D+06 0.10812402D+01  1  2 13  3  6  4        4 -.891577217510D-04 0.100000000000D+01
-.542525451644D-03 0.000000000000D+00 0.000000000000D+00 0.858764401446D-07 0.000000000000D+00  6 3 2 25 4 1 21 2 0.42257032D-01 0.31886342D+00 0.33293357D+06 0.33293357D+06 0.33293357D+06 0.10812209D+01  1  2  8  3  6  4        4 -.189628781932D-02 0.100000000000D+01
-.545002382608D-04 0.000000000000D+00 0.000000000000D+00 0.858764401446D-07 0.000000000000D+00  6 3 2 25 4 1 21 2 0.42257032D-01 0.31886342D+00 0.33293357D+06 0.33293357D+06 0.33293357D+06 0.10812209D+01  1  2  9  3  6  4        4 -.190494542977D-03 0.100000000000D+01
0.562571474631D-04 0.000000000000D+00 0.000000000000D+00 0.858764401446D-07 0.000000000000D+00  6 3 2 25 4 1 21 2 0.42257032D-01 0.31886342D+00 0.33293357D+06 0.33293357D+06 0.33293357D+06 0.10812209D+01  1  2 10  3  6  4        4 0.196635463204D-03 0.100000000000D+01
0.602059511944D-03 0.000000000000D+00 0.000000000000D+00 0.858764401446D-07 0.116859219785D-06  6 3 2 25 4 1 21 2 0.42257032D-01 0.31886342D+00 0.33273147D+06 0.33273147D+06 0.33273147D+06 0.10812402D+01  1  2  1  3  6  4        4 0.210450694011D-02 0.100000000000D+01
  </mgrwgt>
  </event>
  <event>
  6     66 0.20805674E-05 0.87927056E+02 0.75467711E-02 0.94676447E-01
        3 -1    0    0  501    0 0.00000000E+00 0.00000000E+00 0.25855356E+03 0.25855405E+03 0.50000000E+00 0.0000E+00 0.9000E+01
        2 -1    0    0  502    0 -.00000000E+00 -.00000000E+00 -.25227130E+04 0.25227130E+04 0.32000000E+00 0.0000E+00 0.9000E+01
       25  1    1    2    0    0 0.13885270E+01 0.46061172E+03 -.30703249E+03 0.56750245E+03 0.12500000E+03 0.0000E+00 0.9000E+01
        4  1    1    2  503    0 -.23278290E+02 -.74204090E+02 -.25656121E+02 0.81907050E+02 0.15500000E+01 0.0000E+00 0.9000E+01
        1  1    1    2  502    0 -.75065112E+02 -.30570343E+03 -.19738391E+04 0.19987822E+04 0.32000000E+00 0.0000E+00 0.9000E+01
       21  1    1    2  501  503 0.96954876E+02 -.80704198E+02 0.42368290E+02 0.13307535E+03 0.75000000E+00 0.0000E+00 0.9000E+01
#aMCatNLO 2  0  0  4  2 0.55216421D+02 0.00000000D+00  -5  6  0 0.00000000D+00 0.00000000D+00 0.00000000D+00 0.00000000D+00 0.00000000D+00
  <mgrwgt>
 0.8328430975D-03    1    2    0
 0.807624377099186D+03 0.000000000000000D+00 0.000000000000000D+00 0.807624377099186D+03
 0.807624377099186D+03 -.000000000000000D+00 -.000000000000000D+00 -.807624377099186D+03
 0.546892537274855D+03 0.247558353312392D+00 0.463676552728618D+03 0.261668569934364D+03
 0.387311128729398D+03 0.767024063839829D+02 -.161270211275886D+03 0.343683823081008D+03
 0.681045088194119D+03 -.769499647372953D+02 -.302406341452732D+03 -.605352393015373D+03
 0.000000000000000D+00 0.000000000000000D+00 0.000000000000000D+00 0.000000000000000D+00
 0.807624377099186D+03 0.000000000000000D+00 0.000000000000000D+00 0.807624377099186D+03
 0.807624377099186D+03 -.000000000000000D+00 -.000000000000000D+00 -.807624377099186D+03
 0.547460664840905D+03 0.168574093039222D+01 0.460652710075001D+03 0.268112697435461D+03
 0.103436840251649D+03 -.230904269850677D+02 -.731386763104923D+02 0.694027818638520D+02
 0.675444481162323D+03 -.751672864750421D+02 -.306154501563267D+03 -.597364668648194D+03
 0.288906767943494D+03 0.965719725297176D+02 -.813595322012415D+02 0.259849189348881D+03
0.367888552058D-03 0.000000000000D+00 0.000000000000D+00 0.286661293967D-05 0.525383159210D-09  6 3 2 25 4 1 21 2 0.39777510D-01 0.38810973D+00 0.24777186D+06 0.24777186D+06 0.24777186D+06 0.10907517D+01  1  2  1  3  6  4        4 0.832843097500D-03 0.100000000000D+01
  </mgrwgt>
  </event>
  <event>
  5     66 0.20805674E-05 0.15134477E+03 0.75467711E-02 0.94724450E-01
        3 -1    0    0  501    0 0.00000000E+00 0.00000000E+00 0.40608959E+03 0.40608989E+03 0.50000000E+00 0.0000E+00 0.9000E+01
        2 -1    0    0  502    0 0.00000000E+00 0.00000000E+00 -.27399120E+04 0.27399120E+04 0.32000000E+00 0.0000E+00 0.9000E+01
       25  1    1    2    0    0 -.39772900E+03 -.21870744E+03 -.50210276E+03 0.68829752E+03 0.12500000E+03 0.0000E+00 0.9000E+01
        4  1    1    2  501    0 0.25053212E+03 0.25340590E+03 0.20785057E+03 0.41253503E+03 0.15500000E+01 0.0000E+00 0.9000E+01
        1  1    1    2  502    0 0.14719688E+03 -.34698461E+02 -.20395702E+04 0.20451693E+04 0.32000000E+00 0.0000E+00 0.9000E+01
#aMCatNLO 1  0  0  2  2 0.23613710D+02 0.00000000D+00  -5  6  0 0.00000000D+00 0.00000000D+00 0.00000000D+00 0.00000000D+00 0.00000000D+00
  <mgrwgt>
 0.4599196665D-02    7    2    0
 0.105482237370280D+04 0.000000000000000D+00 0.000000000000000D+00 0.105482237370280D+04
 0.105482237370280D+04 0.000000000000000D+00 0.000000000000000D+00 -.105482237370280D+04
 0.470953858966145D+03 -.397756186118068D+03 -.218603986721506D+03 0.132231111836600D+02
 0.844839784517873D+03 0.250446757839281D+03 0.253319553768862D+03 0.766067808141253D+03
 0.793851103921580D+03 0.147309428278787D+03 -.347155670473569D+02 -.779290919324913D+03
 0.000000000000000D+00 0.000000000000000D+00 -.000000000000000D+00 -.000000000000000D+00
 0.105690418392826D+04 0.000000000000000D+00 0.000000000000000D+00 0.105690418392826D+04
 0.112404530443535D+04 0.000000000000000D+00 0.000000000000000D+00 -.112404530443535D+04
 0.475330896915208D+03 -.403047505006551D+03 -.218385712904563D+03 0.132231111836600D+02
 0.842208651525153D+03 0.241013327574301D+03 0.253708695091506D+03 0.766067808141253D+03
 0.792237351503207D+03 0.138440533634936D+03 -.343497135566167D+02 -.779290919324913D+03
 0.711725884200444D+02 0.235936437973140D+02 -.973268630326154D+00 -.671411205070910D+02
0.861083448855D-03 0.000000000000D+00 0.000000000000D+00 0.336309523680D-04 0.000000000000D+00  6 3 2 25 4 1 21 0 0.62475346D-01 0.42152495D+00 0.23928500D+06 0.23928500D+06 0.23928500D+06 0.10918932D+01  1  2  2  2  6  2        2 0.488136838745D-03 0.100000000000D+01
0.126967676876D-03 0.000000000000D+00 -.330678717208D-05 0.336309523680D-04 0.000000000000D+00  6 3 2 25 4 1 21 2 0.62475346D-01 0.42152495D+00 0.23928500D+06 0.23928500D+06 0.23928500D+06 0.10918932D+01  1  2  3  2  6  2        2 0.858123598843D-04 0.100000000000D+01
-.561934169698D-03 0.000000000000D+00 0.000000000000D+00 0.336309523680D-04 0.000000000000D+00  6 3 2 25 4 1 21 2 0.62475346D-01 0.42152495D+00 0.23928500D+06 0.23928500D+06 0.23928500D+06 0.10918932D+01  1  2 15  2  6  2        2 -.379788765047D-03 0.100000000000D+01
-.230069495673D-02 0.000000000000D+00 0.000000000000D+00 0.336309523680D-04 0.000000000000D+00  6 3 2 25 4 1 21 2 0.62475346D-01 0.42152495D+00 0.23928500D+06 0.23928500D+06 0.23928500D+06 0.10918932D+01  1  2  4  2  6  2        2 -.155494743599D-02 0.100000000000D+01
-.390612329561D-01 0.000000000000D+00 -.209719428023D-02 0.336309523680D-04 0.000000000000D+00  6 3 2 25 4 1 21 2 0.62475346D-01 0.44942764D+00 0.23928500D+06 0.23928500D+06 0.23928500D+06 0.10918932D+01  1  2  5  2  6  2        2 -.204617071466D-01 0.100000000000D+01
0.391195704113D-01 0.000000000000D+00 0.209289370787D-02 0.336309523680D-04 0.000000000000D+00  6 3 2 25 4 1 21 2 0.62475346D-01 0.42152495D+00 0.23928500D+06 0.23928500D+06 0.23928500D+06 0.10918932D+01  1  2  6  2  6  2        2 0.264393484804D-01 0.100000000000D+01
-.453557773721D-03 0.000000000000D+00 -.229507588905D-04 0.336309523680D-04 0.000000000000D+00  6 3 21 25 4 1 -2 2 0.62475346D-01 0.44942764D+00 0.23928500D+06 0.23928500D+06 0.23928500D+06 0.10918932D+01  1  2  5  6  6  2        2 -.176576663955D-04 0.100000000000D+01
  </mgrwgt>
  </event>
  <event>
  5     66 0.20805674E-05 0.24088250E+02 0.75467711E-02 0.92714561E-01
        3 -1    0    0  501    0 0.00000000E+00 0.00000000E+00 0.12284340E+04 0.12284341E+04 0.50000000E+00 0.0000E+00 0.9000E+01
        2 -1    0    0  502    0 0.00000000E+00 0.00000000E+00 -.10416991E+04 0.10416991E+04 0.32000000E+00 0.0000E+00 0.9000E+01
       25  1    1    2    0    0 0.50633724E+03 0.13507874E+02 0.30618628E+03 0.60492553E+03 0.12500000E+03 0.0000E+00 0.9000E+01
        4  1    1    2  501    0 -.12183689E+01 0.24081786E+02 0.70077442E+03 0.70119085E+03 0.15500000E+01 0.0000E+00 0.9000E+01
        1  1    1    2  502    0 -.50511887E+03 -.37589660E+02 -.82022576E+03 0.96401683E+03 0.32000000E+00 0.0000E+00 0.9000E+01
#aMCatNLO 1  0  0  4  5 0.16612186D+03 0.00000000D+00  -5  6  0 0.00000000D+00 0.00000000D+00 0.00000000D+00 0.00000000D+00 0.00000000D+00
  <mgrwgt>
 0.3019815120D-02    6    2    0
 0.113122001216071D+04 0.000000000000000D+00 0.000000000000000D+00 0.113122001216071D+04
 0.113122001216071D+04 -.000000000000000D+00 -.000000000000000D+00 -.113122001216071D+04
 0.582264194432632D+03 0.506680790279317D+03 0.135522950614788D+02 0.257871099929356D+03
 0.645081797508201D+03 -.121713924808601D+01 0.240574806240629D+02 0.644631896259009D+03
 0.103509403238059D+04 -.505463651031231D+03 -.376097756855427D+02 -.902502996188365D+03
 0.000000000000000D+00 -.000000000000000D+00 0.000000000000000D+00 0.000000000000000D+00
 0.113122001216071D+04 0.000000000000000D+00 0.000000000000000D+00 0.113122001216071D+04
 0.113122001216071D+04 -.000000000000000D+00 -.000000000000000D+00 -.113122001216071D+04
 0.588585064785381D+03 0.506654367980494D+03 0.140745475013564D+02 0.271865108109389D+03
 0.570686739895708D+03 0.779350783802903D+02 0.155776301822697D+02 0.565125487027929D+03
 0.101380293025937D+04 -.505509888040290D+03 -.366958737213300D+02 -.878014548482997D+03
 0.893652893809697D+02 -.790795583204943D+02 0.704369603770307D+01 0.410239533456790D+02
0.811697424386D-02 0.000000000000D+00 0.000000000000D+00 0.305333221656D-03 0.000000000000D+00  6 3 2 25 4 1 21 0 0.18898986D+00 0.16026141D+00 0.27720075D+06 0.27720075D+06 0.27720075D+06 0.10871007D+01  1  2  2  3  6  4        4 0.233492732887D-02 0.100000000000D+01
0.541020001073D-02 0.000000000000D+00 -.311713183448D-04 0.305333221656D-03 0.000000000000D+00  6 3 2 25 4 1 21 2 0.18898986D+00 0.16026141D+00 0.27720075D+06 0.27720075D+06 0.27720075D+06 0.10871007D+01  1  2  3  3  6  4        4 0.183921314965D-02 0.100000000000D+01
-.569829465141D-02 0.000000000000D+00 0.000000000000D+00 0.305333221656D-03 0.000000000000D+00  6 3 2 25 4 1 21 2 0.18898986D+00 0.16026141D+00 0.27720075D+06 0.27720075D+06 0.27720075D+06 0.10871007D+01  1  2 15  3  6  4        4 -.193715175644D-02 0.100000000000D+01
-.950383414034D-03 0.000000000000D+00 0.000000000000D+00 0.305333221656D-03 0.000000000000D+00  6 3 2 25 4 1 21 2 0.18898986D+00 0.16026141D+00 0.27720075D+06 0.27720075D+06 0.27720075D+06 0.10871007D+01  1  2  4  3  6  4        4 -.323085591815D-03 0.100000000000D+01
-.219771697298D-01 0.000000000000D+00 0.000000000000D+00 0.305333221656D-03 0.000000000000D+00  6 3 2 25 4 1 21 2 0.18898986D+00 0.16026141D+00 0.27720075D+06 0.27720075D+06 0.27720075D+06 0.10871007D+01  1  2  5  3  6  4        4 -.747120244707D-02 0.100000000000D+01
0.252303027663D-01 0.000000000000D+00 -.000000000000D+00 0.305333221656D-03 0.000000000000D+00  6 3 2 25 4 1 21 2 0.18898986D+00 0.16026141D+00 0.27720075D+06 0.27720075D+06 0.27720075D+06 0.10871007D+01  1  2  6  3  6  4        4 0.857711443671D-02 0.100000000000D+01
  </mgrwgt>
  </event>
  <event>
  5     66 -.20805674E-05 0.25877733E+02 0.75467711E-02 0.92938730E-01
        3 -1    0    0  501    0 0.00000000E+00 0.00000000E+00 0.40372681E+03 0.40372712E+03 0.50000000E+00 0.0000E+00 0.9000E+01
        2 -1    0    0  502    0 -.00000000E+00 -.00000000E+00 -.13120377E+04 0.13120378E+04 0.32000000E+00 0.0000E+00 0.9000E+01
       25  1    1    2    0    0 -.51347110E+03 -.19718161E+03 -.16439649E+03 0.58752393E+03 0.12500000E+03 0.0000E+00 0.9000E+01
        4  1    1    2  501    0 -.15831844E+02 -.20666351E+02 0.10288605E+03 0.10613994E+03 0.15500000E+01 0.0000E+00 0.9000E+01
        1  1    1    2  502    0 0.52930295E+03 0.21784796E+03 -.84680047E+03 0.10221010E+04 0.32000000E+00 0.0000E+00 0.9000E+01
#aMCatNLO 1  0  0  4  1 0.87996441D+00 0.00000000D+00  -5  6  0 0.00000000D+00 0.00000000D+00 0.00000000D+00 0.00000000D+00 0.00000000D+00
  <mgrwgt>
 -.2432468196D-02    8    2    0
 0.727808429240364D+03 0.000000000000000D+00 0.000000000000000D+00 0.727808429240364D+03
 0.727808429240364D+03 -.000000000000000D+00 -.000000000000000D+00 -.727808429240364D+03
 0.590810697363755D+03 -.514103722694348D+03 -.197497483068161D+03 0.173563782549821D+03
 0.188171275807223D+03 -.157370910951667D+02 -.205426634033374D+02 0.186383400503043D+03
 0.676634885309750D+03 0.529840813789515D+03 0.218040146471498D+03 -.359947183052863D+03
 0.000000000000000D+00 0.000000000000000D+00 0.000000000000000D+00 0.000000000000000D+00
 0.727808429240364D+03 0.000000000000000D+00 0.000000000000000D+00 0.727808429240364D+03
 0.727808429240364D+03 -.000000000000000D+00 -.000000000000000D+00 -.727808429240364D+03
 0.590812860499265D+03 -.514104174676566D+03 -.197498073070373D+03 0.173569135634595D+03
 0.152224565749647D+03 -.134615705957524D+02 -.170944861212330D+02 0.150661485055123D+03
 0.676631000935849D+03 0.529840296152478D+03 0.218039470765719D+03 -.359941052380398D+03
 0.359484312959682D+02 -.227455088016016D+01 -.344691157411253D+01 0.357104316906805D+02
0.687630497314D-06 0.000000000000D+00 0.000000000000D+00 0.613557615855D-05 0.000000000000D+00  6 3 2 25 4 1 21 0 0.62111844D-01 0.20185198D+00 0.33847386D+06 0.33847386D+06 0.33847386D+06 0.10806960D+01  1  2  2  3  6  4        4 0.244528282818D-05 0.100000000000D+01
0.302537128484D-06 0.000000000000D+00 -.264068216695D-08 0.613557615855D-05 0.000000000000D+00  6 3 2 25 4 1 21 2 0.62111844D-01 0.20185198D+00 0.33847386D+06 0.33847386D+06 0.33847386D+06 0.10806960D+01  1  2  3  3  6  4        4 0.125649193238D-05 0.100000000000D+01
-.587236467174D-06 0.000000000000D+00 0.000000000000D+00 0.613557615855D-05 0.000000000000D+00  6 3 2 25 4 1 21 2 0.62111844D-01 0.20185198D+00 0.33847386D+06 0.33847386D+06 0.33847386D+06 0.10806960D+01  1  2 15  3  6  4        4 -.243890026690D-05 0.100000000000D+01
0.271875135180D-08 0.000000000000D+00 0.000000000000D+00 0.613557615855D-05 0.000000000000D+00  6 3 2 25 4 1 21 2 0.62111844D-01 0.20185198D+00 0.33847995D+06 0.33847995D+06 0.33847995D+06 0.10806954D+01  1  2 12  3  6  4        4 0.112914518906D-07 0.100000000000D+01
-.397976881505D-02 0.000000000000D+00 0.000000000000D+00 0.613557615855D-05 0.000000000000D+00  6 3 2 25 4 1 21 2 0.62111844D-01 0.20185198D+00 0.33847386D+06 0.33847386D+06 0.33847386D+06 0.10806960D+01  1  2  4  3  6  4        4 -.165287065224D-01 0.100000000000D+01
-.185968815794D-02 0.000000000000D+00 0.000000000000D+00 0.613557615855D-05 0.000000000000D+00  6 3 2 25 4 1 21 2 0.62111844D-01 0.20185198D+00 0.33847386D+06 0.33847386D+06 0.33847386D+06 0.10806960D+01  1  2  5  3  6  4        4 -.772362446523D-02 0.100000000000D+01
0.253141744874D-02 0.000000000000D+00 -.000000000000D+00 0.613557615855D-05 0.000000000000D+00  6 3 2 25 4 1 21 2 0.62111844D-01 0.20185198D+00 0.33847386D+06 0.33847386D+06 0.33847386D+06 0.10806960D+01  1  2  6  3  6  4        4 0.105134388555D-01 0.100000000000D+01
0.272204952184D-02 0.000000000000D+00 0.000000000000D+00 0.613557615855D-05 0.484213790663D-04  6 3 2 25 4 1 21 2 0.62111844D-01 0.20185198D+00 0.33847995D+06 0.33847995D+06 0.33847995D+06 0.10806954D+01  1  2 11  3  6  4        4 0.113051497700D-01 0.100000000000D+01
  </mgrwgt>
  </event>
  <event>
  5     66 0.20805674E-05 0.59169244E+02 0.75467711E-02 0.93894376E-01
        3 -1    0    0  501    0 0.00000000E+00 0.00000000E+00 0.59429474E+03 0.59429495E+03 0.50000000E+00 0.0000E+00 0.9000E+01
        2 -1    0    0  502    0 0.00000000E+00 0.00000000E+00 -.21727313E+04 0.21727314E+04 0.32000000E+00 0.0000E+00 0.9000E+01
       25  1    1    2    0    0 0.38768725E+03 -.24316174E+03 0.96511550E+02 0.48411622E+03 0.12500000E+03 0.0000E+00 0.9000E+01
        4  1    1    2  501    0 -.40983674E+03 0.29798687E+03 0.91973839E+02 0.51499895E+03 0.15500000E+01 0.0000E+00 0.9000E+01
        1  1    1    2  502    0 0.22149488E+02 -.54825122E+02 -.17669220E+04 0.17679111E+04 0.32000000E+00 0.0000E+00 0.9000E+01
#aMCatNLO 1  0  0  2  2 0.30873352D+02 0.00000000D+00  -5  6  0 0.00000000D+00 0.00000000D+00 0.00000000D+00 0.00000000D+00 0.00000000D+00
  <mgrwgt>
 0.7325572526D-02    7    2    0
 0.113632879442309D+04 0.000000000000000D+00 0.000000000000000D+00 0.113632879442309D+04
 0.113632879442309D+04 0.000000000000000D+00 0.000000000000000D+00 -.113632879442309D+04
 0.656671952727034D+03 0.387321343479114D+03 -.242869456903315D+03 0.454521349649671D+03
 0.690309892751549D+03 -.409484756350483D+03 0.297730941882145D+03 0.469261407525925D+03
 0.925675743367587D+03 0.221634128713689D+02 -.548614849788293D+02 -.923782757175596D+03
 0.000000000000000D+00 -.000000000000000D+00 -.000000000000000D+00 -.000000000000000D+00
 0.114377840585447D+04 0.000000000000000D+00 0.000000000000000D+00 0.114377840585447D+04
 0.116887728717886D+04 0.000000000000000D+00 0.000000000000000D+00 -.116887728717886D+04
 0.658091129728940D+03 0.393605447957923D+03 -.236524901603187D+03 0.454521349649671D+03
 0.689332628700209D+03 -.402890551003605D+03 0.304388581108984D+03 0.469261407525925D+03
 0.925443523216894D+03 0.310111110073882D+02 -.459286751740087D+02 -.923782757175596D+03
 0.397884113872827D+02 -.217260079617068D+02 -.219350043317891D+02 -.250988813243916D+02
0.289688680043D-02 0.000000000000D+00 0.000000000000D+00 0.474348783233D-04 0.000000000000D+00  6 3 2 25 4 1 21 0 0.91429978D-01 0.33426638D+00 0.27008863D+06 0.27008863D+06 0.27008863D+06 0.10879429D+01  1  2  2  2  6  2        2 0.148058651002D-02 0.100000000000D+01
0.118943147892D-02 0.000000000000D+00 -.111248080815D-04 0.474348783233D-04 0.000000000000D+00  6 3 2 25 4 1 21 2 0.91429978D-01 0.33426638D+00 0.27008863D+06 0.27008863D+06 0.27008863D+06 0.10879429D+01  1  2  3  2  6  2        2 0.719538237911D-03 0.100000000000D+01
-.190985954617D-02 0.000000000000D+00 0.000000000000D+00 0.474348783233D-04 0.000000000000D+00  6 3 2 25 4 1 21 2 0.91429978D-01 0.33426638D+00 0.27008863D+06 0.27008863D+06 0.27008863D+06 0.10879429D+01  1  2 15  2  6  2        2 -.115535614859D-02 0.100000000000D+01
-.198779922816D-03 0.000000000000D+00 0.000000000000D+00 0.474348783233D-04 0.000000000000D+00  6 3 2 25 4 1 21 2 0.91429978D-01 0.33426638D+00 0.27008863D+06 0.27008863D+06 0.27008863D+06 0.10879429D+01  1  2  4  2  6  2        2 -.120250521304D-03 0.100000000000D+01
-.122787339416D+00 0.000000000000D+00 -.166578659221D-01 0.474348783233D-04 0.000000000000D+00  6 3 2 25 4 1 21 2 0.91429978D-01 0.34468086D+00 0.27008863D+06 0.27008863D+06 0.27008863D+06 0.10879429D+01  1  2  5  2  6  2        2 -.680997534118D-01 0.100000000000D+01
0.123248240260D+00 0.000000000000D+00 0.166500289067D-01 0.474348783233D-04 0.000000000000D+00  6 3 2 25 4 1 21 2 0.91429978D-01 0.33426638D+00 0.27008863D+06 0.27008863D+06 0.27008863D+06 0.10879429D+01  1  2  6  2  6  2        2 0.745581592496D-01 0.100000000000D+01
-.669287316448D-03 0.000000000000D+00 -.915659010846D-04 0.474348783233D-04 0.000000000000D+00  6 3 21 25 4 1 -2 2 0.91429978D-01 0.34468086D+00 0.27008863D+06 0.27008863D+06 0.27008863D+06 0.10879429D+01  1  2  5  6  6  2        2 -.573513897184D-04 0.100000000000D+01
  </mgrwgt>
  </event>
  <event>
  5     66 -.20805674E-05 0.79886035E+02 0.75467711E-02 0.92406883E-01
        3 -1    0    0  501    0 0.00000000E+00 0.00000000E+00 0.11062644E+04 0.11062646E+04 0.50000000E+00 0.0000E+00 0.9000E+01
        2 -1    0    0  502    0 0.00000000E+00 0.00000000E+00 -.10013216E+04 0.10013217E+04 0.32000000E+00 0.0000E+00 0.9000E+01
       25  1    1    2    0    0 0.17749723E+03 -.50919854E+03 -.29760461E+03 0.62847588E+03 0.12500000E+03 0.0000E+00 0.9000E+01
        4  1    1    2  501    0 -.25474224E+03 0.52939365E+03 0.84519254E+03 0.10293221E+04 0.15500000E+01 0.0000E+00 0.9000E+01
        1  1    1    2  502    0 0.77245007E+02 -.20195110E+02 -.44264512E+03 0.44978822E+03 0.32000000E+00 0.0000E+00 0.9000E+01
#aMCatNLO 1  0  0  4  1 0.23453015D+02 0.00000000D+00  -5  6  0 0.00000000D+00 0.00000000D+00 0.00000000D+00 0.00000000D+00 0.00000000D+00
  <mgrwgt>
 -.1034209604D-02    7    2    0
 0.105248595798788D+04 0.000000000000000D+00 0.000000000000000D+00 0.105248595798788D+04
 0.105248595798788D+04 -.000000000000000D+00 -.000000000000000D+00 -.105248595798788D+04
 0.643856717644855D+03 0.177434201392710D+03 -.509155325217387D+03 -.328944420586995D+03
 0.988391845474124D+03 -.254724034765896D+03 0.529355826073610D+03 0.794868866992697D+03
 0.472723352856781D+03 0.772898333731857D+02 -.202005008562228D+02 -.465924446405702D+03
 0.000000000000000D+00 0.000000000000000D+00 0.000000000000000D+00 0.000000000000000D+00
 0.105248595798788D+04 0.000000000000000D+00 0.000000000000000D+00 0.105248595798788D+04
 0.105248595798788D+04 -.000000000000000D+00 -.000000000000000D+00 -.105248595798788D+04
 0.643547766412736D+03 0.177346257189715D+03 -.508972563601400D+03 -.328669989832719D+03
 0.518138282749629D+03 -.115111425775513D+03 0.291451147498391D+03 0.412641331338166D+03
 0.472508485938224D+03 0.772252634095593D+02 -.200663145142611D+02 -.465722955196297D+03
 0.470777380875171D+03 -.139460094823762D+03 0.237587730617270D+03 0.381751613690850D+03
0.285504132889D-03 0.000000000000D+00 0.000000000000D+00 0.130673293003D-04 0.000000000000D+00  6 3 2 25 4 1 21 0 0.17019454D+00 0.15404949D+00 0.37260407D+06 0.37260407D+06 0.37260407D+06 0.10776559D+01  1  2  2  3  6  4        4 0.121654948631D-03 0.100000000000D+01
0.668193190674D-04 0.000000000000D+00 -.109641104526D-05 0.130673293003D-04 0.000000000000D+00  6 3 2 25 4 1 21 2 0.17019454D+00 0.15404949D+00 0.37260407D+06 0.37260407D+06 0.37260407D+06 0.10776559D+01  1  2  3  3  6  4        4 0.330658483760D-04 0.100000000000D+01
-.210089895494D-03 0.000000000000D+00 0.000000000000D+00 0.130673293003D-04 0.000000000000D+00  6 3 2 25 4 1 21 2 0.17019454D+00 0.15404949D+00 0.37260407D+06 0.37260407D+06 0.37260407D+06 0.10776559D+01  1  2 15  3  6  4        4 -.103963954238D-03 0.100000000000D+01
0.240786924125D-01 0.000000000000D+00 0.000000000000D+00 0.130673293003D-04 0.000000000000D+00  6 3 2 25 4 1 21 2 0.17019454D+00 0.15404949D+00 0.37328051D+06 0.37328051D+06 0.37328051D+06 0.10775988D+01  1  2 12  3  6  4        4 0.119129622658D-01 0.100000000000D+01
-.400267062429D-01 0.000000000000D+00 0.000000000000D+00 0.130673293003D-04 0.000000000000D+00  6 3 2 25 4 1 21 2 0.17019454D+00 0.15404949D+00 0.37260407D+06 0.37260407D+06 0.37260407D+06 0.10776559D+01  1  2  4  3  6  4        4 -.198074002862D-01 0.100000000000D+01
-.241606185777D-01 0.000000000000D+00 0.000000000000D+00 0.130673293003D-04 0.000000000000D+00  6 3 2 25 4 1 21 2 0.17019454D+00 0.15404949D+00 0.37260407D+06 0.37260407D+06 0.37260407D+06 0.10776559D+01  1  2  5  3  6  4        4 -.119559935916D-01 0.100000000000D+01
0.379211683931D-01 0.000000000000D+00 -.000000000000D+00 0.130673293003D-04 0.000000000000D+00  6 3 2 25 4 1 21 2 0.17019454D+00 0.15404949D+00 0.37260407D+06 0.37260407D+06 0.37260407D+06 0.10776559D+01  1  2  6  3  6  4        4 0.187654651653D-01 0.100000000000D+01
  </mgrwgt>
  </event>
  <event>
  5     66 0.20805674E-05 0.38330312E+02 0.75467711E-02 0.91210594E-01
        3 -1    0    0  501    0 0.00000000E+00 0.00000000E+00 0.61202060E+03 0.61202080E+03 0.50000000E+00 0.0000E+00 0.9000E+01
        2 -1    0    0  502    0 0.00000000E+00 0.00000000E+00 -.26633218E+04 0.26633218E+04 0.32000000E+00 0.0000E+00 0.9000E+01
       25  1    1    2    0    0 -.33910800E+03 0.44615771E+03 -.30849261E+03 0.65180030E+03 0.12500000E+03 0.0000E+00 0.9000E+01
        4  1    1    2  501    0 0.30342670E+03 -.46009715E+03 0.26766603E+03 0.61270275E+03 0.15500000E+01 0.0000E+00 0.9000E+01
        1  1    1    2  502    0 0.35681302E+02 0.13939443E+02 -.20104746E+04 0.20108396E+04 0.32000000E+00 0.0000E+00 0.9000E+01
#aMCatNLO 1  0  0  1  1 0.21253017D+02 0.00000000D+00  -5  6  0 0.00000000D+00 0.00000000D+00 0.00000000D+00 0.00000000D+00 0.00000000D+00
  <mgrwgt>
 0.1714631473D-02    7    2    0
 0.127671772841538D+04 0.000000000000000D+00 0.000000000000000D+00 0.127671772841538D+04
 0.127671772841538D+04 0.000000000000000D+00 0.000000000000000D+00 -.127671772841538D+04
 0.588222945959163D+03 -.339032732826460D+03 0.446003237888272D+03 0.128526853296406D+03
 0.100063511886583D+04 0.303329966662462D+03 -.459950472060117D+03 0.835288654109376D+03
 0.964577392005778D+03 0.357027661639975D+02 0.139472341718448D+02 -.963815507405781D+03
 0.000000000000000D+00 0.000000000000000D+00 -.000000000000000D+00 0.000000000000000D+00
 0.160517175584508D+04 0.000000000000000D+00 0.000000000000000D+00 0.160517175584508D+04
 0.130802506334279D+04 0.000000000000000D+00 0.000000000000000D+00 -.130802506334279D+04
 0.630197270618067D+03 -.356483432641385D+03 0.487774548463119D+03 0.128526853296406D+03
 0.963120070019223D+03 0.275204282399358D+03 -.392626713990574D+03 0.835288654109376D+03
 0.967177728628357D+03 0.803539962864091D+01 0.801739283785763D+02 -.963815507405781D+03
 0.352701749922213D+03 0.732437506133863D+02 -.175321762851121D+03 0.297146692502290D+03
0.351200074604D-02 0.000000000000D+00 0.000000000000D+00 0.222342359388D-03 0.000000000000D+00  6 3 2 25 4 1 21 0 0.94157032D-01 0.40974183D+00 0.33832018D+06 0.33832018D+06 0.33832018D+06 0.10807104D+01  1  2  2  1  6  1        3 0.862829764083D-03 0.100000000000D+01
0.215658179008D-02 0.000000000000D+00 -.134870075958D-04 0.222342359388D-03 0.000000000000D+00  6 3 2 25 4 1 21 2 0.94157032D-01 0.40974183D+00 0.33832018D+06 0.33832018D+06 0.33832018D+06 0.10807104D+01  1  2  3  1  6  1        3 0.618806844671D-03 0.100000000000D+01
-.268088336376D-02 0.000000000000D+00 0.000000000000D+00 0.222342359388D-03 0.000000000000D+00  6 3 2 25 4 1 21 2 0.94157032D-01 0.40974183D+00 0.33832018D+06 0.33832018D+06 0.33832018D+06 0.10807104D+01  1  2 15  1  6  1        3 -.769249273497D-03 0.100000000000D+01
-.217952553412D-02 0.000000000000D+00 0.000000000000D+00 0.222342359388D-03 0.000000000000D+00  6 3 2 25 4 1 21 2 0.94157032D-01 0.40974183D+00 0.33832018D+06 0.33832018D+06 0.33832018D+06 0.10807104D+01  1  2  4  1  6  1        3 -.625390293496D-03 0.100000000000D+01
-.221183889125D-01 0.000000000000D+00 -.380742936571D-02 0.222342359388D-03 0.000000000000D+00  6 3 2 25 4 1 21 2 0.11987208D+00 0.40974183D+00 0.33832018D+06 0.33832018D+06 0.33832018D+06 0.10807104D+01  1  2  5  1  6  1        3 -.348735983610D-02 0.100000000000D+01
0.224873575044D-01 0.000000000000D+00 0.369907002822D-02 0.222342359388D-03 0.000000000000D+00  6 3 2 25 4 1 21 2 0.94157032D-01 0.40974183D+00 0.33832018D+06 0.33832018D+06 0.33832018D+06 0.10807104D+01  1  2  6  1  6  1        3 0.645249385221D-02 0.100000000000D+01
-.669299367017D-03 0.000000000000D+00 -.125585588576D-03 0.222342359388D-03 0.000000000000D+00  6 21 2 25 4 1 -3 2 0.11987208D+00 0.40974183D+00 0.33832018D+06 0.33832018D+06 0.33832018D+06 0.10807104D+01  1  2  5  5  6  1        3 -.133749958444D-02 0.100000000000D+01
  </mgrwgt>
  </event>
  <event>
  5     66 0.20805674E-05 0.41335847E+02 0.75467711E-02 0.89417983E-01
        3 -1    0    0  501    0 0.00000000E+00 0.00000000E+00 0.47099077E+03 0.47099103E+03 0.50000000E+00 0.0000E+00 0.9000E+01
        2 -1    0    0  502    0 0.00000000E+00 0.00000000E+00 -.11494562E+04 0.11494562E+04 0.32000000E+00 0.0000E+00 0.9000E+01
       25  1    1    2    0    0 -.78433690E+01 0.48679133E+03 -.94965189E+02 0.51153759E+03 0.12500000E+03 0.0000E+00 0.9000E+01
        4  1    1    2  501    0 0.40814673E+02 -.51165478E+03 0.10584309E+02 0.51339154E+03 0.15500000E+01 0.0000E+00 0.9000E+01
        1  1    1    2  502    0 -.32971304E+02 0.24863444E+02 -.59408451E+03 0.59551810E+03 0.32000000E+00 0.0000E+00 0.9000E+01
#aMCatNLO 1  0  0  1  2 0.95693598D+01 0.00000000D+00  -5  6  0 0.00000000D+00 0.00000000D+00 0.00000000D+00 0.00000000D+00 0.00000000D+00
  <mgrwgt>
 0.5280467784D-02    3    2    0
 0.735787664944624D+03 0.000000000000000D+00 0.000000000000000D+00 0.735787664944624D+03
 0.735787664944624D+03 0.000000000000000D+00 0.000000000000000D+00 -.735787664944624D+03
 0.519365212696464D+03 -.778693355825443D+01 0.486483161818986D+03 0.131866300060348D+03
 0.569888499104468D+03 0.407919068937909D+02 -.511369382283279D+03 0.248214174870674D+03
 0.382321618088316D+03 -.330049733355365D+02 0.248862204642931D+02 -.380080474931022D+03
 0.000000000000000D+00 -.000000000000000D+00 -.000000000000000D+00 -.000000000000000D+00
 0.826773953317554D+03 0.000000000000000D+00 0.000000000000000D+00 0.826773953317554D+03
 0.168310692010609D+04 0.000000000000000D+00 0.000000000000000D+00 -.168310692010609D+04
 0.570886671800535D+03 0.153622493561304D+03 0.518939303213673D+03 0.131866300060348D+03
 0.577690309516986D+03 0.210688460807653D+03 -.477206652914231D+03 0.248214174870674D+03
 0.391681339739972D+03 0.815844860255413D+02 0.479278219477627D+02 -.380080474931022D+03
 0.969622552366155D+03 -.445895440394498D+03 -.896604722472054D+02 -.856332966788539D+03
0.272953924613D-02 0.000000000000D+00 0.000000000000D+00 0.808347353115D-05 0.000000000000D+00  6 3 2 25 4 1 21 0 0.72460142D-01 0.17683943D+00 0.27914085D+06 0.27914085D+06 0.27914085D+06 0.10868750D+01  1  2  2  1  6  1        3 0.868775831533D-02 0.100000000000D+01
0.112762870407D-02 0.000000000000D+00 -.104821494093D-04 0.808347353115D-05 0.000000000000D+00  6 3 2 25 4 1 21 2 0.72460142D-01 0.17683943D+00 0.27914085D+06 0.27914085D+06 0.27914085D+06 0.10868750D+01  1  2  3  1  6  1        3 0.423978409486D-02 0.100000000000D+01
-.203384433218D-02 0.000000000000D+00 0.000000000000D+00 0.808347353115D-05 0.000000000000D+00  6 3 2 25 4 1 21 2 0.72460142D-01 0.17683943D+00 0.27914085D+06 0.27914085D+06 0.27914085D+06 0.10868750D+01  1  2 15  1  6  1        3 -.764707462650D-02 0.100000000000D+01
  </mgrwgt>
  </event>
  <event>
  5     66 0.20805674E-05 0.68488692E+02 0.75467711E-02 0.78813755E-01
        3 -1    0    0  501    0 0.00000000E+00 0.00000000E+00 0.81688678E+03 0.81688693E+03 0.50000000E+00 0.0000E+00 0.9000E+01
        2 -1    0    0  502    0 0.00000000E+00 0.00000000E+00 -.21545324E+04 0.21545324E+04 0.32000000E+00 0.0000E+00 0.9000E+01
       25  1    1    2    0    0 0.51996900E+03 -.18698223E+03 -.46585494E+03 0.73346843E+03 0.12500000E+03 0.0000E+00 0.9000E+01
        4  1    1    2  501    0 -.51160576E+03 0.11904495E+03 0.58117334E+03 0.78337540E+03 0.15500000E+01 0.0000E+00 0.9000E+01
        1  1    1    2  502    0 -.83632360E+01 0.67937280E+02 -.14529640E+04 0.14545755E+04 0.32000000E+00 0.0000E+00 0.9000E+01
#aMCatNLO 1  0  0  1  2 0.95693598D+01 0.00000000D+00  -5  6  0 0.00000000D+00 0.00000000D+00 0.00000000D+00 0.00000000D+00 0.00000000D+00
  <mgrwgt>
 0.1670219521D-01    3    2    0
 0.132665342073324D+04 0.000000000000000D+00 0.000000000000000D+00 0.132665342073324D+04
 0.132665342073324D+04 0.000000000000000D+00 0.000000000000000D+00 -.132665342073324D+04
 0.586369798451801D+03 0.519903237559446D+03 -.187003400423325D+03 -.151442703164350D+03
 0.117012398165381D+04 -.511533251764132D+03 0.119028079570158D+03 0.104563673474817D+04
 0.896813061360859D+03 -.836998579531365D+01 0.679753208531669D+02 -.894194031583823D+03
 0.000000000000000D+00 0.000000000000000D+00 0.000000000000000D+00 -.000000000000000D+00
 0.273442620514016D+04 0.000000000000000D+00 0.000000000000000D+00 0.273442620514016D+04
 0.360978274490486D+04 0.000000000000000D+00 0.000000000000000D+00 -.360978274490486D+04
 0.952052431439492D+03 0.475034016624696D+03 -.801365473998931D+03 -.151442703164350D+03
 0.153928928585570D+04 -.590555291449568D+03 -.962964055526604D+03 0.104563673474817D+04
 0.117521274926011D+04 -.688021493930960D+02 -.759478968861057D+03 -.894194031583823D+03
 0.267765448348973D+04 0.184323424217967D+03 0.252380849838659D+04 -.875356539764695D+03
0.110324951235D+00 0.000000000000D+00 0.000000000000D+00 0.170836990573D-03 0.000000000000D+00  6 3 2 25 4 1 21 0 0.12567490D+00 0.33146654D+00 0.33649472D+06 0.33649472D+06 0.33649472D+06 0.10808824D+01  1  2  2  1  6  1        3 0.257631601358D-01 0.100000000000D+01
0.406052387477D-01 0.000000000000D+00 -.423676861970D-03 0.170836990573D-03 0.000000000000D+00  6 3 2 25 4 1 21 2 0.12567490D+00 0.33146654D+00 0.33649472D+06 0.33649472D+06 0.33649472D+06 0.10808824D+01  1  2  3  1  6  1        3 0.110780759506D-01 0.100000000000D+01
-.738170207956D-01 0.000000000000D+00 0.000000000000D+00 0.170836990573D-03 0.000000000000D+00  6 3 2 25 4 1 21 2 0.12567490D+00 0.33146654D+00 0.33649472D+06 0.33649472D+06 0.33649472D+06 0.10808824D+01  1  2 15  1  6  1        3 -.201390408736D-01 0.100000000000D+01
  </mgrwgt>
  </event>
  <event>
  5     66 0.20805674E-05 0.11709011E+03 0.75467711E-02 0.89953968E-01
        3 -1    0    0  501    0 0.00000000E+00 0.00000000E+00 0.30985984E+03 0.30986025E+03 0.50000000E+00 0.0000E+00 0.9000E+01
        2 -1    0    0  502    0 -.00000000E+00 -.00000000E+00 -.30071638E+04 0.30071639E+04 0.32000000E+00 0.0000E+00 0.9000E+01
       25  1    1    2    0    0 0.85348529E+01 -.53523819E+03 -.96456858E+03 0.11102118E+04 0.12500000E+03 0.0000E+00 0.9000E+01
        4  1    1    2  501    0 0.10825007E+02 0.11666704E+03 0.19857423E+03 0.23056996E+03 0.15500000E+01 0.0000E+00 0.9000E+01
        1  1    1    2  502    0 -.19359860E+02 0.41857115E+03 -.19313097E+04 0.19762423E+04 0.32000000E+00 0.0000E+00 0.9000E+01
#aMCatNLO 1  0  0  4  1 0.51821801D+02 0.00000000D+00  -5  6  0 0.00000000D+00 0.00000000D+00 0.00000000D+00 0.00000000D+00 0.00000000D+00
  <mgrwgt>
 0.1370088297D-02    4    2    0
 0.965297889042249D+03 0.000000000000000D+00 0.000000000000000D+00 0.965297889042249D+03
 0.965297889042249D+03 -.000000000000000D+00 -.000000000000000D+00 -.965297889042249D+03
 0.560048851920492D+03 0.855373925484592D+01 -.535531751609351D+03 -.105651753891934D+03
 0.673134939455806D+03 0.108177955841708D+02 0.116589323335862D+03 0.662872952909497D+03
 0.697411986708200D+03 -.193715348390167D+02 0.418942428273489D+03 -.557221199017563D+03
 0.000000000000000D+00 -.000000000000000D+00 0.000000000000000D+00 0.000000000000000D+00
 0.965297889042249D+03 0.000000000000000D+00 0.000000000000000D+00 0.965297889042249D+03
 0.965297889042249D+03 -.000000000000000D+00 -.000000000000000D+00 -.965297889042249D+03
 0.535554493022191D+03 0.996560305222063D+01 -.520315320174911D+03 -.191381645760824D+02
 0.499070148300635D+03 0.193814111576778D+03 0.252496860127452D+03 0.384385794097936D+03
 0.629530064014405D+03 -.176615533468304D+02 0.437371837808882D+03 -.452440102690995D+03
 0.266441072747267D+03 -.186118161282168D+03 -.169553377761422D+03 0.871924731691414D+02
0.439714940686D-02 0.000000000000D+00 0.000000000000D+00 0.139521419086D-04 0.000000000000D+00  6 3 2 25 4 1 21 0 0.47670777D-01 0.46264062D+00 0.29510605D+06 0.29510605D+06 0.29510605D+06 0.10850807D+01  1  2  2  3  6  4        4 0.294473843036D-02 0.100000000000D+01
0.885444222039D-03 0.000000000000D+00 -.168862115184D-04 0.139521419086D-04 0.000000000000D+00  6 3 2 25 4 1 21 2 0.47670777D-01 0.46264062D+00 0.29510605D+06 0.29510605D+06 0.29510605D+06 0.10850807D+01  1  2  3  3  6  4        4 0.698169419450D-03 0.100000000000D+01
-.271282815097D-02 0.000000000000D+00 0.000000000000D+00 0.139521419086D-04 0.000000000000D+00  6 3 2 25 4 1 21 2 0.47670777D-01 0.46264062D+00 0.29510605D+06 0.29510605D+06 0.29510605D+06 0.10850807D+01  1  2 15  3  6  4        4 -.213905473444D-02 0.100000000000D+01
-.169645479221D-03 0.000000000000D+00 0.000000000000D+00 0.139521419086D-04 0.000000000000D+00  6 3 2 25 4 1 21 2 0.47670777D-01 0.46264062D+00 0.29510605D+06 0.29510605D+06 0.29510605D+06 0.10850807D+01  1  2  4  3  6  4        4 -.133764818598D-03 0.100000000000D+01
  </mgrwgt>
  </event>
  <event>
  5     66 0.20805674E-05 0.39166209E+02 0.75467711E-02 0.92172559E-01
        3 -1    0    0  501    0 0.00000000E+00 0.00000000E+00 0.73071328E+03 0.73071345E+03 0.50000000E+00 0.0000E+00 0.9000E+01
        2 -1    0    0  502    0 0.00000000E+00 0.00000000E+00 -.42657861E+04 0.42657861E+04 0.32000000E+00 0.0000E+00 0.9000E+01
       25  1    1    2    0    0 0.50456985E+03 0.11670782E+03 0.62070085E+02 0.53636662E+03 0.12500000E+03 0.0000E+00 0.9000E+01
        4  1    1    2  501    0 -.46543373E+03 -.11771154E+03 0.29782643E+03 0.56496686E+03 0.15500000E+01 0.0000E+00 0.9000E+01
        1  1    1    2  502    0 -.39136121E+02 0.10037209E+01 -.38949693E+04 0.38951661E+04 0.32000000E+00 0.0000E+00 0.9000E+01
#aMCatNLO 1  0  0  2  1 0.96579714D+02 0.00000000D+00  -5  6  0 0.00000000D+00 0.00000000D+00 0.00000000D+00 0.00000000D+00 0.00000000D+00
  <mgrwgt>
 0.3186152324D-01    7    2    0
 0.176552174271194D+04 0.000000000000000D+00 0.000000000000000D+00 0.176552174271194D+04
 0.176552174271194D+04 0.000000000000000D+00 0.000000000000000D+00 -.176552174271194D+04
 0.821500882925537D+03 0.504342080413316D+03 0.116645460418069D+03 0.625517068620562D+03
 0.109702724265368D+04 -.465188744681762D+03 -.117649579175140D+03 0.986522569161833D+03
 0.161251535984467D+04 -.391533357315544D+02 0.100411875707066D+01 -.161203963778240D+04
 0.000000000000000D+00 0.000000000000000D+00 0.000000000000000D+00 -.000000000000000D+00
 0.177332654538677D+04 0.000000000000000D+00 0.000000000000000D+00 0.177332654538677D+04
 0.241388920582435D+04 0.000000000000000D+00 0.000000000000000D+00 -.241388920582435D+04
 0.804242582371317D+03 0.479573758047952D+03 0.995918608892705D+02 0.625517068620562D+03
 0.111442646661055D+04 -.498880406088585D+03 -.140847117248825D+03 0.986522569161833D+03
 0.161479149847610D+04 -.883215952664270D+02 -.328494380267472D+02 -.161203963778240D+04
 0.653755203753154D+03 0.107628243307060D+03 0.741046943863018D+02 -.640562660437585D+03
0.146086782672D+00 0.000000000000D+00 0.000000000000D+00 0.100180578918D-02 0.000000000000D+00  6 3 2 25 4 1 21 0 0.11241744D+00 0.65627480D+00 0.27643159D+06 0.27643159D+06 0.27643159D+06 0.10871906D+01  1  2  2  2  6  2        2 0.167092723375D-02 0.100000000000D+01
0.905403507898D-01 0.000000000000D+00 -.561011710992D-03 0.100180578918D-02 0.000000000000D+00  6 3 2 25 4 1 21 2 0.11241744D+00 0.65627480D+00 0.27643159D+06 0.27643159D+06 0.27643159D+06 0.10871906D+01  1  2  3  2  6  2        2 0.122405288929D-02 0.100000000000D+01
-.964129747025D-01 0.000000000000D+00 0.000000000000D+00 0.100180578918D-02 0.000000000000D+00  6 3 2 25 4 1 21 2 0.11241744D+00 0.65627480D+00 0.27643159D+06 0.27643159D+06 0.27643159D+06 0.10871906D+01  1  2 15  2  6  2        2 -.130344734939D-02 0.100000000000D+01
-.118624463786D-01 0.000000000000D+00 0.000000000000D+00 0.100180578918D-02 0.000000000000D+00  6 3 2 25 4 1 21 2 0.11241744D+00 0.65627480D+00 0.27643159D+06 0.27643159D+06 0.27643159D+06 0.10871906D+01  1  2  4  2  6  2        2 -.160373376480D-03 0.100000000000D+01
-.182544809095D+01 0.000000000000D+00 -.511479245358D-01 0.100180578918D-02 0.000000000000D+00  6 3 2 25 4 1 21 2 0.11241744D+00 0.89745659D+00 0.27643159D+06 0.27643159D+06 0.27643159D+06 0.10871906D+01  1  2  5  2  6  2        2 -.117533631915D-03 0.100000000000D+01
0.225955793986D+01 0.000000000000D+00 0.630225565897D-01 0.100180578918D-02 0.000000000000D+00  6 3 2 25 4 1 21 2 0.11241744D+00 0.65627480D+00 0.27643159D+06 0.27643159D+06 0.27643159D+06 0.10871906D+01  1  2  6  2  6  2        2 0.305479093099D-01 0.100000000000D+01
-.715301793002D-01 0.000000000000D+00 -.203853027280D-02 0.100180578918D-02 0.000000000000D+00  6 3 21 25 4 1 -2 2 0.11241744D+00 0.89745659D+00 0.27643159D+06 0.27643159D+06 0.27643159D+06 0.10871906D+01  1  2  5  6  6  2        2 -.118311102697D-07 0.100000000000D+01
  </mgrwgt>
  </event>
  <event>
  5     66 -.20805674E-05 0.15142423E+02 0.75467711E-02 0.91257195E-01
        3 -1    0    0  501    0 0.00000000E+00 0.00000000E+00 0.16865961E+03 0.16866035E+03 0.50000000E+00 0.0000E+00 0.9000E+01
        2 -1    0    0  502    0 0.00000000E+00 0.00000000E+00 -.31235360E+04 0.31235360E+04 0.32000000E+00 0.0000E+00 0.9000E+01
       25  1    1    2    0    0 0.54986415E+03 -.31489168E+03 -.12966471E+04 0.14485945E+04 0.12500000E+03 0.0000E+00 0.9000E+01
        4  1    1    2  501    0 -.12851000E+02 -.82264961E+01 0.34942520E+02 0.38160262E+02 0.15500000E+01 0.0000E+00 0.9000E+01
        1  1    1    2  502    0 -.53701315E+03 0.32311817E+03 -.16931718E+04 0.18054416E+04 0.32000000E+00 0.0000E+00 0.9000E+01
#aMCatNLO 1  0  0  1  1 0.47325043D+02 0.00000000D+00  -5  6  0 0.00000000D+00 0.00000000D+00 0.00000000D+00 0.00000000D+00 0.00000000D+00
  <mgrwgt>
 -.1323100212D-02    5    2    0
 0.725820647558319D+03 0.000000000000000D+00 0.000000000000000D+00 0.725820647558319D+03
 0.725820647558319D+03 0.000000000000000D+00 0.000000000000000D+00 -.725820647558319D+03
 0.646554407866347D+03 0.550394627844787D+03 -.315273513848147D+03 0.871593006183235D+01
 0.156463553617513D+03 -.127531939011428D+02 -.816388597276070D+01 0.155729093690820D+03
 0.648623333632778D+03 -.537641433943645D+03 0.323437399820908D+03 -.164445023752652D+03
 0.000000000000000D+00 0.000000000000000D+00 -.000000000000000D+00 0.000000000000000D+00
 0.155141072462362D+04 0.000000000000000D+00 0.000000000000000D+00 0.155141072462362D+04
 0.727845926244897D+03 0.000000000000000D+00 0.000000000000000D+00 -.727845926244897D+03
 0.618824589372285D+03 0.524431871881023D+03 -.303667773611723D+03 0.871593006183235D+01
 0.156995461704663D+03 -.191846740641699D+02 -.528891814530884D+01 0.155729093690820D+03
 0.677288432902597D+03 -.564846187380491D+03 0.335598331504149D+03 -.164445023752652D+03
 0.826148166888976D+03 0.595989895636378D+02 -.266416397471169D+02 0.823564798378727D+03
0.150195802181D-04 0.000000000000D+00 0.000000000000D+00 0.227728665924D-05 0.000000000000D+00  6 3 2 25 4 1 21 0 0.25947691D-01 0.48054406D+00 0.41542498D+06 0.41542498D+06 0.41542498D+06 0.10742450D+01  1  2  2  1  6  1        3 0.267791504889D-04 0.100000000000D+01
0.936653420735D-05 0.000000000000D+00 -.576791427838D-07 0.227728665924D-05 0.000000000000D+00  6 3 2 25 4 1 21 2 0.25947691D-01 0.48054406D+00 0.41542498D+06 0.41542498D+06 0.41542498D+06 0.10742450D+01  1  2  3  1  6  1        3 0.192719036668D-04 0.100000000000D+01
-.102089660434D-04 0.000000000000D+00 0.000000000000D+00 0.227728665924D-05 0.000000000000D+00  6 3 2 25 4 1 21 2 0.25947691D-01 0.48054406D+00 0.41542498D+06 0.41542498D+06 0.41542498D+06 0.10742450D+01  1  2 15  1  6  1        3 -.210052305121D-04 0.100000000000D+01
-.133635474389D-02 0.000000000000D+00 -.893084501453D-05 0.227728665924D-05 0.000000000000D+00  6 3 2 25 4 1 21 2 0.55511824D-01 0.48054406D+00 0.41542498D+06 0.41542498D+06 0.41542498D+06 0.10742450D+01  1  2  5  1  6  1        3 -.621676687881D-03 0.100000000000D+01
-.109424129952D-03 0.000000000000D+00 -.735007457053D-06 0.227728665924D-05 0.000000000000D+00  6 21 2 25 4 1 -3 2 0.55511824D-01 0.48054406D+00 0.41542498D+06 0.41542498D+06 0.41542498D+06 0.10742450D+01  1  2  5  5  6  1        3 -.726469347661D-03 0.100000000000D+01
  </mgrwgt>
  </event>
  <event>
  5     66 0.20805674E-05 0.29933569E+02 0.75467711E-02 0.94802086E-01
        3 -1    0    0  501    0 0.00000000E+00 0.00000000E+00 0.39325932E+03 0.39325964E+03 0.50000000E+00 0.0000E+00 0.9000E+01
        2 -1    0    0  502    0 0.00000000E+00 0.00000000E+00 -.43354920E+04 0.43354920E+04 0.32000000E+00 0.0000E+00 0.9000E+01
       25  1    1    2    0    0 -.72291630E+02 0.46104462E+03 -.25624083E+04 0.26075562E+04 0.12500000E+03 0.0000E+00 0.9000E+01
        4  1    1    2  501    0 0.10220642E+03 -.46033238E+03 0.22052738E+03 0.52056391E+03 0.15500000E+01 0.0000E+00 0.9000E+01
        1  1    1    2  502    0 -.29914794E+02 -.71223766E+00 -.16003518E+04 0.16006316E+04 0.32000000E+00 0.0000E+00 0.9000E+01
#aMCatNLO 1  0  0  2  1 0.16547885D+03 0.00000000D+00  -5  6  0 0.00000000D+00 0.00000000D+00 0.00000000D+00 0.00000000D+00 0.00000000D+00
  <mgrwgt>
 0.2739188316D-01    7    2    0
 0.130574631210066D+04 0.000000000000000D+00 0.000000000000000D+00 0.130574631210066D+04
 0.130574631210066D+04 0.000000000000000D+00 0.000000000000000D+00 -.130574631210066D+04
 0.853310522941808D+03 -.722800079541790D+02 0.461039946417703D+03 -.703371606492988D+03
 0.127549316524084D+04 0.102205067639429D+03 -.460326273049737D+03 0.118513149526332D+04
 0.482688936018676D+03 -.299250596852500D+02 -.713673367965782D+00 -.481759888770329D+03
 0.000000000000000D+00 -.000000000000000D+00 0.000000000000000D+00 -.000000000000000D+00
 0.134777253747977D+04 0.000000000000000D+00 0.000000000000000D+00 0.134777253747977D+04
 0.162000812557914D+04 0.000000000000000D+00 0.000000000000000D+00 -.162000812557914D+04
 0.818000178769534D+03 -.707635584992396D+02 0.392122677787177D+03 -.703371606492988D+03
 0.131805427604324D+04 0.104558300703555D+03 -.567272399544330D+03 0.118513149526332D+04
 0.484338583065139D+03 -.290476355457860D+02 -.405894997104701D+02 -.481759888770329D+03
 0.347387625180998D+03 -.474710665852933D+01 0.215739221467624D+03 -.272235588099370D+03
0.202807763822D+00 0.000000000000D+00 0.000000000000D+00 0.438192384355D-03 0.000000000000D+00  6 3 2 25 4 1 21 0 0.60501460D-01 0.66699879D+00 0.24235530D+06 0.24235530D+06 0.24235530D+06 0.10914752D+01  1  2  2  2  6  2        2 0.838198034259D-02 0.100000000000D+01
0.805638582477D-01 0.000000000000D+00 -.778835213588D-03 0.438192384355D-03 0.000000000000D+00  6 3 2 25 4 1 21 2 0.60501460D-01 0.66699879D+00 0.24235530D+06 0.24235530D+06 0.24235530D+06 0.10914752D+01  1  2  3  2  6  2        2 0.396670658919D-02 0.100000000000D+01
-.148724908805D+00 0.000000000000D+00 0.000000000000D+00 0.438192384355D-03 0.000000000000D+00  6 3 2 25 4 1 21 2 0.60501460D-01 0.66699879D+00 0.24235530D+06 0.24235530D+06 0.24235530D+06 0.10914752D+01  1  2 15  2  6  2        2 -.732273861462D-02 0.100000000000D+01
-.966446579848D-03 0.000000000000D+00 0.000000000000D+00 0.438192384355D-03 0.000000000000D+00  6 3 2 25 4 1 21 2 0.60501460D-01 0.66699879D+00 0.24235530D+06 0.24235530D+06 0.24235530D+06 0.10914752D+01  1  2  4  2  6  2        2 -.475847371237D-04 0.100000000000D+01
-.395977708716D+00 0.000000000000D+00 -.920199708179D-01 0.438192384355D-03 0.000000000000D+00  6 3 2 25 4 1 21 2 0.60501460D-01 0.82962474D+00 0.24235530D+06 0.24235530D+06 0.24235530D+06 0.10914752D+01  1  2  5  2  6  2        2 -.956056982414D-03 0.100000000000D+01
0.474638696675D+00 0.000000000000D+00 0.111375742873D+00 0.438192384355D-03 0.000000000000D+00  6 3 2 25 4 1 21 2 0.60501460D-01 0.66699879D+00 0.24235530D+06 0.24235530D+06 0.24235530D+06 0.10914752D+01  1  2  6  2  6  2        2 0.233696906596D-01 0.100000000000D+01
-.108779323263D-01 0.000000000000D+00 -.281357057871D-02 0.438192384355D-03 0.000000000000D+00  6 3 21 25 4 1 -2 2 0.60501460D-01 0.82962474D+00 0.24235530D+06 0.24235530D+06 0.24235530D+06 0.10914752D+01  1  2  5  6  6  2        2 -.114100873802D-06 0.100000000000D+01
  </mgrwgt>
  </event>
  <event>
  5     66 0.20805674E-05 0.56149283E+02 0.75467711E-02 0.84573233E-01
        3 -1    0    0  501    0 0.00000000E+00 0.00000000E+00 0.12204721E+04 0.12204722E+04 0.50000000E+00 0.0000E+00 0.9000E+01
        2 -1    0    0  502    0 0.00000000E+00 0.00000000E+00 -.36962421E+03 0.36962435E+03 0.32000000E+00 0.0000E+00 0.9000E+01
       25  1    1    2    0    0 -.21744674E+03 -.46290568E+03 0.39259628E+02 0.52794988E+03 0.12500000E+03 0.0000E+00 0.9000E+01
        4  1    1    2  501    0 0.14936876E+02 0.54302451E+02 0.51517395E+03 0.51824557E+03 0.15500000E+01 0.0000E+00 0.9000E+01
        1  1    1    2  502    0 0.20250987E+03 0.40860323E+03 0.29641427E+03 0.54390106E+03 0.32000000E+00 0.0000E+00 0.9000E+01
#aMCatNLO 1  0  0  1  5 0.45465829D+02 0.00000000D+00  -5  6  0 0.00000000D+00 0.00000000D+00 0.00000000D+00 0.00000000D+00 0.00000000D+00
  <mgrwgt>
 0.1762324991D-02    3    2    0
 0.671651851176931D+03 0.000000000000000D+00 0.000000000000000D+00 0.671651851176931D+03
 0.671651851176931D+03 0.000000000000000D+00 0.000000000000000D+00 -.671651851176931D+03
 0.600275567870248D+03 -.217674748606304D+03 -.463352647447339D+03 -.287450491919345D+03
 0.286275999081364D+03 0.148917773637009D+02 0.541384981551392D+02 0.280715524391668D+03
 0.456752135402250D+03 0.202782971242603D+03 0.409214149292200D+03 0.673496752767755D+01
 0.000000000000000D+00 0.000000000000000D+00 0.000000000000000D+00 -.000000000000000D+00
 0.117338398378725D+04 0.000000000000000D+00 0.000000000000000D+00 0.117338398378725D+04
 0.195749747624077D+04 0.000000000000000D+00 0.000000000000000D+00 -.195749747624077D+04
 0.112721361931245D+04 -.776087559474670D+03 -.755013813309033D+03 -.287450491919345D+03
 0.341914709008709D+03 -.188171571263134D+03 -.519222723923391D+02 0.280715524391668D+03
 0.286295779041688D+03 -.374080977337586D+02 0.283761427141586D+03 0.673496752767755D+01
 0.137545735266518D+04 0.100166722847156D+04 0.523174658559786D+03 -.784113492453520D+03
0.375873602204D-02 0.000000000000D+00 0.000000000000D+00 0.611528087464D-06 0.000000000000D+00  6 3 2 25 4 1 21 0 0.18776495D+00 0.56865281D-01 0.27031008D+06 0.27031008D+06 0.27031008D+06 0.10879163D+01  1  2  2  1  6  1        3 0.390225530076D-02 0.100000000000D+01
0.945206942218D-03 0.000000000000D+00 -.144345360226D-04 0.611528087464D-06 0.000000000000D+00  6 3 2 25 4 1 21 2 0.18776495D+00 0.56865281D-01 0.27031008D+06 0.27031008D+06 0.27031008D+06 0.10879163D+01  1  2  3  1  6  1        3 0.116142646064D-02 0.100000000000D+01
-.268675240685D-02 0.000000000000D+00 0.000000000000D+00 0.611528087464D-06 0.000000000000D+00  6 3 2 25 4 1 21 2 0.18776495D+00 0.56865281D-01 0.27031008D+06 0.27031008D+06 0.27031008D+06 0.10879163D+01  1  2 15  1  6  1        3 -.330135677079D-02 0.100000000000D+01
  </mgrwgt>
  </event>
  <event>
  5     66 0.20805674E-05 0.53632961E+02 0.75467711E-02 0.92471566E-01
        3 -1    0    0  501    0 0.00000000E+00 0.00000000E+00 0.73743113E+03 0.73743130E+03 0.50000000E+00 0.0000E+00 0.9000E+01
        2 -1    0    0  502    0 0.00000000E+00 0.00000000E+00 -.83707742E+03 0.83707748E+03 0.32000000E+00 0.0000E+00 0.9000E+01
       25  1    1    2    0    0 -.34266016E+03 -.30099319E+03 -.59695279E+02 0.47665649E+03 0.12500000E+03 0.0000E+00 0.9000E+01
        4  1    1    2  501    0 0.50095048E+02 -.19341133E+02 0.44439014E+03 0.44762550E+03 0.15500000E+01 0.0000E+00 0.9000E+01
        1  1    1    2  502    0 0.29256511E+03 0.32033432E+03 -.48434115E+03 0.65022678E+03 0.32000000E+00 0.0000E+00 0.9000E+01
#aMCatNLO 1  0  0  2  1 0.97125320D+02 0.00000000D+00  -5  6  0 0.00000000D+00 0.00000000D+00 0.00000000D+00 0.00000000D+00 0.00000000D+00
  <mgrwgt>
 0.1032911885D-02    7    2    0
 0.785676222277885D+03 0.000000000000000D+00 0.000000000000000D+00 0.785676222277885D+03
 0.785676222277885D+03 0.000000000000000D+00 0.000000000000000D+00 -.785676222277885D+03
 0.474193111761018D+03 -.342917422229826D+03 -.301320118178609D+03 -.291193261199068D+02
 0.476115699965559D+03 0.500333488690336D+02 -.193173111921891D+02 0.473085262128243D+03
 0.621043632829193D+03 0.292884073360793D+03 0.320637429370798D+03 -.443965936008336D+03
 0.000000000000000D+00 0.000000000000000D+00 0.000000000000000D+00 -.000000000000000D+00
 0.829741648976564D+03 0.000000000000000D+00 0.000000000000000D+00 0.829741648976564D+03
 0.113061973462812D+04 0.000000000000000D+00 0.000000000000000D+00 -.113061973462812D+04
 0.524594195078492D+03 -.347828490732535D+03 -.371135386875330D+03 -.291193261199068D+02
 0.483033838983249D+03 0.453171805138064D+02 -.863618984866959D+02 0.473085262128243D+03
 0.579231840078980D+03 0.286982281228266D+03 0.236738130613858D+03 -.443965936008336D+03
 0.373501509463958D+03 0.155290289904628D+02 0.220759154748168D+03 -.300878085651553D+03
0.784697549397D-03 0.000000000000D+00 0.000000000000D+00 0.301726164360D-04 0.000000000000D+00  6 3 2 25 4 1 21 0 0.11345096D+00 0.12878116D+00 0.23097636D+06 0.23097636D+06 0.23097636D+06 0.10930544D+01  1  2  2  2  6  2        2 0.137621067451D-02 0.100000000000D+01
0.273084872551D-03 0.000000000000D+00 -.301344520529D-05 0.301726164360D-04 0.000000000000D+00  6 3 2 25 4 1 21 2 0.11345096D+00 0.12878116D+00 0.23097636D+06 0.23097636D+06 0.23097636D+06 0.10930544D+01  1  2  3  2  6  2        2 0.572221035807D-03 0.100000000000D+01
-.644028906197D-03 0.000000000000D+00 0.000000000000D+00 0.301726164360D-04 0.000000000000D+00  6 3 2 25 4 1 21 2 0.11345096D+00 0.12878116D+00 0.23097636D+06 0.23097636D+06 0.23097636D+06 0.10930544D+01  1  2 15  2  6  2        2 -.134949579723D-02 0.100000000000D+01
-.885043290279D-03 0.000000000000D+00 0.000000000000D+00 0.301726164360D-04 0.000000000000D+00  6 3 2 25 4 1 21 2 0.11345096D+00 0.12878116D+00 0.23097636D+06 0.23097636D+06 0.23097636D+06 0.10930544D+01  1  2  4  2  6  2        2 -.185451644966D-02 0.100000000000D+01
-.240434677307D-02 0.000000000000D+00 -.595760399395D-03 0.301726164360D-04 0.000000000000D+00  6 3 2 25 4 1 21 2 0.11345096D+00 0.19001961D+00 0.23097636D+06 0.23097636D+06 0.23097636D+06 0.10930544D+01  1  2  5  2  6  2        2 -.286951405001D-02 0.100000000000D+01
0.248787396730D-02 0.000000000000D+00 0.553359505412D-03 0.301726164360D-04 0.000000000000D+00  6 3 2 25 4 1 21 2 0.11345096D+00 0.12878116D+00 0.23097636D+06 0.23097636D+06 0.23097636D+06 0.10930544D+01  1  2  6  2  6  2        2 0.521308194492D-02 0.100000000000D+01
-.925620810778D-04 0.000000000000D+00 -.277857535141D-04 0.301726164360D-04 0.000000000000D+00  6 3 21 25 4 1 -2 2 0.11345096D+00 0.19001961D+00 0.23097636D+06 0.23097636D+06 0.23097636D+06 0.10930544D+01  1  2  5  6  6  2        2 -.550754731205D-04 0.100000000000D+01
  </mgrwgt>
  </event>
  <event>
  6     66 0.20805674E-05 0.47827791E+02 0.75467711E-02 0.92956292E-01
        3 -1    0    0  501    0 0.00000000E+00 0.00000000E+00 0.13056039E+04 0.13056040E+04 0.50000000E+00 0.0000E+00 0.9000E+01
        2 -1    0    0  503    0 0.00000000E+00 0.00000000E+00 -.12277437E+04 0.12277437E+04 0.32000000E+00 0.0000E+00 0.9000E+01
       25  1    1    2    0    0 0.50753310E+03 -.23413950E+03 -.42218856E+03 0.71153308E+03 0.12500000E+03 0.0000E+00 0.9000E+01
        4  1    1    2  501    0 -.46872074E+03 0.21391180E+03 0.11012936E+04 0.12158566E+04 0.15500000E+01 0.0000E+00 0.9000E+01
        1  1    1    2  502    0 -.42511530E+02 0.37124970E+02 -.39877752E+03 0.40275192E+03 0.32000000E+00 0.0000E+00 0.9000E+01
       21  1    1    2  503  502 0.36991721E+01 -.16897265E+02 -.20246719E+03 0.20320612E+03 0.75000000E+00 0.0000E+00 0.9000E+01
#aMCatNLO 2  0  0  2  5 0.17297440D+02 0.00000000D+00  -5  6  0 0.00000000D+00 0.00000000D+00 0.00000000D+00 0.00000000D+00 0.00000000D+00
  <mgrwgt>
 0.6205182417D-02    1    2    0
 0.115657654480911D+04 0.000000000000000D+00 0.000000000000000D+00 0.115657654480911D+04
 0.115657654480911D+04 0.000000000000000D+00 0.000000000000000D+00 -.115657654480911D+04
 0.770190836505829D+03 0.508760774847094D+03 -.239765896185071D+03 -.511120057952242D+03
 0.108893947673697D+04 -.466947643853666D+03 0.205935380547317D+03 0.961945788979048D+03
 0.454022776375419D+03 -.418131309934279D+02 0.338305156377539D+02 -.450825731026806D+03
 0.000000000000000D+00 0.000000000000000D+00 -.000000000000000D+00 -.000000000000000D+00
 0.115693566216663D+04 0.000000000000000D+00 0.000000000000000D+00 0.115693566216663D+04
 0.138550956523331D+04 0.000000000000000D+00 0.000000000000000D+00 -.138550956523331D+04
 0.767647307949885D+03 0.507531144068150D+03 -.234149126760015D+03 -.511120057952242D+03
 0.109122098996959D+04 -.468690865286014D+03 0.213898155235447D+03 0.961945788979048D+03
 0.454349464731193D+03 -.425394509058514D+02 0.371482363281992D+02 -.450825731026806D+03
 0.229227464749274D+03 0.369917212371559D+01 -.168972648036305D+02 -.228573903066678D+03
0.300965060593D-01 0.000000000000D+00 0.000000000000D+00 0.699646818657D-04 0.395430872897D-06  6 3 2 25 4 1 21 2 0.20086205D+00 0.18888355D+00 0.33739444D+06 0.33739444D+06 0.33739444D+06 0.10807975D+01  1  2  1  2  6  2        2 0.620518241665D-02 0.100000000000D+01
  </mgrwgt>
  </event>
  <event>
  5     66 0.20805674E-05 0.50902585E+02 0.75467711E-02 0.89349590E-01
        3 -1    0    0  501    0 0.00000000E+00 0.00000000E+00 0.12971111E+04 0.12971112E+04 0.50000000E+00 0.0000E+00 0.9000E+01
        2 -1    0    0  502    0 -.00000000E+00 -.00000000E+00 -.28482149E+04 0.28482150E+04 0.32000000E+00 0.0000E+00 0.9000E+01
       25  1    1    2    0    0 -.20519476E+03 -.46681565E+03 -.44880316E+03 0.69070328E+03 0.12500000E+03 0.0000E+00 0.9000E+01
        4  1    1    2  501    0 0.25054043E+03 0.48990159E+03 0.11114958E+04 0.12402417E+04 0.15500000E+01 0.0000E+00 0.9000E+01
        1  1    1    2  502    0 -.45345666E+02 -.23085941E+02 -.22137965E+04 0.22143812E+04 0.32000000E+00 0.0000E+00 0.9000E+01
#aMCatNLO 1  0  0  5  2 0.19441850D+02 0.00000000D+00  -5  6  0 0.00000000D+00 0.00000000D+00 0.00000000D+00 0.00000000D+00 0.00000000D+00
  <mgrwgt>
 0.1471726661D-01    6    2    0
 0.192209561631698D+04 0.000000000000000D+00 0.000000000000000D+00 0.192209561631698D+04
 0.192209561631698D+04 -.000000000000000D+00 -.000000000000000D+00 -.192209561631698D+04
 0.563547741332043D+03 -.205164320035025D+03 -.466780598352426D+03 -.204901272682148D+03
 0.178577776833843D+04 0.250526634702251D+03 0.489874614946004D+03 0.169890008677028D+04
 0.149486572296348D+04 -.453623146672272D+02 -.230940165935789D+02 -.149399881408813D+04
 0.000000000000000D+00 0.000000000000000D+00 -.000000000000000D+00 0.000000000000000D+00
 0.192209561631698D+04 0.000000000000000D+00 0.000000000000000D+00 0.192209561631698D+04
 0.192209561631698D+04 -.000000000000000D+00 -.000000000000000D+00 -.192209561631698D+04
 0.570609412072935D+03 -.205699554634977D+03 -.467053087021125D+03 -.222529117809850D+03
 0.173334610689130D+04 0.248865879970081D+03 0.489029122434788D+03 0.164420345987734D+04
 0.934815867772664D+03 0.157635261235334D+03 0.206166385380983D+03 -.898068623543750D+03
 0.605419845897051D+03 -.200801586570439D+03 -.228142420794646D+03 -.523605718523740D+03
0.432267346024D+00 0.000000000000D+00 0.000000000000D+00 0.174419173388D-02 0.000000000000D+00  6 3 2 25 4 1 21 0 0.19955557D+00 0.43818692D+00 0.31702476D+06 0.31702476D+06 0.31702476D+06 0.10827828D+01  1  2  2  4  6  5        1 0.954863627500D-02 0.100000000000D+01
0.218975679852D+00 0.000000000000D+00 -.166002042734D-02 0.174419173388D-02 0.000000000000D+00  6 3 2 25 4 1 21 2 0.19955557D+00 0.43818692D+00 0.31702476D+06 0.31702476D+06 0.31702476D+06 0.10827828D+01  1  2  3  4  6  5        1 0.567110215328D-02 0.100000000000D+01
-.338425602490D+00 0.000000000000D+00 0.000000000000D+00 0.174419173388D-02 0.000000000000D+00  6 3 2 25 4 1 21 2 0.19955557D+00 0.43818692D+00 0.31702476D+06 0.31702476D+06 0.31702476D+06 0.10827828D+01  1  2 15  4  6  5        1 -.876465443242D-02 0.100000000000D+01
-.382246075098D-02 0.000000000000D+00 0.000000000000D+00 0.174419173388D-02 0.000000000000D+00  6 3 2 25 4 1 21 2 0.19955557D+00 0.43818692D+00 0.31702476D+06 0.31702476D+06 0.31702476D+06 0.10827828D+01  1  2  4  4  6  5        1 -.989953103941D-04 0.100000000000D+01
-.676717583145D+00 0.000000000000D+00 0.000000000000D+00 0.174419173388D-02 0.000000000000D+00  6 3 2 25 4 1 21 2 0.19955557D+00 0.43818692D+00 0.31702476D+06 0.31702476D+06 0.31702476D+06 0.10827828D+01  1  2  5  4  6  5        1 -.175258482838D-01 0.100000000000D+01
0.999563931300D+00 0.000000000000D+00 -.000000000000D+00 0.174419173388D-02 0.000000000000D+00  6 3 2 25 4 1 21 2 0.19955557D+00 0.43818692D+00 0.31702476D+06 0.31702476D+06 0.31702476D+06 0.10827828D+01  1  2  6  4  6  5        1 0.258870262075D-01 0.100000000000D+01
  </mgrwgt>
  </event>
  <event>
  5     66 0.20805674E-05 0.24311109E+02 0.75467711E-02 0.92013479E-01
        3 -1    0    0  501    0 0.00000000E+00 0.00000000E+00 0.35096132E+03 0.35096168E+03 0.50000000E+00 0.0000E+00 0.9000E+01
        2 -1    0    0  502    0 -.00000000E+00 -.00000000E+00 -.13565025E+04 0.13565026E+04 0.32000000E+00 0.0000E+00 0.9000E+01
       25  1    1    2    0    0 0.60383830E+03 0.39288391E+02 -.19303255E+03 0.64734136E+03 0.12500000E+03 0.0000E+00 0.9000E+01
        4  1    1    2  501    0 0.19036842E+02 -.16466234E+02 0.10847310E+02 0.27451864E+02 0.15500000E+01 0.0000E+00 0.9000E+01
        1  1    1    2  502    0 -.62287514E+03 -.22822157E+02 -.82335595E+03 0.10326710E+04 0.32000000E+00 0.0000E+00 0.9000E+01
#aMCatNLO 1  0  0  4  1 0.34877883D+01 0.00000000D+00  -5  6  0 0.00000000D+00 0.00000000D+00 0.00000000D+00 0.00000000D+00 0.00000000D+00
  <mgrwgt>
 0.2586059148D-02    8    2    0
 0.689985689810106D+03 0.000000000000000D+00 0.000000000000000D+00 0.689985689810106D+03
 0.689985689810106D+03 -.000000000000000D+00 -.000000000000000D+00 -.689985689810106D+03
 0.661534167916144D+03 0.604987930692263D+03 0.389355570866069D+02 0.233401117031505D+03
 0.404139915296564D+02 0.183871012510656D+02 -.159042298962669D+02 0.322840624821117D+02
 0.678023220174411D+03 -.623375031943329D+03 -.230313271903399D+02 -.265685179513617D+03
 0.000000000000000D+00 0.000000000000000D+00 -.000000000000000D+00 0.000000000000000D+00
 0.689985689810106D+03 0.000000000000000D+00 0.000000000000000D+00 0.689985689810106D+03
 0.689985689810106D+03 -.000000000000000D+00 -.000000000000000D+00 -.689985689810106D+03
 0.661793839964283D+03 0.605162978000863D+03 0.387841469975078D+02 0.233708465001748D+03
 0.104601494949239D+02 0.451992296027100D+01 -.744780967080220D+00 0.940373995814683D+01
 0.677740274575125D+03 -.623195694130299D+03 -.231864484228045D+02 -.265370298278005D+03
 0.299771155858793D+02 0.135127931691650D+02 -.148529176076230D+02 0.222580933181101D+02
0.957357334926D-04 0.000000000000D+00 0.000000000000D+00 0.217395229767D-06 0.000000000000D+00  6 3 2 25 4 1 21 0 0.53994080D-01 0.20869272D+00 0.40138793D+06 0.40138793D+06 0.40138793D+06 0.10753192D+01  1  2  2  3  6  4        4 0.428696992249D-03 0.100000000000D+01
0.336271740572D-04 0.000000000000D+00 -.367650424409D-06 0.217395229767D-06 0.000000000000D+00  6 3 2 25 4 1 21 2 0.53994080D-01 0.20869272D+00 0.40138793D+06 0.40138793D+06 0.40138793D+06 0.10753192D+01  1  2  3  3  6  4        4 0.174117144104D-03 0.100000000000D+01
-.761105502500D-04 0.000000000000D+00 0.000000000000D+00 0.217395229767D-06 0.000000000000D+00  6 3 2 25 4 1 21 2 0.53994080D-01 0.20869272D+00 0.40138793D+06 0.40138793D+06 0.40138793D+06 0.10753192D+01  1  2 15  3  6  4        4 -.394090553764D-03 0.100000000000D+01
0.305796404030D-05 0.000000000000D+00 0.000000000000D+00 0.217395229767D-06 0.000000000000D+00  6 3 2 25 4 1 21 2 0.53994080D-01 0.20869272D+00 0.40160200D+06 0.40160200D+06 0.40160200D+06 0.10753025D+01  1  2 12  3  6  4        4 0.158329769627D-04 0.100000000000D+01
-.414111423047D-03 0.000000000000D+00 0.000000000000D+00 0.217395229767D-06 0.000000000000D+00  6 3 2 25 4 1 21 2 0.53994080D-01 0.20869272D+00 0.40138793D+06 0.40138793D+06 0.40138793D+06 0.10753192D+01  1  2  4  3  6  4        4 -.214421521711D-02 0.100000000000D+01
-.192194775498D-03 0.000000000000D+00 0.000000000000D+00 0.217395229767D-06 0.000000000000D+00  6 3 2 25 4 1 21 2 0.53994080D-01 0.20869272D+00 0.40138793D+06 0.40138793D+06 0.40138793D+06 0.10753192D+01  1  2  5  3  6  4        4 -.995159610038D-03 0.100000000000D+01
0.933529264861D-03 0.000000000000D+00 -.000000000000D+00 0.217395229767D-06 0.000000000000D+00  6 3 2 25 4 1 21 2 0.53994080D-01 0.20869272D+00 0.40138793D+06 0.40138793D+06 0.40138793D+06 0.10753192D+01  1  2  6  3  6  4        4 0.483369340696D-02 0.100000000000D+01
0.128859197538D-03 0.000000000000D+00 0.000000000000D+00 0.217395229767D-06 0.104896505949D-07  6 3 2 25 4 1 21 2 0.53994080D-01 0.20869272D+00 0.40160200D+06 0.40160200D+06 0.40160200D+06 0.10753025D+01  1  2 11  3  6  4        4 0.667184008437D-03 0.100000000000D+01
  </mgrwgt>
  </event>
  <event>
  6     66 0.20805674E-05 0.13744527E+03 0.75467711E-02 0.92373703E-01
        3 -1    0    0  503    0 0.00000000E+00 0.00000000E+00 0.63146500E+03 0.63146520E+03 0.50000000E+00 0.0000E+00 0.9000E+01
        2 -1    0    0  502    0 0.00000000E+00 0.00000000E+00 -.28528738E+04 0.28528738E+04 0.32000000E+00 0.0000E+00 0.9000E+01
       25  1    1    2    0    0 -.59068254E+03 -.13253577E+03 -.10327713E+04 0.12036250E+04 0.12500000E+03 0.0000E+00 0.9000E+01
        4  1    1    2  501    0 0.14211394E+03 0.15420732E+02 0.40620958E+03 0.43063070E+03 0.15500000E+01 0.0000E+00 0.9000E+01
        1  1    1    2  502    0 0.43924185E+03 0.11144615E+03 -.16923488E+04 0.17519698E+04 0.32000000E+00 0.0000E+00 0.9000E+01
       21  1    1    2  503  501 0.93267498E+01 0.56688887E+01 0.97501685E+02 0.98113534E+02 0.75000000E+00 0.0000E+00 0.9000E+01
#aMCatNLO 2  0  0  1  4 0.10914420D+02 0.00000000D+00  -5  6  0 0.00000000D+00 0.00000000D+00 0.00000000D+00 0.00000000D+00 0.00000000D+00
  <mgrwgt>
 0.5121415809D-02    2    2    0
 0.123380083464310D+04 0.000000000000000D+00 0.000000000000000D+00 0.123380083464310D+04
 0.123380083464310D+04 0.000000000000000D+00 0.000000000000000D+00 -.123380083464310D+04
 0.678707264616717D+03 -.588372322110906D+03 -.131041881017963D+03 -.285770164706885D+03
 0.972936181918182D+03 0.145744818054749D+03 0.176502825183139D+02 0.961796095657879D+03
 0.815958222751292D+03 0.442627504056157D+03 0.113391598499649D+03 -.676025930950994D+03
 0.000000000000000D+00 0.000000000000000D+00 0.000000000000000D+00 0.000000000000000D+00
 0.145994276640180D+04 0.000000000000000D+00 0.000000000000000D+00 0.145994276640180D+04
 0.123394460272559D+04 0.000000000000000D+00 0.000000000000000D+00 -.123394460272559D+04
 0.681238810020903D+03 -.590942391454442D+03 -.132603993997922D+03 -.285770164706885D+03
 0.972354281437101D+03 0.142068546269139D+03 0.154158090055259D+02 0.961796095657879D+03
 0.814032715431170D+03 0.439547095340995D+03 0.111519296318529D+03 -.676025930950994D+03
 0.226261562238208D+03 0.932674984430762D+01 0.566888867386751D+01 0.225998163676211D+03
-.274733041948D-01 0.000000000000D+00 0.000000000000D+00 0.147705617073D-04 0.000000000000D+00  6 3 2 25 4 1 21 2 0.98282713D-01 0.43885231D+00 0.37558080D+06 0.37558080D+06 0.37558080D+06 0.10774053D+01  1  2 13  1  6  1        3 -.538833029234D-02 0.100000000000D+01
0.521342347234D-01 0.000000000000D+00 0.000000000000D+00 0.147705617073D-04 0.159875745018D-05  6 3 2 25 4 1 21 2 0.97148430D-01 0.43890345D+00 0.37558080D+06 0.37558080D+06 0.37558080D+06 0.10774053D+01  1  2  1  1  6  1        3 0.105097461014D-01 0.100000000000D+01
  </mgrwgt>
  </event>
  <event>
  5     66 0.20805674E-05 0.80334197E+02 0.75467711E-02 0.78111173E-01
        3 -1    0    0  501    0 0.00000000E+00 0.00000000E+00 0.51510682E+03 0.51510707E+03 0.50000000E+00 0.0000E+00 0.9000E+01
        2 -1    0    0  502    0 0.00000000E+00 0.00000000E+00 -.18054786E+04 0.18054786E+04 0.32000000E+00 0.0000E+00 0.9000E+01
       25  1    1    2    0    0 -.66188452E+03 0.22899739E+03 -.89924626E+03 0.11466472E+04 0.12500000E+03 0.0000E+00 0.9000E+01
        4  1    1    2  501    0 0.73833139E+03 -.20442296E+03 0.86694839E+01 0.76615895E+03 0.15500000E+01 0.0000E+00 0.9000E+01
        1  1    1    2  502    0 -.76446868E+02 -.24574439E+02 -.39979496E+03 0.40777952E+03 0.32000000E+00 0.0000E+00 0.9000E+01
#aMCatNLO 1  0  0  1  4 0.17788358D+02 0.00000000D+00  -5  6  0 0.00000000D+00 0.00000000D+00 0.00000000D+00 0.00000000D+00 0.00000000D+00
  <mgrwgt>
 0.2034702892D-02    3    2    0
 0.964372668188663D+03 0.000000000000000D+00 0.000000000000000D+00 0.964372668188663D+03
 0.964372668188663D+03 0.000000000000000D+00 0.000000000000000D+00 -.964372668188663D+03
 0.777874168983927D+03 -.661828072903351D+03 0.229007243685693D+03 -.314646638356353D+03
 0.927577056624500D+03 0.738305834493310D+03 -.204415881035647D+03 0.522989329059138D+03
 0.223294110768899D+03 -.764777615899590D+02 -.245913626500456D+02 -.208342690702786D+03
 0.000000000000000D+00 -.000000000000000D+00 0.000000000000000D+00 -.000000000000000D+00
 0.284427422268138D+04 0.000000000000000D+00 0.000000000000000D+00 0.284427422268138D+04
 0.327374158025493D+04 0.000000000000000D+00 0.000000000000000D+00 -.327374158025493D+04
 0.599595702146505D+03 -.304875967578938D+03 -.389792436299646D+03 -.314646638356353D+03
 0.238476039716308D+04 0.159665188797474D+04 -.169241456570025D+04 0.522989329059138D+03
 0.363603030404761D+03 0.756084470026790D+02 -.288242692348118D+03 -.208342690702786D+03
 0.277005667322197D+04 -.136738436739848D+04 0.237044969434802D+04 -.429467357573551D+03
0.360850108221D-02 0.000000000000D+00 0.000000000000D+00 0.445152429023D-06 0.000000000000D+00  6 3 2 25 4 1 21 0 0.79247225D-01 0.27776595D+00 0.60669536D+06 0.60669536D+06 0.60669536D+06 0.10626238D+01  1  2  2  1  6  1        3 0.390704782198D-02 0.100000000000D+01
0.706662204125D-03 0.000000000000D+00 -.138575942958D-04 0.445152429023D-06 0.000000000000D+00  6 3 2 25 4 1 21 2 0.79247225D-01 0.27776595D+00 0.60669536D+06 0.60669536D+06 0.60669536D+06 0.10626238D+01  1  2  3  1  6  1        3 0.863958460207D-03 0.100000000000D+01
-.223811939301D-02 0.000000000000D+00 0.000000000000D+00 0.445152429023D-06 0.000000000000D+00  6 3 2 25 4 1 21 2 0.79247225D-01 0.27776595D+00 0.60669536D+06 0.60669536D+06 0.60669536D+06 0.10626238D+01  1  2 15  1  6  1        3 -.273630338973D-02 0.100000000000D+01
  </mgrwgt>
  </event>
  <event>
  5     66 0.20805674E-05 0.63940736E+02 0.75467711E-02 0.89301536E-01
        3 -1    0    0  501    0 0.00000000E+00 0.00000000E+00 0.20775221E+03 0.20775281E+03 0.50000000E+00 0.0000E+00 0.9000E+01
        2 -1    0    0  502    0 0.00000000E+00 0.00000000E+00 -.42704641E+04 0.42704641E+04 0.32000000E+00 0.0000E+00 0.9000E+01
       25  1    1    2    0    0 0.79594610E+03 0.88122311E+02 -.20691403E+04 0.22222202E+04 0.12500000E+03 0.0000E+00 0.9000E+01
        4  1    1    2  501    0 -.73444239E+03 -.10539658E+03 -.92633577E+03 0.11868506E+04 0.15500000E+01 0.0000E+00 0.9000E+01
        1  1    1    2  502    0 -.61503712E+02 0.17274271E+02 -.10672358E+04 0.10691461E+04 0.32000000E+00 0.0000E+00 0.9000E+01
#aMCatNLO 1  0  0  2  2 0.25759922D+02 0.00000000D+00  -5  6  0 0.00000000D+00 0.00000000D+00 0.00000000D+00 0.00000000D+00 0.00000000D+00
  <mgrwgt>
 0.2713755623D-03    7    2    0
 0.941912798916497D+03 0.000000000000000D+00 0.000000000000000D+00 0.941912798916497D+03
 0.941912798916497D+03 0.000000000000000D+00 0.000000000000000D+00 -.941912798916497D+03
 0.820122130577558D+03 0.795851053559234D+03 0.880885303579378D+02 -.125844429479852D+03
 0.823440014971534D+03 -.734291334570266D+03 -.105374904381819D+03 0.357443455329455D+03
 0.240263452283903D+03 -.615597189889678D+02 0.172863740238815D+02 -.231599025849603D+03
 0.000000000000000D+00 0.000000000000000D+00 -.000000000000000D+00 -.000000000000000D+00
 0.943595968425133D+03 0.000000000000000D+00 0.000000000000000D+00 0.943595968425133D+03
 0.104600197768486D+04 0.000000000000000D+00 0.000000000000000D+00 -.104600197768486D+04
 0.809655384143193D+03 0.784855982050304D+03 0.898949836242615D+02 -.125844429479852D+03
 0.833191445592251D+03 -.745467572558776D+03 -.103538686072265D+03 0.357443455329455D+03
 0.241154883812008D+03 -.648075420711212D+02 0.178199804320284D+02 -.231599025849603D+03
 0.105596232562545D+03 0.254191325795939D+02 -.417627798402481D+01 -.102406009259732D+03
0.800825158421D-04 0.000000000000D+00 0.000000000000D+00 0.520786889761D-06 0.000000000000D+00  6 3 2 25 4 1 21 0 0.31961926D-01 0.65699452D+00 0.65299647D+06 0.65299647D+06 0.65299647D+06 0.10604115D+01  1  2  2  2  6  2        2 0.124411278159D-04 0.100000000000D+01
0.216369714466D-04 0.000000000000D+00 -.307537947044D-06 0.520786889761D-06 0.000000000000D+00  6 3 2 25 4 1 21 2 0.31961926D-01 0.65699452D+00 0.65299647D+06 0.65299647D+06 0.65299647D+06 0.10604115D+01  1  2  3  2  6  2        2 0.377978764871D-05 0.100000000000D+01
-.589017777048D-04 0.000000000000D+00 0.000000000000D+00 0.520786889761D-06 0.000000000000D+00  6 3 2 25 4 1 21 2 0.31961926D-01 0.65699452D+00 0.65299647D+06 0.65299647D+06 0.65299647D+06 0.10604115D+01  1  2 15  2  6  2        2 -.102896198946D-04 0.100000000000D+01
-.329815899399D-03 0.000000000000D+00 0.000000000000D+00 0.520786889761D-06 0.000000000000D+00  6 3 2 25 4 1 21 2 0.31961926D-01 0.65699452D+00 0.65299647D+06 0.65299647D+06 0.65299647D+06 0.10604115D+01  1  2  4  2  6  2        2 -.576159221715D-04 0.100000000000D+01
-.241391828467D-02 0.000000000000D+00 -.722536032146D-04 0.520786889761D-06 0.000000000000D+00  6 3 2 25 4 1 21 2 0.31961926D-01 0.72976546D+00 0.65299647D+06 0.65299647D+06 0.65299647D+06 0.10604115D+01  1  2  5  2  6  2        2 -.139863934947D-03 0.100000000000D+01
0.265007354731D-02 0.000000000000D+00 0.797294617547D-04 0.520786889761D-06 0.000000000000D+00  6 3 2 25 4 1 21 2 0.31961926D-01 0.65699452D+00 0.65299647D+06 0.65299647D+06 0.65299647D+06 0.10604115D+01  1  2  6  2  6  2        2 0.462944423022D-03 0.100000000000D+01
-.406441984947D-04 0.000000000000D+00 -.122438445488D-05 0.520786889761D-06 0.000000000000D+00  6 3 21 25 4 1 -2 2 0.31961926D-01 0.72976546D+00 0.65299647D+06 0.65299647D+06 0.65299647D+06 0.10604115D+01  1  2  5  6  6  2        2 -.202991336003D-07 0.100000000000D+01
  </mgrwgt>
  </event>
  <event>
  5     66 -.20805674E-05 0.36704163E+02 0.75467711E-02 0.94282163E-01
        3 -1    0    0  501    0 0.00000000E+00 0.00000000E+00 0.90965381E+03 0.90965395E+03 0.50000000E+00 0.0000E+00 0.9000E+01
        2 -1    0    0  502    0 -.00000000E+00 -.00000000E+00 -.20470310E+04 0.20470310E+04 0.32000000E+00 0.0000E+00 0.9000E+01
       25  1    1    2    0    0 -.33129228E+03 -.36009819E+03 -.84467617E+03 0.98413826E+03 0.12500000E+03 0.0000E+00 0.9000E+01
        4  1    1    2  501    0 0.35724343E+03 0.33416578E+03 0.76835449E+03 0.91085710E+03 0.15500000E+01 0.0000E+00 0.9000E+01
        1  1    1    2  502    0 -.25951150E+02 0.25932409E+02 -.10610555E+04 0.10616896E+04 0.32000000E+00 0.0000E+00 0.9000E+01
#aMCatNLO 1  0  0  4  1 0.96140550D+02 0.00000000D+00  -5  6  0 0.00000000D+00 0.00000000D+00 0.00000000D+00 0.00000000D+00 0.00000000D+00
  <mgrwgt>
 -.2249857169D-03    1    2    0
 0.136458409435420D+04 0.000000000000000D+00 0.000000000000000D+00 0.136458409435420D+04
 0.136458409435420D+04 -.000000000000000D+00 -.000000000000000D+00 -.136458409435420D+04
 0.713902550959932D+03 -.331268073549511D+03 -.360098790378348D+03 -.504601007610910D+03
 0.130695259124635D+04 0.357230378631032D+03 0.334153572885456D+03 0.121196242601682D+04
 0.708313046502120D+03 -.259623050815212D+02 0.259452174928912D+02 -.707361418405906D+03
 0.000000000000000D+00 0.000000000000000D+00 0.000000000000000D+00 0.000000000000000D+00
 0.136458409435420D+04 0.000000000000000D+00 0.000000000000000D+00 0.136458409435420D+04
 0.136458409435420D+04 -.000000000000000D+00 -.000000000000000D+00 -.136458409435420D+04
 0.659853420102407D+03 -.314917852160743D+03 -.344804780626260D+03 -.449130210149111D+03
 0.103456838891983D+04 0.795339942464801D+02 0.205794031858178D+02 0.103130140273147D+04
 0.653730257477888D+03 -.975148596206656D+01 0.411088302542810D+02 -.652363565919160D+03
 0.381016122208278D+03 0.245135343876329D+03 0.283116547186161D+03 0.701923733368045D+02
-.935393586506D-03 0.000000000000D+00 0.000000000000D+00 0.575205144853D-03 0.000000000000D+00  6 3 2 25 4 1 21 2 0.13994675D+00 0.31492785D+00 0.26567235D+06 0.26567235D+06 0.26567235D+06 0.10884781D+01  1  2 14  3  6  4        4 -.224985716930D-03 0.100000000000D+01
  </mgrwgt>
  </event>
  <event>
  5     66 0.20805674E-05 0.13068032E+03 0.75467711E-02 0.91991637E-01
        3 -1    0    0  501    0 0.00000000E+00 0.00000000E+00 0.98661909E+03 0.98661921E+03 0.50000000E+00 0.0000E+00 0.9000E+01
        2 -1    0    0  502    0 0.00000000E+00 0.00000000E+00 -.86732368E+03 0.86732374E+03 0.32000000E+00 0.0000E+00 0.9000E+01
       25  1    1    2    0    0 0.55360215E+03 0.63600209E+02 0.37637757E+03 0.68396301E+03 0.12500000E+03 0.0000E+00 0.9000E+01
        4  1    1    2  501    0 -.44061118E+03 0.18161429E+01 0.34141207E+03 0.55741018E+03 0.15500000E+01 0.0000E+00 0.9000E+01
        1  1    1    2  502    0 -.11299097E+03 -.65416352E+02 -.59849423E+03 0.61256975E+03 0.32000000E+00 0.0000E+00 0.9000E+01
#aMCatNLO 1  0  0  5  1 0.90532397D+02 0.00000000D+00  -5  6  0 0.00000000D+00 0.00000000D+00 0.00000000D+00 0.00000000D+00 0.00000000D+00
  <mgrwgt>
 0.7124396750D-03    6    2    0
 0.925050412712308D+03 0.000000000000000D+00 0.000000000000000D+00 0.925050412712308D+03
 0.925050412712308D+03 -.000000000000000D+00 -.000000000000000D+00 -.925050412712308D+03
 0.661217435054232D+03 0.553187875019671D+03 0.636569275624210D+02 0.333937818948725D+03
 0.535917658766959D+03 -.440090998918554D+03 0.181399873364442D+01 0.305817525753059D+03
 0.652965731603425D+03 -.113096876101118D+03 -.654709262960654D+02 -.639755344701785D+03
 0.000000000000000D+00 0.000000000000000D+00 0.000000000000000D+00 -.000000000000000D+00
 0.925050412712308D+03 0.000000000000000D+00 0.000000000000000D+00 0.925050412712308D+03
 0.925050412712308D+03 -.000000000000000D+00 -.000000000000000D+00 -.925050412712308D+03
 0.651775527312552D+03 0.550643956479836D+03 0.621842723577285D+02 0.319547629418727D+03
 0.531049027320520D+03 -.442158242545840D+03 0.617287031041019D+00 0.294123744236275D+03
 0.526909192502896D+03 -.164456126581467D+03 -.100117192852499D+03 -.490473268659169D+03
 0.140367078288649D+03 0.559704126474714D+02 0.373156334637291D+02 -.123198104995832D+03
0.846578149294D-03 0.000000000000D+00 0.000000000000D+00 0.239022558512D-05 0.000000000000D+00  6 3 2 25 4 1 21 0 0.15178757D+00 0.13343443D+00 0.32573910D+06 0.32573910D+06 0.32573910D+06 0.10819169D+01  1  2  2  4  6  5        1 0.631407232198D-03 0.100000000000D+01
0.146857992272D-03 0.000000000000D+00 -.325108300244D-05 0.239022558512D-05 0.000000000000D+00  6 3 2 25 4 1 21 2 0.15178757D+00 0.13343443D+00 0.32573910D+06 0.32573910D+06 0.32573910D+06 0.10819169D+01  1  2  3  4  6  5        1 0.128211767690D-03 0.100000000000D+01
-.480575920902D-03 0.000000000000D+00 0.000000000000D+00 0.239022558512D-05 0.000000000000D+00  6 3 2 25 4 1 21 2 0.15178757D+00 0.13343443D+00 0.32573910D+06 0.32573910D+06 0.32573910D+06 0.10819169D+01  1  2 15  4  6  5        1 -.419558291483D-03 0.100000000000D+01
-.182631517057D-03 0.000000000000D+00 0.000000000000D+00 0.239022558512D-05 0.000000000000D+00  6 3 2 25 4 1 21 2 0.15178757D+00 0.13343443D+00 0.32573910D+06 0.32573910D+06 0.32573910D+06 0.10819169D+01  1  2  4  4  6  5        1 -.159443209562D-03 0.100000000000D+01
-.256584543785D-02 0.000000000000D+00 0.000000000000D+00 0.239022558512D-05 0.000000000000D+00  6 3 2 25 4 1 21 2 0.15178757D+00 0.13343443D+00 0.32573910D+06 0.32573910D+06 0.32573910D+06 0.10819169D+01  1  2  5  4  6  5        1 -.224006589030D-02 0.100000000000D+01
0.317501211921D-02 0.000000000000D+00 -.000000000000D+00 0.239022558512D-05 0.000000000000D+00  6 3 2 25 4 1 21 2 0.15178757D+00 0.13343443D+00 0.32573910D+06 0.32573910D+06 0.32573910D+06 0.10819169D+01  1  2  6  4  6  5        1 0.277188806645D-02 0.100000000000D+01
  </mgrwgt>
  </event>
  <event>
  6     66 0.20805674E-05 0.94982611E+02 0.75467711E-02 0.92277700E-01
       21 -1    0    0  501  503 0.00000000E+00 0.00000000E+00 0.23574691E+03 0.23574811E+03 0.75000000E+00 0.0000E+00 0.9000E+01
        2 -1    0    0  502    0 0.00000000E+00 0.00000000E+00 -.36850239E+04 0.36850239E+04 0.32000000E+00 0.0000E+00 0.9000E+01
       25  1    1    2    0    0 0.50591651E+03 -.29001254E+03 -.18297466E+04 0.19244886E+04 0.12500000E+03 0.0000E+00 0.9000E+01
        4  1    1    2  501    0 -.11227045E+03 0.13960417E+03 -.12831563E+03 0.22036625E+03 0.15500000E+01 0.0000E+00 0.9000E+01
        1  1    1    2  502    0 -.22935131E+03 0.18291695E+03 -.15654652E+04 0.15927153E+04 0.32000000E+00 0.0000E+00 0.9000E+01
       -3  1    1    2    0  503 -.16429475E+03 -.32508573E+02 0.74250393E+02 0.18320192E+03 0.50000000E+00 0.0000E+00 0.9000E+01
#aMCatNLO 2  0  0  1  4 0.16748006D+03 0.00000000D+00  -5  6  0 0.00000000D+00 0.00000000D+00 0.00000000D+00 0.00000000D+00 0.00000000D+00
  <mgrwgt>
 0.6556299991D-04    2    2    0
 0.617684288696137D+03 0.000000000000000D+00 0.000000000000000D+00 0.617684288696137D+03
 0.617684288696137D+03 0.000000000000000D+00 0.000000000000000D+00 -.617684288696137D+03
 0.544069612359141D+03 0.430449359149553D+03 -.305009172995642D+03 -.454917211026324D+02
 0.311241162950508D+03 -.152285137235882D+03 0.131302207665506D+03 0.237571102523008D+03
 0.380057802082626D+03 -.278164221913671D+03 0.173706965330136D+03 -.192079381420375D+03
 0.000000000000000D+00 -.000000000000000D+00 -.000000000000000D+00 0.000000000000000D+00
 0.137308673290097D+04 0.000000000000000D+00 0.000000000000000D+00 0.137308673290097D+04
 0.632687750914685D+03 0.000000000000000D+00 0.000000000000000D+00 -.632687750914685D+03
 0.598266958872169D+03 0.506064593191541D+03 -.290047383899863D+03 -.454917211026324D+02
 0.297290786222978D+03 -.112004289263746D+03 0.139272473969563D+03 0.237571102523008D+03
 0.351111855540643D+03 -.229765557126121D+03 0.183283482869796D+03 -.192079381420375D+03
 0.759104883179867D+03 -.164294746801674D+03 -.325085729394953D+02 0.740398981986287D+03
-.753245800186D-05 0.000000000000D+00 0.000000000000D+00 0.699471152813D-07 0.000000000000D+00  6 21 2 25 4 1 -3 2 0.40070069D-01 0.55348276D+00 0.38232637D+06 0.38232637D+06 0.38232637D+06 0.10768453D+01  1  2 13  5  6  1        3 -.481958311176D-04 0.100000000000D+01
0.167942181922D-04 0.000000000000D+00 0.000000000000D+00 0.699471152813D-07 0.392136383730D-11  6 21 2 25 4 1 -3 2 0.36268844D-01 0.56692678D+00 0.38232637D+06 0.38232637D+06 0.38232637D+06 0.10768453D+01  1  2  1  5  6  1        3 0.113758831027D-03 0.100000000000D+01
  </mgrwgt>
  </event>
  <event>
  5     66 0.20805674E-05 0.33433886E+02 0.75467711E-02 0.90212802E-01
        3 -1    0    0  501    0 0.00000000E+00 0.00000000E+00 0.43617567E+03 0.43617596E+03 0.50000000E+00 0.0000E+00 0.9000E+01
        2 -1    0    0  502    0 0.00000000E+00 0.00000000E+00 -.21745836E+04 0.21745836E+04 0.32000000E+00 0.0000E+00 0.9000E+01
       25  1    1    2    0    0 -.67487276E+02 -.68687527E+03 -.62737871E+03 0.94105325E+03 0.12500000E+03 0.0000E+00 0.9000E+01
        4  1    1    2  501    0 0.87214448E+02 0.65991446E+03 -.11789958E+03 0.67601492E+03 0.15500000E+01 0.0000E+00 0.9000E+01
        1  1    1    2  502    0 -.19727172E+02 0.26960815E+02 -.99312965E+03 0.99369143E+03 0.32000000E+00 0.0000E+00 0.9000E+01
#aMCatNLO 1  0  0  1  4 0.12595349D+03 0.00000000D+00  -5  6  0 0.00000000D+00 0.00000000D+00 0.00000000D+00 0.00000000D+00 0.00000000D+00
  <mgrwgt>
 0.7608008942D-03    7    2    0
 0.973910094427892D+03 0.000000000000000D+00 0.000000000000000D+00 0.973910094427892D+03
 0.973910094427892D+03 0.000000000000000D+00 0.000000000000000D+00 -.973910094427892D+03
 0.701224664989631D+03 -.674448188688974D+02 -.686689178624152D+03 -.446271274069233D+00
 0.800618042138483D+03 0.871869437770925D+02 0.659706346673595D+03 0.445168757204554D+03
 0.445977481727668D+03 -.197421249081951D+02 0.269828319505569D+02 -.444722485930484D+03
 0.000000000000000D+00 -.000000000000000D+00 0.000000000000000D+00 0.000000000000000D+00
 0.106890238001666D+04 0.000000000000000D+00 0.000000000000000D+00 0.106890238001666D+04
 0.101860919971047D+04 0.000000000000000D+00 0.000000000000000D+00 -.101860919971047D+04
 0.725218638948263D+03 -.301425002656242D+02 -.713728453123215D+03 -.446271274069233D+00
 0.781818343305490D+03 0.128568571813963D+03 0.629710109399247D+03 0.445168757204554D+03
 0.444851275220954D+03 0.355356305985763D+01 0.100965223269661D+02 -.444722485930484D+03
 0.135623322252417D+03 -.101979634608197D+03 0.739218213970018D+02 0.502931803061941D+02
0.749275935813D-03 0.000000000000D+00 0.000000000000D+00 0.132417511149D-04 0.000000000000D+00  6 3 2 25 4 1 21 0 0.67103973D-01 0.33455135D+00 0.49007080D+06 0.49007080D+06 0.49007080D+06 0.10691266D+01  1  2  2  1  6  1        3 0.740696793745D-03 0.100000000000D+01
0.424375579926D-03 0.000000000000D+00 -.287741688241D-05 0.132417511149D-04 0.000000000000D+00  6 3 2 25 4 1 21 2 0.67103973D-01 0.33455135D+00 0.49007080D+06 0.49007080D+06 0.49007080D+06 0.10691266D+01  1  2  3  1  6  1        3 0.479520672755D-03 0.100000000000D+01
-.485070235404D-03 0.000000000000D+00 0.000000000000D+00 0.132417511149D-04 0.000000000000D+00  6 3 2 25 4 1 21 2 0.67103973D-01 0.33455135D+00 0.49007080D+06 0.49007080D+06 0.49007080D+06 0.10691266D+01  1  2 15  1  6  1        3 -.548102239189D-03 0.100000000000D+01
-.433294858185D-03 0.000000000000D+00 0.000000000000D+00 0.132417511149D-04 0.000000000000D+00  6 3 2 25 4 1 21 2 0.67103973D-01 0.33455135D+00 0.49007080D+06 0.49007080D+06 0.49007080D+06 0.10691266D+01  1  2  4  1  6  1        3 -.489598958390D-03 0.100000000000D+01
-.572465344164D-02 0.000000000000D+00 -.137790341500D-02 0.132417511149D-04 0.000000000000D+00  6 3 2 25 4 1 21 2 0.76929227D-01 0.33455135D+00 0.49007080D+06 0.49007080D+06 0.49007080D+06 0.10691266D+01  1  2  5  1  6  1        3 -.478387580527D-02 0.100000000000D+01
0.587080516898D-02 0.000000000000D+00 0.136513917835D-02 0.132417511149D-04 0.000000000000D+00  6 3 2 25 4 1 21 2 0.67103973D-01 0.33455135D+00 0.49007080D+06 0.49007080D+06 0.49007080D+06 0.10691266D+01  1  2  6  1  6  1        3 0.663368152507D-02 0.100000000000D+01
-.112931757560D-03 0.000000000000D+00 -.291272588977D-04 0.132417511149D-04 0.000000000000D+00  6 21 2 25 4 1 -3 2 0.76929227D-01 0.33455135D+00 0.49007080D+06 0.49007080D+06 0.49007080D+06 0.10691266D+01  1  2  5  5  6  1        3 -.127152109457D-02 0.100000000000D+01
  </mgrwgt>
  </event>
  <event>
  6     66 0.20805674E-05 0.47145928E+02 0.75467711E-02 0.95112894E-01
        3 -1    0    0  501    0 0.00000000E+00 0.00000000E+00 0.34902126E+03 0.34902162E+03 0.50000000E+00 0.0000E+00 0.9000E+01
        2 -1    0    0  502    0 -.00000000E+00 -.00000000E+00 -.24469016E+04 0.24469016E+04 0.32000000E+00 0.0000E+00 0.9000E+01
       25  1    1    2    0    0 -.20788384E+03 -.40316042E+03 -.43762402E+03 0.64256813E+03 0.12500000E+03 0.0000E+00 0.9000E+01
        4  1    1    2  503    0 0.18115028E+03 0.25187129E+03 -.14547768E+02 0.31059397E+03 0.15500000E+01 0.0000E+00 0.9000E+01
        1  1    1    2  502    0 -.26616699E+02 0.12851149E+02 -.16881792E+04 0.16884379E+04 0.32000000E+00 0.0000E+00 0.9000E+01
       21  1    1    2  501  503 0.53350254E+02 0.13843797E+03 0.42470672E+02 0.15432318E+03 0.75000000E+00 0.0000E+00 0.9000E+01
#aMCatNLO 2  0  0  4  4 0.43547732D+02 0.00000000D+00  -5  6  0 0.00000000D+00 0.00000000D+00 0.00000000D+00 0.00000000D+00 0.00000000D+00
  <mgrwgt>
 0.3062038779D-01    1    2    0
 0.924132676021217D+03 0.000000000000000D+00 0.000000000000000D+00 0.924132676021217D+03
 0.924132676021217D+03 -.000000000000000D+00 -.000000000000000D+00 -.924132676021217D+03
 0.475852843729573D+03 -.208160801111950D+03 -.403691829449592D+03 0.671782450023389D+02
 0.732361879116481D+03 0.235420581098482D+03 0.391840612045725D+03 0.572181795175193D+03
 0.640050629196381D+03 -.272597799865319D+02 0.118512174038667D+02 -.639360040177532D+03
 0.000000000000000D+00 0.000000000000000D+00 0.000000000000000D+00 0.000000000000000D+00
 0.924132676021217D+03 0.000000000000000D+00 0.000000000000000D+00 0.924132676021217D+03
 0.924132676021217D+03 -.000000000000000D+00 -.000000000000000D+00 -.924132676021217D+03
 0.475170462674176D+03 -.207706732011643D+03 -.402936064115292D+03 0.682818446610201D+02
 0.452449703369691D+03 0.180864707178338D+03 0.251398209819823D+03 0.329844860314670D+03
 0.638562385309326D+03 -.266493021389050D+02 0.128673138400336D+02 -.637876294325151D+03
 0.282082800689241D+03 0.534913269722101D+02 0.138670540455436D+03 0.239749589349462D+03
0.221298633830D-01 0.000000000000D+00 0.000000000000D+00 0.130742045056D-03 0.268902831632D-06  6 3 2 25 4 1 21 2 0.53695608D-01 0.37644642D+00 0.22951776D+06 0.22951776D+06 0.22951776D+06 0.10932629D+01  1  2  1  3  6  4        4 0.306203877873D-01 0.100000000000D+01
  </mgrwgt>
  </event>
  <event>
  5     66 0.20805674E-05 0.10540460E+03 0.75467711E-02 0.95137363E-01
        3 -1    0    0  501    0 0.00000000E+00 0.00000000E+00 0.14923434E+04 0.14923435E+04 0.50000000E+00 0.0000E+00 0.9000E+01
        2 -1    0    0  502    0 0.00000000E+00 0.00000000E+00 -.46485839E+03 0.46485850E+03 0.32000000E+00 0.0000E+00 0.9000E+01
       25  1    1    2    0    0 0.37245687E+03 -.28603306E+03 0.21510166E+02 0.48644292E+03 0.12500000E+03 0.0000E+00 0.9000E+01
        4  1    1    2  501    0 -.28388448E+03 0.22909462E+03 0.11976996E+04 0.12520229E+04 0.15500000E+01 0.0000E+00 0.9000E+01
        1  1    1    2  502    0 -.88572391E+02 0.56938445E+02 -.19172469E+03 0.21873618E+03 0.32000000E+00 0.0000E+00 0.9000E+01
#aMCatNLO 1  0  0  4  4 0.43547732D+02 0.00000000D+00  -5  6  0 0.00000000D+00 0.00000000D+00 0.00000000D+00 0.00000000D+00 0.00000000D+00
  <mgrwgt>
 0.7050954346D-03    1    2    0
 0.832903692683772D+03 0.000000000000000D+00 0.000000000000000D+00 0.832903692683772D+03
 0.832903692683772D+03 -.000000000000000D+00 -.000000000000000D+00 -.832903692683772D+03
 0.558047432635705D+03 0.372486817369260D+03 -.286044660640935D+03 -.274269867240705D+03
 0.732124370911850D+03 -.283823388315748D+03 0.229045318306956D+03 0.634813847430651D+03
 0.375635581819989D+03 -.886634290535113D+02 0.569993423339791D+02 -.360543980189946D+03
 0.000000000000000D+00 0.000000000000000D+00 0.000000000000000D+00 -.000000000000000D+00
 0.832903692683772D+03 0.000000000000000D+00 0.000000000000000D+00 0.832903692683772D+03
 0.832903692683772D+03 -.000000000000000D+00 -.000000000000000D+00 -.832903692683772D+03
 0.534880115053649D+03 0.361768001563367D+03 -.277394582179455D+03 -.250295617824481D+03
 0.723275547596112D+03 -.275655373061834D+03 0.203705008891590D+03 0.636903369754844D+03
 0.362931997279062D+03 -.959068825260715D+02 0.628448053034313D+02 -.344342903193130D+03
 0.447197254387211D+02 0.979425402453920D+01 0.108447679844340D+02 -.422648487372331D+02
0.159416658653D-02 0.000000000000D+00 0.000000000000D+00 0.114366267981D-04 0.000000000000D+00  6 3 2 25 4 1 21 2 0.22959131D+00 0.71516690D-01 0.22853997D+06 0.22853997D+06 0.22853997D+06 0.10934036D+01  1  2 14  3  6  4        4 0.705095434616D-03 0.100000000000D+01
  </mgrwgt>
  </event>
  <event>
  5     66 0.20805674E-05 0.16920826E+02 0.75467711E-02 0.86628242E-01
        3 -1    0    0  501    0 0.00000000E+00 0.00000000E+00 0.14296541E+04 0.14296542E+04 0.50000000E+00 0.0000E+00 0.9000E+01
        2 -1    0    0  502    0 0.00000000E+00 0.00000000E+00 -.17772790E+04 0.17772791E+04 0.32000000E+00 0.0000E+00 0.9000E+01
       25  1    1    2    0    0 0.68858112E+03 0.10533763E+03 -.55465529E+03 0.89917043E+03 0.12500000E+03 0.0000E+00 0.9000E+01
        4  1    1    2  501    0 -.12924671E+02 0.10927022E+02 0.11454541E+04 0.11455802E+04 0.15500000E+01 0.0000E+00 0.9000E+01
        1  1    1    2  502    0 -.67565645E+03 -.11626465E+03 -.93842378E+03 0.11621826E+04 0.32000000E+00 0.0000E+00 0.9000E+01
#aMCatNLO 1  0  0  1  5 0.77412320D+00 0.00000000D+00  -5  6  0 0.00000000D+00 0.00000000D+00 0.00000000D+00 0.00000000D+00 0.00000000D+00
  <mgrwgt>
 0.3324362620D-02    7    2    0
 0.159401832157496D+04 0.000000000000000D+00 0.000000000000000D+00 0.159401832157496D+04
 0.159401832157496D+04 0.000000000000000D+00 0.000000000000000D+00 -.159401832157496D+04
 0.844183835942350D+03 0.688902512200240D+03 0.105392360072120D+03 -.459703304305035D+03
 0.127697467443820D+04 -.129216797146461D+02 0.109244925726815D+02 0.127686256300822D+04
 0.106687813276937D+04 -.675980832485594D+03 -.116316852644802D+03 -.817159258703186D+03
 0.000000000000000D+00 0.000000000000000D+00 0.000000000000000D+00 0.000000000000000D+00
 0.202558954418826D+04 0.000000000000000D+00 0.000000000000000D+00 0.202558954418826D+04
 0.176664151602192D+04 0.000000000000000D+00 0.000000000000000D+00 -.176664151602192D+04
 0.744843149519703D+03 0.566201786818432D+03 0.851746793423875D+02 -.459703304305035D+03
 0.129444069201760D+04 -.211480001007289D+03 -.217924187058357D+02 0.127686256300822D+04
 0.118804323613310D+04 -.850100271723953D+03 -.145006913118422D+03 -.817159258703186D+03
 0.564903982539768D+03 0.495378485912810D+03 0.816246524818707D+02 0.258948028166340D+03
0.206830794191D-01 0.000000000000D+00 0.000000000000D+00 0.204014086414D-03 0.000000000000D+00  6 3 2 25 4 1 21 0 0.21994679D+00 0.27342755D+00 0.49764210D+06 0.49764210D+06 0.49764210D+06 0.10686555D+01  1  2  2  1  6  1        3 0.122128621144D-02 0.100000000000D+01
0.233622200238D-01 0.000000000000D+00 -.794284709494D-04 0.204014086414D-03 0.000000000000D+00  6 3 2 25 4 1 21 2 0.21994679D+00 0.27342755D+00 0.49764210D+06 0.49764210D+06 0.49764210D+06 0.10686555D+01  1  2  3  1  6  1        3 0.157540357063D-02 0.100000000000D+01
-.161056497105D-01 0.000000000000D+00 0.000000000000D+00 0.204014086414D-03 0.000000000000D+00  6 3 2 25 4 1 21 2 0.21994679D+00 0.27342755D+00 0.49764210D+06 0.49764210D+06 0.49764210D+06 0.10686555D+01  1  2 15  1  6  1        3 -.108606536687D-02 0.100000000000D+01
-.477812563086D-03 0.000000000000D+00 0.000000000000D+00 0.204014086414D-03 0.000000000000D+00  6 3 2 25 4 1 21 2 0.21994679D+00 0.27342755D+00 0.49764210D+06 0.49764210D+06 0.49764210D+06 0.10686555D+01  1  2  4  1  6  1        3 -.322207229111D-04 0.100000000000D+01
-.300223308474D-01 0.000000000000D+00 -.167486734554D-01 0.204014086414D-03 0.000000000000D+00  6 3 2 25 4 1 21 2 0.29338718D+00 0.27342755D+00 0.49764210D+06 0.49764210D+06 0.49764210D+06 0.10686555D+01  1  2  5  1  6  1        3 -.439016959745D-03 0.100000000000D+01
0.340947639924D-01 0.000000000000D+00 0.160768099129D-01 0.204014086414D-03 0.000000000000D+00  6 3 2 25 4 1 21 2 0.21994679D+00 0.27342755D+00 0.49764210D+06 0.49764210D+06 0.49764210D+06 0.10686555D+01  1  2  6  1  6  1        3 0.229913993099D-02 0.100000000000D+01
-.774503514748D-03 0.000000000000D+00 -.628748447216D-03 0.204014086414D-03 0.000000000000D+00  6 21 2 25 4 1 -3 2 0.29338718D+00 0.27342755D+00 0.49764210D+06 0.49764210D+06 0.49764210D+06 0.10686555D+01  1  2  5  5  6  1        3 -.214164043267D-03 0.100000000000D+01
  </mgrwgt>
  </event>
  <event>
  5     66 -.20805674E-05 0.12331528E+02 0.75467711E-02 0.92435869E-01
        3 -1    0    0  501    0 0.00000000E+00 0.00000000E+00 0.80544901E+03 0.80544917E+03 0.50000000E+00 0.0000E+00 0.9000E+01
        2 -1    0    0  502    0 0.00000000E+00 0.00000000E+00 -.11279238E+04 0.11279239E+04 0.32000000E+00 0.0000E+00 0.9000E+01
       25  1    1    2    0    0 0.54089156E+03 0.66559749E+02 -.85721074E+02 0.56565624E+03 0.12500000E+03 0.0000E+00 0.9000E+01
        4  1    1    2  501    0 0.10300573E+02 -.68051108E+01 0.46959959E+03 0.46976439E+03 0.15500000E+01 0.0000E+00 0.9000E+01
        1  1    1    2  502    0 -.55119214E+03 -.59754638E+02 -.70635331E+03 0.89795239E+03 0.32000000E+00 0.0000E+00 0.9000E+01
#aMCatNLO 1  0  0  2  2 0.13601905D+02 0.00000000D+00  -5  6  0 0.00000000D+00 0.00000000D+00 0.00000000D+00 0.00000000D+00 0.00000000D+00
  <mgrwgt>
 -.9110533230D-02    7    2    0
 0.953144959250832D+03 0.000000000000000D+00 0.000000000000000D+00 0.953144959250832D+03
 0.953144959250832D+03 0.000000000000000D+00 0.000000000000000D+00 -.953144959250832D+03
 0.559641873271202D+03 0.541344009871690D+03 0.666041849799256D+02 0.919629478105350D+01
 0.555246347816192D+03 0.102889160792475D+02 -.679740955865274D+01 0.555109394797481D+03
 0.791401697414270D+03 -.551632925950937D+03 -.598067754212728D+02 -.564305689578535D+03
 0.000000000000000D+00 -.000000000000000D+00 0.000000000000000D+00 -.000000000000000D+00
 0.956269516653261D+03 0.000000000000000D+00 0.000000000000000D+00 0.956269516653261D+03
 0.158545439207440D+04 0.000000000000000D+00 0.000000000000000D+00 -.158545439207440D+04
 0.578475000660472D+03 0.561913514732367D+03 0.563644969156187D+02 0.919629478105350D+01
 0.556193582013951D+03 0.303762810613822D+02 -.167970839720198D+02 0.555109394797481D+03
 0.773175939859702D+03 -.523355876333320D+03 -.738833499146562D+02 -.564305689578535D+03
 0.633879386193535D+03 -.689339194604292D+02 0.343159369710573D+02 -.629184875421139D+03
0.246778981962D-03 0.000000000000D+00 0.000000000000D+00 0.791342566675D-04 0.000000000000D+00  6 3 2 25 4 1 21 0 0.12391525D+00 0.17352676D+00 0.31739891D+06 0.31739891D+06 0.31739891D+06 0.10827451D+01  1  2  2  2  6  2        2 0.223175770486D-03 0.100000000000D+01
0.253778385645D-03 0.000000000000D+00 -.947696269133D-06 0.791342566675D-04 0.000000000000D+00  6 3 2 25 4 1 21 2 0.12391525D+00 0.17352676D+00 0.31739891D+06 0.31739891D+06 0.31739891D+06 0.10827451D+01  1  2  3  2  6  2        2 0.269058007953D-03 0.100000000000D+01
-.193803571892D-03 0.000000000000D+00 0.000000000000D+00 0.791342566675D-04 0.000000000000D+00  6 3 2 25 4 1 21 2 0.12391525D+00 0.17352676D+00 0.31739891D+06 0.31739891D+06 0.31739891D+06 0.10827451D+01  1  2 15  2  6  2        2 -.205472199119D-03 0.100000000000D+01
-.150144957963D-01 0.000000000000D+00 0.000000000000D+00 0.791342566675D-04 0.000000000000D+00  6 3 2 25 4 1 21 2 0.12391525D+00 0.17352676D+00 0.31739891D+06 0.31739891D+06 0.31739891D+06 0.10827451D+01  1  2  4  2  6  2        2 -.159184964437D-01 0.100000000000D+01
-.122394415843D-01 0.000000000000D+00 -.150911403608D-03 0.791342566675D-04 0.000000000000D+00  6 3 2 25 4 1 21 2 0.12391525D+00 0.28889918D+00 0.31739891D+06 0.31739891D+06 0.31739891D+06 0.10827451D+01  1  2  5  2  6  2        2 -.495940418093D-02 0.100000000000D+01
0.108885153218D-01 0.000000000000D+00 0.133224731504D-03 0.791342566675D-04 0.000000000000D+00  6 3 2 25 4 1 21 2 0.12391525D+00 0.17352676D+00 0.31739891D+06 0.31739891D+06 0.31739891D+06 0.10827451D+01  1  2  6  2  6  2        2 0.115440967701D-01 0.100000000000D+01
-.693825153267D-03 0.000000000000D+00 -.864056630883D-05 0.791342566675D-04 0.000000000000D+00  6 3 21 25 4 1 -2 2 0.12391525D+00 0.28889918D+00 0.31739891D+06 0.31739891D+06 0.31739891D+06 0.10827451D+01  1  2  5  6  6  2        2 -.634909545327D-04 0.100000000000D+01
  </mgrwgt>
  </event>
  <event>
  5     66 0.20805674E-05 0.52667613E+02 0.75467711E-02 0.85293057E-01
        3 -1    0    0  501    0 0.00000000E+00 0.00000000E+00 0.30816205E+04 0.30816205E+04 0.50000000E+00 0.0000E+00 0.9000E+01
        2 -1    0    0  502    0 0.00000000E+00 0.00000000E+00 -.14817032E+04 0.14817033E+04 0.32000000E+00 0.0000E+00 0.9000E+01
       25  1    1    2    0    0 -.44164128E+03 -.30213329E+03 -.14693950E+03 0.56881259E+03 0.12500000E+03 0.0000E+00 0.9000E+01
        4  1    1    2  501    0 0.32060584E+02 -.41789482E+02 0.28067920E+04 0.28072866E+04 0.15500000E+01 0.0000E+00 0.9000E+01
        1  1    1    2  502    0 0.40958069E+03 0.34392277E+03 -.10599353E+04 0.11872246E+04 0.32000000E+00 0.0000E+00 0.9000E+01
#aMCatNLO 1  0  0  5  2 0.17322236D+03 0.00000000D+00  -5  6  0 0.00000000D+00 0.00000000D+00 0.00000000D+00 0.00000000D+00 0.00000000D+00
  <mgrwgt>
 0.2509382164D-01    4    2    0
 0.213683111679897D+04 0.000000000000000D+00 0.000000000000000D+00 0.213683111679897D+04
 0.213683111679897D+04 -.000000000000000D+00 -.000000000000000D+00 -.213683111679897D+04
 0.662461736193723D+03 -.441782965324509D+03 -.302250355756485D+03 -.369733804128002D+03
 0.194666155724573D+04 0.320584783828094D+02 -.417867379089980D+02 0.194594895641100D+04
 0.166453894015849D+04 0.409724486941699D+03 0.344037093665482D+03 -.157621515228300D+04
 0.000000000000000D+00 0.000000000000000D+00 0.000000000000000D+00 0.000000000000000D+00
 0.213683111679897D+04 0.000000000000000D+00 0.000000000000000D+00 0.213683111679897D+04
 0.213683111679897D+04 -.000000000000000D+00 -.000000000000000D+00 -.213683111679897D+04
 0.760403952385059D+03 -.383922862627345D+03 -.253666436060343D+03 -.592322332494130D+03
 0.142972749394551D+04 0.169357605641009D+03 0.735004714479559D+02 0.141775752124691D+04
 0.106020849912991D+04 -.796086235605173D+03 0.210551067744348D+03 -.667800131011523D+03
 0.102332228813745D+04 0.101065149259151D+04 -.303851031319618D+02 -.157635057741260D+03
0.147879798540D+02 0.000000000000D+00 0.000000000000D+00 0.216969079815D-02 0.000000000000D+00  6 3 2 25 4 1 21 0 0.47409546D+00 0.22795435D+00 0.32339783D+06 0.32339783D+06 0.32339783D+06 0.10821470D+01  1  2  2  4  6  5        1 0.298803184845D-01 0.100000000000D+01
0.805412704124D+01 0.000000000000D+00 -.567897364039D-01 0.216969079815D-02 0.000000000000D+00  6 3 2 25 4 1 21 2 0.47409546D+00 0.22795435D+00 0.32339783D+06 0.32339783D+06 0.32339783D+06 0.10821470D+01  1  2  3  4  6  5        1 0.190575638383D-01 0.100000000000D+01
-.100717755662D+02 0.000000000000D+00 0.000000000000D+00 0.216969079815D-02 0.000000000000D+00  6 3 2 25 4 1 21 2 0.47409546D+00 0.22795435D+00 0.32339783D+06 0.32339783D+06 0.32339783D+06 0.10821470D+01  1  2 15  4  6  5        1 -.238316958293D-01 0.100000000000D+01
-.522564497713D-02 0.000000000000D+00 0.000000000000D+00 0.216969079815D-02 0.000000000000D+00  6 3 2 25 4 1 21 2 0.47409546D+00 0.22795435D+00 0.32339783D+06 0.32339783D+06 0.32339783D+06 0.10821470D+01  1  2  4  4  6  5        1 -.123648487587D-04 0.100000000000D+01
  </mgrwgt>
  </event>
  <event>
  6     66 0.20805674E-05 0.14209663E+03 0.75467711E-02 0.93737032E-01
        3 -1    0    0  501    0 0.00000000E+00 0.00000000E+00 0.61907728E+03 0.61907748E+03 0.50000000E+00 0.0000E+00 0.9000E+01
        2 -1    0    0  502    0 -.00000000E+00 -.00000000E+00 -.22060345E+04 0.22060346E+04 0.32000000E+00 0.0000E+00 0.9000E+01
       25  1    1    2    0    0 0.31039471E+03 -.36652388E+03 -.27910911E+03 0.56939575E+03 0.12500000E+03 0.0000E+00 0.9000E+01
        4  1    1    2  501    0 -.17124653E+03 0.40669116E+03 0.36738466E+03 0.57419244E+03 0.15500000E+01 0.0000E+00 0.9000E+01
        1  1    1    2  503    0 -.11357474E+03 -.31636992E+02 -.13085261E+04 0.13138268E+04 0.32000000E+00 0.0000E+00 0.9000E+01
       21  1    1    2  502  503 -.25573441E+02 -.85302879E+01 -.36670666E+03 0.36769703E+03 0.75000000E+00 0.0000E+00 0.9000E+01
#aMCatNLO 2  0  0  5  2 0.48866947D+01 0.00000000D+00  -5  6  0 0.00000000D+00 0.00000000D+00 0.00000000D+00 0.00000000D+00 0.00000000D+00
  <mgrwgt>
 0.4492709266D-02    2    2    0
 0.116863432061471D+04 0.000000000000000D+00 0.000000000000000D+00 0.116863432061471D+04
 0.116863432061471D+04 -.000000000000000D+00 -.000000000000000D+00 -.116863432061471D+04
 0.498716379517222D+03 0.310434764285720D+03 -.366400785689654D+03 0.497367928966076D+02
 0.943264816539123D+03 -.171196593866029D+03 0.406585705251632D+03 0.833743548493353D+03
 0.895287445173083D+03 -.139238170419691D+03 -.401849195619784D+02 -.883480341389960D+03
 0.000000000000000D+00 0.000000000000000D+00 0.000000000000000D+00 -.000000000000000D+00
 0.116863432061471D+04 0.000000000000000D+00 0.000000000000000D+00 0.116863432061471D+04
 0.116863432061471D+04 -.000000000000000D+00 -.000000000000000D+00 -.116863432061471D+04
 0.498713662385876D+03 0.310432159478780D+03 -.366401537451595D+03 0.497202651318605D+02
 0.943237467506189D+03 -.171201520501517D+03 0.406584283396905D+03 0.833712288490510D+03
 0.701016190110319D+03 -.113841405932655D+03 -.317039841417658D+02 -.690983856889292D+03
 0.194301321227044D+03 -.253892330446076D+02 -.847876180354377D+01 -.192448696733078D+03
-.216025758606D-01 0.000000000000D+00 0.000000000000D+00 0.270226343049D-04 0.000000000000D+00  6 3 2 25 4 1 21 2 0.95242675D-01 0.33938995D+00 0.29285880D+06 0.29285880D+06 0.29285880D+06 0.10853268D+01  1  2 13  4  6  5        1 -.112570514491D-01 0.100000000000D+01
0.302242023301D-01 0.000000000000D+00 0.000000000000D+00 0.270226343049D-04 0.623598099341D-05  6 3 2 25 4 1 21 2 0.95242675D-01 0.33938995D+00 0.29285880D+06 0.29285880D+06 0.29285880D+06 0.10853268D+01  1  2  1  4  6  5        1 0.157497607153D-01 0.100000000000D+01
  </mgrwgt>
  </event>
  <event>
  6     66 -.20805674E-05 0.23626088E+02 0.75467711E-02 0.91725459E-01
        3 -1    0    0  501    0 0.00000000E+00 0.00000000E+00 0.13214101E+04 0.13214102E+04 0.50000000E+00 0.0000E+00 0.9000E+01
        2 -1    0    0  502    0 -.00000000E+00 -.00000000E+00 -.31115126E+04 0.31115126E+04 0.32000000E+00 0.0000E+00 0.9000E+01
       25  1    1    2    0    0 0.11354783E+02 -.64152984E+03 -.16578784E+04 0.17820986E+04 0.12500000E+03 0.0000E+00 0.9000E+01
        4  1    1    2  501    0 0.43001707E+01 0.59700585E+03 0.11879237E+04 0.13295110E+04 0.15500000E+01 0.0000E+00 0.9000E+01
        1  1    1    2  503    0 -.14358828E+02 0.11701169E+02 -.74300893E+03 0.74323984E+03 0.32000000E+00 0.0000E+00 0.9000E+01
       21  1    1    2  502  503 -.12961253E+01 0.32822815E+02 -.57713888E+03 0.57807341E+03 0.75000000E+00 0.0000E+00 0.9000E+01
#aMCatNLO 2  0  0  5  2 0.14459426D+02 0.00000000D+00  -5  6  0 0.00000000D+00 0.00000000D+00 0.00000000D+00 0.00000000D+00 0.00000000D+00
  <mgrwgt>
 -.7394923339D-02    2    2    0
 0.202770423958873D+04 0.000000000000000D+00 0.000000000000000D+00 0.202770423958873D+04
 0.202770423958873D+04 -.000000000000000D+00 -.000000000000000D+00 -.202770423958873D+04
 0.121602792928961D+04 0.113582503866312D+02 -.641540444547185D+03 -.102537591788120D+04
 0.197785747521575D+04 0.430453628253461D+01 0.596992200543396D+03 0.188560387561242D+04
 0.861523074672107D+03 -.156627866691649D+02 0.445482440037862D+02 -.860227957731215D+03
 0.000000000000000D+00 0.000000000000000D+00 0.000000000000000D+00 0.000000000000000D+00
 0.202770423958873D+04 0.000000000000000D+00 0.000000000000000D+00 0.202770423958873D+04
 0.202770423958873D+04 -.000000000000000D+00 -.000000000000000D+00 -.202770423958873D+04
 0.121614834003167D+04 0.113555627821873D+02 -.641532800437546D+03 -.102552352587273D+04
 0.197763235952096D+04 0.430016538549415D+01 0.597004632289546D+03 0.188536381821306D+04
 0.483968199960655D+03 -.143500009010191D+02 0.116775195115203D+02 -.483614445178548D+03
 0.377659579664187D+03 -.130572726666147D+01 0.328506486364768D+02 -.376225847161778D+03
-.731501082551D+00 0.000000000000D+00 0.000000000000D+00 0.685156866635D-03 0.000000000000D+00  6 3 2 25 4 1 21 2 0.20329387D+00 0.47869426D+00 0.42386192D+06 0.42386192D+06 0.42386192D+06 0.10736182D+01  1  2 13  4  6  5        1 -.114739607010D-01 0.100000000000D+01
0.260051461197D+00 0.000000000000D+00 0.000000000000D+00 0.685156866635D-03 0.222243178783D-05  6 3 2 25 4 1 21 2 0.20329387D+00 0.47869426D+00 0.42386192D+06 0.42386192D+06 0.42386192D+06 0.10736182D+01  1  2  1  4  6  5        1 0.407903736193D-02 0.100000000000D+01
  </mgrwgt>
  </event>
  <event>
  5     66 0.20805674E-05 0.20956904E+02 0.75467711E-02 0.93267620E-01
        3 -1    0    0  501    0 0.00000000E+00 0.00000000E+00 0.12604286E+04 0.12604287E+04 0.50000000E+00 0.0000E+00 0.9000E+01
        2 -1    0    0  502    0 0.00000000E+00 0.00000000E+00 -.73611004E+03 0.73611011E+03 0.32000000E+00 0.0000E+00 0.9000E+01
       25  1    1    2    0    0 0.20902669E+03 -.48283472E+03 0.55261817E+03 0.77319685E+03 0.12500000E+03 0.0000E+00 0.9000E+01
        4  1    1    2  501    0 0.12248216E+02 0.17069361E+02 0.49103646E+03 0.49148814E+03 0.15500000E+01 0.0000E+00 0.9000E+01
        1  1    1    2  502    0 -.22127490E+03 0.46576536E+03 -.51933607E+03 0.73185382E+03 0.32000000E+00 0.0000E+00 0.9000E+01
#aMCatNLO 1  0  0  4  1 0.47077483D+02 0.00000000D+00  -5  6  0 0.00000000D+00 0.00000000D+00 0.00000000D+00 0.00000000D+00 0.00000000D+00
  <mgrwgt>
 0.2404050127D-02    4    2    0
 0.963231183279153D+03 0.000000000000000D+00 0.000000000000000D+00 0.963231183279153D+03
 0.963231183279153D+03 -.000000000000000D+00 -.000000000000000D+00 -.963231183279153D+03
 0.651698141225648D+03 0.209230185967373D+03 -.483176047338271D+03 0.363110319098187D+03
 0.374786209158703D+03 0.122177921020572D+02 0.170269610298902D+02 0.374199827271190D+03
 0.899978016173956D+03 -.221447978069430D+03 0.466149086308381D+03 -.737310146369377D+03
 0.000000000000000D+00 0.000000000000000D+00 0.000000000000000D+00 -.000000000000000D+00
 0.963231183279153D+03 0.000000000000000D+00 0.000000000000000D+00 0.963231183279153D+03
 0.963231183279153D+03 -.000000000000000D+00 -.000000000000000D+00 -.963231183279153D+03
 0.715967456567836D+03 0.212793590355083D+03 -.478210015248639D+03 0.472248311891007D+03
 0.270772072019526D+03 -.301456610820408D+02 -.121055133999702D+02 0.268816313956198D+03
 0.795365962792102D+03 -.217030819238301D+03 0.472304927777301D+03 -.602023831310886D+03
 0.144356875178843D+03 0.343828899652585D+02 0.180106008713084D+02 -.139040794536321D+03
0.800874920173D-02 0.000000000000D+00 0.000000000000D+00 0.959751141508D-04 0.000000000000D+00  6 3 2 25 4 1 21 0 0.19391210D+00 0.11324771D+00 0.29062844D+06 0.29062844D+06 0.29062844D+06 0.10855731D+01  1  2  2  3  6  4        4 0.333945506454D-02 0.100000000000D+01
0.478409203410D-02 0.000000000000D+00 -.307557056867D-04 0.959751141508D-04 0.000000000000D+00  6 3 2 25 4 1 21 2 0.19391210D+00 0.11324771D+00 0.29062844D+06 0.29062844D+06 0.29062844D+06 0.10855731D+01  1  2  3  3  6  4        4 0.235086973371D-02 0.100000000000D+01
-.602658673454D-02 0.000000000000D+00 0.000000000000D+00 0.959751141508D-04 0.000000000000D+00  6 3 2 25 4 1 21 2 0.19391210D+00 0.11324771D+00 0.29062844D+06 0.29062844D+06 0.29062844D+06 0.10855731D+01  1  2 15  3  6  4        4 -.296142303510D-02 0.100000000000D+01
-.661083045290D-03 0.000000000000D+00 0.000000000000D+00 0.959751141508D-04 0.000000000000D+00  6 3 2 25 4 1 21 2 0.19391210D+00 0.11324771D+00 0.29062844D+06 0.29062844D+06 0.29062844D+06 0.10855731D+01  1  2  4  3  6  4        4 -.324851635705D-03 0.100000000000D+01
  </mgrwgt>
  </event>
  <event>
  6     66 0.20805674E-05 0.38689903E+02 0.75467711E-02 0.92996186E-01
        3 -1    0    0  501    0 0.00000000E+00 0.00000000E+00 0.14344578E+04 0.14344579E+04 0.50000000E+00 0.0000E+00 0.9000E+01
        2 -1    0    0  502    0 0.00000000E+00 0.00000000E+00 -.11134280E+04 0.11134281E+04 0.32000000E+00 0.0000E+00 0.9000E+01
       25  1    1    2    0    0 -.48014036E+03 0.23825725E+03 0.22262403E+03 0.59370678E+03 0.12500000E+03 0.0000E+00 0.9000E+01
        4  1    1    2  501    0 0.19644682E+02 -.71686037E+02 0.94820990E+03 0.95111998E+03 0.15500000E+01 0.0000E+00 0.9000E+01
        1  1    1    2  503    0 0.44711839E+03 -.91986018E+02 -.74500731E+03 0.87373467E+03 0.32000000E+00 0.0000E+00 0.9000E+01
       21  1    1    2  502  503 0.13377287E+02 -.74585196E+02 -.10479683E+03 0.12932456E+03 0.75000000E+00 0.0000E+00 0.9000E+01
#aMCatNLO 2  0  0  5  2 0.53937122D+01 0.00000000D+00  -5  6  0 0.00000000D+00 0.00000000D+00 0.00000000D+00 0.00000000D+00 0.00000000D+00
  <mgrwgt>
 0.1814286312D-02    1    2    0
 0.126379022276848D+04 0.000000000000000D+00 0.000000000000000D+00 0.126379022276848D+04
 0.126379022276848D+04 -.000000000000000D+00 -.000000000000000D+00 -.126379022276848D+04
 0.573518507304997D+03 -.482295775166766D+03 0.239010612829605D+03 0.153503063267340D+03
 0.843636930205378D+03 0.168484555527158D+02 -.706381563729812D+02 0.840505592138486D+03
 0.111042500802658D+04 0.465447319614050D+03 -.168372456456624D+03 -.994008655405827D+03
 0.000000000000000D+00 0.000000000000000D+00 0.000000000000000D+00 -.000000000000000D+00
 0.126379022276848D+04 0.000000000000000D+00 0.000000000000000D+00 0.126379022276848D+04
 0.126379022276848D+04 -.000000000000000D+00 -.000000000000000D+00 -.126379022276848D+04
 0.570563203544839D+03 -.480398788103865D+03 0.238324390440545D+03 0.149451860305683D+03
 0.837851377193068D+03 0.196365095311191D+02 -.716467162621362D+02 0.834551427898010D+03
 0.975409863160864D+03 0.447350033138783D+03 -.920387925977361D+02 -.861876562890172D+03
 0.143756001638188D+03 0.134122454339631D+02 -.746388815806730D+02 -.122126725313521D+03
0.109445489119D-01 0.000000000000D+00 0.000000000000D+00 0.150369099533D-03 0.911071818700D-07  6 3 2 25 4 1 21 2 0.22068583D+00 0.17129663D+00 0.33494302D+06 0.33494302D+06 0.33494302D+06 0.10810294D+01  1  2  1  4  6  5        1 0.181428631181D-02 0.100000000000D+01
  </mgrwgt>
  </event>
  <event>
  5     66 0.20805674E-05 0.24539054E+02 0.75467711E-02 0.94644605E-01
        3 -1    0    0  501    0 0.00000000E+00 0.00000000E+00 0.68273878E+03 0.68273896E+03 0.50000000E+00 0.0000E+00 0.9000E+01
        2 -1    0    0  502    0 -.00000000E+00 -.00000000E+00 -.85473609E+03 0.85473615E+03 0.32000000E+00 0.0000E+00 0.9000E+01
       25  1    1    2    0    0 0.19922011E+03 -.42238607E+03 -.15753824E+03 0.50847020E+03 0.12500000E+03 0.0000E+00 0.9000E+01
        4  1    1    2  501    0 -.21553714E+03 0.44068509E+03 0.38820696E+03 0.62559304E+03 0.15500000E+01 0.0000E+00 0.9000E+01
        1  1    1    2  502    0 0.16317034E+02 -.18299019E+02 -.40266603E+03 0.40341187E+03 0.32000000E+00 0.0000E+00 0.9000E+01
#aMCatNLO 1  0  0  5  2 0.43799660D+00 0.00000000D+00  -5  6  0 0.00000000D+00 0.00000000D+00 0.00000000D+00 0.00000000D+00 0.00000000D+00
  <mgrwgt>
 0.1937782693D-01    7    2    0
 0.763912077236743D+03 0.000000000000000D+00 0.000000000000000D+00 0.763912077236743D+03
 0.763912077236743D+03 -.000000000000000D+00 -.000000000000000D+00 -.763912077236743D+03
 0.493726109392261D+03 0.199157139314328D+03 -.422271436195158D+03 -.100815371493788D+03
 0.673095314631198D+03 -.215488889536028D+03 0.440586433333017D+03 0.460983118810106D+03
 0.361002730450027D+03 0.163317502216998D+02 -.183149971378587D+02 -.360167747316318D+03
 0.000000000000000D+00 0.000000000000000D+00 0.000000000000000D+00 0.000000000000000D+00
 0.763912077236743D+03 0.000000000000000D+00 0.000000000000000D+00 0.763912077236743D+03
 0.763912077236743D+03 -.000000000000000D+00 -.000000000000000D+00 -.763912077236743D+03
 0.493726356497601D+03 0.199157181441913D+03 -.422271483438509D+03 -.100816300542870D+03
 0.673094386651019D+03 -.215488832103672D+03 0.440586368926360D+03 0.460981852241488D+03
 0.323901880859334D+03 0.142469666842397D+02 -.162713856461700D+02 -.323179043834321D+03
 0.371015304655311D+02 0.208468397751857D+01 -.204349984168056D+01 -.369865078642965D+02
0.558826507621D-05 0.000000000000D+00 0.000000000000D+00 0.376420922901D-04 0.000000000000D+00  6 3 2 25 4 1 21 0 0.10503675D+00 0.13149788D+00 0.24916248D+06 0.24916248D+06 0.24916248D+06 0.10905688D+01  1  2  2  4  6  5        1 0.115219045717D-04 0.100000000000D+01
0.317108592113D-05 0.000000000000D+00 -.214604093166D-07 0.376420922901D-04 0.000000000000D+00  6 3 2 25 4 1 21 2 0.10503675D+00 0.13149788D+00 0.24916248D+06 0.24916248D+06 0.24916248D+06 0.10905688D+01  1  2  3  4  6  5        1 0.777609202798D-05 0.100000000000D+01
-.394545086084D-05 0.000000000000D+00 0.000000000000D+00 0.376420922901D-04 0.000000000000D+00  6 3 2 25 4 1 21 2 0.10503675D+00 0.13149788D+00 0.24916248D+06 0.24916248D+06 0.24916248D+06 0.10905688D+01  1  2 15  4  6  5        1 -.967497877662D-05 0.100000000000D+01
-.131634585092D+00 0.000000000000D+00 0.000000000000D+00 0.376420922901D-04 0.000000000000D+00  6 3 2 25 4 1 21 2 0.10503675D+00 0.13149788D+00 0.24916248D+06 0.24916248D+06 0.24916248D+06 0.10905688D+01  1  2  4  4  6  5        1 -.322792467060D+00 0.100000000000D+01
-.163611849513D+00 0.000000000000D+00 0.000000000000D+00 0.376420922901D-04 0.000000000000D+00  6 3 2 25 4 1 21 2 0.10503675D+00 0.13149788D+00 0.24916248D+06 0.24916248D+06 0.24916248D+06 0.10905688D+01  1  2  5  4  6  5        1 -.401206662426D+00 0.100000000000D+01
0.182337012954D+00 0.000000000000D+00 -.000000000000D+00 0.376420922901D-04 0.000000000000D+00  6 3 2 25 4 1 21 2 0.10503675D+00 0.13149788D+00 0.24916248D+06 0.24916248D+06 0.24916248D+06 0.10905688D+01  1  2  6  4  6  5        1 0.447124243274D+00 0.100000000000D+01
0.120807933579D+00 0.000000000000D+00 0.000000000000D+00 0.376420922901D-04 0.745102583621D-03  6 3 2 25 4 1 21 2 0.10503675D+00 0.13149788D+00 0.24916612D+06 0.24916612D+06 0.24916612D+06 0.10905683D+01  1  2 11  4  6  5        1 0.296243090124D+00 0.100000000000D+01
  </mgrwgt>
  </event>
  <event>
  5     66 0.20805674E-05 0.40451075E+02 0.75467711E-02 0.94151572E-01
        3 -1    0    0  501    0 0.00000000E+00 0.00000000E+00 0.88407195E+03 0.88407210E+03 0.50000000E+00 0.0000E+00 0.9000E+01
        2 -1    0    0  502    0 0.00000000E+00 0.00000000E+00 -.10701544E+04 0.10701544E+04 0.32000000E+00 0.0000E+00 0.9000E+01
       25  1    1    2    0    0 0.20938669E+03 -.45810329E+03 0.24302885E+03 0.57305273E+03 0.12500000E+03 0.0000E+00 0.9000E+01
        4  1    1    2  501    0 -.21331104E+03 0.41787596E+03 0.35978416E+03 0.59124357E+03 0.15500000E+01 0.0000E+00 0.9000E+01
        1  1    1    2  502    0 0.39243466E+01 0.40227329E+02 -.78889542E+03 0.78993020E+03 0.32000000E+00 0.0000E+00 0.9000E+01
#aMCatNLO 1  0  0  2  5 0.12640320D+02 0.00000000D+00  -5  6  0 0.00000000D+00 0.00000000D+00 0.00000000D+00 0.00000000D+00 0.00000000D+00
  <mgrwgt>
 0.3796630618D-02    9    2    0
 0.972673449741877D+03 0.000000000000000D+00 0.000000000000000D+00 0.972673449741877D+03
 0.972673449741877D+03 0.000000000000000D+00 0.000000000000000D+00 -.972673449741877D+03
 0.599004300060242D+03 0.209203940469137D+03 -.457783150615604D+03 0.299748977972066D+03
 0.627825082578492D+03 -.213130935319340D+03 0.417523143062202D+03 0.417628978558785D+03
 0.718517516845019D+03 0.392699485020324D+01 0.402600075534020D+02 -.717377956530850D+03
 0.000000000000000D+00 -.000000000000000D+00 -.000000000000000D+00 -.000000000000000D+00
 0.972825962638044D+03 0.000000000000000D+00 0.000000000000000D+00 0.972825962638044D+03
 0.127534954825638D+04 0.000000000000000D+00 0.000000000000000D+00 -.127534954825638D+04
 0.598979011117554D+03 0.212724848413278D+03 -.456124483920357D+03 0.299748977972066D+03
 0.627741701402432D+03 -.209440787866642D+03 0.419261536901928D+03 0.417628978558785D+03
 0.718667253160034D+03 0.815092286881181D+01 0.422498604091807D+02 -.717377956530850D+03
 0.302787545214403D+03 -.114349834154482D+02 -.538691339075120D+01 -.302523585618334D+03
0.137671422915D-04 0.000000000000D+00 0.000000000000D+00 0.536712764942D-04 0.000000000000D+00  6 3 2 25 4 1 21 0 0.13601108D+00 0.16463915D+00 0.26411214D+06 0.26411214D+06 0.26411214D+06 0.10886695D+01  1  2  2  2  6  2        2 0.105783764641D-04 0.100000000000D+01
0.719998513567D-05 0.000000000000D+00 -.528694513711D-07 0.536712764942D-04 0.000000000000D+00  6 3 2 25 4 1 21 2 0.13601108D+00 0.16463915D+00 0.26411214D+06 0.26411214D+06 0.26411214D+06 0.10886695D+01  1  2  3  2  6  2        2 0.655690591672D-05 0.100000000000D+01
-.999067059443D-05 0.000000000000D+00 0.000000000000D+00 0.536712764942D-04 0.000000000000D+00  6 3 2 25 4 1 21 2 0.13601108D+00 0.16463915D+00 0.26411214D+06 0.26411214D+06 0.26411214D+06 0.10886695D+01  1  2 15  2  6  2        2 -.909833644074D-05 0.100000000000D+01
0.749760661075D-02 0.000000000000D+00 0.000000000000D+00 0.536712764942D-04 0.000000000000D+00  6 3 2 25 4 1 21 2 0.13601108D+00 0.23849617D+00 0.27191746D+06 0.27191746D+06 0.27191746D+06 0.10877240D+01  1  2 12  2  6  2        2 0.363238294073D-02 0.100000000000D+01
-.347162938682D-02 0.000000000000D+00 0.000000000000D+00 0.536712764942D-04 0.000000000000D+00  6 3 2 25 4 1 21 2 0.13601108D+00 0.16463915D+00 0.26411214D+06 0.26411214D+06 0.26411214D+06 0.10886695D+01  1  2  4  2  6  2        2 -.316155475854D-02 0.100000000000D+01
-.114766563797D-01 0.000000000000D+00 -.131054549992D-04 0.536712764942D-04 0.000000000000D+00  6 3 2 25 4 1 21 2 0.13601108D+00 0.21588298D+00 0.26411214D+06 0.26411214D+06 0.26411214D+06 0.10886695D+01  1  2  5  2  6  2        2 -.672335629330D-02 0.100000000000D+01
0.110716820936D-01 0.000000000000D+00 0.126385806415D-04 0.536712764942D-04 0.000000000000D+00  6 3 2 25 4 1 21 2 0.13601108D+00 0.16463915D+00 0.26411214D+06 0.26411214D+06 0.26411214D+06 0.10886695D+01  1  2  6  2  6  2        2 0.100827955141D-01 0.100000000000D+01
0.337560408026D-03 0.000000000000D+00 0.000000000000D+00 0.536712764942D-04 0.000000000000D+00  6 3 21 25 4 1 -2 2 0.13601108D+00 0.23849617D+00 0.27191746D+06 0.27191746D+06 0.27191746D+06 0.10877240D+01  1  2 12  6  6  2        2 0.541062214962D-04 0.100000000000D+01
-.411807737864D-03 0.000000000000D+00 -.470538421117D-06 0.536712764942D-04 0.000000000000D+00  6 3 21 25 4 1 -2 2 0.13601108D+00 0.21588298D+00 0.26411214D+06 0.26411214D+06 0.26411214D+06 0.10886695D+01  1  2  5  6  6  2        2 -.957799523803D-04 0.100000000000D+01
  </mgrwgt>
  </event>
  <event>
  5     66 0.20805674E-05 0.89201586E+02 0.75467711E-02 0.92445811E-01
        3 -1    0    0  501    0 0.00000000E+00 0.00000000E+00 0.75609091E+03 0.75609108E+03 0.50000000E+00 0.0000E+00 0.9000E+01
        2 -1    0    0  502    0 0.00000000E+00 0.00000000E+00 -.45352117E+04 0.45352117E+04 0.32000000E+00 0.0000E+00 0.9000E+01
       25  1    1    2    0    0 -.51087078E+03 -.13477665E+03 -.11283129E+04 0.12521457E+04 0.12500000E+03 0.0000E+00 0.9000E+01
        4  1    1    2  501    0 0.54247134E+03 0.21815912E+03 0.57032672E+03 0.81678854E+03 0.15500000E+01 0.0000E+00 0.9000E+01
        1  1    1    2  502    0 -.31600563E+02 -.83382469E+02 -.32211345E+04 0.32223685E+04 0.32000000E+00 0.0000E+00 0.9000E+01
#aMCatNLO 1  0  0  2  2 0.92469152D+00 0.00000000D+00  -5  6  0 0.00000000D+00 0.00000000D+00 0.00000000D+00 0.00000000D+00 0.00000000D+00
  <mgrwgt>
 0.2106515410D-01    9    2    0
 0.185176477718786D+04 0.000000000000000D+00 0.000000000000000D+00 0.185176477718786D+04
 0.185176477718786D+04 0.000000000000000D+00 0.000000000000000D+00 -.185176477718786D+04
 0.637392050902976D+03 -.510838214565298D+03 -.134736976812267D+03 -.333966902811537D+03
 0.174885410850830D+04 0.542448430776042D+03 0.218149908157687D+03 0.164822662591215D+04
 0.131728339496444D+04 -.316102162107438D+02 -.834129313454195D+02 -.131425972310062D+04
 0.000000000000000D+00 0.000000000000000D+00 -.000000000000000D+00 -.000000000000000D+00
 0.185194779776703D+04 0.000000000000000D+00 0.000000000000000D+00 0.185194779776703D+04
 0.185293317912504D+04 0.000000000000000D+00 0.000000000000000D+00 -.185293317912504D+04
 0.637517083447128D+03 -.510997017601194D+03 -.134726343066556D+03 -.333966902811537D+03
 0.174872266704692D+04 0.542012771641385D+03 0.218179080701076D+03 0.164822662591215D+04
 0.131728991931943D+04 -.319383793945548D+02 -.833909569302016D+02 -.131425972310062D+04
 0.135130707859191D+01 0.922625354362912D+00 -.617807043187985D-01 -.985381358009775D+00
0.235532467931D+00 0.000000000000D+00 0.000000000000D+00 0.346060509368D-03 0.000000000000D+00  6 3 2 25 4 1 21 0 0.11632169D+00 0.69772488D+00 0.37013044D+06 0.37013044D+06 0.37013044D+06 0.10778659D+01  1  2  2  2  6  2        2 0.131841279753D-02 0.100000000000D+01
0.734865872229D-01 0.000000000000D+00 -.904506693978D-03 0.346060509368D-03 0.000000000000D+00  6 3 2 25 4 1 21 2 0.11632169D+00 0.69772488D+00 0.37013044D+06 0.37013044D+06 0.37013044D+06 0.10778659D+01  1  2  3  2  6  2        2 0.477901218064D-03 0.100000000000D+01
-.154672811949D+00 0.000000000000D+00 0.000000000000D+00 0.346060509368D-03 0.000000000000D+00  6 3 2 25 4 1 21 2 0.11632169D+00 0.69772488D+00 0.37013044D+06 0.37013044D+06 0.37013044D+06 0.10778659D+01  1  2 15  2  6  2        2 -.100587505864D-02 0.100000000000D+01
-.558599635399D+00 0.000000000000D+00 0.000000000000D+00 0.346060509368D-03 0.000000000000D+00  6 3 2 25 4 1 21 2 0.11632169D+00 0.69772488D+00 0.37013044D+06 0.37013044D+06 0.37013044D+06 0.10778659D+01  1  2  4  2  6  2        2 -.363270980809D-02 0.100000000000D+01
-.444556759544D+03 0.000000000000D+00 -.287535954987D+02 0.346060509368D-03 0.000000000000D+00  6 3 2 25 4 1 21 2 0.11632169D+00 0.69817583D+00 0.37013044D+06 0.37013044D+06 0.37013044D+06 0.10778659D+01  1  2  5  2  6  2        2 -.287131392862D+01 0.100000000000D+01
0.444657543864D+03 0.000000000000D+00 0.287845106629D+02 0.346060509368D-03 0.000000000000D+00  6 3 2 25 4 1 21 2 0.11632169D+00 0.69772488D+00 0.37013044D+06 0.37013044D+06 0.37013044D+06 0.10778659D+01  1  2  6  2  6  2        2 0.289171656848D+01 0.100000000000D+01
0.543244697970D+00 0.000000000000D+00 0.000000000000D+00 0.346060509368D-03 0.297741881784D-04  6 3 2 25 4 1 21 2 0.11633319D+00 0.69816512D+00 0.37060178D+06 0.37060178D+06 0.37060178D+06 0.10778257D+01  1  2 11  2  6  2        2 0.350760450537D-02 0.100000000000D+01
-.537992692117D-01 0.000000000000D+00 -.347998700847D-02 0.346060509368D-03 0.000000000000D+00  6 3 21 25 4 1 -2 2 0.11632169D+00 0.69817583D+00 0.37013044D+06 0.37013044D+06 0.37013044D+06 0.10778659D+01  1  2  5  6  6  2        2 -.374802400423D-05 0.100000000000D+01
0.133330133762D-01 0.000000000000D+00 0.000000000000D+00 0.346060509368D-03 0.283772289755D-06  6 3 21 25 4 1 -2 2 0.11633319D+00 0.69816512D+00 0.37060178D+06 0.37060178D+06 0.37060178D+06 0.10778257D+01  1  2 11  6  6  2        2 0.928604163704D-06 0.100000000000D+01
  </mgrwgt>
  </event>
  <event>
  6     66 0.20805674E-05 0.10855363E+03 0.75467711E-02 0.92378217E-01
        3 -1    0    0  501    0 0.00000000E+00 0.00000000E+00 0.12227252E+04 0.12227253E+04 0.50000000E+00 0.0000E+00 0.9000E+01
        2 -1    0    0  502    0 0.00000000E+00 0.00000000E+00 -.92253000E+03 0.92253006E+03 0.32000000E+00 0.0000E+00 0.9000E+01
       25  1    1    2    0    0 -.29457462E+03 -.39433670E+03 -.14267436E+03 0.52750034E+03 0.12500000E+03 0.0000E+00 0.9000E+01
        4  1    1    2  501    0 -.71381272E+02 -.86626506E+02 0.87001214E+03 0.87722458E+03 0.15500000E+01 0.0000E+00 0.9000E+01
        1  1    1    2  503    0 0.33771950E+03 0.44751997E+03 -.38809002E+03 0.68186696E+03 0.32000000E+00 0.0000E+00 0.9000E+01
       21  1    1    2  502  503 0.28236391E+02 0.33443235E+02 -.39052535E+02 0.58663504E+02 0.75000000E+00 0.0000E+00 0.9000E+01
#aMCatNLO 2  0  0  5  2 0.70719290D+01 0.00000000D+00  -5  6  0 0.00000000D+00 0.00000000D+00 0.00000000D+00 0.00000000D+00 0.00000000D+00
  <mgrwgt>
 0.5321389861D-02    5    2    0
 0.106207385723226D+04 0.000000000000000D+00 0.000000000000000D+00 0.106207385723226D+04
 0.106207385723226D+04 -.000000000000000D+00 -.000000000000000D+00 -.106207385723226D+04
 0.553264742256567D+03 -.294866955766058D+03 -.394720996099385D+03 -.218462098909152D+03
 0.762715780918217D+03 -.714140003827591D+02 -.866731585658098D+02 0.754402522924760D+03
 0.808167191289735D+03 0.366280956148817D+03 0.481394154665195D+03 -.535940424015608D+03
 0.000000000000000D+00 0.000000000000000D+00 0.000000000000000D+00 -.000000000000000D+00
 0.106207385723226D+04 0.000000000000000D+00 0.000000000000000D+00 0.106207385723226D+04
 0.106207385723226D+04 -.000000000000000D+00 -.000000000000000D+00 -.106207385723226D+04
 0.553220098158837D+03 -.294816944085513D+03 -.394655266963662D+03 -.218535275744658D+03
 0.762599258973648D+03 -.713450581200914D+02 -.865825494262941D+02 0.754301646958192D+03
 0.744018018809435D+03 0.338117732805526D+03 0.448052431262218D+03 -.488352567225342D+03
 0.643103385225984D+02 0.280442694000787D+02 0.331853851277382D+02 -.474138039881921D+02
-.505385425056D-01 0.000000000000D+00 0.000000000000D+00 0.620093844716D-05 0.000000000000D+00  6 3 2 25 4 1 21 2 0.18811159D+00 0.14192770D+00 0.37526693D+06 0.37526693D+06 0.37526693D+06 0.10774316D+01  1  2 13  4  6  5        1 -.200087505166D-01 0.100000000000D+01
-.304908809851D-01 0.000000000000D+00 0.000000000000D+00 0.620093844716D-05 0.000000000000D+00  6 3 2 25 4 1 21 2 0.18811159D+00 0.14192770D+00 0.37546845D+06 0.37546845D+06 0.37546845D+06 0.10774147D+01  1  2  8  4  6  5        1 -.120709046692D-01 0.100000000000D+01
-.215401597848D-01 0.000000000000D+00 0.000000000000D+00 0.620093844716D-05 0.000000000000D+00  6 3 2 25 4 1 21 2 0.18811159D+00 0.14192770D+00 0.37546845D+06 0.37546845D+06 0.37546845D+06 0.10774147D+01  1  2  9  4  6  5        1 -.852744187515D-02 0.100000000000D+01
0.233221947958D-01 0.000000000000D+00 0.000000000000D+00 0.620093844716D-05 0.000000000000D+00  6 3 2 25 4 1 21 2 0.18811159D+00 0.14192770D+00 0.37546845D+06 0.37546845D+06 0.37546845D+06 0.10774147D+01  1  2 10  4  6  5        1 0.923292410589D-02 0.100000000000D+01
0.926864603361D-01 0.000000000000D+00 0.000000000000D+00 0.620093844716D-05 0.836752425856D-06  6 3 2 25 4 1 21 2 0.18811159D+00 0.14192770D+00 0.37526693D+06 0.37526693D+06 0.37526693D+06 0.10774316D+01  1  2  1  4  6  5        1 0.366955628158D-01 0.100000000000D+01
  </mgrwgt>
  </event>
  <event>
  5     66 0.20805674E-05 0.21913703E+03 0.75467711E-02 0.87281468E-01
        3 -1    0    0  501    0 0.00000000E+00 0.00000000E+00 0.12420643E+04 0.12420644E+04 0.50000000E+00 0.0000E+00 0.9000E+01
        2 -1    0    0  502    0 0.00000000E+00 0.00000000E+00 -.19621078E+04 0.19621079E+04 0.32000000E+00 0.0000E+00 0.9000E+01
       25  1    1    2    0    0 0.49296465E+03 0.63270356E+03 -.31384773E+03 0.87031795E+03 0.12500000E+03 0.0000E+00 0.9000E+01
        4  1    1    2  501    0 -.41032286E+03 -.83556258E+03 0.72609507E+03 0.11805703E+04 0.15500000E+01 0.0000E+00 0.9000E+01
        1  1    1    2  502    0 -.82641787E+02 0.20285902E+03 -.11322909E+04 0.11532841E+04 0.32000000E+00 0.0000E+00 0.9000E+01
#aMCatNLO 1  0  0  2  1 0.67983799D+02 0.00000000D+00  -5  6  0 0.00000000D+00 0.00000000D+00 0.00000000D+00 0.00000000D+00 0.00000000D+00
  <mgrwgt>
 0.2087610336D-03    7    2    0
 0.156110996326119D+04 0.000000000000000D+00 0.000000000000000D+00 0.156110996326119D+04
 0.156110996326119D+04 0.000000000000000D+00 0.000000000000000D+00 -.156110996326119D+04
 0.820570935890866D+03 0.492962726469913D+03 0.632524325164615D+03 -.120881715801897D+03
 0.137884159787923D+04 -.410273204547648D+03 -.835461455921827D+03 0.101729258590699D+04
 0.922807392752287D+03 -.826895219222648D+02 0.202937130757211D+03 -.896410870105093D+03
 0.000000000000000D+00 -.000000000000000D+00 0.000000000000000D+00 -.000000000000000D+00
 0.157688056259707D+04 0.000000000000000D+00 0.000000000000000D+00 0.157688056259707D+04
 0.163650638598695D+04 0.000000000000000D+00 0.000000000000000D+00 -.163650638598695D+04
 0.815174610492097D+03 0.502763462736167D+03 0.617657799200552D+03 -.120881715801897D+03
 0.138943949024092D+04 -.393686766078952D+03 -.860621067551744D+03 0.101729258590699D+04
 0.918345884047644D+03 -.716580642902587D+02 0.186203750034341D+03 -.896410870105093D+03
 0.904269638033676D+02 -.374186323669568D+02 0.567595183168515D+02 -.596258233898793D+02
0.690313043794D-03 0.000000000000D+00 0.000000000000D+00 0.558003913113D-06 0.000000000000D+00  6 3 2 25 4 1 21 0 0.19108683D+00 0.30186275D+00 0.96188864D+06 0.96188864D+06 0.96188864D+06 0.10489891D+01  1  2  2  2  6  2        2 0.526971220610D-04 0.100000000000D+01
0.107267952093D-03 0.000000000000D+00 -.265098385177D-05 0.558003913113D-06 0.000000000000D+00  6 3 2 25 4 1 21 2 0.19108683D+00 0.30186275D+00 0.96188864D+06 0.96188864D+06 0.96188864D+06 0.10489891D+01  1  2  3  2  6  2        2 0.901058081220D-05 0.100000000000D+01
-.463935698647D-03 0.000000000000D+00 0.000000000000D+00 0.558003913113D-06 0.000000000000D+00  6 3 2 25 4 1 21 2 0.19108683D+00 0.30186275D+00 0.96188864D+06 0.96188864D+06 0.96188864D+06 0.10489891D+01  1  2 15  2  6  2        2 -.389709137049D-04 0.100000000000D+01
-.119694919824D-03 0.000000000000D+00 0.000000000000D+00 0.558003913113D-06 0.000000000000D+00  6 3 2 25 4 1 21 2 0.19108683D+00 0.30186275D+00 0.96188864D+06 0.96188864D+06 0.96188864D+06 0.10489891D+01  1  2  4  2  6  2        2 -.100544545397D-04 0.100000000000D+01
-.181328208538D-01 0.000000000000D+00 -.252832279710D-02 0.558003913113D-06 0.000000000000D+00  6 3 2 25 4 1 21 2 0.19108683D+00 0.31767935D+00 0.96188864D+06 0.96188864D+06 0.96188864D+06 0.10489891D+01  1  2  5  2  6  2        2 -.133417651683D-02 0.100000000000D+01
0.182414426530D-01 0.000000000000D+00 0.252502924902D-02 0.558003913113D-06 0.000000000000D+00  6 3 2 25 4 1 21 2 0.19108683D+00 0.30186275D+00 0.96188864D+06 0.96188864D+06 0.96188864D+06 0.10489891D+01  1  2  6  2  6  2        2 0.153229356903D-02 0.100000000000D+01
-.158759931636D-03 0.000000000000D+00 -.224596496333D-04 0.558003913113D-06 0.000000000000D+00  6 3 21 25 4 1 -2 2 0.19108683D+00 0.31767935D+00 0.96188864D+06 0.96188864D+06 0.96188864D+06 0.10489891D+01  1  2  5  6  6  2        2 -.203835324276D-05 0.100000000000D+01
  </mgrwgt>
  </event>
  <event>
  5     66 -.20805674E-05 0.62819176E+02 0.75467711E-02 0.90848252E-01
        3 -1    0    0  501    0 0.00000000E+00 0.00000000E+00 0.65955953E+03 0.65955972E+03 0.50000000E+00 0.0000E+00 0.9000E+01
        2 -1    0    0  502    0 0.00000000E+00 0.00000000E+00 -.33900461E+04 0.33900461E+04 0.32000000E+00 0.0000E+00 0.9000E+01
       25  1    1    2    0    0 0.43501478E+03 -.52961753E+03 -.41616723E+03 0.81151263E+03 0.12500000E+03 0.0000E+00 0.9000E+01
        4  1    1    2  501    0 -.62225018E+02 -.88750210E+01 0.42089227E+03 0.42556248E+03 0.15500000E+01 0.0000E+00 0.9000E+01
        1  1    1    2  502    0 -.37278977E+03 0.53849255E+03 -.27352116E+04 0.28125307E+04 0.32000000E+00 0.0000E+00 0.9000E+01
#aMCatNLO 1  0  0  2  1 0.67983799D+02 0.00000000D+00  -5  6  0 0.00000000D+00 0.00000000D+00 0.00000000D+00 0.00000000D+00 0.00000000D+00
  <mgrwgt>
 -.1683272862D-02    1    2    0
 0.149530519760953D+04 0.000000000000000D+00 0.000000000000000D+00 0.149530519760953D+04
 0.149530519760953D+04 0.000000000000000D+00 0.000000000000000D+00 -.149530519760953D+04
 0.719332491974165D+03 0.435182089788144D+03 -.529897721507510D+03 0.177874077590120D+03
 0.959995231531544D+03 -.621898062428121D+02 -.886999887346246D+01 0.957937678391851D+03
 0.131128267171336D+04 -.372992283545332D+03 0.538767720380973D+03 -.113581175598197D+04
 0.000000000000000D+00 0.000000000000000D+00 -.000000000000000D+00 0.000000000000000D+00
 0.314326435555329D+04 0.000000000000000D+00 0.000000000000000D+00 0.314326435555329D+04
 0.151322303665766D+04 0.000000000000000D+00 0.000000000000000D+00 -.151322303665766D+04
 0.666957003593677D+03 0.375999776398188D+03 -.506153756592434D+03 0.177874077590120D+03
 0.969083021665577D+03 -.144544403965344D+03 0.241706946532441D+02 0.957937678391851D+03
 0.136725283399883D+04 -.487342084385632D+03 0.584644900634269D+03 -.113581175598197D+04
 0.165319453295287D+04 0.255886711952789D+03 -.102661838695080D+03 0.163004131889563D+04
-.216923415023D-01 0.000000000000D+00 0.000000000000D+00 0.116380813715D-03 0.000000000000D+00  6 3 2 25 4 1 21 2 0.10147071D+00 0.52154557D+00 0.50062297D+06 0.50062297D+06 0.50062297D+06 0.10684722D+01  1  2 14  2  6  2        2 -.168327286200D-02 0.100000000000D+01
  </mgrwgt>
  </event>
  <event>
  5     66 0.20805674E-05 0.68252074E+02 0.75467711E-02 0.87277876E-01
        3 -1    0    0  501    0 0.00000000E+00 0.00000000E+00 0.59993150E+03 0.59993171E+03 0.50000000E+00 0.0000E+00 0.9000E+01
        2 -1    0    0  502    0 -.00000000E+00 -.00000000E+00 -.33278077E+04 0.33278077E+04 0.32000000E+00 0.0000E+00 0.9000E+01
       25  1    1    2    0    0 -.51214162E+03 -.16498512E+03 -.96732356E+02 0.56079522E+03 0.12500000E+03 0.0000E+00 0.9000E+01
        4  1    1    2  501    0 0.49844952E+03 0.23181216E+03 0.16190237E+03 0.57306508E+03 0.15500000E+01 0.0000E+00 0.9000E+01
        1  1    1    2  502    0 0.13692099E+02 -.66827042E+02 -.27930462E+04 0.27938791E+04 0.32000000E+00 0.0000E+00 0.9000E+01
#aMCatNLO 1  0  0  5  2 0.54922860D+03 0.00000000D+00  -5  6  0 0.00000000D+00 0.00000000D+00 0.00000000D+00 0.00000000D+00 0.00000000D+00
  <mgrwgt>
 0.2340188712D-02    4    2    0
 0.141296039823814D+04 0.000000000000000D+00 0.000000000000000D+00 0.141296039823814D+04
 0.141296039823814D+04 -.000000000000000D+00 -.000000000000000D+00 -.141296039823814D+04
 0.686264494944881D+03 -.511892227008433D+03 -.164829413909128D+03 0.407592405793672D+03
 0.952292734579728D+03 0.498191736729603D+03 0.231692274848589D+03 0.777807904024615D+03
 0.118736356695166D+04 0.137004902788311D+02 -.668628609394630D+02 -.118540030981829D+04
 0.000000000000000D+00 -.000000000000000D+00 0.000000000000000D+00 0.000000000000000D+00
 0.141296039823814D+04 0.000000000000000D+00 0.000000000000000D+00 0.141296039823814D+04
 0.141296039823814D+04 -.000000000000000D+00 -.000000000000000D+00 -.141296039823814D+04
 0.627584702825012D+03 -.510614779138050D+03 -.171063776152854D+03 0.297064456026105D+03
 0.832871670860502D+03 0.499927441612542D+03 0.223221468924277D+03 0.627630423940707D+03
 0.880832736685079D+03 0.456109249492981D+03 -.115694710759653D+03 -.744610902717195D+03
 0.484631686105681D+03 -.445421911967472D+03 0.635370179882276D+02 -.180083977249616D+03
0.350564830523D-01 0.000000000000D+00 0.000000000000D+00 0.114783234006D-03 0.000000000000D+00  6 3 2 25 4 1 21 0 0.92297171D-01 0.51197043D+00 0.34210599D+06 0.34210599D+06 0.34210599D+06 0.10803569D+01  1  2  2  4  6  5        1 0.341462548676D-02 0.100000000000D+01
0.146974836382D-01 0.000000000000D+00 -.134626125505D-03 0.114783234006D-03 0.000000000000D+00  6 3 2 25 4 1 21 2 0.92297171D-01 0.51197043D+00 0.34210599D+06 0.34210599D+06 0.34210599D+06 0.10803569D+01  1  2  3  4  6  5        1 0.167090676189D-02 0.100000000000D+01
-.231854741441D-01 0.000000000000D+00 0.000000000000D+00 0.114783234006D-03 0.000000000000D+00  6 3 2 25 4 1 21 2 0.92297171D-01 0.51197043D+00 0.34210599D+06 0.34210599D+06 0.34210599D+06 0.10803569D+01  1  2 15  4  6  5        1 -.263587743852D-02 0.100000000000D+01
-.962876101848D-03 0.000000000000D+00 0.000000000000D+00 0.114783234006D-03 0.000000000000D+00  6 3 2 25 4 1 21 2 0.92297171D-01 0.51197043D+00 0.34210599D+06 0.34210599D+06 0.34210599D+06 0.10803569D+01  1  2  4  4  6  5        1 -.109466098350D-03 0.100000000000D+01
  </mgrwgt>
  </event>
  <event>
  6     66 -.20805674E-05 0.63759538E+02 0.75467711E-02 0.93964898E-01
        3 -1    0    0  501    0 0.00000000E+00 0.00000000E+00 0.34213438E+03 0.34213474E+03 0.50000000E+00 0.0000E+00 0.9000E+01
        2 -1    0    0  502    0 -.00000000E+00 -.00000000E+00 -.17027071E+04 0.17027071E+04 0.32000000E+00 0.0000E+00 0.9000E+01
       25  1    1    2    0    0 -.49704749E+03 -.12855713E+03 -.56592672E+03 0.77426171E+03 0.12500000E+03 0.0000E+00 0.9000E+01
        4  1    1    2  503    0 0.35794573E+03 0.14699311E+03 0.25202104E+02 0.38777529E+03 0.15500000E+01 0.0000E+00 0.9000E+01
        1  1    1    2  502    0 0.69825672E+02 -.28461098E+02 -.80835699E+03 0.81186623E+03 0.32000000E+00 0.0000E+00 0.9000E+01
       21  1    1    2  501  503 0.69276081E+02 0.10025116E+02 -.11491075E+02 0.70938605E+02 0.75000000E+00 0.0000E+00 0.9000E+01
#aMCatNLO 2  0  0  4  1 0.18829575D+02 0.00000000D+00  -5  6  0 0.00000000D+00 0.00000000D+00 0.00000000D+00 0.00000000D+00 0.00000000D+00
  <mgrwgt>
 -.5084161748D-02    2    2    0
 0.763252923231741D+03 0.000000000000000D+00 0.000000000000000D+00 0.763252923231741D+03
 0.763252923231741D+03 -.000000000000000D+00 -.000000000000000D+00 -.763252923231741D+03
 0.533148651120992D+03 -.497489604168159D+03 -.128638919536115D+03 -.676653997056275D+02
 0.625311702641621D+03 0.427948313855216D+03 0.157285241204028D+03 0.427944294305264D+03
 0.368045492700871D+03 0.695412903129424D+02 -.286463216679136D+02 -.360278894599637D+03
 0.000000000000000D+00 0.000000000000000D+00 0.000000000000000D+00 0.000000000000000D+00
 0.763252923231741D+03 0.000000000000000D+00 0.000000000000000D+00 0.763252923231741D+03
 0.763252923231741D+03 -.000000000000000D+00 -.000000000000000D+00 -.763252923231741D+03
 0.532478277915208D+03 -.496905789343867D+03 -.128424348167367D+03 -.670815903648779D+02
 0.541417126414949D+03 0.357593229365743D+03 0.146883129490162D+03 0.379057955144561D+03
 0.367715864387950D+03 0.699443848441574D+02 -.284981710186003D+02 -.359875803854530D+03
 0.848945777453766D+02 0.693681751339662D+02 0.100393896958053D+02 0.478994390748467D+02
-.493823729552D-02 0.000000000000D+00 0.000000000000D+00 0.661069356947D-05 0.000000000000D+00  6 3 2 25 4 1 21 2 0.52636089D-01 0.26195496D+00 0.28113247D+06 0.28113247D+06 0.28113247D+06 0.10866452D+01  1  2 13  3  6  4        4 -.179588233747D-01 0.100000000000D+01
0.354021713364D-02 0.000000000000D+00 0.000000000000D+00 0.661069356947D-05 0.626093607579D-07  6 3 2 25 4 1 21 2 0.52636089D-01 0.26195496D+00 0.28113247D+06 0.28113247D+06 0.28113247D+06 0.10866452D+01  1  2  1  3  6  4        4 0.128746616264D-01 0.100000000000D+01
  </mgrwgt>
  </event>
  <event>
  5     66 0.20805674E-05 0.29247444E+02 0.75467711E-02 0.93672006E-01
        3 -1    0    0  501    0 0.00000000E+00 0.00000000E+00 0.27390424E+03 0.27390469E+03 0.50000000E+00 0.0000E+00 0.9000E+01
        2 -1    0    0  502    0 -.00000000E+00 -.00000000E+00 -.35305088E+04 0.35305088E+04 0.32000000E+00 0.0000E+00 0.9000E+01
       25  1    1    2    0    0 0.21337944E+03 0.45211142E+03 -.84456025E+03 0.98936472E+03 0.12500000E+03 0.0000E+00 0.9000E+01
        4  1    1    2  501    0 -.27210347E+02 -.10787886E+02 0.17835006E+03 0.18074271E+03 0.15500000E+01 0.0000E+00 0.9000E+01
        1  1    1    2  502    0 -.18616909E+03 -.44132354E+03 -.25903944E+04 0.26343061E+04 0.32000000E+00 0.0000E+00 0.9000E+01
#aMCatNLO 1  0  0  4  1 0.73015382D+01 0.00000000D+00  -5  6  0 0.00000000D+00 0.00000000D+00 0.00000000D+00 0.00000000D+00 0.00000000D+00
  <mgrwgt>
 0.1729274917D-02    6    2    0
 0.983372876927780D+03 0.000000000000000D+00 0.000000000000000D+00 0.983372876927780D+03
 0.983372876927780D+03 -.000000000000000D+00 -.000000000000000D+00 -.983372876927780D+03
 0.515703118933483D+03 0.213512989330434D+03 0.452451406409762D+03 0.496337614254037D+01
 0.644424208966275D+03 -.271886071042325D+02 -.107792669745210D+02 0.643760163530669D+03
 0.806618425955802D+03 -.186324382226202D+03 -.441672139435241D+03 -.648723539673209D+03
 0.000000000000000D+00 0.000000000000000D+00 0.000000000000000D+00 0.000000000000000D+00
 0.983372876927780D+03 0.000000000000000D+00 0.000000000000000D+00 0.983372876927780D+03
 0.983372876927780D+03 -.000000000000000D+00 -.000000000000000D+00 -.983372876927780D+03
 0.515658066987106D+03 0.213419755222383D+03 0.452414442569063D+03 0.717093331585502D+01
 0.530044694664389D+03 -.300721500269135D+02 -.477324801300486D+02 0.527033826689766D+03
 0.803914070197005D+03 -.186469972891059D+03 -.441729860694718D+03 -.645276306431089D+03
 0.117128922007060D+03 0.312236769558847D+01 0.370478982557031D+02 0.111071546425467D+03
0.104955108461D-02 0.000000000000D+00 0.000000000000D+00 0.148395170790D-03 0.000000000000D+00  6 3 2 25 4 1 21 0 0.42139150D-01 0.54315524D+00 0.26229349D+06 0.26229349D+06 0.26229349D+06 0.10888942D+01  1  2  2  3  6  4        4 0.403570050311D-03 0.100000000000D+01
0.653953002211D-03 0.000000000000D+00 -.403055251806D-05 0.148395170790D-03 0.000000000000D+00  6 3 2 25 4 1 21 2 0.42139150D-01 0.54315524D+00 0.26229349D+06 0.26229349D+06 0.26229349D+06 0.10888942D+01  1  2  3  3  6  4        4 0.298148937657D-03 0.100000000000D+01
-.673714683508D-03 0.000000000000D+00 0.000000000000D+00 0.148395170790D-03 0.000000000000D+00  6 3 2 25 4 1 21 2 0.42139150D-01 0.54315524D+00 0.26229349D+06 0.26229349D+06 0.26229349D+06 0.10888942D+01  1  2 15  3  6  4        4 -.307158643653D-03 0.100000000000D+01
-.205291801107D-03 0.000000000000D+00 0.000000000000D+00 0.148395170790D-03 0.000000000000D+00  6 3 2 25 4 1 21 2 0.42139150D-01 0.54315524D+00 0.26229349D+06 0.26229349D+06 0.26229349D+06 0.10888942D+01  1  2  4  3  6  4        4 -.935962251153D-04 0.100000000000D+01
-.158264577068D-01 0.000000000000D+00 0.000000000000D+00 0.148395170790D-03 0.000000000000D+00  6 3 2 25 4 1 21 2 0.42139150D-01 0.54315524D+00 0.26229349D+06 0.26229349D+06 0.26229349D+06 0.10888942D+01  1  2  5  3  6  4        4 -.721556677040D-02 0.100000000000D+01
0.189592816626D-01 0.000000000000D+00 -.000000000000D+00 0.148395170790D-03 0.000000000000D+00  6 3 2 25 4 1 21 2 0.42139150D-01 0.54315524D+00 0.26229349D+06 0.26229349D+06 0.26229349D+06 0.10888942D+01  1  2  6  3  6  4        4 0.864387756817D-02 0.100000000000D+01
  </mgrwgt>
  </event>
  <event>
  5     66 -.20805674E-05 0.28938541E+02 0.75467711E-02 0.91979728E-01
        3 -1    0    0  501    0 0.00000000E+00 0.00000000E+00 0.17667444E+04 0.17667445E+04 0.50000000E+00 0.0000E+00 0.9000E+01
        2 -1    0    0  502    0 0.00000000E+00 0.00000000E+00 -.10994087E+04 0.10994088E+04 0.32000000E+00 0.0000E+00 0.9000E+01
       25  1    1    2    0    0 0.48698306E+03 -.32857936E+03 0.47173967E+03 0.76372784E+03 0.12500000E+03 0.0000E+00 0.9000E+01
        4  1    1    2  501    0 -.51565405E+03 0.33238859E+03 0.10668606E+04 0.12306808E+04 0.15500000E+01 0.0000E+00 0.9000E+01
        1  1    1    2  502    0 0.28670987E+02 -.38092330E+01 -.87126462E+03 0.87174461E+03 0.32000000E+00 0.0000E+00 0.9000E+01
#aMCatNLO 1  0  0  1  4 0.23484353D+02 0.00000000D+00  -5  6  0 0.00000000D+00 0.00000000D+00 0.00000000D+00 0.00000000D+00 0.00000000D+00
  <mgrwgt>
 -.3238725442D-01    9    2    0
 0.139369093139358D+04 0.000000000000000D+00 0.000000000000000D+00 0.139369093139358D+04
 0.139369093139358D+04 0.000000000000000D+00 0.000000000000000D+00 -.139369093139358D+04
 0.672441045111561D+03 0.486756432542786D+03 -.328441308234527D+03 0.302896750682704D+03
 0.100962470158655D+04 -.515442910899660D+03 0.332252489453224D+03 0.802040477101470D+03
 0.110531611608905D+04 0.286864783568732D+02 -.381118121869707D+01 -.110493722778417D+04
 0.000000000000000D+00 -.000000000000000D+00 0.000000000000000D+00 0.000000000000000D+00
 0.151647009096421D+04 0.000000000000000D+00 0.000000000000000D+00 0.151647009096421D+04
 0.139486382976675D+04 0.000000000000000D+00 0.000000000000000D+00 -.139486382976675D+04
 0.677398371934712D+03 0.491218995577426D+03 -.331965376371636D+03 0.302896750682704D+03
 0.100451749570451D+04 -.508784165864781D+03 0.326994105195479D+03 0.802040477101470D+03
 0.110556492401040D+04 0.359956411201918D+02 -.958319774893145D+01 -.110493722778417D+04
 0.123853129081332D+03 -.184304708328368D+02 0.145544689250888D+02 0.121606261197463D+03
0.624642002269D-02 0.000000000000D+00 0.000000000000D+00 0.203231943055D-03 0.000000000000D+00  6 3 2 25 4 1 21 0 0.27180684D+00 0.16913981D+00 0.38597964D+06 0.38597964D+06 0.38597964D+06 0.10765465D+01  1  2  2  1  6  1        3 0.320487743857D-03 0.100000000000D+01
0.488605004111D-02 0.000000000000D+00 -.239878976073D-04 0.203231943055D-03 0.000000000000D+00  6 3 2 25 4 1 21 2 0.27180684D+00 0.16913981D+00 0.38597964D+06 0.38597964D+06 0.38597964D+06 0.10765465D+01  1  2  3  1  6  1        3 0.290538516134D-03 0.100000000000D+01
-.435514981974D-02 0.000000000000D+00 0.000000000000D+00 0.203231943055D-03 0.000000000000D+00  6 3 2 25 4 1 21 2 0.27180684D+00 0.16913981D+00 0.38597964D+06 0.38597964D+06 0.38597964D+06 0.10765465D+01  1  2 15  1  6  1        3 -.258969669881D-03 0.100000000000D+01
0.638418839746D+00 0.000000000000D+00 0.000000000000D+00 0.203231943055D-03 0.000000000000D+00  6 3 2 25 4 1 21 2 0.29733357D+00 0.16913981D+00 0.40414163D+06 0.40414163D+06 0.40414163D+06 0.10751053D+01  1  2 12  1  6  1        3 0.212280503858D-01 0.100000000000D+01
-.119524134188D+01 0.000000000000D+00 0.000000000000D+00 0.203231943055D-03 0.000000000000D+00  6 3 2 25 4 1 21 2 0.27180684D+00 0.16913981D+00 0.38597964D+06 0.38597964D+06 0.38597964D+06 0.10765465D+01  1  2  4  1  6  1        3 -.710724701895D-01 0.100000000000D+01
-.716187457177D+00 0.000000000000D+00 -.140180873098D-01 0.203231943055D-03 0.000000000000D+00  6 3 2 25 4 1 21 2 0.29583674D+00 0.16913981D+00 0.38597964D+06 0.38597964D+06 0.38597964D+06 0.10765465D+01  1  2  5  1  6  1        3 -.248162520959D-01 0.100000000000D+01
0.714858429360D+00 0.000000000000D+00 0.139679346835D-01 0.203231943055D-03 0.000000000000D+00  6 3 2 25 4 1 21 2 0.27180684D+00 0.16913981D+00 0.38597964D+06 0.38597964D+06 0.38597964D+06 0.10765465D+01  1  2  6  1  6  1        3 0.425075276684D-01 0.100000000000D+01
0.991060083659D-02 0.000000000000D+00 0.000000000000D+00 0.203231943055D-03 0.000000000000D+00  6 21 2 25 4 1 -3 2 0.29733357D+00 0.16913981D+00 0.40414163D+06 0.40414163D+06 0.40414163D+06 0.10751053D+01  1  2 12  5  6  1        3 0.646195419123D-02 0.100000000000D+01
-.104782096725D-01 0.000000000000D+00 -.196980326861D-03 0.203231943055D-03 0.000000000000D+00  6 21 2 25 4 1 -3 2 0.29583674D+00 0.16913981D+00 0.38597964D+06 0.38597964D+06 0.38597964D+06 0.10765465D+01  1  2  5  5  6  1        3 -.704812097299D-02 0.100000000000D+01
  </mgrwgt>
  </event>
  <event>
  5     66 -.20805674E-05 0.15531039E+03 0.75467711E-02 0.91871238E-01
        3 -1    0    0  501    0 0.00000000E+00 0.00000000E+00 0.57271061E+03 0.57271083E+03 0.50000000E+00 0.0000E+00 0.9000E+01
        2 -1    0    0  502    0 -.00000000E+00 -.00000000E+00 -.13274724E+04 0.13274725E+04 0.32000000E+00 0.0000E+00 0.9000E+01
       25  1    1    2    0    0 0.44330659E+03 -.33942241E+03 -.48440973E+02 0.57419494E+03 0.12500000E+03 0.0000E+00 0.9000E+01
        4  1    1    2  501    0 -.33220649E+03 0.44775953E+03 0.44485848E+02 0.55931310E+03 0.15500000E+01 0.0000E+00 0.9000E+01
        1  1    1    2  502    0 -.11110010E+03 -.10833712E+03 -.75080669E+03 0.76667526E+03 0.32000000E+00 0.0000E+00 0.9000E+01
#aMCatNLO 1  0  0  5  2 0.13138779D+02 0.00000000D+00  -5  6  0 0.00000000D+00 0.00000000D+00 0.00000000D+00 0.00000000D+00 0.00000000D+00
  <mgrwgt>
 -.2989159625D-02    7    2    0
 0.871927630368780D+03 0.000000000000000D+00 0.000000000000000D+00 0.871927630368780D+03
 0.871927630368780D+03 -.000000000000000D+00 -.000000000000000D+00 -.871927630368780D+03
 0.604632226281668D+03 0.443202158646413D+03 -.339055753385560D+03 0.196387809513819D+03
 0.628295586951658D+03 -.331990227393059D+03 0.447468038679647D+03 0.290362166713612D+03
 0.510927447504234D+03 -.111211931253355D+03 -.108412285294087D+03 -.486749976227431D+03
 0.000000000000000D+00 0.000000000000000D+00 0.000000000000000D+00 -.000000000000000D+00
 0.871927630368780D+03 0.000000000000000D+00 0.000000000000000D+00 0.871927630368780D+03
 0.871927630368780D+03 -.000000000000000D+00 -.000000000000000D+00 -.871927630368780D+03
 0.604549955552759D+03 0.443150969194772D+03 -.339105654195418D+03 0.196163764628627D+03
 0.628179210702731D+03 -.332043418927684D+03 0.447416186187185D+03 0.290129359154903D+03
 0.270310339537148D+03 -.702022207983234D+02 -.625404598640045D+02 -.253432473719669D+03
 0.240815754944922D+03 -.409053294687643D+02 -.457700721277624D+02 -.232860650063861D+03
0.142982976509D-04 0.000000000000D+00 0.000000000000D+00 0.431394067528D-06 0.000000000000D+00  6 3 2 25 4 1 21 0 0.88109345D-01 0.20422655D+00 0.41237977D+06 0.41237977D+06 0.41237977D+06 0.10744747D+01  1  2  2  4  6  5        1 0.227482284764D-04 0.100000000000D+01
0.179132618433D-05 0.000000000000D+00 -.549092278076D-07 0.431394067528D-06 0.000000000000D+00  6 3 2 25 4 1 21 2 0.88109345D-01 0.20422655D+00 0.41237977D+06 0.41237977D+06 0.41237977D+06 0.10744747D+01  1  2  3  4  6  5        1 0.329026041155D-05 0.100000000000D+01
-.102754628063D-04 0.000000000000D+00 0.000000000000D+00 0.431394067528D-06 0.000000000000D+00  6 3 2 25 4 1 21 2 0.88109345D-01 0.20422655D+00 0.41237977D+06 0.41237977D+06 0.41237977D+06 0.10744747D+01  1  2 15  4  6  5        1 -.188736974749D-04 0.100000000000D+01
0.103601535874D-02 0.000000000000D+00 0.000000000000D+00 0.431394067528D-06 0.000000000000D+00  6 3 2 25 4 1 21 2 0.88109345D-01 0.20422655D+00 0.41242746D+06 0.41242746D+06 0.41242746D+06 0.10744710D+01  1  2 12  4  6  5        1 0.190290325104D-02 0.100000000000D+01
-.325998963832D-02 0.000000000000D+00 0.000000000000D+00 0.431394067528D-06 0.000000000000D+00  6 3 2 25 4 1 21 2 0.88109345D-01 0.20422655D+00 0.41237977D+06 0.41237977D+06 0.41237977D+06 0.10744747D+01  1  2  4  4  6  5        1 -.598786248025D-02 0.100000000000D+01
-.105250636865D-02 0.000000000000D+00 0.000000000000D+00 0.431394067528D-06 0.000000000000D+00  6 3 2 25 4 1 21 2 0.88109345D-01 0.20422655D+00 0.41237977D+06 0.41237977D+06 0.41237977D+06 0.10744747D+01  1  2  5  4  6  5        1 -.193321577498D-02 0.100000000000D+01
0.164519503189D-02 0.000000000000D+00 -.000000000000D+00 0.431394067528D-06 0.000000000000D+00  6 3 2 25 4 1 21 2 0.88109345D-01 0.20422655D+00 0.41237977D+06 0.41237977D+06 0.41237977D+06 0.10744747D+01  1  2  6  4  6  5        1 0.302185058761D-02 0.100000000000D+01
  </mgrwgt>
  </event>
  <event>
  6     66 0.20805674E-05 0.42863950E+02 0.75467711E-02 0.92805256E-01
        3 -1    0    0  501    0 0.00000000E+00 0.00000000E+00 0.13814452E+04 0.13814453E+04 0.50000000E+00 0.0000E+00 0.9000E+01
        2 -1    0    0  502    0 0.00000000E+00 0.00000000E+00 -.59358965E+03 0.59358974E+03 0.32000000E+00 0.0000E+00 0.9000E+01
       25  1    1    2    0    0 0.48567087E+03 -.23362641E+03 0.85515374E+03 0.10185138E+04 0.12500000E+03 0.0000E+00 0.9000E+01
        4  1    1    2  501    0 -.50870677E+03 0.27372130E+03 0.25435356E+03 0.63119257E+03 0.15500000E+01 0.0000E+00 0.9000E+01
        1  1    1    2  503    0 0.23853060E+02 -.32487446E+02 -.24510212E+03 0.24839395E+03 0.32000000E+00 0.0000E+00 0.9000E+01
       21  1    1    2  502  503 -.81715901E+00 -.76074522E+01 -.76549610E+02 0.76934689E+02 0.75000000E+00 0.0000E+00 0.9000E+01
#aMCatNLO 2  0  0  5  2 0.65808291D+01 0.00000000D+00  -5  6  0 0.00000000D+00 0.00000000D+00 0.00000000D+00 0.00000000D+00 0.00000000D+00
  <mgrwgt>
 0.3489796511D-02    2    2    0
 0.905545002346481D+03 0.000000000000000D+00 0.000000000000000D+00 0.905545002346481D+03
 0.905545002346481D+03 -.000000000000000D+00 -.000000000000000D+00 -.905545002346481D+03
 0.738735105745820D+03 0.485202346814718D+03 -.233346642416187D+03 0.490135270695621D+03
 0.577177973066452D+03 -.508262867255756D+03 0.273486775082594D+03 0.287301531097685D+01
 0.495176925880692D+03 0.230605204410380D+02 -.401401326664075D+02 -.493008286006598D+03
 0.000000000000000D+00 0.000000000000000D+00 0.000000000000000D+00 -.000000000000000D+00
 0.905545002346481D+03 0.000000000000000D+00 0.000000000000000D+00 0.905545002346481D+03
 0.905545002346481D+03 -.000000000000000D+00 -.000000000000000D+00 -.905545002346481D+03
 0.738675379605279D+03 0.485206949308417D+03 -.233354653714464D+03 0.490036874497853D+03
 0.577171462839407D+03 -.508259271175955D+03 0.273480515591587D+03 0.279613512330071D+01
 0.378111113381737D+03 0.238945888162574D+02 -.325330152336268D+02 -.375950349923879D+03
 0.117132048866541D+03 -.842266948720240D+00 -.759284664349641D+01 -.116882659697275D+03
-.105113928593D-01 0.000000000000D+00 0.000000000000D+00 0.215741586822D-05 0.000000000000D+00  6 3 2 25 4 1 21 2 0.21253005D+00 0.91321498D-01 0.34685888D+06 0.34685888D+06 0.34685888D+06 0.10799191D+01  1  2 13  4  6  5        1 -.463011034235D-02 0.100000000000D+01
0.184340166010D-01 0.000000000000D+00 0.000000000000D+00 0.215741586822D-05 0.392652415440D-06  6 3 2 25 4 1 21 2 0.21253005D+00 0.91321498D-01 0.34685888D+06 0.34685888D+06 0.34685888D+06 0.10799191D+01  1  2  1  4  6  5        1 0.811990685324D-02 0.100000000000D+01
  </mgrwgt>
  </event>
  <event>
  6     66 0.20805674E-05 0.12657542E+02 0.75467711E-02 0.94769807E-01
        3 -1    0    0  501    0 0.00000000E+00 0.00000000E+00 0.23288244E+04 0.23288244E+04 0.50000000E+00 0.0000E+00 0.9000E+01
        2 -1    0    0  503    0 0.00000000E+00 0.00000000E+00 -.89903783E+03 0.89903789E+03 0.32000000E+00 0.0000E+00 0.9000E+01
       25  1    1    2    0    0 0.18085079E+02 0.45571896E+03 0.12082908E+04 0.12975355E+04 0.12500000E+03 0.0000E+00 0.9000E+01
        4  1    1    2  501    0 0.97630925E+01 0.75552587E+01 0.98838089E+03 0.98845920E+03 0.15500000E+01 0.0000E+00 0.9000E+01
        1  1    1    2  502    0 -.26528141E+02 -.48204798E+03 -.58265696E+03 0.75667909E+03 0.32000000E+00 0.0000E+00 0.9000E+01
       21  1    1    2  503  502 -.13200299E+01 0.18773764E+02 -.18422817E+03 0.18518849E+03 0.75000000E+00 0.0000E+00 0.9000E+01
#aMCatNLO 2  0  0  2  2 0.18820115D+02 0.00000000D+00  -5  6  0 0.00000000D+00 0.00000000D+00 0.00000000D+00 0.00000000D+00 0.00000000D+00
  <mgrwgt>
 0.2024299997D-01    1    2    0
 0.128961876828645D+04 0.000000000000000D+00 0.000000000000000D+00 0.128961876828645D+04
 0.128961876828645D+04 0.000000000000000D+00 0.000000000000000D+00 -.128961876828645D+04
 0.778699921242620D+03 0.177181266849661D+02 0.461669831437702D+03 0.614243927174149D+03
 0.546729066294886D+03 0.946756280140233D+01 0.115223418279201D+02 0.546525637847923D+03
 0.125380854903539D+04 -.271856894863684D+02 -.473192173265622D+03 -.116076956502207D+04
 0.000000000000000D+00 -.000000000000000D+00 0.000000000000000D+00 -.000000000000000D+00
 0.128991863600224D+04 0.000000000000000D+00 0.000000000000000D+00 0.128991863600224D+04
 0.162312563942554D+04 0.000000000000000D+00 0.000000000000000D+00 -.162312563942554D+04
 0.775369314857479D+03 0.181158005281749D+02 0.456014024042527D+03 0.614243927174149D+03
 0.546664597369875D+03 0.974735346340711D+01 0.754309571382067D+01 0.546525637847923D+03
 0.125727228649701D+04 -.265431240566711D+02 -.482330884224940D+03 -.116076956502207D+04
 0.333738076703407D+03 -.132002993491091D+01 0.187737644685926D+02 -.333207003423305D+03
0.138036544812D+01 0.000000000000D+00 0.000000000000D+00 0.745839430220D-03 0.110245940669D-04  6 3 2 25 4 1 21 2 0.35828056D+00 0.13831348D+00 0.24373414D+06 0.24373414D+06 0.24373414D+06 0.10912894D+01  1  2  1  2  6  2        2 0.202429999746D-01 0.100000000000D+01
  </mgrwgt>
  </event>
  <event>
  5     66 -.20805674E-05 0.31208026E+02 0.75467711E-02 0.94892020E-01
        3 -1    0    0  501    0 0.00000000E+00 0.00000000E+00 0.25552761E+03 0.25552810E+03 0.50000000E+00 0.0000E+00 0.9000E+01
        2 -1    0    0  502    0 -.00000000E+00 -.00000000E+00 -.14780195E+04 0.14780195E+04 0.32000000E+00 0.0000E+00 0.9000E+01
       25  1    1    2    0    0 0.14461675E+03 0.45226057E+03 -.75016514E+03 0.89656364E+03 0.12500000E+03 0.0000E+00 0.9000E+01
        4  1    1    2  501    0 -.11607826E+03 -.43972380E+03 -.10295274E+03 0.46629696E+03 0.15500000E+01 0.0000E+00 0.9000E+01
        1  1    1    2  502    0 -.28538481E+02 -.12536761E+02 -.36937402E+03 0.37068704E+03 0.32000000E+00 0.0000E+00 0.9000E+01
#aMCatNLO 1  0  0  4  1 0.61382293D+02 0.00000000D+00  -5  6  0 0.00000000D+00 0.00000000D+00 0.00000000D+00 0.00000000D+00 0.00000000D+00
  <mgrwgt>
 -.1588151617D-02    1    2    0
 0.614552883814101D+03 0.000000000000000D+00 0.000000000000000D+00 0.614552883814101D+03
 0.614552883814101D+03 -.000000000000000D+00 -.000000000000000D+00 -.614552883814101D+03
 0.518241905404985D+03 0.144627629915577D+03 0.452196469100799D+03 -.165984561075908D+03
 0.555166591444105D+03 -.116056496125525D+03 -.439641341384932D+03 0.318522094850561D+03
 0.155697270779112D+03 -.285711337900521D+02 -.125551277158671D+02 -.152537533774653D+03
 0.000000000000000D+00 0.000000000000000D+00 0.000000000000000D+00 -.000000000000000D+00
 0.614552883814101D+03 0.000000000000000D+00 0.000000000000000D+00 0.614552883814101D+03
 0.614552883814101D+03 -.000000000000000D+00 -.000000000000000D+00 -.614552883814101D+03
 0.511113755846773D+03 0.143028987040584D+03 0.446140543569517D+03 -.161597016264024D+03
 0.548289496315261D+03 -.127636609444060D+03 -.428068748065540D+03 0.317942470627736D+03
 0.154650516029114D+03 -.290531200430326D+02 -.143809719371185D+02 -.151214701566945D+03
 0.150519994370534D+02 0.136607424465086D+02 -.369082356685842D+01 -.513075279676726D+01
-.180812053419D-03 0.000000000000D+00 0.000000000000D+00 0.505544412786D-05 0.000000000000D+00  6 3 2 25 4 1 21 2 0.39311980D-01 0.22738766D+00 0.23855969D+06 0.23855969D+06 0.23855969D+06 0.10919928D+01  1  2 14  3  6  4        4 -.158815161666D-02 0.100000000000D+01
  </mgrwgt>
  </event>
  <event>
  5     66 0.20805674E-05 0.33206858E+02 0.75467711E-02 0.92113601E-01
        3 -1    0    0  501    0 0.00000000E+00 0.00000000E+00 0.51982364E+03 0.51982388E+03 0.50000000E+00 0.0000E+00 0.9000E+01
        2 -1    0    0  502    0 -.00000000E+00 -.00000000E+00 -.11425863E+04 0.11425863E+04 0.32000000E+00 0.0000E+00 0.9000E+01
       25  1    1    2    0    0 -.11496258E+03 -.47843326E+03 -.16821551E+03 0.53482356E+03 0.12500000E+03 0.0000E+00 0.9000E+01
        4  1    1    2  501    0 0.33198897E+02 0.21812517E+01 0.26157195E+03 0.26368392E+03 0.15500000E+01 0.0000E+00 0.9000E+01
        1  1    1    2  502    0 0.81763684E+02 0.47625201E+03 -.71611910E+03 0.86390274E+03 0.32000000E+00 0.0000E+00 0.9000E+01
#aMCatNLO 1  0  0  4  1 0.61382293D+02 0.00000000D+00  -5  6  0 0.00000000D+00 0.00000000D+00 0.00000000D+00 0.00000000D+00 0.00000000D+00
  <mgrwgt>
 0.3057630509D-02    4    2    0
 0.770677366619632D+03 0.000000000000000D+00 0.000000000000000D+00 0.770677366619632D+03
 0.770677366619632D+03 -.000000000000000D+00 -.000000000000000D+00 -.770677366619632D+03
 0.509361137510822D+03 -.115009212886832D+03 -.478911458663188D+03 0.352202231476141D+02
 0.389328712127851D+03 0.331354149951075D+02 0.217708074065131D+01 0.387909977545927D+03
 0.642664883600590D+03 0.818737978917247D+02 0.476734377922537D+03 -.423130200693542D+03
 0.000000000000000D+00 0.000000000000000D+00 0.000000000000000D+00 -.000000000000000D+00
 0.770677366619632D+03 0.000000000000000D+00 0.000000000000000D+00 0.770677366619632D+03
 0.770677366619632D+03 -.000000000000000D+00 -.000000000000000D+00 -.770677366619632D+03
 0.512618196419065D+03 -.111660447985839D+03 -.478691436322379D+03 0.744235745389545D+02
 0.142827731527568D+03 -.367096514506819D+02 0.122463760238689D+03 0.636772315029583D+02
 0.612804950829994D+03 0.859876514465032D+02 0.477004668526873D+03 -.374970102493565D+03
 0.273103854462636D+03 0.623824479900171D+02 -.120776992443184D+03 0.236869296451652D+03
0.188459051795D-02 0.000000000000D+00 0.000000000000D+00 0.275085396909D-04 0.000000000000D+00  6 3 2 25 4 1 21 0 0.79972890D-01 0.17578253D+00 0.26268834D+06 0.26268834D+06 0.26268834D+06 0.10888453D+01  1  2  2  3  6  4        4 0.487121764941D-02 0.100000000000D+01
0.909545403827D-03 0.000000000000D+00 -.723732381302D-05 0.275085396909D-04 0.000000000000D+00  6 3 2 25 4 1 21 2 0.79972890D-01 0.17578253D+00 0.26268834D+06 0.26268834D+06 0.26268834D+06 0.10888453D+01  1  2  3  3  6  4        4 0.278725863381D-02 0.100000000000D+01
-.141357678965D-02 0.000000000000D+00 0.000000000000D+00 0.275085396909D-04 0.000000000000D+00  6 3 2 25 4 1 21 2 0.79972890D-01 0.17578253D+00 0.26268834D+06 0.26268834D+06 0.26268834D+06 0.10888453D+01  1  2 15  3  6  4        4 -.433183884491D-02 0.100000000000D+01
-.877830328541D-04 0.000000000000D+00 0.000000000000D+00 0.275085396909D-04 0.000000000000D+00  6 3 2 25 4 1 21 2 0.79972890D-01 0.17578253D+00 0.26268834D+06 0.26268834D+06 0.26268834D+06 0.10888453D+01  1  2  4  3  6  4        4 -.269006929390D-03 0.100000000000D+01
  </mgrwgt>
  </event>
  <event>
  5     66 0.20805674E-05 0.16558978E+03 0.75467711E-02 0.94702187E-01
        3 -1    0    0  501    0 0.00000000E+00 0.00000000E+00 0.18979000E+04 0.18979001E+04 0.50000000E+00 0.0000E+00 0.9000E+01
        2 -1    0    0  502    0 0.00000000E+00 0.00000000E+00 -.46712413E+04 0.46712413E+04 0.32000000E+00 0.0000E+00 0.9000E+01
       25  1    1    2    0    0 -.45685141E+03 0.14231303E+03 0.13811863E+02 0.49475446E+03 0.12500000E+03 0.0000E+00 0.9000E+01
        4  1    1    2  501    0 0.33136566E+03 -.34335229E+02 0.16251676E+04 0.16589618E+04 0.15500000E+01 0.0000E+00 0.9000E+01
        1  1    1    2  502    0 0.12548575E+03 -.10797780E+03 -.44123207E+04 0.44154252E+04 0.32000000E+00 0.0000E+00 0.9000E+01
#aMCatNLO 1  0  0  1  2 0.30723757D+03 0.00000000D+00  -5  6  0 0.00000000D+00 0.00000000D+00 0.00000000D+00 0.00000000D+00 0.00000000D+00
  <mgrwgt>
 0.2837525606D-02    4    2    0
 0.297750724007534D+04 0.000000000000000D+00 0.000000000000000D+00 0.297750724007534D+04
 0.297750724007534D+04 0.000000000000000D+00 0.000000000000000D+00 -.297750724007534D+04
 0.552338441287279D+03 -.456858728596740D+03 0.142337897420259D+03 0.245912136314195D+03
 0.258671487694278D+04 0.331340463732038D+03 -.343326186737991D+02 0.256517613878383D+04
 0.281596116192062D+04 0.125518264864702D+03 -.108005278746460D+03 -.281108827509802D+04
 0.000000000000000D+00 -.000000000000000D+00 -.000000000000000D+00 -.000000000000000D+00
 0.323042237315940D+04 0.000000000000000D+00 0.000000000000000D+00 0.323042237315940D+04
 0.377525911044567D+04 0.000000000000000D+00 0.000000000000000D+00 -.377525911044567D+04
 0.517953327432768D+03 -.396901055718929D+03 0.186138181417095D+03 0.245912136314195D+03
 0.264621417096979D+04 0.624488796940981D+03 0.179818125200432D+03 0.256517613878383D+04
 0.284844695141130D+04 0.442838026289874D+03 0.123803178805844D+03 -.281108827509802D+04
 0.993067033791208D+03 -.670425767511926D+03 -.489759485423371D+03 -.544836737286271D+03
0.475226973058D+02 0.000000000000D+00 0.000000000000D+00 0.563222817436D-02 0.000000000000D+00  6 3 2 25 4 1 21 0 0.29198463D+00 0.71865252D+00 0.24665118D+06 0.24665118D+06 0.24665118D+06 0.10909000D+01  1  2  2  1  6  1        3 0.611577532529D-02 0.100000000000D+01
0.921816763770D+01 0.000000000000D+00 -.182499670668D+00 0.563222817436D-02 0.000000000000D+00  6 3 2 25 4 1 21 2 0.29198463D+00 0.71865252D+00 0.24665118D+06 0.24665118D+06 0.24665118D+06 0.10909000D+01  1  2  3  1  6  1        3 0.141177314060D-02 0.100000000000D+01
-.306076650894D+02 0.000000000000D+00 0.000000000000D+00 0.563222817436D-02 0.000000000000D+00  6 3 2 25 4 1 21 2 0.29198463D+00 0.71865252D+00 0.24665118D+06 0.24665118D+06 0.24665118D+06 0.10909000D+01  1  2 15  1  6  1        3 -.468759965841D-02 0.100000000000D+01
-.158222880313D-01 0.000000000000D+00 0.000000000000D+00 0.563222817436D-02 0.000000000000D+00  6 3 2 25 4 1 21 2 0.29198463D+00 0.71865252D+00 0.24665118D+06 0.24665118D+06 0.24665118D+06 0.10909000D+01  1  2  4  1  6  1        3 -.242320189254D-05 0.100000000000D+01
  </mgrwgt>
  </event>
  <event>
  5     66 0.20805674E-05 0.76405194E+02 0.75467711E-02 0.90703320E-01
        3 -1    0    0  501    0 0.00000000E+00 0.00000000E+00 0.62340798E+03 0.62340818E+03 0.50000000E+00 0.0000E+00 0.9000E+01
        2 -1    0    0  502    0 -.00000000E+00 -.00000000E+00 -.16977594E+04 0.16977594E+04 0.32000000E+00 0.0000E+00 0.9000E+01
       25  1    1    2    0    0 -.19822983E+03 0.51990286E+03 -.39590170E+02 0.57165237E+03 0.12500000E+03 0.0000E+00 0.9000E+01
        4  1    1    2  501    0 0.23397567E+03 -.45244165E+03 0.17406270E+03 0.53828272E+03 0.15500000E+01 0.0000E+00 0.9000E+01
        1  1    1    2  502    0 -.35745837E+02 -.67461211E+02 -.12088240E+04 0.12112325E+04 0.32000000E+00 0.0000E+00 0.9000E+01
#aMCatNLO 1  0  0  5  2 0.21124430D+03 0.00000000D+00  -5  6  0 0.00000000D+00 0.00000000D+00 0.00000000D+00 0.00000000D+00 0.00000000D+00
  <mgrwgt>
 0.3366574151D-02    3    2    0
 0.102878424949785D+04 0.000000000000000D+00 0.000000000000000D+00 0.102878424949785D+04
 0.102878424949785D+04 -.000000000000000D+00 -.000000000000000D+00 -.102878424949785D+04
 0.624254817676101D+03 -.198043697053255D+03 0.519644677501992D+03 0.254592184862676D+03
 0.697647178549088D+03 0.233814650792942D+03 -.452130290414632D+03 0.477095897385062D+03
 0.735666502770516D+03 -.357709537396875D+02 -.675143870873603D+02 -.731688082247738D+03
 0.000000000000000D+00 0.000000000000000D+00 0.000000000000000D+00 0.000000000000000D+00
 0.102878424949785D+04 0.000000000000000D+00 0.000000000000000D+00 0.102878424949785D+04
 0.102878424949785D+04 -.000000000000000D+00 -.000000000000000D+00 -.102878424949785D+04
 0.587721233152680D+03 -.202413603682078D+03 0.511396880425600D+03 0.165206572611097D+03
 0.639091568661333D+03 0.228994899191049D+03 -.461227128527566D+03 0.378508791428549D+03
 0.172159606366147D+03 0.117382158729255D+03 0.953614275119371D+02 0.822590847207301D+02
 0.658596090815544D+03 -.143963454238226D+03 -.145531179409972D+03 -.625974448760377D+03
0.708476151938D-02 0.000000000000D+00 0.000000000000D+00 0.196441841605D-04 0.000000000000D+00  6 3 2 25 4 1 21 0 0.95908938D-01 0.26119377D+00 0.33373431D+06 0.33373431D+06 0.33373431D+06 0.10811444D+01  1  2  2  4  6  5        1 0.581568073838D-02 0.100000000000D+01
0.235025245207D-02 0.000000000000D+00 -.272073496949D-04 0.196441841605D-04 0.000000000000D+00  6 3 2 25 4 1 21 2 0.95908938D-01 0.26119377D+00 0.33373431D+06 0.33373431D+06 0.33373431D+06 0.10811444D+01  1  2  3  4  6  5        1 0.225505560106D-02 0.100000000000D+01
-.490274772556D-02 0.000000000000D+00 0.000000000000D+00 0.196441841605D-04 0.000000000000D+00  6 3 2 25 4 1 21 2 0.95908938D-01 0.26119377D+00 0.33373431D+06 0.33373431D+06 0.33373431D+06 0.10811444D+01  1  2 15  4  6  5        1 -.470416218878D-02 0.100000000000D+01
  </mgrwgt>
  </event>
  <event>
  5     66 0.20805674E-05 0.99421881E+02 0.75467711E-02 0.92939620E-01
        3 -1    0    0  501    0 0.00000000E+00 0.00000000E+00 0.10359421E+04 0.10359423E+04 0.50000000E+00 0.0000E+00 0.9000E+01
        2 -1    0    0  502    0 0.00000000E+00 0.00000000E+00 -.14463863E+04 0.14463863E+04 0.32000000E+00 0.0000E+00 0.9000E+01
       25  1    1    2    0    0 -.48289425E+03 0.15485805E+03 -.64871116E+03 0.83283795E+03 0.12500000E+03 0.0000E+00 0.9000E+01
        4  1    1    2  501    0 0.33268396E+02 -.93713768E+02 0.86779204E+03 0.87347266E+03 0.15500000E+01 0.0000E+00 0.9000E+01
        1  1    1    2  502    0 0.44962585E+03 -.61144285E+02 -.62952502E+03 0.77601797E+03 0.32000000E+00 0.0000E+00 0.9000E+01
#aMCatNLO 1  0  0  2  5 0.83195840D+02 0.00000000D+00  -5  6  0 0.00000000D+00 0.00000000D+00 0.00000000D+00 0.00000000D+00 0.00000000D+00
  <mgrwgt>
 0.9609219263D-03    9    2    0
 0.122408034480269D+04 0.000000000000000D+00 0.000000000000000D+00 0.122408034480269D+04
 0.122408034480269D+04 0.000000000000000D+00 0.000000000000000D+00 -.122408034480269D+04
 0.735763053675410D+03 -.483172582145885D+03 0.154908269075276D+03 -.517947830566307D+03
 0.103092443732169D+04 0.332610853335686D+02 -.936931732184630D+02 0.102611913780113D+04
 0.681473198608286D+03 0.449911496812316D+03 -.612150958568134D+02 -.508171307234825D+03
 0.000000000000000D+00 -.000000000000000D+00 -.000000000000000D+00 -.000000000000000D+00
 0.122666273083011D+04 0.000000000000000D+00 0.000000000000000D+00 0.122666273083011D+04
 0.214727675809116D+04 0.000000000000000D+00 0.000000000000000D+00 -.214727675809116D+04
 0.723943841753462D+03 -.461076118283296D+03 0.166158189606248D+03 -.517947830566307D+03
 0.103108222276341D+04 0.644749240786419D+02 -.778013451172636D+02 0.102611913780113D+04
 0.694547839241324D+03 0.470741157364185D+03 -.506101399076229D+02 -.508171307234825D+03
 0.924365585163069D+03 -.741399631595313D+02 -.377467045813612D+02 -.920614027261052D+03
0.206981308073D-03 0.000000000000D+00 0.000000000000D+00 0.293796282062D-04 0.000000000000D+00  6 3 2 25 4 1 21 0 0.15937573D+00 0.22252098D+00 0.28946915D+06 0.28946915D+06 0.28946915D+06 0.10857019D+01  1  2  2  2  6  2        2 0.607090098865D-04 0.100000000000D+01
0.548649358605D-04 0.000000000000D+00 -.794862722429D-06 0.293796282062D-04 0.000000000000D+00  6 3 2 25 4 1 21 2 0.15937573D+00 0.22252098D+00 0.28946915D+06 0.28946915D+06 0.28946915D+06 0.10857019D+01  1  2  3  2  6  2        2 0.189687228798D-04 0.100000000000D+01
-.163774664201D-03 0.000000000000D+00 0.000000000000D+00 0.293796282062D-04 0.000000000000D+00  6 3 2 25 4 1 21 2 0.15937573D+00 0.22252098D+00 0.28946915D+06 0.28946915D+06 0.28946915D+06 0.10857019D+01  1  2 15  2  6  2        2 -.566226164533D-04 0.100000000000D+01
0.155035882795D-01 0.000000000000D+00 0.000000000000D+00 0.293796282062D-04 0.000000000000D+00  6 3 2 25 4 1 21 2 0.15937573D+00 0.39430041D+00 0.33842482D+06 0.33842482D+06 0.33842482D+06 0.10807006D+01  1  2 12  2  6  2        2 0.125695299715D-02 0.100000000000D+01
-.106850912037D-01 0.000000000000D+00 0.000000000000D+00 0.293796282062D-04 0.000000000000D+00  6 3 2 25 4 1 21 2 0.15937573D+00 0.22252098D+00 0.28946915D+06 0.28946915D+06 0.28946915D+06 0.10857019D+01  1  2  4  2  6  2        2 -.369420889333D-02 0.100000000000D+01
-.158361203778D-01 0.000000000000D+00 -.113424079677D-03 0.293796282062D-04 0.000000000000D+00  6 3 2 25 4 1 21 2 0.15937573D+00 0.39052874D+00 0.28946915D+06 0.28946915D+06 0.28946915D+06 0.10857019D+01  1  2  5  2  6  2        2 -.135788117519D-02 0.100000000000D+01
0.136920771481D-01 0.000000000000D+00 0.975769067832D-04 0.293796282062D-04 0.000000000000D+00  6 3 2 25 4 1 21 2 0.15937573D+00 0.22252098D+00 0.28946915D+06 0.28946915D+06 0.28946915D+06 0.10857019D+01  1  2  6  2  6  2        2 0.473382886534D-02 0.100000000000D+01
0.976418114829D-03 0.000000000000D+00 0.000000000000D+00 0.293796282062D-04 0.000000000000D+00  6 3 21 25 4 1 -2 2 0.15937573D+00 0.39430041D+00 0.33842482D+06 0.33842482D+06 0.33842482D+06 0.10807006D+01  1  2 12  6  6  2        2 0.858576014677D-05 0.100000000000D+01
-.977319128787D-03 0.000000000000D+00 -.704137547111D-05 0.293796282062D-04 0.000000000000D+00  6 3 21 25 4 1 -2 2 0.15937573D+00 0.39052874D+00 0.28946915D+06 0.28946915D+06 0.28946915D+06 0.10857019D+01  1  2  5  6  6  2        2 -.941074416725D-05 0.100000000000D+01
  </mgrwgt>
  </event>
  <event>
  5     66 0.20805674E-05 0.73277098E+02 0.75467711E-02 0.94567441E-01
        3 -1    0    0  501    0 0.00000000E+00 0.00000000E+00 0.66546061E+03 0.66546080E+03 0.50000000E+00 0.0000E+00 0.9000E+01
        2 -1    0    0  502    0 -.00000000E+00 -.00000000E+00 -.31294720E+04 0.31294720E+04 0.32000000E+00 0.0000E+00 0.9000E+01
       25  1    1    2    0    0 0.12802400E+03 0.44761963E+03 -.28821896E+03 0.56164815E+03 0.12500000E+03 0.0000E+00 0.9000E+01
        4  1    1    2  501    0 -.54791689E+02 -.44664680E+03 0.43239451E+03 0.62406963E+03 0.15500000E+01 0.0000E+00 0.9000E+01
        1  1    1    2  502    0 -.73232307E+02 -.97282843E+00 -.26081870E+04 0.26092151E+04 0.32000000E+00 0.0000E+00 0.9000E+01
#aMCatNLO 1  0  0  4  1 0.66473282D+01 0.00000000D+00  -5  6  0 0.00000000D+00 0.00000000D+00 0.00000000D+00 0.00000000D+00 0.00000000D+00
  <mgrwgt>
 0.2094477445D-01    3    2    0
 0.144310108565381D+04 0.000000000000000D+00 0.000000000000000D+00 0.144310108565381D+04
 0.144310108565381D+04 -.000000000000000D+00 -.000000000000000D+00 -.144310108565381D+04
 0.492444610544574D+03 0.128050427286165D+03 0.447524550034069D+03 0.101002770472062D+03
 0.118944543624637D+04 -.547798102348726D+02 -.446549967154244D+03 0.110107799225690D+04
 0.120431212451669D+04 -.732706170512926D+02 -.974582879824993D+00 -.120208076272896D+04
 0.000000000000000D+00 0.000000000000000D+00 0.000000000000000D+00 -.000000000000000D+00
 0.144310108565381D+04 0.000000000000000D+00 0.000000000000000D+00 0.144310108565381D+04
 0.144310108565381D+04 -.000000000000000D+00 -.000000000000000D+00 -.144310108565381D+04
 0.486315527878667D+03 0.125342413325181D+03 0.425449564010094D+03 0.155434039262148D+03
 0.406283316654024D+03 -.302016676387772D+03 0.158186605699407D+03 0.220972981046050D+03
 0.107930193274563D+04 -.795888747181084D+02 -.524792840003953D+02 -.107508334458328D+04
 0.914301394029309D+03 0.256263137780699D+03 -.531156885709106D+03 0.698676324275077D+03
0.263150248917D+00 0.000000000000D+00 0.000000000000D+00 0.505358194288D-03 0.000000000000D+00  6 3 2 25 4 1 21 0 0.10237857D+00 0.48145725D+00 0.25258152D+06 0.25258152D+06 0.25258152D+06 0.10901236D+01  1  2  2  3  6  4        4 0.278005356042D-01 0.100000000000D+01
0.945157655414D-01 0.000000000000D+00 -.101056624489D-02 0.505358194288D-03 0.000000000000D+00  6 3 2 25 4 1 21 2 0.10237857D+00 0.48145725D+00 0.25258152D+06 0.25258152D+06 0.25258152D+06 0.10901236D+01  1  2  3  3  6  4        4 0.118660216810D-01 0.100000000000D+01
-.149123580284D+00 0.000000000000D+00 0.000000000000D+00 0.505358194288D-03 0.000000000000D+00  6 3 2 25 4 1 21 2 0.10237857D+00 0.48145725D+00 0.25258152D+06 0.25258152D+06 0.25258152D+06 0.10901236D+01  1  2 15  3  6  4        4 -.187217828335D-01 0.100000000000D+01
  </mgrwgt>
  </event>
  <event>
  5     66 0.20805674E-05 0.48626822E+02 0.75467711E-02 0.95563109E-01
        3 -1    0    0  501    0 0.00000000E+00 0.00000000E+00 0.55516613E+03 0.55516635E+03 0.50000000E+00 0.0000E+00 0.9000E+01
        2 -1    0    0  502    0 0.00000000E+00 0.00000000E+00 -.31547711E+04 0.31547712E+04 0.32000000E+00 0.0000E+00 0.9000E+01
       25  1    1    2    0    0 -.82504126E+02 0.44262757E+03 -.38270262E+03 0.60399701E+03 0.12500000E+03 0.0000E+00 0.9000E+01
        4  1    1    2  501    0 -.58546581E+01 -.48289182E+02 0.42779089E+03 0.43055031E+03 0.15500000E+01 0.0000E+00 0.9000E+01
        1  1    1    2  502    0 0.88358784E+02 -.39433839E+03 -.26446933E+04 0.26753902E+04 0.32000000E+00 0.0000E+00 0.9000E+01
#aMCatNLO 1  0  0  2  1 0.23831679D+01 0.00000000D+00  -5  6  0 0.00000000D+00 0.00000000D+00 0.00000000D+00 0.00000000D+00 0.00000000D+00
  <mgrwgt>
 0.2390244766D-01   10    2    0
 0.132341321170137D+04 0.000000000000000D+00 0.000000000000000D+00 0.132341321170137D+04
 0.132341321170137D+04 0.000000000000000D+00 0.000000000000000D+00 -.132341321170137D+04
 0.470973056766616D+03 -.825560565265300D+02 0.442842961155548D+03 0.571421865688075D+02
 0.102330432367073D+04 -.585273483732102D+01 -.482733190091957D+02 0.102214831165051D+04
 0.115254904296538D+04 0.884087913638510D+02 -.394569642146353D+03 -.107929049821931D+04
 0.000000000000000D+00 0.000000000000000D+00 -.000000000000000D+00 -.000000000000000D+00
 0.132358812452572D+04 0.000000000000000D+00 0.000000000000000D+00 0.132358812452572D+04
 0.133155632089293D+04 0.000000000000000D+00 0.000000000000000D+00 -.133155632089293D+04
 0.471372015372703D+03 -.827087182775044D+02 0.443238779115221D+03 0.571421865688075D+02
 0.102326608179462D+04 -.618428325926086D+01 -.474136877062186D+02 0.102214831165051D+04
 0.115218939912184D+04 0.880354192133414D+02 -.393601571219156D+03 -.107929049821931D+04
 0.831694912949149D+01 0.857582323423877D+00 -.222352018984631D+01 -.796819636721172D+01
0.698611925492D-02 0.000000000000D+00 0.000000000000D+00 0.109328147671D-02 0.000000000000D+00  6 3 2 25 4 1 21 0 0.85410192D-01 0.48534942D+00 0.21181787D+06 0.21181787D+06 0.21181787D+06 0.10959156D+01  1  2  2  2  6  2        2 0.110617277423D-02 0.100000000000D+01
0.315080143154D-02 0.000000000000D+00 -.268285374263D-04 0.109328147671D-02 0.000000000000D+00  6 3 2 25 4 1 21 2 0.85410192D-01 0.48534942D+00 0.21181787D+06 0.21181787D+06 0.21181787D+06 0.10959156D+01  1  2  3  2  6  2        2 0.599186793777D-03 0.100000000000D+01
-.428738410754D-02 0.000000000000D+00 0.000000000000D+00 0.109328147671D-02 0.000000000000D+00  6 3 2 25 4 1 21 2 0.85410192D-01 0.48534942D+00 0.21181787D+06 0.21181787D+06 0.21181787D+06 0.10959156D+01  1  2 15  2  6  2        2 -.815330319254D-03 0.100000000000D+01
-.121928766871D+01 0.000000000000D+00 0.000000000000D+00 0.109328147671D-02 0.000000000000D+00  6 3 2 25 4 1 21 2 0.85410192D-01 0.48534942D+00 0.21181787D+06 0.21181787D+06 0.21181787D+06 0.10959156D+01  1  2  4  2  6  2        2 -.231871504688D+00 0.100000000000D+01
-.473149829030D+01 0.000000000000D+00 -.152523533596D+00 0.109328147671D-02 0.000000000000D+00  6 3 2 25 4 1 21 2 0.85410192D-01 0.48835243D+00 0.21181787D+06 0.21181787D+06 0.21181787D+06 0.10959156D+01  1  2  5  2  6  2        2 -.873797068282D+00 0.100000000000D+01
0.473235196856D+01 0.000000000000D+00 0.152520632084D+00 0.109328147671D-02 0.000000000000D+00  6 3 2 25 4 1 21 2 0.85410192D-01 0.48534942D+00 0.21181787D+06 0.21181787D+06 0.21181787D+06 0.10959156D+01  1  2  6  2  6  2        2 0.899949699996D+00 0.100000000000D+01
0.123915470799D+01 0.000000000000D+00 0.000000000000D+00 0.109328147671D-02 0.233430309134D-01  6 3 2 25 4 1 21 2 0.85421481D-01 0.48833583D+00 0.21225409D+06 0.21225409D+06 0.21225409D+06 0.10958474D+01  1  2 11  2  6  2        2 0.228742854515D+00 0.100000000000D+01
0.155597536735D-04 0.000000000000D+00 0.000000000000D+00 0.109328147671D-02 0.000000000000D+00  6 3 21 25 4 1 -2 2 0.85410192D-01 0.48949526D+00 0.21225409D+06 0.21225409D+06 0.21225409D+06 0.10958474D+01  1  2 12  6  6  2        2 0.154835397882D-06 0.100000000000D+01
-.542982585522D-02 0.000000000000D+00 -.174779747499D-03 0.109328147671D-02 0.000000000000D+00  6 3 21 25 4 1 -2 2 0.85410192D-01 0.48835243D+00 0.21181787D+06 0.21181787D+06 0.21181787D+06 0.10959156D+01  1  2  5  6  6  2        2 -.551749880264D-04 0.100000000000D+01
0.427846030062D-02 0.000000000000D+00 0.000000000000D+00 0.109328147671D-02 0.143381484914D-05  6 3 21 25 4 1 -2 2 0.85421481D-01 0.48833583D+00 0.21225409D+06 0.21225409D+06 0.21225409D+06 0.10958474D+01  1  2 11  6  6  2        2 0.434570210953D-04 0.100000000000D+01
  </mgrwgt>
  </event>
  <event>
  5     66 0.20805674E-05 0.34045130E+02 0.75467711E-02 0.93835081E-01
        3 -1    0    0  501    0 0.00000000E+00 0.00000000E+00 0.36300166E+03 0.36300200E+03 0.50000000E+00 0.0000E+00 0.9000E+01
        2 -1    0    0  502    0 0.00000000E+00 0.00000000E+00 -.12974788E+04 0.12974788E+04 0.32000000E+00 0.0000E+00 0.9000E+01
       25  1    1    2    0    0 0.30120854E+03 0.41288175E+03 -.63253432E+02 0.52992822E+03 0.12500000E+03 0.0000E+00 0.9000E+01
        4  1    1    2  501    0 -.23312593E+02 -.25222311E+02 0.68536336E+02 0.76676423E+02 0.15500000E+01 0.0000E+00 0.9000E+01
        1  1    1    2  502    0 -.27789594E+03 -.38765944E+03 -.93976001E+03 0.10538762E+04 0.32000000E+00 0.0000E+00 0.9000E+01
#aMCatNLO 1  0  0  2  5 0.30609788D+02 0.00000000D+00  -5  6  0 0.00000000D+00 0.00000000D+00 0.00000000D+00 0.00000000D+00 0.00000000D+00
  <mgrwgt>
 0.3850317954D-02    9    2    0
 0.686285118610641D+03 0.000000000000000D+00 0.000000000000000D+00 0.686285118610641D+03
 0.686285118610641D+03 0.000000000000000D+00 0.000000000000000D+00 -.686285118610641D+03
 0.598827142849567D+03 0.301368217404390D+03 0.413154245583658D+03 0.285393962634241D+03
 0.138191651268699D+03 -.231084316096099D+02 -.250014252205976D+02 0.133932302324169D+03
 0.635551443103016D+03 -.278259785794781D+03 -.388152820363060D+03 -.419326264958410D+03
 0.000000000000000D+00 0.000000000000000D+00 0.000000000000000D+00 -.000000000000000D+00
 0.689684822076989D+03 0.000000000000000D+00 0.000000000000000D+00 0.689684822076989D+03
 0.758996765816657D+03 0.000000000000000D+00 0.000000000000000D+00 -.758996765816657D+03
 0.588439402299309D+03 0.298253152920474D+03 0.400288986912318D+03 0.285393962634241D+03
 0.138889186381637D+03 -.238354163630041D+02 -.280038821362821D+02 0.133932302324169D+03
 0.645582921655306D+03 -.281621133905775D+03 -.402035233762734D+03 -.419326264958410D+03
 0.757700775573947D+02 0.720339734830462D+01 0.297501289866975D+02 -.693119437396680D+02
0.561019561315D-04 0.000000000000D+00 0.000000000000D+00 0.433947388285D-05 0.000000000000D+00  6 3 2 25 4 1 21 0 0.55846439D-01 0.19961215D+00 0.26940195D+06 0.26940195D+06 0.26940195D+06 0.10880255D+01  1  2  2  2  6  2        2 0.256148498996D-03 0.100000000000D+01
0.160785997873D-04 0.000000000000D+00 -.215446283529D-06 0.433947388285D-05 0.000000000000D+00  6 3 2 25 4 1 21 2 0.55846439D-01 0.19961215D+00 0.26940195D+06 0.26940195D+06 0.26940195D+06 0.10880255D+01  1  2  3  2  6  2        2 0.869040790167D-04 0.100000000000D+01
-.387455032095D-04 0.000000000000D+00 0.000000000000D+00 0.433947388285D-05 0.000000000000D+00  6 3 2 25 4 1 21 2 0.55846439D-01 0.19961215D+00 0.26940195D+06 0.26940195D+06 0.26940195D+06 0.10880255D+01  1  2 15  2  6  2        2 -.209417630702D-03 0.100000000000D+01
0.115942687293D-02 0.000000000000D+00 0.000000000000D+00 0.433947388285D-05 0.000000000000D+00  6 3 2 25 4 1 21 2 0.55846439D-01 0.22395508D+00 0.28774715D+06 0.28774715D+06 0.28774715D+06 0.10858943D+01  1  2 12  2  6  2        2 0.508141307148D-02 0.100000000000D+01
-.533363625079D-03 0.000000000000D+00 0.000000000000D+00 0.433947388285D-05 0.000000000000D+00  6 3 2 25 4 1 21 2 0.55846439D-01 0.19961215D+00 0.26940195D+06 0.26940195D+06 0.26940195D+06 0.10880255D+01  1  2  4  2  6  2        2 -.288280542036D-02 0.100000000000D+01
-.168997811816D-02 0.000000000000D+00 -.120698235437D-03 0.433947388285D-05 0.000000000000D+00  6 3 2 25 4 1 21 2 0.55846439D-01 0.22119124D+00 0.26940195D+06 0.26940195D+06 0.26940195D+06 0.10880255D+01  1  2  5  2  6  2        2 -.762533903784D-02 0.100000000000D+01
0.169406779686D-02 0.000000000000D+00 0.120065097472D-03 0.433947388285D-05 0.000000000000D+00  6 3 2 25 4 1 21 2 0.55846439D-01 0.19961215D+00 0.26940195D+06 0.26940195D+06 0.26940195D+06 0.10880255D+01  1  2  6  2  6  2        2 0.915635712224D-02 0.100000000000D+01
0.212336687932D-04 0.000000000000D+00 0.000000000000D+00 0.433947388285D-05 0.000000000000D+00  6 3 21 25 4 1 -2 2 0.55846439D-01 0.22395508D+00 0.28774715D+06 0.28774715D+06 0.28774715D+06 0.10858943D+01  1  2 12  6  6  2        2 0.344515989611D-04 0.100000000000D+01
-.276575621327D-04 0.000000000000D+00 -.200515727191D-05 0.433947388285D-05 0.000000000000D+00  6 3 21 25 4 1 -2 2 0.55846439D-01 0.22119124D+00 0.26940195D+06 0.26940195D+06 0.26940195D+06 0.10880255D+01  1  2  5  6  6  2        2 -.473943274265D-04 0.100000000000D+01
  </mgrwgt>
  </event>
  <event>
  5     66 0.20805674E-05 0.19220970E+02 0.75467711E-02 0.94415958E-01
        3 -1    0    0  501    0 0.00000000E+00 0.00000000E+00 0.50172681E+03 0.50172706E+03 0.50000000E+00 0.0000E+00 0.9000E+01
        2 -1    0    0  502    0 -.00000000E+00 -.00000000E+00 -.88384534E+03 0.88384540E+03 0.32000000E+00 0.0000E+00 0.9000E+01
       25  1    1    2    0    0 0.49803739E+03 -.16269120E+02 -.25660444E+03 0.57426193E+03 0.12500000E+03 0.0000E+00 0.9000E+01
        4  1    1    2  501    0 -.48502272E+03 0.30384370E+02 0.17024178E+03 0.51493195E+03 0.15500000E+01 0.0000E+00 0.9000E+01
        1  1    1    2  502    0 -.13014673E+02 -.14115250E+02 -.29575587E+03 0.29637858E+03 0.32000000E+00 0.0000E+00 0.9000E+01
#aMCatNLO 1  0  0  4  5 0.36761611D+02 0.00000000D+00  -5  6  0 0.00000000D+00 0.00000000D+00 0.00000000D+00 0.00000000D+00 0.00000000D+00
  <mgrwgt>
 0.4384998640D-02    6    2    0
 0.665919749684874D+03 0.000000000000000D+00 0.000000000000000D+00 0.665919749684874D+03
 0.665919749684874D+03 -.000000000000000D+00 -.000000000000000D+00 -.665919749684874D+03
 0.523621712205319D+03 0.497928428293285D+03 -.162462952876786D+02 -.101774435295091D+03
 0.584399131157873D+03 -.484898439648961D+03 0.303765844839556D+02 0.324766240300879D+03
 0.223818656006557D+03 -.130299886443238D+02 -.141302891962770D+02 -.222991805005789D+03
 0.000000000000000D+00 0.000000000000000D+00 0.000000000000000D+00 0.000000000000000D+00
 0.665919749684874D+03 0.000000000000000D+00 0.000000000000000D+00 0.665919749684874D+03
 0.665919749684874D+03 -.000000000000000D+00 -.000000000000000D+00 -.665919749684874D+03
 0.466759206238519D+03 0.444640742612628D+03 -.129080748405169D+02 -.660844022535930D+02
 0.431889505717890D+03 -.370928003073861D+03 -.158447815382266D+03 0.154386694651671D+03
 0.210881715866021D+03 -.364191476539785D+02 -.126650694583463D+02 -.207326649966593D+03
 0.222309071547318D+03 -.372935918847881D+02 0.184020959681130D+03 0.119024357568515D+03
0.106071537035D-02 0.000000000000D+00 0.000000000000D+00 0.123667779928D-04 0.000000000000D+00  6 3 2 25 4 1 21 0 0.77188763D-01 0.13597623D+00 0.25944032D+06 0.25944032D+06 0.25944032D+06 0.10892502D+01  1  2  2  3  6  4        4 0.429301968475D-02 0.100000000000D+01
0.600964584583D-03 0.000000000000D+00 -.407342631490D-05 0.123667779928D-04 0.000000000000D+00  6 3 2 25 4 1 21 2 0.77188763D-01 0.13597623D+00 0.25944032D+06 0.25944032D+06 0.25944032D+06 0.10892502D+01  1  2  3  3  6  4        4 0.288581286947D-02 0.100000000000D+01
-.734341191070D-03 0.000000000000D+00 0.000000000000D+00 0.123667779928D-04 0.000000000000D+00  6 3 2 25 4 1 21 2 0.77188763D-01 0.13597623D+00 0.25944032D+06 0.25944032D+06 0.25944032D+06 0.10892502D+01  1  2 15  3  6  4        4 -.352628310242D-02 0.100000000000D+01
-.101170011040D-03 0.000000000000D+00 0.000000000000D+00 0.123667779928D-04 0.000000000000D+00  6 3 2 25 4 1 21 2 0.77188763D-01 0.13597623D+00 0.25944032D+06 0.25944032D+06 0.25944032D+06 0.10892502D+01  1  2  4  3  6  4        4 -.485815183377D-03 0.100000000000D+01
-.569865188420D-03 0.000000000000D+00 0.000000000000D+00 0.123667779928D-04 0.000000000000D+00  6 3 2 25 4 1 21 2 0.77188763D-01 0.13597623D+00 0.25944032D+06 0.25944032D+06 0.25944032D+06 0.10892502D+01  1  2  5  3  6  4        4 -.273647455573D-02 0.100000000000D+01
0.823566233876D-03 0.000000000000D+00 -.000000000000D+00 0.123667779928D-04 0.000000000000D+00  6 3 2 25 4 1 21 2 0.77188763D-01 0.13597623D+00 0.25944032D+06 0.25944032D+06 0.25944032D+06 0.10892502D+01  1  2  6  3  6  4        4 0.395473892730D-02 0.100000000000D+01
  </mgrwgt>
  </event>
  <event>
  6     66 0.20805674E-05 0.13207836E+03 0.75467711E-02 0.93677144E-01
        3 -1    0    0  501    0 0.00000000E+00 0.00000000E+00 0.43255403E+03 0.43255431E+03 0.50000000E+00 0.0000E+00 0.9000E+01
        2 -1    0    0  502    0 -.00000000E+00 -.00000000E+00 -.31794802E+04 0.31794802E+04 0.32000000E+00 0.0000E+00 0.9000E+01
       25  1    1    2    0    0 0.50599650E+03 -.90910769E+02 -.16554055E+04 0.17378980E+04 0.12500000E+03 0.0000E+00 0.9000E+01
        4  1    1    2  501    0 -.38498221E+03 0.72680835E+02 0.28684174E+03 0.48556606E+03 0.15500000E+01 0.0000E+00 0.9000E+01
        1  1    1    2  503    0 -.14331686E+03 0.10995913E+02 -.11307370E+04 0.11398364E+04 0.32000000E+00 0.0000E+00 0.9000E+01
       21  1    1    2  502  503 0.22302573E+02 0.72340213E+01 -.24762542E+03 0.24873409E+03 0.75000000E+00 0.0000E+00 0.9000E+01
#aMCatNLO 2  0  0  5  4 0.43278645D+02 0.00000000D+00  -5  6  0 0.00000000D+00 0.00000000D+00 0.00000000D+00 0.00000000D+00 0.00000000D+00
  <mgrwgt>
 0.7626364894D-03    2    2    0
 0.117273079719520D+04 0.000000000000000D+00 0.000000000000000D+00 0.117273079719520D+04
 0.117273079719520D+04 -.000000000000000D+00 -.000000000000000D+00 -.117273079719520D+04
 0.735434438778775D+03 0.506985911274109D+03 -.910594845408776D+02 -.509815917549229D+03
 0.108853879363564D+04 -.383555269786435D+03 0.724651581203888D+02 0.101614509846152D+04
 0.521488361975989D+03 -.123430641487674D+03 0.185943264204888D+02 -.506329180912289D+03
 0.000000000000000D+00 0.000000000000000D+00 0.000000000000000D+00 -.000000000000000D+00
 0.117273079719520D+04 0.000000000000000D+00 0.000000000000000D+00 0.117273079719520D+04
 0.117273079719520D+04 -.000000000000000D+00 -.000000000000000D+00 -.117273079719520D+04
 0.737485258916979D+03 0.506029490999770D+03 -.909154036986986D+02 -.513739282835818D+03
 0.108365409091560D+04 -.384965753547233D+03 0.726776417884875D+02 0.101035910335781D+04
 0.431108159406504D+03 -.143398184808496D+03 0.109907031102095D+02 -.406411626489247D+03
 0.932140851513136D+02 0.223344473559595D+02 0.724705880000152D+01 -.902081940327459D+02
-.293657742294D-03 0.000000000000D+00 0.000000000000D+00 0.260348428848D-04 0.000000000000D+00  6 3 2 25 4 1 21 2 0.66546797D-01 0.48915083D+00 0.27311738D+06 0.27311738D+06 0.27311738D+06 0.10875813D+01  1  2  8  4  6  5        1 -.903772571963D-04 0.100000000000D+01
0.280212616572D-02 0.000000000000D+00 0.000000000000D+00 0.260348428848D-04 0.299973197893D-07  6 3 2 25 4 1 21 2 0.66546797D-01 0.48915083D+00 0.29603107D+06 0.29603107D+06 0.29603107D+06 0.10849800D+01  1  2  1  4  6  5        1 0.853013746630D-03 0.100000000000D+01
  </mgrwgt>
  </event>
  <event>
  6     66 0.20805674E-05 0.10014861E+03 0.75467711E-02 0.94908029E-01
        3 -1    0    0  501    0 0.00000000E+00 0.00000000E+00 0.66900222E+03 0.66900241E+03 0.50000000E+00 0.0000E+00 0.9000E+01
        2 -1    0    0  502    0 -.00000000E+00 -.00000000E+00 -.26629705E+04 0.26629705E+04 0.32000000E+00 0.0000E+00 0.9000E+01
       25  1    1    2    0    0 0.11900024E+03 -.45662458E+03 0.48184127E+03 0.68590311E+03 0.12500000E+03 0.0000E+00 0.9000E+01
        4  1    1    2  501    0 -.11718145E+02 0.57800928E+01 0.58388617E+02 0.59852799E+02 0.15500000E+01 0.0000E+00 0.9000E+01
        1  1    1    2  503    0 0.17220082E+02 0.10552526E+03 -.23868602E+03 0.26154011E+03 0.32000000E+00 0.0000E+00 0.9000E+01
       21  1    1    2  502  503 -.12450218E+03 0.34531924E+03 -.22955121E+04 0.23246769E+04 0.75000000E+00 0.0000E+00 0.9000E+01
#aMCatNLO 2  0  0  5  1 0.16374980D+03 0.00000000D+00  -5  6  0 0.00000000D+00 0.00000000D+00 0.00000000D+00 0.00000000D+00 0.00000000D+00
  <mgrwgt>
 0.1988561591D-02    1    2    0
 0.133474098794287D+04 0.000000000000000D+00 0.000000000000000D+00 0.133474098794287D+04
 0.133474098794287D+04 -.000000000000000D+00 -.000000000000000D+00 -.133474098794287D+04
 0.122623929946610D+04 0.119659557090890D+03 -.459886983722837D+03 0.112348714819273D+04
 0.117698237026190D+03 -.115105454792025D+02 0.541806535098376D+01 0.117008661686633D+03
 0.132554443939346D+04 -.108149011611687D+03 0.454468918371854D+03 -.124049580987936D+04
 0.000000000000000D+00 0.000000000000000D+00 0.000000000000000D+00 -.000000000000000D+00
 0.133474098794287D+04 0.000000000000000D+00 0.000000000000000D+00 0.133474098794287D+04
 0.133474098794287D+04 -.000000000000000D+00 -.000000000000000D+00 -.133474098794287D+04
 0.121738195996019D+04 0.118932481859000D+03 -.456831633615723D+03 0.111514741613983D+04
 0.116923088013670D+03 -.115803547238437D+02 0.571142107778737D+01 0.116207932450390D+03
 0.147679056168340D+03 0.171656897681839D+02 0.105213612497394D+03 -.102198524797586D+03
 0.118749787174355D+04 -.124517816903340D+03 0.345906600040542D+03 -.112915682379264D+04
0.818573615444D-02 0.000000000000D+00 0.000000000000D+00 0.141455853061D-03 0.125029931173D-07  6 3 2 25 4 1 21 2 0.10292343D+00 0.40968778D+00 0.23789106D+06 0.23789106D+06 0.23789106D+06 0.10920849D+01  1  2  1  4  6  5        1 0.198856159069D-02 0.100000000000D+01
  </mgrwgt>
  </event>
  <event>
  5     66 -.20805674E-05 0.78512311E+02 0.75467711E-02 0.92629315E-01
        3 -1    0    0  501    0 0.00000000E+00 0.00000000E+00 0.12400658E+03 0.12400759E+03 0.50000000E+00 0.0000E+00 0.9000E+01
        2 -1    0    0  502    0 0.00000000E+00 0.00000000E+00 -.22823668E+04 0.22823668E+04 0.32000000E+00 0.0000E+00 0.9000E+01
       25  1    1    2    0    0 0.39345638E+02 0.46604472E+03 -.71493478E+03 0.86342487E+03 0.12500000E+03 0.0000E+00 0.9000E+01
        4  1    1    2  501    0 -.32938618E+02 -.72198528E+02 -.47469034E+02 0.92484008E+02 0.15500000E+01 0.0000E+00 0.9000E+01
        1  1    1    2  502    0 -.64070194E+01 -.39384619E+03 -.13959564E+04 0.14504655E+04 0.32000000E+00 0.0000E+00 0.9000E+01
#aMCatNLO 1  0  0  1  2 0.22927533D+03 0.00000000D+00  -5  6  0 0.00000000D+00 0.00000000D+00 0.00000000D+00 0.00000000D+00 0.00000000D+00
  <mgrwgt>
 -.9405746856D-03    5    2    0
 0.532005391577121D+03 0.000000000000000D+00 0.000000000000000D+00 0.532005391577121D+03
 0.532005391577121D+03 0.000000000000000D+00 0.000000000000000D+00 -.532005391577121D+03
 0.502816377531321D+03 0.391114506535453D+02 0.466099379372444D+03 0.135723883270844D+03
 0.111658558334339D+03 -.325878939475158D+02 -.714297708745022D+02 0.793942734092621D+02
 0.449535847288581D+03 -.652355670602953D+01 -.394669608497942D+03 -.215118156680106D+03
 0.000000000000000D+00 -.000000000000000D+00 -.000000000000000D+00 0.000000000000000D+00
 0.251439561547719D+04 0.000000000000000D+00 0.000000000000000D+00 0.251439561547719D+04
 0.550886792168829D+03 0.000000000000000D+00 0.000000000000000D+00 -.550886792168829D+03
 0.598718731812036D+03 0.111302753819179D+03 0.558596316068019D+03 0.135723883270844D+03
 0.977672739777581D+02 -.188627538018055D+02 -.538440872322099D+02 0.793942734092621D+02
 0.391946869014586D+03 0.486246935549138D+02 -.324009515251606D+03 -.215118156680106D+03
 0.197684953284164D+04 -.141064693572287D+03 -.180742713584203D+03 0.196350882330836D+04
0.229645249584D-04 0.000000000000D+00 0.000000000000D+00 0.101446179497D-06 0.000000000000D+00  6 3 2 25 4 1 21 0 0.19078015D-01 0.35113343D+00 0.22914795D+06 0.22914795D+06 0.22914795D+06 0.10933161D+01  1  2  2  1  6  1        3 0.234375154139D-03 0.100000000000D+01
0.259169452287D-05 0.000000000000D+00 -.881898225384D-07 0.101446179497D-06 0.000000000000D+00  6 3 2 25 4 1 21 2 0.19078015D-01 0.35113343D+00 0.22914795D+06 0.22914795D+06 0.22914795D+06 0.10933161D+01  1  2  3  1  6  1        3 0.316176339283D-04 0.100000000000D+01
-.141617304677D-04 0.000000000000D+00 0.000000000000D+00 0.101446179497D-06 0.000000000000D+00  6 3 2 25 4 1 21 2 0.19078015D-01 0.35113343D+00 0.22914795D+06 0.22914795D+06 0.22914795D+06 0.10933161D+01  1  2 15  1  6  1        3 -.172767432955D-03 0.100000000000D+01
-.536101262093D-03 0.000000000000D+00 -.177171729307D-04 0.101446179497D-06 0.000000000000D+00  6 3 2 25 4 1 21 2 0.91131926D-01 0.35113343D+00 0.22914795D+06 0.22914795D+06 0.22914795D+06 0.10933161D+01  1  2  5  1  6  1        3 -.289716497454D-03 0.100000000000D+01
-.102218244727D-03 0.000000000000D+00 -.336655281908D-05 0.101446179497D-06 0.000000000000D+00  6 21 2 25 4 1 -3 2 0.91131926D-01 0.35113343D+00 0.22914795D+06 0.22914795D+06 0.22914795D+06 0.10933161D+01  1  2  5  5  6  1        3 -.744083543304D-03 0.100000000000D+01
  </mgrwgt>
  </event>
  <event>
  5     66 -.20805674E-05 0.17340329E+03 0.75467711E-02 0.93288995E-01
        3 -1    0    0  501    0 0.00000000E+00 0.00000000E+00 0.77246161E+03 0.77246177E+03 0.50000000E+00 0.0000E+00 0.9000E+01
        2 -1    0    0  502    0 -.00000000E+00 -.00000000E+00 -.10077428E+04 0.10077429E+04 0.32000000E+00 0.0000E+00 0.9000E+01
       25  1    1    2    0    0 -.16689454E+03 0.42780181E+03 0.31695431E+03 0.57179823E+03 0.12500000E+03 0.0000E+00 0.9000E+01
        4  1    1    2  501    0 0.82789944E+00 -.47720067E+03 0.13800071E+03 0.49675725E+03 0.15500000E+01 0.0000E+00 0.9000E+01
        1  1    1    2  502    0 0.16606664E+03 0.49398855E+02 -.69023623E+03 0.71164916E+03 0.32000000E+00 0.0000E+00 0.9000E+01
#aMCatNLO 1  0  0  5  2 0.11529128D+02 0.00000000D+00  -5  6  0 0.00000000D+00 0.00000000D+00 0.00000000D+00 0.00000000D+00 0.00000000D+00
  <mgrwgt>
 -.5270506222D-02    7    2    0
 0.882294069183210D+03 0.000000000000000D+00 0.000000000000000D+00 0.882294069183210D+03
 0.882294069183210D+03 -.000000000000000D+00 -.000000000000000D+00 -.882294069183210D+03
 0.619225400123187D+03 -.167038989113971D+03 0.427213544007965D+03 0.396738780672696D+03
 0.518933095989345D+03 0.826913994446839D+00 -.476632654272701D+03 0.205212541544838D+03
 0.626429642253889D+03 0.166212075119525D+03 0.494191102647365D+02 -.601951322217535D+03
 0.000000000000000D+00 0.000000000000000D+00 0.000000000000000D+00 -.000000000000000D+00
 0.882294069183210D+03 0.000000000000000D+00 0.000000000000000D+00 0.882294069183210D+03
 0.882294069183210D+03 -.000000000000000D+00 -.000000000000000D+00 -.882294069183210D+03
 0.619036949802512D+03 -.166959955673233D+03 0.427237042675674D+03 0.396452554271169D+03
 0.518820300914459D+03 0.893149733262656D+00 -.476612960689803D+03 0.204972663121267D+03
 0.534625493606996D+03 0.152067814180961D+03 0.374834141663693D+02 -.511170022563120D+03
 0.921053940424531D+02 0.139989917590098D+02 0.118925038477603D+02 -.902551948293157D+02
0.277416235549D-04 0.000000000000D+00 0.000000000000D+00 0.477353388692D-06 0.000000000000D+00  6 3 2 25 4 1 21 0 0.11884026D+00 0.15503737D+00 0.31667162D+06 0.31667162D+06 0.31667162D+06 0.10828184D+01  1  2  2  4  6  5        1 0.331065394350D-04 0.100000000000D+01
0.270992692639D-05 0.000000000000D+00 -.106535138988D-06 0.477353388692D-06 0.000000000000D+00  6 3 2 25 4 1 21 2 0.11884026D+00 0.15503737D+00 0.31667162D+06 0.31667162D+06 0.31667162D+06 0.10828184D+01  1  2  3  4  6  5        1 0.379184646203D-05 0.100000000000D+01
-.215906381661D-04 0.000000000000D+00 0.000000000000D+00 0.477353388692D-06 0.000000000000D+00  6 3 2 25 4 1 21 2 0.11884026D+00 0.15503737D+00 0.31667162D+06 0.31667162D+06 0.31667162D+06 0.10828184D+01  1  2 15  4  6  5        1 -.302105507517D-04 0.100000000000D+01
0.399554843135D-02 0.000000000000D+00 0.000000000000D+00 0.477353388692D-06 0.000000000000D+00  6 3 2 25 4 1 21 2 0.11884026D+00 0.15503737D+00 0.31754919D+06 0.31754919D+06 0.31754919D+06 0.10827299D+01  1  2 12  4  6  5        1 0.558915436784D-02 0.100000000000D+01
-.845301463794D-02 0.000000000000D+00 0.000000000000D+00 0.477353388692D-06 0.000000000000D+00  6 3 2 25 4 1 21 2 0.11884026D+00 0.15503737D+00 0.31667162D+06 0.31667162D+06 0.31667162D+06 0.10828184D+01  1  2  4  4  6  5        1 -.118278221218D-01 0.100000000000D+01
-.435707699994D-02 0.000000000000D+00 0.000000000000D+00 0.477353388692D-06 0.000000000000D+00  6 3 2 25 4 1 21 2 0.11884026D+00 0.15503737D+00 0.31667162D+06 0.31667162D+06 0.31667162D+06 0.10828184D+01  1  2  5  4  6  5        1 -.609660978167D-02 0.100000000000D+01
0.504421543916D-02 0.000000000000D+00 -.000000000000D+00 0.477353388692D-06 0.000000000000D+00  6 3 2 25 4 1 21 2 0.11884026D+00 0.15503737D+00 0.31667162D+06 0.31667162D+06 0.31667162D+06 0.10828184D+01  1  2  6  4  6  5        1 0.705808347836D-02 0.100000000000D+01
  </mgrwgt>
  </event>
  <event>
  5     66 -.20805674E-05 0.53737813E+02 0.75467711E-02 0.95291053E-01
        3 -1    0    0  501    0 0.00000000E+00 0.00000000E+00 0.46899364E+03 0.46899391E+03 0.50000000E+00 0.0000E+00 0.9000E+01
        2 -1    0    0  502    0 0.00000000E+00 0.00000000E+00 -.15533395E+04 0.15533395E+04 0.32000000E+00 0.0000E+00 0.9000E+01
       25  1    1    2    0    0 0.51203954E+02 -.44773207E+03 -.32584465E+03 0.56998736E+03 0.12500000E+03 0.0000E+00 0.9000E+01
        4  1    1    2  501    0 -.25088518E+01 0.53726379E+02 0.30887633E+03 0.31352800E+03 0.15500000E+01 0.0000E+00 0.9000E+01
        1  1    1    2  502    0 -.48695102E+02 0.39400569E+03 -.10673775E+04 0.11388181E+04 0.32000000E+00 0.0000E+00 0.9000E+01
#aMCatNLO 1  0  0  2  5 0.36946828D+02 0.00000000D+00  -5  6  0 0.00000000D+00 0.00000000D+00 0.00000000D+00 0.00000000D+00 0.00000000D+00
  <mgrwgt>
 -.8179009460D-02    9    2    0
 0.853526011658528D+03 0.000000000000000D+00 0.000000000000000D+00 0.853526011658528D+03
 0.853526011658528D+03 0.000000000000000D+00 0.000000000000000D+00 -.853526011658528D+03
 0.468574043474797D+03 0.512465809921766D+02 -.448060929458273D+03 -.234909694972615D+02
 0.567138292576561D+03 -.250665421723763D+01 0.536793185844024D+02 0.564586654418617D+03
 0.671339687265698D+03 -.487399267749389D+02 0.394381610873871D+03 -.541095684921355D+03
 0.000000000000000D+00 -.000000000000000D+00 0.000000000000000D+00 -.000000000000000D+00
 0.854498464364004D+03 0.000000000000000D+00 0.000000000000000D+00 0.854498464364004D+03
 0.129546113888797D+04 0.000000000000000D+00 0.000000000000000D+00 -.129546113888797D+04
 0.476700424790159D+03 0.579986069962567D+02 -.455744041029272D+03 -.234909694972615D+02
 0.566362596179826D+03 0.558985926479777D+01 0.444663184595538D+02 0.564586654418617D+03
 0.664388787542541D+03 -.391989165191033D+02 0.383524921896173D+03 -.541095684921355D+03
 0.442507794739447D+03 -.243895497419511D+02 0.277528006735451D+02 -.440962674523964D+03
0.104691567890D-03 0.000000000000D+00 0.000000000000D+00 0.793717144601D-04 0.000000000000D+00  6 3 2 25 4 1 21 0 0.72152891D-01 0.23897533D+00 0.21118833D+06 0.21118833D+06 0.21118833D+06 0.10960144D+01  1  2  2  2  6  2        2 0.201676251005D-03 0.100000000000D+01
0.379540573562D-04 0.000000000000D+00 -.402043186622D-06 0.793717144601D-04 0.000000000000D+00  6 3 2 25 4 1 21 2 0.72152891D-01 0.23897533D+00 0.21118833D+06 0.21118833D+06 0.21118833D+06 0.10960144D+01  1  2  3  2  6  2        2 0.878281568211D-04 0.100000000000D+01
-.697405121150D-04 0.000000000000D+00 0.000000000000D+00 0.793717144601D-04 0.000000000000D+00  6 3 2 25 4 1 21 2 0.72152891D-01 0.23897533D+00 0.21118833D+06 0.21118833D+06 0.21118833D+06 0.10960144D+01  1  2 15  2  6  2        2 -.161384080161D-03 0.100000000000D+01
0.123045549097D-01 0.000000000000D+00 0.000000000000D+00 0.793717144601D-04 0.000000000000D+00  6 3 2 25 4 1 21 2 0.72152891D-01 0.36476491D+00 0.22250434D+06 0.22250434D+06 0.22250434D+06 0.10942864D+01  1  2 12  2  6  2        2 0.100873668939D-01 0.100000000000D+01
-.149386219853D-01 0.000000000000D+00 0.000000000000D+00 0.793717144601D-04 0.000000000000D+00  6 3 2 25 4 1 21 2 0.72152891D-01 0.23897533D+00 0.21118833D+06 0.21118833D+06 0.21118833D+06 0.10960144D+01  1  2  4  2  6  2        2 -.345689427115D-01 0.100000000000D+01
-.125122262193D-01 0.000000000000D+00 -.662738861425D-04 0.793717144601D-04 0.000000000000D+00  6 3 2 25 4 1 21 2 0.72152891D-01 0.36281595D+00 0.21118833D+06 0.21118833D+06 0.21118833D+06 0.10960144D+01  1  2  5  2  6  2        2 -.104943155831D-01 0.100000000000D+01
0.115259124288D-01 0.000000000000D+00 0.608887824369D-04 0.793717144601D-04 0.000000000000D+00  6 3 2 25 4 1 21 2 0.72152891D-01 0.23897533D+00 0.21118833D+06 0.21118833D+06 0.21118833D+06 0.10960144D+01  1  2  6  2  6  2        2 0.266717108740D-01 0.100000000000D+01
0.610271428729D-03 0.000000000000D+00 0.000000000000D+00 0.793717144601D-04 0.000000000000D+00  6 3 21 25 4 1 -2 2 0.72152891D-01 0.36476491D+00 0.22250434D+06 0.22250434D+06 0.22250434D+06 0.10942864D+01  1  2 12  6  6  2        2 0.680862751246D-04 0.100000000000D+01
-.612329028701D-03 0.000000000000D+00 -.325603090043D-05 0.793717144601D-04 0.000000000000D+00  6 3 21 25 4 1 -2 2 0.72152891D-01 0.36281595D+00 0.21118833D+06 0.21118833D+06 0.21118833D+06 0.10960144D+01  1  2  5  6  6  2        2 -.710355360625D-04 0.100000000000D+01
  </mgrwgt>
  </event>
  <event>
  6     66 -.20805674E-05 0.17726590E+03 0.75467711E-02 0.93232413E-01
        3 -1    0    0  501    0 0.00000000E+00 0.00000000E+00 0.29242758E+03 0.29242801E+03 0.50000000E+00 0.0000E+00 0.9000E+01
        2 -1    0    0  502    0 -.00000000E+00 -.00000000E+00 -.16860677E+04 0.16860677E+04 0.32000000E+00 0.0000E+00 0.9000E+01
       25  1    1    2    0    0 -.34306292E+03 0.44132452E+03 -.49900465E+03 0.75966449E+03 0.12500000E+03 0.0000E+00 0.9000E+01
        4  1    1    2  501    0 0.11353474E+03 -.15323981E+03 0.55760546E+02 0.19870636E+03 0.15500000E+01 0.0000E+00 0.9000E+01
        1  1    1    2  503    0 0.17367052E+03 -.20041636E+03 -.72273037E+03 0.76984898E+03 0.32000000E+00 0.0000E+00 0.9000E+01
       21  1    1    2  502  503 0.55857658E+02 -.87668346E+02 -.22766560E+03 0.25027586E+03 0.75000000E+00 0.0000E+00 0.9000E+01
#aMCatNLO 2  0  0  5  2 0.18149425D+02 0.00000000D+00  -5  6  0 0.00000000D+00 0.00000000D+00 0.00000000D+00 0.00000000D+00 0.00000000D+00
  <mgrwgt>
 -.4028487020D-04    2    2    0
 0.702177427342125D+03 0.000000000000000D+00 0.000000000000000D+00 0.702177427342125D+03
 0.702177427342125D+03 -.000000000000000D+00 -.000000000000000D+00 -.702177427342125D+03
 0.575778933822241D+03 -.343465248799116D+03 0.441812682120215D+03 0.522451664614009D+02
 0.334568854071778D+03 0.113084234740467D+03 -.152650148652229D+03 0.275401899202817D+03
 0.494007066790231D+03 0.230381014058650D+03 -.289162533467986D+03 -.327647065664218D+03
 0.000000000000000D+00 0.000000000000000D+00 -.000000000000000D+00 0.000000000000000D+00
 0.702177427342125D+03 0.000000000000000D+00 0.000000000000000D+00 0.702177427342125D+03
 0.702177427342125D+03 -.000000000000000D+00 -.000000000000000D+00 -.702177427342125D+03
 0.575213252999490D+03 -.343130164729197D+03 0.441392101635410D+03 0.517686110789683D+02
 0.334518463113499D+03 0.113279023639940D+03 -.152894637773407D+03 0.275124871116985D+03
 0.367671807495405D+03 0.173856232477089D+03 -.200615572805744D+03 -.254381525279714D+03
 0.126951331075857D+03 0.559949086121673D+02 -.878818910562594D+02 -.725119569162394D+02
-.359279136125D-04 0.000000000000D+00 0.000000000000D+00 0.198604282189D-06 0.000000000000D+00  6 3 2 25 4 1 21 2 0.44988894D-01 0.25939506D+00 0.32082990D+06 0.32082990D+06 0.32082990D+06 0.10824015D+01  1  2 13  4  6  5        1 -.181076817045D-03 0.100000000000D+01
0.279348896565D-04 0.000000000000D+00 0.000000000000D+00 0.198604282189D-06 0.168146566847D-08  6 3 2 25 4 1 21 2 0.44988894D-01 0.25939506D+00 0.32082990D+06 0.32082990D+06 0.32082990D+06 0.10824015D+01  1  2  1  4  6  5        1 0.140791946843D-03 0.100000000000D+01
  </mgrwgt>
  </event>
  <event>
  5     66 -.20805674E-05 0.87311869E+02 0.75467711E-02 0.94365272E-01
        3 -1    0    0  501    0 0.00000000E+00 0.00000000E+00 0.54416427E+03 0.54416450E+03 0.50000000E+00 0.0000E+00 0.9000E+01
        2 -1    0    0  502    0 -.00000000E+00 -.00000000E+00 -.21734089E+04 0.21734089E+04 0.32000000E+00 0.0000E+00 0.9000E+01
       25  1    1    2    0    0 0.47291252E+03 -.11669781E+02 -.46700977E+03 0.67639157E+03 0.12500000E+03 0.0000E+00 0.9000E+01
        4  1    1    2  501    0 -.43706449E+03 0.91217042E+02 0.32446161E+03 0.55192722E+03 0.15500000E+01 0.0000E+00 0.9000E+01
        1  1    1    2  502    0 -.35848033E+02 -.79547261E+02 -.14866965E+04 0.14892546E+04 0.32000000E+00 0.0000E+00 0.9000E+01
#aMCatNLO 1  0  0  4  1 0.74580775D+01 0.00000000D+00  -5  6  0 0.00000000D+00 0.00000000D+00 0.00000000D+00 0.00000000D+00 0.00000000D+00
  <mgrwgt>
 -.2554188570D-02    8    2    0
 0.108751634634800D+04 0.000000000000000D+00 0.000000000000000D+00 0.108751634634800D+04
 0.108751634634800D+04 -.000000000000000D+00 -.000000000000000D+00 -.108751634634800D+04
 0.495146127994208D+03 0.472847754278635D+03 -.115972019222356D+02 -.763229601685067D+02
 0.932442233529192D+03 -.436970776757619D+03 0.911974844046627D+02 0.818650156029431D+03
 0.747444331172610D+03 -.358769775210158D+02 -.796002824824272D+02 -.742327195860925D+03
 0.000000000000000D+00 0.000000000000000D+00 0.000000000000000D+00 0.000000000000000D+00
 0.108751634634800D+04 0.000000000000000D+00 0.000000000000000D+00 0.108751634634800D+04
 0.108751634634800D+04 -.000000000000000D+00 -.000000000000000D+00 -.108751634634800D+04
 0.495116744200261D+03 0.472824220199351D+03 -.115922902692312D+02 -.762788698569739D+02
 0.782138971153345D+03 -.369539931228064D+03 0.697298653579126D+02 0.685798334280522D+03
 0.747379148134635D+03 -.359125027287819D+02 -.795928682347165D+02 -.742260640570668D+03
 0.150397829207767D+03 -.673717862425041D+02 0.214552931460349D+02 0.132741176147120D+03
0.724597653041D-04 0.000000000000D+00 0.000000000000D+00 0.771308993275D-04 0.000000000000D+00  6 3 2 25 4 1 21 0 0.83717599D-01 0.33437062D+00 0.26159456D+06 0.26159456D+06 0.26159456D+06 0.10889810D+01  1  2  2  3  6  4        4 0.454631667076D-04 0.100000000000D+01
0.189867058670D-04 0.000000000000D+00 -.278264577862D-06 0.771308993275D-04 0.000000000000D+00  6 3 2 25 4 1 21 2 0.83717599D-01 0.33437062D+00 0.26159456D+06 0.26159456D+06 0.26159456D+06 0.10889810D+01  1  2  3  3  6  4        4 0.141270994411D-04 0.100000000000D+01
-.504367905104D-04 0.000000000000D+00 0.000000000000D+00 0.771308993275D-04 0.000000000000D+00  6 3 2 25 4 1 21 2 0.83717599D-01 0.33437062D+00 0.26159456D+06 0.26159456D+06 0.26159456D+06 0.10889810D+01  1  2 15  3  6  4        4 -.375276027353D-04 0.100000000000D+01
0.611897029988D-01 0.000000000000D+00 0.000000000000D+00 0.771308993275D-04 0.000000000000D+00  6 3 2 25 4 1 21 2 0.83717599D-01 0.33437062D+00 0.26178170D+06 0.26178170D+06 0.26178170D+06 0.10889578D+01  1  2 12  3  6  4        4 0.455244138655D-01 0.100000000000D+01
-.766778334684D-01 0.000000000000D+00 0.000000000000D+00 0.771308993275D-04 0.000000000000D+00  6 3 2 25 4 1 21 2 0.83717599D-01 0.33437062D+00 0.26159456D+06 0.26159456D+06 0.26159456D+06 0.10889810D+01  1  2  4  3  6  4        4 -.570523073313D-01 0.100000000000D+01
-.625767462764D-01 0.000000000000D+00 0.000000000000D+00 0.771308993275D-04 0.000000000000D+00  6 3 2 25 4 1 21 2 0.83717599D-01 0.33437062D+00 0.26159456D+06 0.26159456D+06 0.26159456D+06 0.10889810D+01  1  2  5  3  6  4        4 -.465603630002D-01 0.100000000000D+01
0.734715970204D-01 0.000000000000D+00 -.000000000000D+00 0.771308993275D-04 0.000000000000D+00  6 3 2 25 4 1 21 2 0.83717599D-01 0.33437062D+00 0.26159456D+06 0.26159456D+06 0.26159456D+06 0.10889810D+01  1  2  6  3  6  4        4 0.546667001886D-01 0.100000000000D+01
0.113618079188D-02 0.000000000000D+00 0.000000000000D+00 0.771308993275D-04 0.650350430531D-05  6 3 2 25 4 1 21 2 0.83717599D-01 0.33437062D+00 0.26178170D+06 0.26178170D+06 0.26178170D+06 0.10889578D+01  1  2 11  3  6  4        4 0.845305044163D-03 0.100000000000D+01
  </mgrwgt>
  </event>
  <event>
  5     66 0.20805674E-05 0.20362649E+02 0.75467711E-02 0.93767597E-01
        3 -1    0    0  501    0 0.00000000E+00 0.00000000E+00 0.44965428E+03 0.44965456E+03 0.50000000E+00 0.0000E+00 0.9000E+01
        2 -1    0    0  502    0 0.00000000E+00 0.00000000E+00 -.10347293E+04 0.10347293E+04 0.32000000E+00 0.0000E+00 0.9000E+01
       25  1    1    2    0    0 -.22825101E+03 -.46641399E+03 -.72152863E+02 0.53895415E+03 0.12500000E+03 0.0000E+00 0.9000E+01
        4  1    1    2  501    0 0.20797877E+03 0.46476028E+03 -.84038675E+02 0.51606413E+03 0.15500000E+01 0.0000E+00 0.9000E+01
        1  1    1    2  502    0 0.20272236E+02 0.16537171E+01 -.42888345E+03 0.42936560E+03 0.32000000E+00 0.0000E+00 0.9000E+01
#aMCatNLO 1  0  0  2  4 0.14260553D+02 0.00000000D+00  -5  6  0 0.00000000D+00 0.00000000D+00 0.00000000D+00 0.00000000D+00 0.00000000D+00
  <mgrwgt>
 0.1591096526D-02    4    2    0
 0.682107532842172D+03 0.000000000000000D+00 0.000000000000000D+00 0.682107532842172D+03
 0.682107532842172D+03 0.000000000000000D+00 0.000000000000000D+00 -.682107532842172D+03
 0.555351980523011D+03 -.228146432205938D+03 -.466131807447576D+03 0.153170381693682D+03
 0.525156012504308D+03 0.207851270211635D+03 0.464475348523789D+03 0.129804998187816D+03
 0.283707072657026D+03 0.202951619943028D+02 0.165645892378711D+01 -.282975379881497D+03
 0.000000000000000D+00 -.000000000000000D+00 -.000000000000000D+00 0.000000000000000D+00
 0.689679294018399D+03 0.000000000000000D+00 0.000000000000000D+00 0.689679294018399D+03
 0.688892543852468D+03 0.000000000000000D+00 0.000000000000000D+00 -.688892543852468D+03
 0.550132793217146D+03 -.224379525754324D+03 -.461750747446039D+03 0.153170381693682D+03
 0.530282788963090D+03 0.211447646502809D+03 0.468658075257813D+03 0.129804998187816D+03
 0.283874016410609D+03 0.222291776560381D+02 0.390579502140732D+01 -.282975379881497D+03
 0.142822392800222D+02 -.929729840452291D+01 -.108131228331816D+02 0.786750165931021D+00
0.395621422326D-03 0.000000000000D+00 0.000000000000D+00 0.508744602934D-05 0.000000000000D+00  6 3 2 25 4 1 21 0 0.69177606D-01 0.15918914D+00 0.28251089D+06 0.28251089D+06 0.28251089D+06 0.10864871D+01  1  2  2  2  6  2        2 0.163180268659D-02 0.100000000000D+01
0.242853235780D-03 0.000000000000D+00 -.151929043124D-05 0.508744602934D-05 0.000000000000D+00  6 3 2 25 4 1 21 2 0.69177606D-01 0.15918914D+00 0.28251089D+06 0.28251089D+06 0.28251089D+06 0.10864871D+01  1  2  3  2  6  2        2 0.118244486958D-02 0.100000000000D+01
-.230412542584D-03 0.000000000000D+00 0.000000000000D+00 0.508744602934D-05 0.000000000000D+00  6 3 2 25 4 1 21 2 0.69177606D-01 0.15918914D+00 0.28251089D+06 0.28251089D+06 0.28251089D+06 0.10864871D+01  1  2 15  2  6  2        2 -.112187152042D-02 0.100000000000D+01
-.208010176440D-04 0.000000000000D+00 0.000000000000D+00 0.508744602934D-05 0.000000000000D+00  6 3 2 25 4 1 21 2 0.69177606D-01 0.15918914D+00 0.28251089D+06 0.28251089D+06 0.28251089D+06 0.10864871D+01  1  2  4  2  6  2        2 -.101279509479D-03 0.100000000000D+01
  </mgrwgt>
  </event>
  <event>
  5     66 0.20805674E-05 0.56937847E+02 0.75467711E-02 0.78780172E-01
        3 -1    0    0  501    0 0.00000000E+00 0.00000000E+00 0.10535834E+04 0.10535835E+04 0.50000000E+00 0.0000E+00 0.9000E+01
        2 -1    0    0  502    0 0.00000000E+00 0.00000000E+00 -.20877991E+04 0.20877991E+04 0.32000000E+00 0.0000E+00 0.9000E+01
       25  1    1    2    0    0 0.53693858E+03 0.63395897E+02 -.10435309E+04 0.11819069E+04 0.12500000E+03 0.0000E+00 0.9000E+01
        4  1    1    2  501    0 -.56945400E+02 0.10794146E+00 0.92335913E+03 0.92511474E+03 0.15500000E+01 0.0000E+00 0.9000E+01
        1  1    1    2  502    0 -.47999318E+03 -.63503839E+02 -.91404392E+03 0.10343610E+04 0.32000000E+00 0.0000E+00 0.9000E+01
#aMCatNLO 1  0  0  2  5 0.40477416D+02 0.00000000D+00  -5  6  0 0.00000000D+00 0.00000000D+00 0.00000000D+00 0.00000000D+00 0.00000000D+00
  <mgrwgt>
 0.1471056630D-01    3    2    0
 0.148312864101596D+04 0.000000000000000D+00 0.000000000000000D+00 0.148312864101596D+04
 0.148312864101596D+04 0.000000000000000D+00 0.000000000000000D+00 -.148312864101596D+04
 0.887882192616165D+03 0.537186212567137D+03 0.634274903049672D+02 -.692905270918238D+03
 0.130149535971983D+04 -.569377451238334D+02 0.107926955484056D+00 0.130024930413526D+04
 0.776879729695931D+03 -.480248467443303D+03 -.635354172604512D+02 -.607344033217025D+03
 0.000000000000000D+00 -.000000000000000D+00 -.000000000000000D+00 0.000000000000000D+00
 0.486481351037700D+04 0.000000000000000D+00 0.000000000000000D+00 0.486481351037700D+04
 0.251978888777806D+04 0.000000000000000D+00 0.000000000000000D+00 -.251978888777806D+04
 0.146230016911300D+04 0.996832534354031D+03 0.805545758212993D+03 -.692905270918238D+03
 0.169232590495928D+04 0.528590831213820D+03 0.945468375382641D+03 0.130024930413526D+04
 0.761081992749174D+03 -.179455448023819D+03 0.422107530348963D+03 -.607344033217025D+03
 0.346889433133361D+04 -.134596791754403D+04 -.217312166394460D+04 0.234502462259894D+04
0.150246606943D+00 0.000000000000D+00 0.000000000000D+00 0.146255015940D-03 0.000000000000D+00  6 3 2 25 4 1 21 0 0.16208976D+00 0.32119987D+00 0.30060211D+06 0.30060211D+06 0.30060211D+06 0.10844874D+01  1  2  2  2  6  2        2 0.185960906608D-01 0.100000000000D+01
0.700637903591D-01 0.000000000000D+00 -.576986531503D-03 0.146255015940D-03 0.000000000000D+00  6 3 2 25 4 1 21 2 0.16208976D+00 0.32119987D+00 0.30060211D+06 0.30060211D+06 0.30060211D+06 0.10844874D+01  1  2  3  2  6  2        2 0.101990488032D-01 0.100000000000D+01
-.967559427082D-01 0.000000000000D+00 0.000000000000D+00 0.146255015940D-03 0.000000000000D+00  6 3 2 25 4 1 21 2 0.16208976D+00 0.32119987D+00 0.30060211D+06 0.30060211D+06 0.30060211D+06 0.10844874D+01  1  2 15  2  6  2        2 -.140845731672D-01 0.100000000000D+01
  </mgrwgt>
  </event>
  <event>
  5     66 0.20805674E-05 0.15079969E+02 0.75467711E-02 0.93219177E-01
        3 -1    0    0  501    0 0.00000000E+00 0.00000000E+00 0.11927737E+04 0.11927738E+04 0.50000000E+00 0.0000E+00 0.9000E+01
        2 -1    0    0  502    0 0.00000000E+00 0.00000000E+00 -.36377977E+03 0.36377991E+03 0.32000000E+00 0.0000E+00 0.9000E+01
       25  1    1    2    0    0 -.47563962E+03 0.26802022E+03 0.33346737E+02 0.56107476E+03 0.12500000E+03 0.0000E+00 0.9000E+01
        4  1    1    2  501    0 0.48283397E+03 -.28144980E+03 0.80317203E+03 0.97848370E+03 0.15500000E+01 0.0000E+00 0.9000E+01
        1  1    1    2  502    0 -.71943539E+01 0.13429587E+02 -.75248473E+01 0.16995243E+02 0.32000000E+00 0.0000E+00 0.9000E+01
#aMCatNLO 1  0  0  5  1 0.32930525D+00 0.00000000D+00  -5  6  0 0.00000000D+00 0.00000000D+00 0.00000000D+00 0.00000000D+00 0.00000000D+00
  <mgrwgt>
 0.1842065702D-02    7    2    0
 0.658716275399193D+03 0.000000000000000D+00 0.000000000000000D+00 0.658716275399193D+03
 0.658716275399193D+03 -.000000000000000D+00 -.000000000000000D+00 -.658716275399193D+03
 0.642168960255914D+03 -.475730700629290D+03 0.268169417938149D+03 -.313881247094567D+03
 0.650712586634158D+03 0.482853503687089D+03 -.281461187213876D+03 0.333255104197030D+03
 0.245510039083136D+02 -.712280305779927D+01 0.132917692757269D+02 -.193738571024636D+02
 0.000000000000000D+00 -.000000000000000D+00 0.000000000000000D+00 0.000000000000000D+00
 0.658716275399193D+03 0.000000000000000D+00 0.000000000000000D+00 0.658716275399193D+03
 0.658716275399193D+03 -.000000000000000D+00 -.000000000000000D+00 -.658716275399193D+03
 0.642175307596784D+03 -.475732928094553D+03 0.268173574581835D+03 -.313887305747791D+03
 0.650705945859365D+03 0.482851246609570D+03 -.281456975311149D+03 0.333248964999164D+03
 0.204036086792296D+02 -.579041288611647D+01 0.108189753587232D+02 -.163011698331982D+02
 0.414768866300721D+01 -.132790562889993D+01 0.246442537059115D+01 -.306048941817499D+01
0.248137957460D-04 0.000000000000D+00 0.000000000000D+00 0.405415785047D-06 0.000000000000D+00  6 3 2 25 4 1 21 0 0.18350366D+00 0.55966137D-01 0.32160835D+06 0.32160835D+06 0.32160835D+06 0.10823241D+01  1  2  2  4  6  5        1 0.281915589578D-04 0.100000000000D+01
0.107671582770D-04 0.000000000000D+00 -.952915092871D-07 0.405415785047D-06 0.000000000000D+00  6 3 2 25 4 1 21 2 0.18350366D+00 0.55966137D-01 0.32160835D+06 0.32160835D+06 0.32160835D+06 0.10823241D+01  1  2  3  4  6  5        1 0.143298510315D-04 0.100000000000D+01
-.154645694305D-04 0.000000000000D+00 0.000000000000D+00 0.405415785047D-06 0.000000000000D+00  6 3 2 25 4 1 21 2 0.18350366D+00 0.55966137D-01 0.32160835D+06 0.32160835D+06 0.32160835D+06 0.10823241D+01  1  2 15  4  6  5        1 -.205815657674D-04 0.100000000000D+01
-.103169239466D-01 0.000000000000D+00 0.000000000000D+00 0.405415785047D-06 0.000000000000D+00  6 3 2 25 4 1 21 2 0.18350366D+00 0.55966137D-01 0.32160835D+06 0.32160835D+06 0.32160835D+06 0.10823241D+01  1  2  4  4  6  5        1 -.137306408483D-01 0.100000000000D+01
-.784440544131D-02 0.000000000000D+00 0.000000000000D+00 0.405415785047D-06 0.000000000000D+00  6 3 2 25 4 1 21 2 0.18350366D+00 0.55966137D-01 0.32160835D+06 0.32160835D+06 0.32160835D+06 0.10823241D+01  1  2  5  4  6  5        1 -.104400026928D-01 0.100000000000D+01
0.133501501064D-01 0.000000000000D+00 -.000000000000D+00 0.405415785047D-06 0.000000000000D+00  6 3 2 25 4 1 21 2 0.18350366D+00 0.55966137D-01 0.32160835D+06 0.32160835D+06 0.32160835D+06 0.10823241D+01  1  2  6  4  6  5        1 0.177675164934D-01 0.100000000000D+01
0.617877432641D-02 0.000000000000D+00 0.000000000000D+00 0.405415785047D-06 0.129115016875D-04  6 3 2 25 4 1 21 2 0.18350366D+00 0.55966137D-01 0.32160287D+06 0.32160287D+06 0.32160287D+06 0.10823247D+01  1  2 11  4  6  5        1 0.822325290552D-02 0.100000000000D+01
  </mgrwgt>
  </event>
  <event>
  5     66 0.20805674E-05 0.14970488E+02 0.75467711E-02 0.94060341E-01
        3 -1    0    0  501    0 0.00000000E+00 0.00000000E+00 0.44185435E+03 0.44185463E+03 0.50000000E+00 0.0000E+00 0.9000E+01
        2 -1    0    0  502    0 0.00000000E+00 0.00000000E+00 -.16962230E+04 0.16962230E+04 0.32000000E+00 0.0000E+00 0.9000E+01
       25  1    1    2    0    0 -.18435484E+02 0.45989632E+03 0.22942355E+03 0.52924915E+03 0.12500000E+03 0.0000E+00 0.9000E+01
        4  1    1    2  501    0 0.32012516E+00 -.15326417E+02 0.28523050E+02 0.32418643E+02 0.15500000E+01 0.0000E+00 0.9000E+01
        1  1    1    2  502    0 0.18115359E+02 -.44456991E+03 -.15123152E+04 0.15764099E+04 0.32000000E+00 0.0000E+00 0.9000E+01
#aMCatNLO 1  0  0  2  1 0.11985800D+03 0.00000000D+00  -5  6  0 0.00000000D+00 0.00000000D+00 0.00000000D+00 0.00000000D+00 0.00000000D+00
  <mgrwgt>
 0.3691714859D-02    7    2    0
 0.865727348634079D+03 0.000000000000000D+00 0.000000000000000D+00 0.865727348634079D+03
 0.865727348634079D+03 0.000000000000000D+00 0.000000000000000D+00 -.865727348634079D+03
 0.820935989941784D+03 -.184449787345742D+02 0.459968420872972D+03 0.668131524582400D+03
 0.592539684836563D+02 0.312622631234736D+00 -.149672232375700D+02 0.573316428921178D+02
 0.851264738842718D+03 0.181323561033395D+02 -.445001197635402D+03 -.725463167474518D+03
 0.000000000000000D+00 0.000000000000000D+00 -.000000000000000D+00 -.000000000000000D+00
 0.925205792197910D+03 0.000000000000000D+00 0.000000000000000D+00 0.925205792197910D+03
 0.930361291917042D+03 0.000000000000000D+00 0.000000000000000D+00 -.930361291917042D+03
 0.854721204445011D+03 -.238636070120874D+02 0.517642860906533D+03 0.668131524582400D+03
 0.583621989324704D+02 -.677166725254110D-01 -.109189927180209D+02 0.573316428921178D+02
 0.822514853431880D+03 0.127197994900862D+02 -.387391382783405D+03 -.725463167474518D+03
 0.119968827305591D+03 0.112115241945267D+02 -.119332485405108D+03 -.515549971913258D+01
0.848324619267D-03 0.000000000000D+00 0.000000000000D+00 0.133171239698D-04 0.000000000000D+00  6 3 2 25 4 1 21 0 0.67977617D-01 0.26095741D+00 0.21965553D+06 0.21965553D+06 0.21965553D+06 0.10947122D+01  1  2  2  2  6  2        2 0.155341182515D-02 0.100000000000D+01
0.274377811175D-03 0.000000000000D+00 -.325778990699D-05 0.133171239698D-04 0.000000000000D+00  6 3 2 25 4 1 21 2 0.67977617D-01 0.26095741D+00 0.21965553D+06 0.21965553D+06 0.21965553D+06 0.10947122D+01  1  2  3  2  6  2        2 0.602106678745D-03 0.100000000000D+01
-.647821113023D-03 0.000000000000D+00 0.000000000000D+00 0.133171239698D-04 0.000000000000D+00  6 3 2 25 4 1 21 2 0.67977617D-01 0.26095741D+00 0.21965553D+06 0.21965553D+06 0.21965553D+06 0.10947122D+01  1  2 15  2  6  2        2 -.142160700646D-02 0.100000000000D+01
-.763486750395D-05 0.000000000000D+00 0.000000000000D+00 0.133171239698D-04 0.000000000000D+00  6 3 2 25 4 1 21 2 0.67977617D-01 0.26095741D+00 0.21965553D+06 0.21965553D+06 0.21965553D+06 0.10947122D+01  1  2  4  2  6  2        2 -.167542874396D-04 0.100000000000D+01
-.566792129145D-02 0.000000000000D+00 -.159601617075D-02 0.133171239698D-04 0.000000000000D+00  6 3 2 25 4 1 21 2 0.67977617D-01 0.29094745D+00 0.21965553D+06 0.21965553D+06 0.21965553D+06 0.10947122D+01  1  2  5  2  6  2        2 -.975317800485D-02 0.100000000000D+01
0.581649122796D-02 0.000000000000D+00 0.158661866418D-02 0.133171239698D-04 0.000000000000D+00  6 3 2 25 4 1 21 2 0.67977617D-01 0.26095741D+00 0.21965553D+06 0.21965553D+06 0.21965553D+06 0.10947122D+01  1  2  6  2  6  2        2 0.127639629466D-01 0.100000000000D+01
-.928062447363D-04 0.000000000000D+00 -.278669728227D-04 0.133171239698D-04 0.000000000000D+00  6 3 21 25 4 1 -2 2 0.67977617D-01 0.29094745D+00 0.21965553D+06 0.21965553D+06 0.21965553D+06 0.10947122D+01  1  2  5  6  6  2        2 -.362272924044D-04 0.100000000000D+01
  </mgrwgt>
  </event>
  <event>
  6     66 -.20805674E-05 0.80712414E+02 0.75467711E-02 0.94312983E-01
        3 -1    0    0  501    0 0.00000000E+00 0.00000000E+00 0.22260620E+03 0.22260676E+03 0.50000000E+00 0.0000E+00 0.9000E+01
        2 -1    0    0  502    0 -.00000000E+00 -.00000000E+00 -.33913199E+04 0.33913199E+04 0.32000000E+00 0.0000E+00 0.9000E+01
       25  1    1    2    0    0 -.47979600E+03 0.15381270E+03 -.86767493E+03 0.10111119E+04 0.12500000E+03 0.0000E+00 0.9000E+01
        4  1    1    2  503    0 0.67970170E+02 -.32454451E+02 0.10566644E+03 0.12977301E+03 0.15500000E+01 0.0000E+00 0.9000E+01
        1  1    1    2  502    0 0.39322108E+03 -.12708865E+03 -.24162594E+04 0.24513433E+04 0.32000000E+00 0.0000E+00 0.9000E+01
       21  1    1    2  501  503 0.18604750E+02 0.57304039E+01 0.95542508E+01 0.21698397E+02 0.75000000E+00 0.0000E+00 0.9000E+01
#aMCatNLO 2  0  0  4  1 0.12306255D+02 0.00000000D+00  -5  6  0 0.00000000D+00 0.00000000D+00 0.00000000D+00 0.00000000D+00 0.00000000D+00
  <mgrwgt>
 -.4158211042D-02    5    2    0
 0.868867011729745D+03 0.000000000000000D+00 0.000000000000000D+00 0.868867011729745D+03
 0.868867011729745D+03 -.000000000000000D+00 -.000000000000000D+00 -.868867011729745D+03
 0.521145747731222D+03 -.480291146280411D+03 0.153973123094130D+03 0.397565409413666D+02
 0.523802409480246D+03 0.865880131796686D+02 -.267280887526425D+02 0.515904147514380D+03
 0.692785866248022D+03 0.393703133100743D+03 -.127245034341488D+03 -.555660688455747D+03
 0.000000000000000D+00 0.000000000000000D+00 0.000000000000000D+00 0.000000000000000D+00
 0.868867011729745D+03 0.000000000000000D+00 0.000000000000000D+00 0.868867011729745D+03
 0.868867011729745D+03 -.000000000000000D+00 -.000000000000000D+00 -.868867011729745D+03
 0.521107535780951D+03 -.480222405570594D+03 0.153951904131765D+03 0.401661082243616D+02
 0.461644989960995D+03 0.678091021603594D+02 -.324170936500706D+02 0.455485624866006D+03
 0.692406491882727D+03 0.393794491993478D+03 -.127273235110898D+03 -.555116358704505D+03
 0.625750058348168D+02 0.186188114167561D+02 0.573842462920347D+01 0.594646256141379D+02
-.804501861066D-02 0.000000000000D+00 0.000000000000D+00 0.190105638459D-04 0.000000000000D+00  6 3 2 25 4 1 21 2 0.34247152D-01 0.52174157D+00 0.26422205D+06 0.26422205D+06 0.26422205D+06 0.10886560D+01  1  2 13  3  6  4        4 -.686601830303D-02 0.100000000000D+01
-.502702811215D-03 0.000000000000D+00 0.000000000000D+00 0.190105638459D-04 0.000000000000D+00  6 3 2 25 4 1 21 2 0.34247152D-01 0.52174157D+00 0.26214492D+06 0.26214492D+06 0.26214492D+06 0.10889126D+01  1  2  8  3  6  4        4 -.429459768850D-03 0.100000000000D+01
-.172266798033D-02 0.000000000000D+00 0.000000000000D+00 0.190105638459D-04 0.000000000000D+00  6 3 2 25 4 1 21 2 0.34247152D-01 0.52174157D+00 0.26214492D+06 0.26214492D+06 0.26214492D+06 0.10889126D+01  1  2  9  3  6  4        4 -.147167785048D-02 0.100000000000D+01
0.194065669431D-02 0.000000000000D+00 0.000000000000D+00 0.190105638459D-04 0.000000000000D+00  6 3 2 25 4 1 21 2 0.34247152D-01 0.52174157D+00 0.26214492D+06 0.26214492D+06 0.26214492D+06 0.10889126D+01  1  2 10  3  6  4        4 0.165790593719D-02 0.100000000000D+01
0.345777744386D-02 0.000000000000D+00 0.000000000000D+00 0.190105638459D-04 0.165916850605D-06  6 3 2 25 4 1 21 2 0.34247152D-01 0.52174157D+00 0.26422205D+06 0.26422205D+06 0.26422205D+06 0.10886560D+01  1  2  1  3  6  4        4 0.295103894302D-02 0.100000000000D+01
  </mgrwgt>
  </event>
  <event>
  5     66 0.20805674E-05 0.23517113E+02 0.75467711E-02 0.93031372E-01
        3 -1    0    0  501    0 0.00000000E+00 0.00000000E+00 0.76947392E+03 0.76947408E+03 0.50000000E+00 0.0000E+00 0.9000E+01
        2 -1    0    0  502    0 -.00000000E+00 -.00000000E+00 -.36402671E+04 0.36402671E+04 0.32000000E+00 0.0000E+00 0.9000E+01
       25  1    1    2    0    0 0.33822770E+03 -.44941240E+03 -.11646278E+04 0.12993661E+04 0.12500000E+03 0.0000E+00 0.9000E+01
        4  1    1    2  501    0 -.23294928E+02 -.32469114E+01 0.67032841E+03 0.67074271E+03 0.15500000E+01 0.0000E+00 0.9000E+01
        1  1    1    2  502    0 -.31493278E+03 0.45265931E+03 -.23764938E+04 0.24396323E+04 0.32000000E+00 0.0000E+00 0.9000E+01
#aMCatNLO 1  0  0  5  2 0.16261456D+02 0.00000000D+00  -5  6  0 0.00000000D+00 0.00000000D+00 0.00000000D+00 0.00000000D+00 0.00000000D+00
  <mgrwgt>
 0.1062568212D-01    6    2    0
 0.167364600824756D+04 0.000000000000000D+00 0.000000000000000D+00 0.167364600824756D+04
 0.167364600824756D+04 -.000000000000000D+00 -.000000000000000D+00 -.167364600824756D+04
 0.713061438757949D+03 0.338368804081967D+03 -.449613308742072D+03 -.419745208989576D+03
 0.145835759928014D+04 -.232919481434882D+02 -.324649610073429D+01 0.145816797139181D+04
 0.117587297845704D+04 -.315076855938478D+03 0.452859804842806D+03 -.103842276240223D+04
 0.000000000000000D+00 0.000000000000000D+00 0.000000000000000D+00 -.000000000000000D+00
 0.167364600824756D+04 0.000000000000000D+00 0.000000000000000D+00 0.167364600824756D+04
 0.167364600824756D+04 -.000000000000000D+00 -.000000000000000D+00 -.167364600824756D+04
 0.715524219679640D+03 0.334253344465912D+03 -.443698160728379D+03 -.433308842314305D+03
 0.143110989818705D+04 -.316159059877340D+02 0.871752427656996D+01 0.143073407031076D+04
 0.419854635866909D+03 -.128824903847892D+03 0.315134913956298D+03 -.245707235166718D+03
 0.780803262761530D+03 -.173812534630286D+03 0.119845722495512D+03 -.751717992829741D+03
0.226286140062D+00 0.000000000000D+00 0.000000000000D+00 0.825989156500D-03 0.000000000000D+00  6 3 2 25 4 1 21 0 0.11838062D+00 0.56004110D+00 0.33156317D+06 0.33156317D+06 0.33156317D+06 0.10813522D+01  1  2  2  4  6  5        1 0.718772356811D-02 0.100000000000D+01
0.201193148691D+00 0.000000000000D+00 -.868998360346D-03 0.825989156500D-03 0.000000000000D+00  6 3 2 25 4 1 21 2 0.11838062D+00 0.56004110D+00 0.33156317D+06 0.33156317D+06 0.33156317D+06 0.10813522D+01  1  2  3  4  6  5        1 0.747275792845D-02 0.100000000000D+01
-.162429269618D+00 0.000000000000D+00 0.000000000000D+00 0.825989156500D-03 0.000000000000D+00  6 3 2 25 4 1 21 2 0.11838062D+00 0.56004110D+00 0.33156317D+06 0.33156317D+06 0.33156317D+06 0.10813522D+01  1  2 15  4  6  5        1 -.603298183981D-02 0.100000000000D+01
-.118583437324D+00 0.000000000000D+00 0.000000000000D+00 0.825989156500D-03 0.000000000000D+00  6 3 2 25 4 1 21 2 0.11838062D+00 0.56004110D+00 0.33156317D+06 0.33156317D+06 0.33156317D+06 0.10813522D+01  1  2  4  4  6  5        1 -.440445078378D-02 0.100000000000D+01
-.216251473224D+00 0.000000000000D+00 0.000000000000D+00 0.825989156500D-03 0.000000000000D+00  6 3 2 25 4 1 21 2 0.11838062D+00 0.56004110D+00 0.33156317D+06 0.33156317D+06 0.33156317D+06 0.10813522D+01  1  2  5  4  6  5        1 -.803205736174D-02 0.100000000000D+01
0.388633069917D+00 0.000000000000D+00 -.000000000000D+00 0.825989156500D-03 0.000000000000D+00  6 3 2 25 4 1 21 2 0.11838062D+00 0.56004110D+00 0.33156317D+06 0.33156317D+06 0.33156317D+06 0.10813522D+01  1  2  6  4  6  5        1 0.144346906113D-01 0.100000000000D+01
  </mgrwgt>
  </event>
  <event>
  5     66 0.20805674E-05 0.61190174E+02 0.75467711E-02 0.86847506E-01
        3 -1    0    0  501    0 0.00000000E+00 0.00000000E+00 0.40060022E+03 0.40060054E+03 0.50000000E+00 0.0000E+00 0.9000E+01
        2 -1    0    0  502    0 0.00000000E+00 0.00000000E+00 -.16538786E+04 0.16538787E+04 0.32000000E+00 0.0000E+00 0.9000E+01
       25  1    1    2    0    0 -.14126171E+03 0.44570175E+03 -.23906354E+03 0.53979746E+03 0.12500000E+03 0.0000E+00 0.9000E+01
        4  1    1    2  501    0 0.17436297E+03 -.39430832E+03 0.63010963E+02 0.43572271E+03 0.15500000E+01 0.0000E+00 0.9000E+01
        1  1    1    2  502    0 -.33101252E+02 -.51393434E+02 -.10772258E+04 0.10789590E+04 0.32000000E+00 0.0000E+00 0.9000E+01
#aMCatNLO 1  0  0  1  5 0.30552850D+02 0.00000000D+00  -5  6  0 0.00000000D+00 0.00000000D+00 0.00000000D+00 0.00000000D+00 0.00000000D+00
  <mgrwgt>
 0.5648671445D-02    5    2    0
 0.813968366555991D+03 0.000000000000000D+00 0.000000000000000D+00 0.813968366555991D+03
 0.813968366555991D+03 0.000000000000000D+00 0.000000000000000D+00 -.813968366555991D+03
 0.497128854084166D+03 -.141120156350824D+03 0.445499809305178D+03 0.114573639828738D+03
 0.598010807846415D+03 0.174250830107646D+03 -.394054733675315D+03 0.414698012264340D+03
 0.532797071181401D+03 -.331306737568219D+02 -.514450756298627D+02 -.529271652093078D+03
 0.000000000000000D+00 0.000000000000000D+00 -.000000000000000D+00 0.000000000000000D+00
 0.141838725624888D+04 0.000000000000000D+00 0.000000000000000D+00 0.141838725624888D+04
 0.123253342314823D+04 0.000000000000000D+00 0.000000000000000D+00 -.123253342314823D+04
 0.674758197130015D+03 -.409540445562448D+03 0.508746625638985D+03 0.114573639828738D+03
 0.538593482198085D+03 -.860879559014832D+02 -.332712130134999D+03 0.414698012264340D+03
 0.605453553725011D+03 -.293846552148118D+03 0.998638070435319D+01 -.529271652093078D+03
 0.832115446343999D+03 0.789474953612050D+03 -.186020876208339D+03 0.185853833100656D+03
0.304039462264D-02 0.000000000000D+00 0.000000000000D+00 0.251675395683D-04 0.000000000000D+00  6 3 2 25 4 1 21 0 0.61630830D-01 0.25444289D+00 0.23804565D+06 0.23804565D+06 0.23804565D+06 0.10920636D+01  1  2  2  1  6  1        3 0.721255489818D-02 0.100000000000D+01
0.999769559718D-03 0.000000000000D+00 -.116759159052D-04 0.251675395683D-04 0.000000000000D+00  6 3 2 25 4 1 21 2 0.61630830D-01 0.25444289D+00 0.23804565D+06 0.23804565D+06 0.23804565D+06 0.10920636D+01  1  2  3  1  6  1        3 0.282849194032D-02 0.100000000000D+01
-.199956978587D-02 0.000000000000D+00 0.000000000000D+00 0.251675395683D-04 0.000000000000D+00  6 3 2 25 4 1 21 2 0.61630830D-01 0.25444289D+00 0.23804565D+06 0.23804565D+06 0.23804565D+06 0.10920636D+01  1  2 15  1  6  1        3 -.565707064039D-02 0.100000000000D+01
0.142568021606D-02 0.000000000000D+00 -.172431781867D-02 0.251675395683D-04 0.000000000000D+00  6 3 2 25 4 1 21 2 0.15908272D+00 0.25444289D+00 0.23804565D+06 0.23804565D+06 0.23804565D+06 0.10920636D+01  1  2  5  1  6  1        3 0.391258812536D-03 0.100000000000D+01
0.254040722939D-03 0.000000000000D+00 -.180939783796D-03 0.251675395683D-04 0.000000000000D+00  6 21 2 25 4 1 -3 2 0.15908272D+00 0.25444289D+00 0.23804565D+06 0.23804565D+06 0.23804565D+06 0.10920636D+01  1  2  5  5  6  1        3 0.873436434296D-03 0.100000000000D+01
  </mgrwgt>
  </event>
  <event>
  5     66 -.20805674E-05 0.25529232E+02 0.75467711E-02 0.93964684E-01
        3 -1    0    0  501    0 0.00000000E+00 0.00000000E+00 0.28608670E+03 0.28608714E+03 0.50000000E+00 0.0000E+00 0.9000E+01
        2 -1    0    0  502    0 0.00000000E+00 0.00000000E+00 -.22375653E+04 0.22375653E+04 0.32000000E+00 0.0000E+00 0.9000E+01
       25  1    1    2    0    0 0.44298709E+03 -.16155336E+03 -.46607518E+03 0.67467631E+03 0.12500000E+03 0.0000E+00 0.9000E+01
        4  1    1    2  501    0 -.46815343E+03 0.16570254E+03 -.15773684E+03 0.52106456E+03 0.15500000E+01 0.0000E+00 0.9000E+01
        1  1    1    2  502    0 0.25166336E+02 -.41491801E+01 -.13276665E+04 0.13279116E+04 0.32000000E+00 0.0000E+00 0.9000E+01
#aMCatNLO 1  0  0  1  2 0.55927336D+02 0.00000000D+00  -5  6  0 0.00000000D+00 0.00000000D+00 0.00000000D+00 0.00000000D+00 0.00000000D+00
  <mgrwgt>
 -.2171381684D-01    7    2    0
 0.800086402505727D+03 0.000000000000000D+00 0.000000000000000D+00 0.800086402505727D+03
 0.800086402505727D+03 0.000000000000000D+00 0.000000000000000D+00 -.800086402505727D+03
 0.495504679219130D+03 0.442739119366734D+03 -.161470076755643D+03 0.883706604193277D+02
 0.629106086869478D+03 -.467928323532715D+03 0.165622867641409D+03 0.386505651040612D+03
 0.475562038922845D+03 0.251892041659805D+02 -.415279088576514D+01 -.474876311459939D+03
 0.000000000000000D+00 0.000000000000000D+00 -.000000000000000D+00 0.000000000000000D+00
 0.102222375648257D+04 0.000000000000000D+00 0.000000000000000D+00 0.102222375648257D+04
 0.804102883122955D+03 0.000000000000000D+00 0.000000000000000D+00 -.804102883122955D+03
 0.480800399667028D+03 0.430548667966883D+03 -.149540948268254D+03 0.883706604193277D+02
 0.645227792665008D+03 -.483840056004057D+03 0.181193505256183D+03 0.386505651040612D+03
 0.475121667229531D+03 0.133186692613552D+02 0.746327905673457D+01 -.474876311459939D+03
 0.225176780043960D+03 0.399727187758189D+02 -.391158360446639D+02 0.218120873359617D+03
0.603639085034D-03 0.000000000000D+00 0.000000000000D+00 0.357250322660D-04 0.000000000000D+00  6 3 2 25 4 1 21 0 0.44013375D-01 0.34424084D+00 0.25475475D+06 0.25475475D+06 0.25475475D+06 0.10898441D+01  1  2  2  1  6  1        3 0.136457821760D-02 0.100000000000D+01
0.380189632586D-03 0.000000000000D+00 -.231813302835D-05 0.357250322660D-04 0.000000000000D+00  6 3 2 25 4 1 21 2 0.44013375D-01 0.34424084D+00 0.25475475D+06 0.25475475D+06 0.25475475D+06 0.10898441D+01  1  2  3  1  6  1        3 0.102082218441D-02 0.100000000000D+01
-.381084788900D-03 0.000000000000D+00 0.000000000000D+00 0.357250322660D-04 0.000000000000D+00  6 3 2 25 4 1 21 2 0.44013375D-01 0.34424084D+00 0.25475475D+06 0.25475475D+06 0.25475475D+06 0.10898441D+01  1  2 15  1  6  1        3 -.102322570977D-02 0.100000000000D+01
-.101396133618D-01 0.000000000000D+00 0.000000000000D+00 0.357250322660D-04 0.000000000000D+00  6 3 2 25 4 1 21 2 0.44013375D-01 0.34424084D+00 0.25475475D+06 0.25475475D+06 0.25475475D+06 0.10898441D+01  1  2  4  1  6  1        3 -.272252091427D-01 0.100000000000D+01
-.178411476826D-01 0.000000000000D+00 -.676969939846D-03 0.357250322660D-04 0.000000000000D+00  6 3 2 25 4 1 21 2 0.56367040D-01 0.34424084D+00 0.25475475D+06 0.25475475D+06 0.25475475D+06 0.10898441D+01  1  2  5  1  6  1        3 -.289699556159D-01 0.100000000000D+01
0.174908488930D-01 0.000000000000D+00 0.656769323055D-03 0.357250322660D-04 0.000000000000D+00  6 3 2 25 4 1 21 2 0.44013375D-01 0.34424084D+00 0.25475475D+06 0.25475475D+06 0.25475475D+06 0.10898441D+01  1  2  6  1  6  1        3 0.469635283126D-01 0.100000000000D+01
-.587991966981D-03 0.000000000000D+00 -.227340873123D-04 0.357250322660D-04 0.000000000000D+00  6 21 2 25 4 1 -3 2 0.56367040D-01 0.34424084D+00 0.25475475D+06 0.25475475D+06 0.25475475D+06 0.10898441D+01  1  2  5  5  6  1        3 -.138443550832D-01 0.100000000000D+01
  </mgrwgt>
  </event>
  <event>
  5     66 0.20805674E-05 0.20173623E+02 0.75467711E-02 0.93553287E-01
        3 -1    0    0  501    0 0.00000000E+00 0.00000000E+00 0.23698146E+03 0.23698199E+03 0.50000000E+00 0.0000E+00 0.9000E+01
        2 -1    0    0  502    0 0.00000000E+00 0.00000000E+00 -.12696319E+04 0.12696319E+04 0.32000000E+00 0.0000E+00 0.9000E+01
       25  1    1    2    0    0 -.25881402E+03 0.39824100E+03 -.51267579E+03 0.70995919E+03 0.12500000E+03 0.0000E+00 0.9000E+01
        4  1    1    2  501    0 0.27714888E+03 -.40660939E+03 -.30118398E+03 0.57693751E+03 0.15500000E+01 0.0000E+00 0.9000E+01
        1  1    1    2  502    0 -.18334861E+02 0.83683953E+01 -.21879063E+03 0.21971719E+03 0.32000000E+00 0.0000E+00 0.9000E+01
#aMCatNLO 1  0  0  2  5 0.81523730D+02 0.00000000D+00  -5  6  0 0.00000000D+00 0.00000000D+00 0.00000000D+00 0.00000000D+00 0.00000000D+00
  <mgrwgt>
 0.1005596968D-01    7    2    0
 0.548524965780584D+03 0.000000000000000D+00 0.000000000000000D+00 0.548524965780584D+03
 0.548524965780584D+03 0.000000000000000D+00 0.000000000000000D+00 -.548524965780584D+03
 0.492349183441546D+03 -.258764406014059D+03 0.398188054711113D+03 -.356366903784370D+02
 0.508762896012825D+03 0.277117390178865D+03 -.406563197619201D+03 0.129429528166729D+03
 0.959378521067959D+02 -.183529841648064D+02 0.837514290808832D+01 -.937928377882921D+02
 0.000000000000000D+00 0.000000000000000D+00 -.000000000000000D+00 -.000000000000000D+00
 0.555984694043591D+03 0.000000000000000D+00 0.000000000000000D+00 0.555984694043591D+03
 0.897041914795120D+03 0.000000000000000D+00 0.000000000000000D+00 -.897041914795120D+03
 0.519153556100570D+03 -.299182863406683D+03 0.403875049185409D+03 -.356366903784370D+02
 0.483660649697442D+03 0.237461314886488D+03 -.400983472523082D+03 0.129429528166729D+03
 0.978142448609977D+02 -.260950896182918D+02 0.946447965604218D+01 -.937928377882921D+02
 0.352398158179702D+03 0.878166381384867D+02 -.123560563183694D+02 -.341057220751530D+03
0.114050507017D-03 0.000000000000D+00 0.000000000000D+00 0.151057151346D-05 0.000000000000D+00  6 3 2 25 4 1 21 0 0.36458730D-01 0.19532802D+00 0.25163038D+06 0.25163038D+06 0.25163038D+06 0.10902468D+01  1  2  2  2  6  2        2 0.126910394400D-02 0.100000000000D+01
0.452486271219D-04 0.000000000000D+00 -.437983977133D-06 0.151057151346D-05 0.000000000000D+00  6 3 2 25 4 1 21 2 0.36458730D-01 0.19532802D+00 0.25163038D+06 0.25163038D+06 0.25163038D+06 0.10902468D+01  1  2  3  2  6  2        2 0.598487405531D-03 0.100000000000D+01
-.879152478721D-04 0.000000000000D+00 0.000000000000D+00 0.151057151346D-05 0.000000000000D+00  6 3 2 25 4 1 21 2 0.36458730D-01 0.19532802D+00 0.25163038D+06 0.25163038D+06 0.25163038D+06 0.10902468D+01  1  2 15  2  6  2        2 -.116282353637D-02 0.100000000000D+01
-.521375837718D-04 0.000000000000D+00 0.000000000000D+00 0.151057151346D-05 0.000000000000D+00  6 3 2 25 4 1 21 2 0.36458730D-01 0.19532802D+00 0.25163038D+06 0.25163038D+06 0.25163038D+06 0.10902468D+01  1  2  4  2  6  2        2 -.689605170962D-03 0.100000000000D+01
-.136847517175D-02 0.000000000000D+00 -.689419534326D-04 0.151057151346D-05 0.000000000000D+00  6 3 2 25 4 1 21 2 0.36458730D-01 0.32060930D+00 0.25163038D+06 0.25163038D+06 0.25163038D+06 0.10902468D+01  1  2  5  2  6  2        2 -.647200923111D-02 0.100000000000D+01
0.125326394497D-02 0.000000000000D+00 0.612646038833D-04 0.151057151346D-05 0.000000000000D+00  6 3 2 25 4 1 21 2 0.36458730D-01 0.19532802D+00 0.25163038D+06 0.25163038D+06 0.25163038D+06 0.10902468D+01  1  2  6  2  6  2        2 0.165764739083D-01 0.100000000000D+01
-.735355519057D-04 0.000000000000D+00 -.385969845770D-05 0.151057151346D-05 0.000000000000D+00  6 3 21 25 4 1 -2 2 0.36458730D-01 0.32060930D+00 0.25163038D+06 0.25163038D+06 0.25163038D+06 0.10902468D+01  1  2  5  6  6  2        2 -.636576400583D-04 0.100000000000D+01
  </mgrwgt>
  </event>
  <event>
  5     66 0.20805674E-05 0.14284949E+03 0.75467711E-02 0.89816035E-01
        3 -1    0    0  501    0 0.00000000E+00 0.00000000E+00 0.93001082E+03 0.93001096E+03 0.50000000E+00 0.0000E+00 0.9000E+01
        2 -1    0    0  502    0 0.00000000E+00 0.00000000E+00 -.34402270E+04 0.34402271E+04 0.32000000E+00 0.0000E+00 0.9000E+01
       25  1    1    2    0    0 -.53348698E+03 -.34884586E+03 -.32145958E+03 0.72475033E+03 0.12500000E+03 0.0000E+00 0.9000E+01
        4  1    1    2  501    0 -.28979875E+02 -.13992374E+03 0.67315572E+03 0.68815660E+03 0.15500000E+01 0.0000E+00 0.9000E+01
        1  1    1    2  502    0 0.56246685E+03 0.48876960E+03 -.28619124E+04 0.29573311E+04 0.32000000E+00 0.0000E+00 0.9000E+01
#aMCatNLO 1  0  0  2  2 0.25114189D+02 0.00000000D+00  -5  6  0 0.00000000D+00 0.00000000D+00 0.00000000D+00 0.00000000D+00 0.00000000D+00
  <mgrwgt>
 0.3074879134D-02    7    2    0
 0.178870028457908D+04 0.000000000000000D+00 0.000000000000000D+00 0.178870028457908D+04
 0.178870028457908D+04 0.000000000000000D+00 0.000000000000000D+00 -.178870028457908D+04
 0.660178216258880D+03 -.533732141587168D+03 -.349078031775620D+03 0.116124097375138D+03
 0.131261011285325D+04 -.289709964569887D+02 -.139880869105842D+03 0.130481390710979D+04
 0.160461224004603D+04 0.562703138044157D+03 0.488958900881462D+03 -.142093800448492D+04
 0.000000000000000D+00 0.000000000000000D+00 0.000000000000000D+00 -.000000000000000D+00
 0.179726189090463D+04 0.000000000000000D+00 0.000000000000000D+00 0.179726189090463D+04
 0.180725684291347D+04 0.000000000000000D+00 0.000000000000000D+00 -.180725684291347D+04
 0.664633624811087D+03 -.537259841246338D+03 -.352107813350249D+03 0.116124097375138D+03
 0.131343655667055D+04 -.359636150718413D+02 -.145886512750311D+03 0.130481390710979D+04
 0.159941854033099D+04 0.554171467401195D+03 0.481631435107085D+03 -.142093800448492D+04
 0.270300120054807D+02 0.190519889169844D+02 0.163628909934755D+02 -.999495200884775D+01
0.182411182202D-01 0.000000000000D+00 0.000000000000D+00 0.250241642945D-04 0.000000000000D+00  6 3 2 25 4 1 21 0 0.14307860D+00 0.52926571D+00 0.59151313D+06 0.59151313D+06 0.59151313D+06 0.10633895D+01  1  2  2  2  6  2        2 0.454781037904D-03 0.100000000000D+01
0.456004177960D-02 0.000000000000D+00 -.700506969621D-04 0.250241642945D-04 0.000000000000D+00  6 3 2 25 4 1 21 2 0.14307860D+00 0.52926571D+00 0.59151313D+06 0.59151313D+06 0.59151313D+06 0.10633895D+01  1  2  3  2  6  2        2 0.128559573583D-03 0.100000000000D+01
-.131951350869D-01 0.000000000000D+00 0.000000000000D+00 0.250241642945D-04 0.000000000000D+00  6 3 2 25 4 1 21 2 0.14307860D+00 0.52926571D+00 0.59151313D+06 0.59151313D+06 0.59151313D+06 0.10633895D+01  1  2 15  2  6  2        2 -.372005569715D-03 0.100000000000D+01
-.650958952396D-03 0.000000000000D+00 0.000000000000D+00 0.250241642945D-04 0.000000000000D+00  6 3 2 25 4 1 21 2 0.14307860D+00 0.52926571D+00 0.59151313D+06 0.59151313D+06 0.59151313D+06 0.10633895D+01  1  2  4  2  6  2        2 -.183522453050D-04 0.100000000000D+01
-.157625904734D+01 0.000000000000D+00 -.194277818830D+00 0.250241642945D-04 0.000000000000D+00  6 3 2 25 4 1 21 2 0.14307860D+00 0.53543943D+00 0.59151313D+06 0.59151313D+06 0.59151313D+06 0.10633895D+01  1  2  5  2  6  2        2 -.416199984857D-01 0.100000000000D+01
0.157860447856D+01 0.000000000000D+00 0.194551750568D+00 0.250241642945D-04 0.000000000000D+00  6 3 2 25 4 1 21 2 0.14307860D+00 0.52926571D+00 0.59151313D+06 0.59151313D+06 0.59151313D+06 0.10633895D+01  1  2  6  2  6  2        2 0.445050129864D-01 0.100000000000D+01
-.335901722660D-02 0.000000000000D+00 -.415197422812D-03 0.250241642945D-04 0.000000000000D+00  6 3 21 25 4 1 -2 2 0.14307860D+00 0.53543943D+00 0.59151313D+06 0.59151313D+06 0.59151313D+06 0.10633895D+01  1  2  5  6  6  2        2 -.311816367376D-05 0.100000000000D+01
  </mgrwgt>
  </event>
  <event>
  5     66 0.20805674E-05 0.60831967E+02 0.75467711E-02 0.91070061E-01
        3 -1    0    0  501    0 0.00000000E+00 0.00000000E+00 0.45766060E+03 0.45766087E+03 0.50000000E+00 0.0000E+00 0.9000E+01
        2 -1    0    0  502    0 -.00000000E+00 -.00000000E+00 -.30473536E+04 0.30473537E+04 0.32000000E+00 0.0000E+00 0.9000E+01
       25  1    1    2    0    0 -.30710373E+03 -.45816564E+03 0.25363800E+02 0.56612435E+03 0.12500000E+03 0.0000E+00 0.9000E+01
        4  1    1    2  501    0 -.54285945E+02 -.27893013E+02 0.12156921E+03 0.13603845E+03 0.15500000E+01 0.0000E+00 0.9000E+01
        1  1    1    2  502    0 0.36138968E+03 0.48605866E+03 -.27366260E+04 0.28028517E+04 0.32000000E+00 0.0000E+00 0.9000E+01
#aMCatNLO 1  0  0  4  1 0.18306512D+03 0.00000000D+00  -5  6  0 0.00000000D+00 0.00000000D+00 0.00000000D+00 0.00000000D+00 0.00000000D+00
  <mgrwgt>
 0.4860913287D-02    6    2    0
 0.118095477823923D+04 0.000000000000000D+00 0.000000000000000D+00 0.118095477823923D+04
 0.118095477823923D+04 -.000000000000000D+00 -.000000000000000D+00 -.118095477823923D+04
 0.868972840513713D+03 -.307498571005480D+03 -.458566241519819D+03 0.659280235194751D+03
 0.334065397282148D+03 -.541074486169587D+02 -.278012985730844D+02 0.328480077726325D+03
 0.115887131868260D+04 0.361606019622439D+03 0.486367540092903D+03 -.987760312921076D+03
 0.000000000000000D+00 -.000000000000000D+00 0.000000000000000D+00 0.000000000000000D+00
 0.118095477823923D+04 0.000000000000000D+00 0.000000000000000D+00 0.118095477823923D+04
 0.118095477823923D+04 -.000000000000000D+00 -.000000000000000D+00 -.118095477823923D+04
 0.891872426388871D+03 -.311854427206914D+03 -.460804352203152D+03 0.685724135622229D+03
 0.132927871451970D+03 0.841618825052356D+02 -.198860093186573D+02 0.100951192044991D+03
 0.112671121280352D+04 0.355952104976562D+03 0.483462465594020D+03 -.953436049445206D+03
 0.210398045834101D+03 -.128259560274884D+03 -.277210407221128D+01 0.166760721777986D+03
0.189706722920D-01 0.000000000000D+00 0.000000000000D+00 0.160162149904D-04 0.000000000000D+00  6 3 2 25 4 1 21 0 0.70409345D-01 0.46882366D+00 0.38006593D+06 0.38006593D+06 0.38006593D+06 0.10770317D+01  1  2  2  3  6  4        4 0.518981696704D-02 0.100000000000D+01
0.403311938207D-02 0.000000000000D+00 -.728523766942D-04 0.160162149904D-04 0.000000000000D+00  6 3 2 25 4 1 21 2 0.70409345D-01 0.46882366D+00 0.38006593D+06 0.38006593D+06 0.38006593D+06 0.10770317D+01  1  2  3  3  6  4        4 0.127987454467D-02 0.100000000000D+01
-.126073754251D-01 0.000000000000D+00 0.000000000000D+00 0.160162149904D-04 0.000000000000D+00  6 3 2 25 4 1 21 2 0.70409345D-01 0.46882366D+00 0.38006593D+06 0.38006593D+06 0.38006593D+06 0.10770317D+01  1  2 15  3  6  4        4 -.400083839656D-02 0.100000000000D+01
-.116578699079D-02 0.000000000000D+00 0.000000000000D+00 0.160162149904D-04 0.000000000000D+00  6 3 2 25 4 1 21 2 0.70409345D-01 0.46882366D+00 0.38006593D+06 0.38006593D+06 0.38006593D+06 0.10770317D+01  1  2  4  3  6  4        4 -.369952127043D-03 0.100000000000D+01
-.626179252619D-02 0.000000000000D+00 0.000000000000D+00 0.160162149904D-04 0.000000000000D+00  6 3 2 25 4 1 21 2 0.70409345D-01 0.46882366D+00 0.38006593D+06 0.38006593D+06 0.38006593D+06 0.10770317D+01  1  2  5  3  6  4        4 -.198712413372D-02 0.100000000000D+01
0.149653997524D-01 0.000000000000D+00 -.000000000000D+00 0.160162149904D-04 0.000000000000D+00  6 3 2 25 4 1 21 2 0.70409345D-01 0.46882366D+00 0.38006593D+06 0.38006593D+06 0.38006593D+06 0.10770317D+01  1  2  6  3  6  4        4 0.474913643248D-02 0.100000000000D+01
  </mgrwgt>
  </event>
  <event>
  6     66 -.20805674E-05 0.25098418E+02 0.75467711E-02 0.91923151E-01
        3 -1    0    0  503    0 0.00000000E+00 0.00000000E+00 0.25157377E+03 0.25157427E+03 0.50000000E+00 0.0000E+00 0.9000E+01
        2 -1    0    0  502    0 0.00000000E+00 0.00000000E+00 -.43892627E+04 0.43892627E+04 0.32000000E+00 0.0000E+00 0.9000E+01
       25  1    1    2    0    0 -.38039939E+03 -.49604135E+03 -.21164172E+04 0.22103411E+04 0.12500000E+03 0.0000E+00 0.9000E+01
        4  1    1    2  501    0 0.37959092E+03 0.46915920E+03 -.30963110E+03 0.67828714E+03 0.15500000E+01 0.0000E+00 0.9000E+01
        1  1    1    2  502    0 0.89270605E+01 0.27759471E+02 -.17309681E+04 0.17312137E+04 0.32000000E+00 0.0000E+00 0.9000E+01
       21  1    1    2  503  501 -.81185907E+01 -.87731602E+00 0.19327456E+02 0.20995100E+02 0.75000000E+00 0.0000E+00 0.9000E+01
#aMCatNLO 2  0  0  1  4 0.81658556D+01 0.00000000D+00  -5  6  0 0.00000000D+00 0.00000000D+00 0.00000000D+00 0.00000000D+00 0.00000000D+00
  <mgrwgt>
 -.8334870006D-03    5    2    0
 0.100773100049213D+04 0.000000000000000D+00 0.000000000000000D+00 0.100773100049213D+04
 0.100773100049213D+04 0.000000000000000D+00 0.000000000000000D+00 -.100773100049213D+04
 0.702809889205450D+03 -.383184689243340D+03 -.496306110571465D+03 -.291832964046021D+03
 0.914282217558718D+03 0.375855003477099D+03 0.468699564941791D+03 0.689177558781983D+03
 0.398369894220084D+03 0.732968576624063D+01 0.276065456296744D+02 -.397344594735962D+03
 0.000000000000000D+00 -.000000000000000D+00 -.000000000000000D+00 0.000000000000000D+00
 0.109553439096012D+04 0.000000000000000D+00 0.000000000000000D+00 0.109553439096012D+04
 0.100792914895409D+04 0.000000000000000D+00 0.000000000000000D+00 -.100792914895409D+04
 0.701056092400106D+03 -.380357206894406D+03 -.496000565474382D+03 -.291832964046021D+03
 0.916007744968628D+03 0.379541332963165D+03 0.469097919294428D+03 0.689177558781983D+03
 0.398414705957656D+03 0.893446458588864D+01 0.277799622030553D+02 -.397344594735962D+03
 0.879849965878195D+02 -.811859065464764D+01 -.877316023101244D+00 0.876052420060380D+02
-.481711919871D-01 0.000000000000D+00 0.000000000000D+00 0.411763430263D-04 0.000000000000D+00  6 3 2 25 4 1 21 2 0.38735936D-01 0.67513741D+00 0.40843916D+06 0.40843916D+06 0.40843916D+06 0.10747746D+01  1  2 13  1  6  1        3 -.482017533220D-02 0.100000000000D+01
-.242060529761D-02 0.000000000000D+00 0.000000000000D+00 0.411763430263D-04 0.000000000000D+00  6 3 2 25 4 1 21 2 0.35601669D-01 0.67513741D+00 0.40240398D+06 0.40240398D+06 0.40240398D+06 0.10752401D+01  1  2  8  1  6  1        3 -.286029676479D-03 0.100000000000D+01
-.291502523799D-02 0.000000000000D+00 0.000000000000D+00 0.411763430263D-04 0.000000000000D+00  6 3 2 25 4 1 21 2 0.38707202D-01 0.67513741D+00 0.40240398D+06 0.40240398D+06 0.40240398D+06 0.10752401D+01  1  2  9  1  6  1        3 -.292765364110D-03 0.100000000000D+01
0.290486027969D-02 0.000000000000D+00 0.000000000000D+00 0.411763430263D-04 0.000000000000D+00  6 3 2 25 4 1 21 2 0.35601669D-01 0.67513741D+00 0.40240398D+06 0.40240398D+06 0.40240398D+06 0.10752401D+01  1  2 10  1  6  1        3 0.343251436670D-03 0.100000000000D+01
0.422066213255D-01 0.000000000000D+00 0.000000000000D+00 0.411763430263D-04 0.312943054109D-05  6 3 2 25 4 1 21 2 0.38703634D-01 0.67527016D+00 0.40843916D+06 0.40843916D+06 0.40843916D+06 0.10747746D+01  1  2  1  1  6  1        3 0.422223193556D-02 0.100000000000D+01
  </mgrwgt>
  </event>
  <event>
  6     66 0.20805674E-05 0.27245216E+02 0.75467711E-02 0.90802912E-01
        3 -1    0    0  501    0 0.00000000E+00 0.00000000E+00 0.10599504E+04 0.10599505E+04 0.50000000E+00 0.0000E+00 0.9000E+01
        2 -1    0    0  502    0 0.00000000E+00 0.00000000E+00 -.95750878E+03 0.95750883E+03 0.32000000E+00 0.0000E+00 0.9000E+01
       25  1    1    2    0    0 -.47989968E+03 0.50426746E+03 -.32621405E+03 0.77886455E+03 0.12500000E+03 0.0000E+00 0.9000E+01
        4  1    1    2  501    0 0.41204111E+02 0.28530991E+01 0.55110135E+03 0.55264910E+03 0.15500000E+01 0.0000E+00 0.9000E+01
        1  1    1    2  503    0 0.30281843E+03 -.37756353E+03 -.58059752E+02 0.48746719E+03 0.32000000E+00 0.0000E+00 0.9000E+01
       21  1    1    2  502  503 0.13587713E+03 -.12955703E+03 -.64385918E+02 0.19847853E+03 0.75000000E+00 0.0000E+00 0.9000E+01
#aMCatNLO 2  0  0  5  2 0.36952793D+03 0.00000000D+00  -5  6  0 0.00000000D+00 0.00000000D+00 0.00000000D+00 0.00000000D+00 0.00000000D+00
  <mgrwgt>
 0.7848711924D-03    1    2    0
 0.100742841057369D+04 0.000000000000000D+00 0.000000000000000D+00 0.100742841057369D+04
 0.100742841057369D+04 -.000000000000000D+00 -.000000000000000D+00 -.100742841057369D+04
 0.797989213593912D+03 -.481296441970447D+03 0.505891871374123D+03 -.365498200318970D+03
 0.524842460061656D+03 0.404397604238299D+02 0.366918292266411D+01 0.523269309970606D+03
 0.692025147491807D+03 0.440856681546617D+03 -.509561054296787D+03 -.157771109651636D+03
 0.000000000000000D+00 0.000000000000000D+00 0.000000000000000D+00 -.000000000000000D+00
 0.100742841057369D+04 0.000000000000000D+00 0.000000000000000D+00 0.100742841057369D+04
 0.100742841057369D+04 -.000000000000000D+00 -.000000000000000D+00 -.100742841057369D+04
 0.796725179631031D+03 -.480217214171751D+03 0.504644453612413D+03 -.365884427803988D+03
 0.524639176111014D+03 0.411500003017606D+02 0.284825722016062D+01 0.523015133639951D+03
 0.491164118519041D+03 0.302935958475896D+03 -.377692417455453D+03 -.825859199835661D+02
 0.202328346886288D+03 0.136131255394094D+03 -.129800293377120D+03 -.745447858523974D+02
0.134422298070D-02 0.000000000000D+00 0.000000000000D+00 0.402407300466D-05 0.125544546146D-07  6 3 2 25 4 1 21 2 0.16306931D+00 0.14730906D+00 0.50499326D+06 0.50499326D+06 0.50499326D+06 0.10682055D+01  1  2  1  4  6  5        1 0.784871192446D-03 0.100000000000D+01
  </mgrwgt>
  </event>
  <event>
  5     66 0.20805674E-05 0.18039263E+02 0.75467711E-02 0.90623102E-01
        3 -1    0    0  501    0 0.00000000E+00 0.00000000E+00 0.68226051E+03 0.68226069E+03 0.50000000E+00 0.0000E+00 0.9000E+01
        2 -1    0    0  502    0 0.00000000E+00 0.00000000E+00 -.16111188E+04 0.16111188E+04 0.32000000E+00 0.0000E+00 0.9000E+01
       25  1    1    2    0    0 0.37576319E+03 -.59193382E+03 -.58513925E+03 0.92173563E+03 0.12500000E+03 0.0000E+00 0.9000E+01
        4  1    1    2  501    0 -.38232857E+03 0.57514528E+03 0.28176780E+03 0.74589726E+03 0.15500000E+01 0.0000E+00 0.9000E+01
        1  1    1    2  502    0 0.65653724E+01 0.16788539E+02 -.62548680E+03 0.62574659E+03 0.32000000E+00 0.0000E+00 0.9000E+01
#aMCatNLO 1  0  0  2  5 0.29165478D+02 0.00000000D+00  -5  6  0 0.00000000D+00 0.00000000D+00 0.00000000D+00 0.00000000D+00 0.00000000D+00
  <mgrwgt>
 0.1583626749D-02    4    2    0
 0.104842880082592D+04 0.000000000000000D+00 0.000000000000000D+00 0.104842880082592D+04
 0.104842880082592D+04 0.000000000000000D+00 0.000000000000000D+00 -.104842880082592D+04
 0.748691294663569D+03 0.375703479803225D+03 -.591862196988060D+03 -.231213515489959D+03
 0.940482825077877D+03 -.382273014470036D+03 0.575061713761447D+03 0.638497699322562D+03
 0.407683481910385D+03 0.656953466681153D+01 0.168004832266128D+02 -.407284183832603D+03
 0.000000000000000D+00 -.000000000000000D+00 0.000000000000000D+00 0.000000000000000D+00
 0.106344425227484D+04 0.000000000000000D+00 0.000000000000000D+00 0.106344425227484D+04
 0.106278901082787D+04 0.000000000000000D+00 0.000000000000000D+00 -.106278901082787D+04
 0.758154726699216D+03 0.383493336039331D+03 -.598871239152927D+03 -.231213515489959D+03
 0.931271156102795D+03 -.372596714293347D+03 0.566355314839222D+03 0.638497699322562D+03
 0.407634542349784D+03 0.107844379188033D+02 0.130080596287144D+02 -.407284183832603D+03
 0.291728379509057D+02 -.216810596647875D+02 0.195078646849906D+02 0.655241446969709D+00
0.208947192830D-02 0.000000000000D+00 0.000000000000D+00 0.321790773770D-04 0.000000000000D+00  6 3 2 25 4 1 21 0 0.10496317D+00 0.24786444D+00 0.50457001D+06 0.50457001D+06 0.50457001D+06 0.10682312D+01  1  2  2  2  6  2        2 0.150231661308D-02 0.100000000000D+01
0.163716211580D-02 0.000000000000D+00 -.802412237528D-05 0.321790773770D-04 0.000000000000D+00  6 3 2 25 4 1 21 2 0.10496317D+00 0.24786444D+00 0.50457001D+06 0.50457001D+06 0.50457001D+06 0.10682312D+01  1  2  3  2  6  2        2 0.134322005270D-02 0.100000000000D+01
-.134815168864D-02 0.000000000000D+00 0.000000000000D+00 0.321790773770D-04 0.000000000000D+00  6 3 2 25 4 1 21 2 0.10496317D+00 0.24786444D+00 0.50457001D+06 0.50457001D+06 0.50457001D+06 0.10682312D+01  1  2 15  2  6  2        2 -.110609961273D-02 0.100000000000D+01
-.189906878216D-03 0.000000000000D+00 0.000000000000D+00 0.321790773770D-04 0.000000000000D+00  6 3 2 25 4 1 21 2 0.10496317D+00 0.24786444D+00 0.50457001D+06 0.50457001D+06 0.50457001D+06 0.10682312D+01  1  2  4  2  6  2        2 -.155810304004D-03 0.100000000000D+01
  </mgrwgt>
  </event>
  <event>
  5     66 -.20805674E-05 0.16670206E+02 0.75467711E-02 0.85908920E-01
        3 -1    0    0  501    0 0.00000000E+00 0.00000000E+00 0.16760874E+04 0.16760875E+04 0.50000000E+00 0.0000E+00 0.9000E+01
        2 -1    0    0  502    0 -.00000000E+00 -.00000000E+00 -.27412593E+04 0.27412594E+04 0.32000000E+00 0.0000E+00 0.9000E+01
       25  1    1    2    0    0 0.11092066E+04 0.31045674E+03 0.89624753E+03 0.14647892E+04 0.12500000E+03 0.0000E+00 0.9000E+01
        4  1    1    2  501    0 0.12820150E+02 -.10724646E+02 0.35812205E+03 0.35851524E+03 0.15500000E+01 0.0000E+00 0.9000E+01
        1  1    1    2  502    0 -.11220268E+04 -.29973209E+03 -.23195415E+04 0.25940425E+04 0.32000000E+00 0.0000E+00 0.9000E+01
#aMCatNLO 1  0  0  5  5 0.41407868D+02 0.00000000D+00  -5  6  0 0.00000000D+00 0.00000000D+00 0.00000000D+00 0.00000000D+00 0.00000000D+00
  <mgrwgt>
 -.1439234525D-02    6    2    0
 0.214349960274393D+04 0.000000000000000D+00 0.000000000000000D+00 0.214349960274393D+04
 0.214349960274393D+04 -.000000000000000D+00 -.000000000000000D+00 -.214349960274393D+04
 0.173311047246792D+04 0.110964251262279D+04 0.310540128997331D+03 0.128852832030983D+04
 0.457179846536893D+03 0.127861810554073D+02 -.106962298880442D+02 0.456875821552966D+03
 0.209670888648305D+04 -.112242869367820D+04 -.299843899109287D+03 -.174540414186279D+04
 0.000000000000000D+00 0.000000000000000D+00 0.000000000000000D+00 -.000000000000000D+00
 0.214349960274393D+04 0.000000000000000D+00 0.000000000000000D+00 0.214349960274393D+04
 0.214349960274393D+04 -.000000000000000D+00 -.000000000000000D+00 -.214349960274393D+04
 0.173141594832414D+04 0.110872368730574D+04 0.310294675395497D+03 0.128709952441120D+04
 0.456797966606987D+03 0.125437854572963D+02 -.107609830805400D+02 0.456498890454095D+03
 0.187052221704415D+04 -.103411081682570D+04 -.277369952342686D+03 -.153379727882052D+04
 0.228263073512589D+03 -.871566559373358D+02 -.221637399722708D+02 -.209801136044770D+03
0.792027114858D-03 0.000000000000D+00 0.000000000000D+00 0.590443770298D-04 0.000000000000D+00  6 3 2 25 4 1 21 0 0.25785961D+00 0.42173221D+00 0.13659715D+07 0.13659715D+07 0.13659715D+07 0.10389653D+01  1  2  2  4  6  5        1 0.557198911504D-05 0.100000000000D+01
0.644196840138D-03 0.000000000000D+00 -.304159266658D-05 0.590443770298D-04 0.000000000000D+00  6 3 2 25 4 1 21 2 0.25785961D+00 0.42173221D+00 0.13659715D+07 0.13659715D+07 0.13659715D+07 0.10389653D+01  1  2  3  4  6  5        1 0.489205011968D-05 0.100000000000D+01
-.591567101572D-03 0.000000000000D+00 0.000000000000D+00 0.590443770298D-04 0.000000000000D+00  6 3 2 25 4 1 21 2 0.25785961D+00 0.42173221D+00 0.13659715D+07 0.13659715D+07 0.13659715D+07 0.10389653D+01  1  2 15  4  6  5        1 -.449237830695D-05 0.100000000000D+01
-.200675577675D+00 0.000000000000D+00 0.000000000000D+00 0.590443770298D-04 0.000000000000D+00  6 3 2 25 4 1 21 2 0.25785961D+00 0.42173221D+00 0.13659715D+07 0.13659715D+07 0.13659715D+07 0.10389653D+01  1  2  4  4  6  5        1 -.152393635394D-02 0.100000000000D+01
-.903441880652D-01 0.000000000000D+00 0.000000000000D+00 0.590443770298D-04 0.000000000000D+00  6 3 2 25 4 1 21 2 0.25785961D+00 0.42173221D+00 0.13659715D+07 0.13659715D+07 0.13659715D+07 0.10389653D+01  1  2  5  4  6  5        1 -.686076473058D-03 0.100000000000D+01
0.100711564601D+00 0.000000000000D+00 -.000000000000D+00 0.590443770298D-04 0.000000000000D+00  6 3 2 25 4 1 21 2 0.25785961D+00 0.42173221D+00 0.13659715D+07 0.13659715D+07 0.13659715D+07 0.10389653D+01  1  2  6  4  6  5        1 0.764806641330D-03 0.100000000000D+01
  </mgrwgt>
  </event>
  <event>
  5     66 -.20805674E-05 0.11979005E+02 0.75467711E-02 0.94789183E-01
        3 -1    0    0  501    0 0.00000000E+00 0.00000000E+00 0.44143522E+03 0.44143551E+03 0.50000000E+00 0.0000E+00 0.9000E+01
        2 -1    0    0  502    0 -.00000000E+00 -.00000000E+00 -.94659010E+03 0.94659016E+03 0.32000000E+00 0.0000E+00 0.9000E+01
       25  1    1    2    0    0 0.39096059E+03 0.26819588E+03 -.59976372E+01 0.49034700E+03 0.12500000E+03 0.0000E+00 0.9000E+01
        4  1    1    2  501    0 0.11667608E+02 0.30510612E+01 0.11453633E+03 0.11517993E+03 0.15500000E+01 0.0000E+00 0.9000E+01
        1  1    1    2  502    0 -.40262819E+03 -.27124694E+03 -.61369357E+03 0.78249873E+03 0.32000000E+00 0.0000E+00 0.9000E+01
#aMCatNLO 1  0  0  5  1 0.24431442D+02 0.00000000D+00  -5  6  0 0.00000000D+00 0.00000000D+00 0.00000000D+00 0.00000000D+00 0.00000000D+00
  <mgrwgt>
 -.1476438607D-01    6    2    0
 0.646419715006368D+03 0.000000000000000D+00 0.000000000000000D+00 0.646419715006368D+03
 0.646419715006368D+03 -.000000000000000D+00 -.000000000000000D+00 -.646419715006368D+03
 0.524973115047180D+03 0.391505628141866D+03 0.268540609008399D+03 0.185959823534494D+03
 0.167275980254246D+03 0.115893097501883D+02 0.303058622126846D+01 0.166846507355379D+03
 0.600590334711310D+03 -.403094937892054D+03 -.271571195229668D+03 -.352806330889873D+03
 0.000000000000000D+00 0.000000000000000D+00 0.000000000000000D+00 -.000000000000000D+00
 0.646419715006368D+03 0.000000000000000D+00 0.000000000000000D+00 0.646419715006368D+03
 0.646419715006368D+03 -.000000000000000D+00 -.000000000000000D+00 -.646419715006368D+03
 0.523515562939773D+03 0.390464644538996D+03 0.267839282510170D+03 0.185048709127140D+03
 0.166959672525612D+03 0.112574665540305D+02 0.280701840897920D+01 0.166556063667151D+03
 0.508404823032284D+03 -.352604890037258D+03 -.237827731769702D+03 -.278537655633094D+03
 0.939593715150663D+02 -.491172210557677D+02 -.328185691494470D+02 -.730671171611968D+02
0.386621548302D-04 0.000000000000D+00 0.000000000000D+00 0.131338114360D-04 0.000000000000D+00  6 3 2 25 4 1 21 0 0.67913137D-01 0.14562927D+00 0.24450757D+06 0.24450757D+06 0.24450757D+06 0.10911856D+01  1  2  2  4  6  5        1 0.189111971108D-03 0.100000000000D+01
0.257621858980D-04 0.000000000000D+00 -.148472854527D-06 0.131338114360D-04 0.000000000000D+00  6 3 2 25 4 1 21 2 0.67913137D-01 0.14562927D+00 0.24450757D+06 0.24450757D+06 0.24450757D+06 0.10911856D+01  1  2  3  4  6  5        1 0.150042040736D-03 0.100000000000D+01
-.308367705697D-04 0.000000000000D+00 0.000000000000D+00 0.131338114360D-04 0.000000000000D+00  6 3 2 25 4 1 21 2 0.67913137D-01 0.14562927D+00 0.24450757D+06 0.24450757D+06 0.24450757D+06 0.10911856D+01  1  2 15  4  6  5        1 -.179597026599D-03 0.100000000000D+01
-.277667829849D-02 0.000000000000D+00 0.000000000000D+00 0.131338114360D-04 0.000000000000D+00  6 3 2 25 4 1 21 2 0.67913137D-01 0.14562927D+00 0.24450757D+06 0.24450757D+06 0.24450757D+06 0.10911856D+01  1  2  4  4  6  5        1 -.161717053057D-01 0.100000000000D+01
-.127139998646D-02 0.000000000000D+00 0.000000000000D+00 0.131338114360D-04 0.000000000000D+00  6 3 2 25 4 1 21 2 0.67913137D-01 0.14562927D+00 0.24450757D+06 0.24450757D+06 0.24450757D+06 0.10911856D+01  1  2  5  4  6  5        1 -.740478503319D-02 0.100000000000D+01
0.148564049446D-02 0.000000000000D+00 -.000000000000D+00 0.131338114360D-04 0.000000000000D+00  6 3 2 25 4 1 21 2 0.67913137D-01 0.14562927D+00 0.24450757D+06 0.24450757D+06 0.24450757D+06 0.10911856D+01  1  2  6  4  6  5        1 0.865254728271D-02 0.100000000000D+01
  </mgrwgt>
  </event>
  <event>
  5     66 -.20805674E-05 0.73026004E+02 0.75467711E-02 0.95558763E-01
        3 -1    0    0  501    0 0.00000000E+00 0.00000000E+00 0.10050868E+03 0.10050993E+03 0.50000000E+00 0.0000E+00 0.9000E+01
        2 -1    0    0  502    0 -.00000000E+00 -.00000000E+00 -.35272673E+04 0.35272673E+04 0.32000000E+00 0.0000E+00 0.9000E+01
       25  1    1    2    0    0 -.15674075E+03 0.42389194E+03 -.25934215E+04 0.26354719E+04 0.12500000E+03 0.0000E+00 0.9000E+01
        4  1    1    2  501    0 0.25561317E+02 -.68711324E+02 0.39005963E+01 0.73431901E+02 0.15500000E+01 0.0000E+00 0.9000E+01
        1  1    1    2  502    0 0.13117943E+03 -.35518062E+03 -.83723774E+03 0.91887347E+03 0.32000000E+00 0.0000E+00 0.9000E+01
#aMCatNLO 1  0  0  5  2 0.43276359D+02 0.00000000D+00  -5  6  0 0.00000000D+00 0.00000000D+00 0.00000000D+00 0.00000000D+00 0.00000000D+00
  <mgrwgt>
 -.2935053712D-02    6    2    0
 0.595418564556633D+03 0.000000000000000D+00 0.000000000000000D+00 0.595418564556633D+03
 0.595418564556633D+03 -.000000000000000D+00 -.000000000000000D+00 -.595418564556633D+03
 0.565983628432670D+03 -.156901896315917D+03 0.424328511643081D+03 -.316290336230887D+03
 0.234006915495208D+03 0.254616527965986D+02 -.684434177874473D+02 0.222320577765577D+03
 0.390846585185389D+03 0.131440243519318D+03 -.355885093855633D+03 0.939697584653106D+02
 0.000000000000000D+00 0.000000000000000D+00 -.000000000000000D+00 0.000000000000000D+00
 0.595418564556633D+03 0.000000000000000D+00 0.000000000000000D+00 0.595418564556633D+03
 0.595418564556633D+03 -.000000000000000D+00 -.000000000000000D+00 -.595418564556633D+03
 0.551802328780681D+03 -.151648492708684D+03 0.410104496335724D+03 -.312534552957252D+03
 0.237574261307758D+03 0.276780040034933D+02 -.744443679999811D+02 0.223905099994155D+03
 0.306954181063295D+03 0.104140073471736D+03 -.255480058502127D+03 0.134557252042724D+03
 0.945063579615332D+02 0.198304152334547D+02 -.801800698336161D+02 -.459277990796279D+02
0.269460304285D-03 0.000000000000D+00 0.000000000000D+00 0.107837398743D-06 0.000000000000D+00  6 3 2 25 4 1 21 0 0.15462971D-01 0.54265660D+00 0.21241363D+06 0.21241363D+06 0.21241363D+06 0.10958224D+01  1  2  2  4  6  5        1 0.664876879152D-03 0.100000000000D+01
0.362304751121D-04 0.000000000000D+00 -.103479851898D-05 0.107837398743D-06 0.000000000000D+00  6 3 2 25 4 1 21 2 0.15462971D-01 0.54265660D+00 0.21241363D+06 0.21241363D+06 0.21241363D+06 0.10958224D+01  1  2  3  4  6  5        1 0.107349702577D-03 0.100000000000D+01
-.196408777873D-03 0.000000000000D+00 0.000000000000D+00 0.107837398743D-06 0.000000000000D+00  6 3 2 25 4 1 21 2 0.15462971D-01 0.54265660D+00 0.21241363D+06 0.21241363D+06 0.21241363D+06 0.10958224D+01  1  2 15  4  6  5        1 -.581952729656D-03 0.100000000000D+01
-.121170345132D-02 0.000000000000D+00 0.000000000000D+00 0.107837398743D-06 0.000000000000D+00  6 3 2 25 4 1 21 2 0.15462971D-01 0.54265660D+00 0.21241363D+06 0.21241363D+06 0.21241363D+06 0.10958224D+01  1  2  4  4  6  5        1 -.359023735429D-02 0.100000000000D+01
-.581250039090D-03 0.000000000000D+00 0.000000000000D+00 0.107837398743D-06 0.000000000000D+00  6 3 2 25 4 1 21 2 0.15462971D-01 0.54265660D+00 0.21241363D+06 0.21241363D+06 0.21241363D+06 0.10958224D+01  1  2  5  4  6  5        1 -.172222469140D-02 0.100000000000D+01
0.738156878741D-03 0.000000000000D+00 -.000000000000D+00 0.107837398743D-06 0.000000000000D+00  6 3 2 25 4 1 21 2 0.15462971D-01 0.54265660D+00 0.21241363D+06 0.21241363D+06 0.21241363D+06 0.10958224D+01  1  2  6  4  6  5        1 0.218713448120D-02 0.100000000000D+01
  </mgrwgt>
  </event>
  <event>
  6     66 0.20805674E-05 0.27944553E+02 0.75467711E-02 0.94700794E-01
        3 -1    0    0  501    0 0.00000000E+00 0.00000000E+00 0.80384397E+03 0.80384413E+03 0.50000000E+00 0.0000E+00 0.9000E+01
        2 -1    0    0  502    0 0.00000000E+00 0.00000000E+00 -.68972634E+03 0.68972641E+03 0.32000000E+00 0.0000E+00 0.9000E+01
       25  1    1    2    0    0 0.48088643E+03 0.65080247E+02 0.44920149E+03 0.67297413E+03 0.12500000E+03 0.0000E+00 0.9000E+01
        4  1    1    2  501    0 -.12982222E+02 -.73947843E+01 0.14400327E+03 0.14478454E+03 0.15500000E+01 0.0000E+00 0.9000E+01
        1  1    1    2  503    0 -.38083561E+03 -.18960378E+02 -.38716705E+03 0.54340932E+03 0.32000000E+00 0.0000E+00 0.9000E+01
       21  1    1    2  502  503 -.87068600E+02 -.38725085E+02 -.91920068E+02 0.13240255E+03 0.75000000E+00 0.0000E+00 0.9000E+01
#aMCatNLO 2  0  0  5  2 0.10263187D+03 0.00000000D+00  -5  6  0 0.00000000D+00 0.00000000D+00 0.00000000D+00 0.00000000D+00 0.00000000D+00
  <mgrwgt>
 0.4517993506D-02    1    2    0
 0.744602263555324D+03 0.000000000000000D+00 0.000000000000000D+00 0.744602263555324D+03
 0.744602263555324D+03 -.000000000000000D+00 -.000000000000000D+00 -.744602263555324D+03
 0.642967235263504D+03 0.482259583762004D+03 0.652045745745753D+02 0.401193124251453D+03
 0.133130590147920D+03 -.126581523463253D+02 -.730110999722762D+01 0.132326184125135D+03
 0.713106701699224D+03 -.469601431415678D+03 -.579034645773477D+02 -.533519308376587D+03
 0.000000000000000D+00 0.000000000000000D+00 -.000000000000000D+00 0.000000000000000D+00
 0.744602263555324D+03 0.000000000000000D+00 0.000000000000000D+00 0.744602263555324D+03
 0.744602263555324D+03 -.000000000000000D+00 -.000000000000000D+00 -.744602263555324D+03
 0.641517935643132D+03 0.481274570351737D+03 0.650831190480500D+02 0.400074039772083D+03
 0.132921171987759D+03 -.128621753739666D+02 -.732626673518385D+01 0.132094391338064D+03
 0.574807612274483D+03 -.381201997847069D+03 -.189840158486351D+02 -.429800459641861D+03
 0.139957807205274D+03 -.872103971307017D+02 -.387728364642312D+02 -.102367971468286D+03
0.212465905595D-02 0.000000000000D+00 0.000000000000D+00 0.201096518522D-04 0.100510787716D-06  6 3 2 25 4 1 21 2 0.12366832D+00 0.10611176D+00 0.24671168D+06 0.24671168D+06 0.24671168D+06 0.10908920D+01  1  2  1  4  6  5        1 0.451799350630D-02 0.100000000000D+01
  </mgrwgt>
  </event>
  <event>
  5     66 0.20805674E-05 0.64988653E+02 0.75467711E-02 0.92134296E-01
        3 -1    0    0  501    0 0.00000000E+00 0.00000000E+00 0.87269252E+03 0.87269266E+03 0.50000000E+00 0.0000E+00 0.9000E+01
        2 -1    0    0  502    0 -.00000000E+00 -.00000000E+00 -.21176083E+04 0.21176083E+04 0.32000000E+00 0.0000E+00 0.9000E+01
       25  1    1    2    0    0 0.24817106E+03 0.47144937E+03 -.14834613E+03 0.56699643E+03 0.12500000E+03 0.0000E+00 0.9000E+01
        4  1    1    2  501    0 -.24712559E+03 -.53639501E+03 0.53114330E+03 0.79429608E+03 0.15500000E+01 0.0000E+00 0.9000E+01
        1  1    1    2  502    0 -.10454714E+01 0.64945640E+02 -.16277129E+04 0.16290085E+04 0.32000000E+00 0.0000E+00 0.9000E+01
#aMCatNLO 1  0  0  4  1 0.40651861D+02 0.00000000D+00  -5  6  0 0.00000000D+00 0.00000000D+00 0.00000000D+00 0.00000000D+00 0.00000000D+00
  <mgrwgt>
 0.1675591620D-01    3    2    0
 0.135941942061163D+04 0.000000000000000D+00 0.000000000000000D+00 0.135941942061163D+04
 0.135941942061163D+04 -.000000000000000D+00 -.000000000000000D+00 -.135941942061163D+04
 0.555616991417528D+03 0.248114408361528D+03 0.471289236612053D+03 0.970099838619869D+02
 0.111654261192141D+04 -.247067749488212D+03 -.536269461173435D+03 0.947649722424836D+03
 0.104667923788433D+04 -.104665887331650D+01 0.649802245613822D+02 -.104465970628682D+04
 0.000000000000000D+00 0.000000000000000D+00 0.000000000000000D+00 -.000000000000000D+00
 0.135941942061163D+04 0.000000000000000D+00 0.000000000000000D+00 0.135941942061163D+04
 0.135941942061163D+04 -.000000000000000D+00 -.000000000000000D+00 -.135941942061163D+04
 0.546941155597720D+03 0.242426644576096D+03 0.458943740177111D+03 0.118825893804293D+03
 0.682750148221635D+02 0.390426119958564D+02 0.493241138394588D+02 -.265383475646027D+02
 0.100500935192843D+04 -.116306993538234D+02 0.420071829674202D+02 -.100406370359419D+04
 0.109861331887495D+04 -.269838557218129D+03 -.550275036983991D+03 0.911776157354502D+03
0.109150674826D+00 0.000000000000D+00 0.000000000000D+00 0.131343494427D-03 0.000000000000D+00  6 3 2 25 4 1 21 0 0.13426040D+00 0.32578590D+00 0.36151237D+06 0.36151237D+06 0.36151237D+06 0.10786094D+01  1  2  2  3  6  4        4 0.222305823647D-01 0.100000000000D+01
0.468065564418D-01 0.000000000000D+00 -.419167331364D-03 0.131343494427D-03 0.000000000000D+00  6 3 2 25 4 1 21 2 0.13426040D+00 0.32578590D+00 0.36151237D+06 0.36151237D+06 0.36151237D+06 0.10786094D+01  1  2  3  3  6  4        4 0.110907136687D-01 0.100000000000D+01
-.699114961685D-01 0.000000000000D+00 0.000000000000D+00 0.131343494427D-03 0.000000000000D+00  6 3 2 25 4 1 21 2 0.13426040D+00 0.32578590D+00 0.36151237D+06 0.36151237D+06 0.36151237D+06 0.10786094D+01  1  2 15  3  6  4        4 -.165653798334D-01 0.100000000000D+01
  </mgrwgt>
  </event>
  <event>
  5     66 0.20805674E-05 0.46617845E+03 0.75467711E-02 0.86041432E-01
        3 -1    0    0  501    0 0.00000000E+00 0.00000000E+00 0.79277883E+03 0.79277899E+03 0.50000000E+00 0.0000E+00 0.9000E+01
        2 -1    0    0  502    0 0.00000000E+00 0.00000000E+00 -.18455173E+04 0.18455173E+04 0.32000000E+00 0.0000E+00 0.9000E+01
       25  1    1    2    0    0 -.56245528E+03 -.41625907E+03 -.24092266E+03 0.75053067E+03 0.12500000E+03 0.0000E+00 0.9000E+01
        4  1    1    2  501    0 -.73449148E+02 -.46105053E+03 0.93098182E+02 0.47605887E+03 0.15500000E+01 0.0000E+00 0.9000E+01
        1  1    1    2  502    0 0.63590443E+03 0.87730961E+03 -.90491400E+03 0.14117068E+04 0.32000000E+00 0.0000E+00 0.9000E+01
#aMCatNLO 1  0  0  1  4 0.40681885D+02 0.00000000D+00  -5  6  0 0.00000000D+00 0.00000000D+00 0.00000000D+00 0.00000000D+00 0.00000000D+00
  <mgrwgt>
 0.4519337146D-06    9    2    0
 0.120958145435256D+04 0.000000000000000D+00 0.000000000000000D+00 0.120958145435256D+04
 0.120958145435256D+04 0.000000000000000D+00 0.000000000000000D+00 -.120958145435256D+04
 0.714447650855954D+03 -.562893225112131D+03 -.417014581841718D+03 0.637220642150892D+02
 0.558870105050539D+03 -.733412312928223D+02 -.460373124056313D+03 0.308242509654792D+03
 0.114584515279863D+04 0.636234456404953D+03 0.877387705898030D+03 -.371964573869881D+03
 0.000000000000000D+00 0.000000000000000D+00 -.000000000000000D+00 0.000000000000000D+00
 0.155443706856081D+04 0.000000000000000D+00 0.000000000000000D+00 0.155443706856081D+04
 0.121095285829616D+04 0.000000000000000D+00 0.000000000000000D+00 -.121095285829616D+04
 0.724010000056545D+03 -.574987288474017D+03 -.417006710746175D+03 0.637220642150892D+02
 0.560177427252642D+03 -.827498028639434D+02 -.460367000740803D+03 0.308242509654792D+03
 0.113531752093597D+04 0.617055215432920D+03 0.877400188190674D+03 -.371964573869881D+03
 0.345884978611815D+03 0.406818759050404D+02 -.264767036956866D-01 0.343484210264645D+03
0.279539856467D-06 0.000000000000D+00 0.000000000000D+00 0.133770349671D-08 0.000000000000D+00  6 3 2 25 4 1 21 0 0.12196599D+00 0.28392575D+00 0.12786747D+07 0.12786747D+07 0.12786747D+07 0.10408304D+01  1  2  2  1  6  1        3 0.960999532429D-07 0.100000000000D+01
-.373742076275D-09 0.000000000000D+00 -.107350665337D-08 0.133770349671D-08 0.000000000000D+00  6 3 2 25 4 1 21 2 0.12196599D+00 0.28392575D+00 0.12786747D+07 0.12786747D+07 0.12786747D+07 0.10408304D+01  1  2  3  1  6  1        3 -.139191062195D-09 0.100000000000D+01
-.220456688036D-06 0.000000000000D+00 0.000000000000D+00 0.133770349671D-08 0.000000000000D+00  6 3 2 25 4 1 21 2 0.12196599D+00 0.28392575D+00 0.12786747D+07 0.12786747D+07 0.12786747D+07 0.10408304D+01  1  2 15  1  6  1        3 -.821036819874D-07 0.100000000000D+01
0.312914797399D-04 0.000000000000D+00 0.000000000000D+00 0.133770349671D-08 0.000000000000D+00  6 3 2 25 4 1 21 2 0.15746387D+00 0.28392575D+00 0.13251255D+07 0.13251255D+07 0.13251255D+07 0.10398214D+01  1  2 12  1  6  1        3 0.558655941018D-05 0.100000000000D+01
-.292948849040D-04 0.000000000000D+00 0.000000000000D+00 0.133770349671D-08 0.000000000000D+00  6 3 2 25 4 1 21 2 0.12196599D+00 0.28392575D+00 0.12786747D+07 0.12786747D+07 0.12786747D+07 0.10408304D+01  1  2  4  1  6  1        3 -.109101607914D-04 0.100000000000D+01
-.324795210165D-04 0.000000000000D+00 -.284294642961D-06 0.133770349671D-08 0.000000000000D+00  6 3 2 25 4 1 21 2 0.15680520D+00 0.28392575D+00 0.12786747D+07 0.12786747D+07 0.12786747D+07 0.10408304D+01  1  2  5  1  6  1        3 -.590053342148D-05 0.100000000000D+01
0.315582672196D-04 0.000000000000D+00 0.275550665773D-06 0.133770349671D-08 0.000000000000D+00  6 3 2 25 4 1 21 2 0.12196599D+00 0.28392575D+00 0.12786747D+07 0.12786747D+07 0.12786747D+07 0.10408304D+01  1  2  6  1  6  1        3 0.117531019764D-04 0.100000000000D+01
0.107597204251D-05 0.000000000000D+00 0.000000000000D+00 0.133770349671D-08 0.000000000000D+00  6 21 2 25 4 1 -3 2 0.15746387D+00 0.28392575D+00 0.13251255D+07 0.13251255D+07 0.13251255D+07 0.10398214D+01  1  2 12  5  6  1        3 0.226628418054D-05 0.100000000000D+01
-.109849757494D-05 0.000000000000D+00 -.965724517018D-08 0.133770349671D-08 0.000000000000D+00  6 21 2 25 4 1 -3 2 0.15680520D+00 0.28392575D+00 0.12786747D+07 0.12786747D+07 0.12786747D+07 0.10408304D+01  1  2  5  5  6  1        3 -.235717471985D-05 0.100000000000D+01
  </mgrwgt>
  </event>
  <event>
  5     66 0.20805674E-05 0.57656243E+02 0.75467711E-02 0.91981885E-01
        3 -1    0    0  501    0 0.00000000E+00 0.00000000E+00 0.42463562E+03 0.42463591E+03 0.50000000E+00 0.0000E+00 0.9000E+01
        2 -1    0    0  502    0 0.00000000E+00 0.00000000E+00 -.23973500E+04 0.23973500E+04 0.32000000E+00 0.0000E+00 0.9000E+01
       25  1    1    2    0    0 0.30944008E+03 -.41958128E+03 -.98283773E+03 0.11195520E+04 0.12500000E+03 0.0000E+00 0.9000E+01
        4  1    1    2  501    0 -.55648125E+02 0.15196692E+02 0.31121143E+03 0.31651637E+03 0.15500000E+01 0.0000E+00 0.9000E+01
        1  1    1    2  502    0 -.25379196E+03 0.40438459E+03 -.13010881E+04 0.13859176E+04 0.32000000E+00 0.0000E+00 0.9000E+01
#aMCatNLO 1  0  0  2  1 0.20617164D+03 0.00000000D+00  -5  6  0 0.00000000D+00 0.00000000D+00 0.00000000D+00 0.00000000D+00 0.00000000D+00
  <mgrwgt>
 0.1266847045D-02    7    2    0
 0.100896017170773D+04 0.000000000000000D+00 0.000000000000000D+00 0.100896017170773D+04
 0.100896017170773D+04 0.000000000000000D+00 0.000000000000000D+00 -.100896017170773D+04
 0.605001665167393D+03 0.309629489403049D+03 -.419885714935602D+03 -.279691938640254D+03
 0.746491360942265D+03 -.556195971865996D+02 0.151889015999230D+02 0.744261452473809D+03
 0.666427317305804D+03 -.254009892216450D+03 0.404696813335679D+03 -.464569513833555D+03
 0.000000000000000D+00 -.000000000000000D+00 -.000000000000000D+00 -.000000000000000D+00
 0.107327660842095D+04 0.000000000000000D+00 0.000000000000000D+00 0.107327660842095D+04
 0.119413096979638D+04 0.000000000000000D+00 0.000000000000000D+00 -.119413096979638D+04
 0.626459574580953D+03 0.369848431206766D+03 -.402257574170705D+03 -.279691938640254D+03
 0.745359660875126D+03 0.173325079734419D+02 0.365444741214159D+02 0.744261452473809D+03
 0.656606079390913D+03 -.189313035710975D+03 0.423635792656211D+03 -.464569513833555D+03
 0.238982263370336D+03 -.197867903469233D+03 -.579226926069221D+02 -.120854361375431D+03
0.708233670578D-03 0.000000000000D+00 0.000000000000D+00 0.408726294465D-04 0.000000000000D+00  6 3 2 25 4 1 21 0 0.65328580D-01 0.36882310D+00 0.28726047D+06 0.28726047D+06 0.28726047D+06 0.10859489D+01  1  2  2  2  6  2        2 0.572199690752D-03 0.100000000000D+01
0.289955904219D-03 0.000000000000D+00 -.271980377723D-05 0.408726294465D-04 0.000000000000D+00  6 3 2 25 4 1 21 2 0.65328580D-01 0.36882310D+00 0.28726047D+06 0.28726047D+06 0.28726047D+06 0.10859489D+01  1  2  3  2  6  2        2 0.276262397347D-03 0.100000000000D+01
-.548874118911D-03 0.000000000000D+00 0.000000000000D+00 0.408726294465D-04 0.000000000000D+00  6 3 2 25 4 1 21 2 0.65328580D-01 0.36882310D+00 0.28726047D+06 0.28726047D+06 0.28726047D+06 0.10859489D+01  1  2 15  2  6  2        2 -.522952896374D-03 0.100000000000D+01
-.210738478781D-03 0.000000000000D+00 0.000000000000D+00 0.408726294465D-04 0.000000000000D+00  6 3 2 25 4 1 21 2 0.65328580D-01 0.36882310D+00 0.28726047D+06 0.28726047D+06 0.28726047D+06 0.10859489D+01  1  2  4  2  6  2        2 -.200786107523D-03 0.100000000000D+01
-.223405353259D-02 0.000000000000D+00 -.691635428909D-03 0.408726294465D-04 0.000000000000D+00  6 3 2 25 4 1 21 2 0.65328580D-01 0.44522073D+00 0.28726047D+06 0.28726047D+06 0.28726047D+06 0.10859489D+01  1  2  5  2  6  2        2 -.108047215813D-02 0.100000000000D+01
0.233483838296D-02 0.000000000000D+00 0.679558317993D-03 0.408726294465D-04 0.000000000000D+00  6 3 2 25 4 1 21 2 0.65328580D-01 0.36882310D+00 0.28726047D+06 0.28726047D+06 0.28726047D+06 0.10859489D+01  1  2  6  2  6  2        2 0.222457290819D-02 0.100000000000D+01
-.538413419361D-04 0.000000000000D+00 -.188895084976D-04 0.408726294465D-04 0.000000000000D+00  6 3 21 25 4 1 -2 2 0.65328580D-01 0.44522073D+00 0.28726047D+06 0.28726047D+06 0.28726047D+06 0.10859489D+01  1  2  5  6  6  2        2 -.197678911399D-05 0.100000000000D+01
  </mgrwgt>
  </event>
  <event>
  5     66 -.20805674E-05 0.18977689E+02 0.75467711E-02 0.95412873E-01
        3 -1    0    0  501    0 0.00000000E+00 0.00000000E+00 0.35115756E+03 0.35115792E+03 0.50000000E+00 0.0000E+00 0.9000E+01
        2 -1    0    0  502    0 -.00000000E+00 -.00000000E+00 -.23559503E+04 0.23559503E+04 0.32000000E+00 0.0000E+00 0.9000E+01
       25  1    1    2    0    0 -.16141848E+03 0.42108850E+03 -.16603175E+04 0.17250075E+04 0.12500000E+03 0.0000E+00 0.9000E+01
        4  1    1    2  501    0 0.14256287E+03 -.42317359E+03 0.16218479E+03 0.47508565E+03 0.15500000E+01 0.0000E+00 0.9000E+01
        1  1    1    2  502    0 0.18855608E+02 0.20850906E+01 -.50665996E+03 0.50701509E+03 0.32000000E+00 0.0000E+00 0.9000E+01
#aMCatNLO 1  0  0  4  1 0.25013787D+02 0.00000000D+00  -5  6  0 0.00000000D+00 0.00000000D+00 0.00000000D+00 0.00000000D+00 0.00000000D+00
  <mgrwgt>
 -.5037276057D-03    1    2    0
 0.909565972694727D+03 0.000000000000000D+00 0.000000000000000D+00 0.909565972694727D+03
 0.909565972694727D+03 -.000000000000000D+00 -.000000000000000D+00 -.909565972694727D+03
 0.737185954651229D+03 -.161423912153787D+03 0.421083595769408D+03 -.569604299223519D+03
 0.885714879619826D+03 0.142561065518251D+03 -.423168224704102D+03 0.764915579772724D+03
 0.196231111118399D+03 0.188628466355359D+02 0.208462893469380D+01 -.195311280549205D+03
 0.000000000000000D+00 0.000000000000000D+00 0.000000000000000D+00 0.000000000000000D+00
 0.909565972694727D+03 0.000000000000000D+00 0.000000000000000D+00 0.909565972694727D+03
 0.909565972694727D+03 -.000000000000000D+00 -.000000000000000D+00 -.909565972694727D+03
 0.691241796409847D+03 -.153829851332228D+03 0.398541920561863D+03 -.528858143076079D+03
 0.860621847154222D+03 0.123337192942563D+03 -.475396847328734D+03 0.706721825180244D+03
 0.185639917347443D+03 0.208930170897340D+02 -.394158603379454D+01 -.184418341412106D+03
 0.816283844779415D+02 0.959964129993118D+01 0.807965128006656D+02 0.655465930794083D+01
-.325314179152D-03 0.000000000000D+00 0.000000000000D+00 0.787645519210D-04 0.000000000000D+00  6 3 2 25 4 1 21 2 0.54024269D-01 0.36245391D+00 0.21784734D+06 0.21784734D+06 0.21784734D+06 0.10949856D+01  1  2 14  3  6  4        4 -.503727605722D-03 0.100000000000D+01
  </mgrwgt>
  </event>
  <event>
  5     66 0.20805674E-05 0.87623498E+02 0.75467711E-02 0.89549214E-01
        3 -1    0    0  501    0 0.00000000E+00 0.00000000E+00 0.39183584E+03 0.39183616E+03 0.50000000E+00 0.0000E+00 0.9000E+01
        2 -1    0    0  502    0 0.00000000E+00 0.00000000E+00 -.30478144E+04 0.30478144E+04 0.32000000E+00 0.0000E+00 0.9000E+01
       25  1    1    2    0    0 0.49658494E+03 -.41356603E+03 -.81047282E+03 0.10440904E+04 0.12500000E+03 0.0000E+00 0.9000E+01
        4  1    1    2  501    0 -.85167464E+02 0.20932357E+02 0.22862570E+03 0.24487502E+03 0.15500000E+01 0.0000E+00 0.9000E+01
        1  1    1    2  502    0 -.41141748E+03 0.39263367E+03 -.20741315E+04 0.21506852E+04 0.32000000E+00 0.0000E+00 0.9000E+01
#aMCatNLO 1  0  0  1  2 0.12122285D+04 0.00000000D+00  -5  6  0 0.00000000D+00 0.00000000D+00 0.00000000D+00 0.00000000D+00 0.00000000D+00
  <mgrwgt>
 0.6138162411D-03    7    2    0
 0.109281448821137D+04 0.000000000000000D+00 0.000000000000000D+00 0.109281448821137D+04
 0.109281448821137D+04 0.000000000000000D+00 0.000000000000000D+00 -.109281448821137D+04
 0.658606201603902D+03 0.496831980366561D+03 -.413832202809229D+03 -.616603553519610D+01
 0.662603856041919D+03 -.850911213419791D+02 0.209135933893306D+02 0.656784586239606D+03
 0.864418918776929D+03 -.411740859024582D+03 0.392918609419898D+03 -.650618550704410D+03
 0.000000000000000D+00 -.000000000000000D+00 -.000000000000000D+00 0.000000000000000D+00
 0.157587822501776D+04 0.000000000000000D+00 0.000000000000000D+00 0.157587822501776D+04
 0.112903353592120D+04 0.000000000000000D+00 0.000000000000000D+00 -.112903353592120D+04
 0.631765095167465D+03 0.513699901187784D+03 -.345798390680749D+03 -.616603553519610D+01
 0.666506351597647D+03 -.677167998569626D+02 0.909898841366888D+02 0.656784586239606D+03
 0.900294076263657D+03 -.388672274697724D+03 0.485961714660755D+03 -.650618550704410D+03
 0.506346237910195D+03 -.573108266330979D+02 -.231153208116696D+03 0.446844689096557D+03
0.657180168222D-03 0.000000000000D+00 0.000000000000D+00 0.138987328063D-04 0.000000000000D+00  6 3 2 25 4 1 21 0 0.60282463D-01 0.46889455D+00 0.43252762D+06 0.43252762D+06 0.43252762D+06 0.10729884D+01  1  2  2  1  6  1        3 0.248683721386D-03 0.100000000000D+01
0.195265564072D-03 0.000000000000D+00 -.252374488548D-05 0.138987328063D-04 0.000000000000D+00  6 3 2 25 4 1 21 2 0.60282463D-01 0.46889455D+00 0.43252762D+06 0.43252762D+06 0.43252762D+06 0.10729884D+01  1  2  3  1  6  1        3 0.850704360698D-04 0.100000000000D+01
-.410938300336D-03 0.000000000000D+00 0.000000000000D+00 0.138987328063D-04 0.000000000000D+00  6 3 2 25 4 1 21 2 0.60282463D-01 0.46889455D+00 0.43252762D+06 0.43252762D+06 0.43252762D+06 0.10729884D+01  1  2 15  1  6  1        3 -.179031569511D-03 0.100000000000D+01
-.636751478620D-04 0.000000000000D+00 0.000000000000D+00 0.138987328063D-04 0.000000000000D+00  6 3 2 25 4 1 21 2 0.60282463D-01 0.46889455D+00 0.43252762D+06 0.43252762D+06 0.43252762D+06 0.10729884D+01  1  2  4  1  6  1        3 -.277410541954D-04 0.100000000000D+01
-.330375464586D-02 0.000000000000D+00 -.519226496597D-03 0.138987328063D-04 0.000000000000D+00  6 3 2 25 4 1 21 2 0.88495351D-01 0.46889455D+00 0.43252762D+06 0.43252762D+06 0.43252762D+06 0.10729884D+01  1  2  5  1  6  1        3 -.614246905496D-03 0.100000000000D+01
0.329343786775D-02 0.000000000000D+00 0.483180034726D-03 0.138987328063D-04 0.000000000000D+00  6 3 2 25 4 1 21 2 0.60282463D-01 0.46889455D+00 0.43252762D+06 0.43252762D+06 0.43252762D+06 0.10729884D+01  1  2  6  1  6  1        3 0.143483668977D-02 0.100000000000D+01
-.135856260409D-03 0.000000000000D+00 -.239841306572D-04 0.138987328063D-04 0.000000000000D+00  6 21 2 25 4 1 -3 2 0.88495351D-01 0.46889455D+00 0.43252762D+06 0.43252762D+06 0.43252762D+06 0.10729884D+01  1  2  5  5  6  1        3 -.333755076896D-03 0.100000000000D+01
  </mgrwgt>
  </event>
  <event>
  5     66 -.20805674E-05 0.15793395E+02 0.75467711E-02 0.92474967E-01
        3 -1    0    0  501    0 0.00000000E+00 0.00000000E+00 0.10414362E+04 0.10414363E+04 0.50000000E+00 0.0000E+00 0.9000E+01
        2 -1    0    0  502    0 0.00000000E+00 0.00000000E+00 -.10146141E+04 0.10146141E+04 0.32000000E+00 0.0000E+00 0.9000E+01
       25  1    1    2    0    0 -.58583267E+03 0.11658705E+03 -.28412230E+03 0.67315892E+03 0.12500000E+03 0.0000E+00 0.9000E+01
        4  1    1    2  501    0 0.57437279E+03 -.12743854E+03 0.74457861E+03 0.94897017E+03 0.15500000E+01 0.0000E+00 0.9000E+01
        1  1    1    2  502    0 0.11459880E+02 0.10851488E+02 -.43363414E+03 0.43392137E+03 0.32000000E+00 0.0000E+00 0.9000E+01
#aMCatNLO 1  0  0  4  1 0.10309218D+02 0.00000000D+00  -5  6  0 0.00000000D+00 0.00000000D+00 0.00000000D+00 0.00000000D+00 0.00000000D+00
  <mgrwgt>
 -.3606144449D-02    1    2    0
 0.102793775104074D+04 0.000000000000000D+00 0.000000000000000D+00 0.102793775104074D+04
 0.102793775104074D+04 -.000000000000000D+00 -.000000000000000D+00 -.102793775104074D+04
 0.676676453090092D+03 -.585773741314367D+03 0.116564864510118D+03 -.292485518470392D+03
 0.939225538538640D+03 0.574305584433279D+03 -.127423626482746D+03 0.732175475788375D+03
 0.439973510452752D+03 0.114681568810883D+02 0.108587619726277D+02 -.439689957317983D+03
 0.000000000000000D+00 0.000000000000000D+00 0.000000000000000D+00 0.000000000000000D+00
 0.102793775104074D+04 0.000000000000000D+00 0.000000000000000D+00 0.102793775104074D+04
 0.102793775104074D+04 -.000000000000000D+00 -.000000000000000D+00 -.102793775104074D+04
 0.657559744967705D+03 -.572583845560130D+03 0.113638366151944D+03 -.275669874567177D+03
 0.266953931062229D+03 0.412048277022746D+02 -.139856248588186D+03 0.223621987323347D+03
 0.429296827020034D+03 0.200615267433409D+02 0.895211439469002D+01 -.428734370539685D+03
 0.702064999031515D+03 0.511317491114515D+03 0.172657680415512D+02 0.480782257783515D+03
-.613093242290D-02 0.000000000000D+00 0.000000000000D+00 0.834665456458D-04 0.000000000000D+00  6 3 2 25 4 1 21 2 0.16022097D+00 0.15609448D+00 0.36860958D+06 0.36860958D+06 0.36860958D+06 0.10779957D+01  1  2 14  3  6  4        4 -.360614444914D-02 0.100000000000D+01
  </mgrwgt>
  </event>
  <event>
  5     66 0.20805674E-05 0.20473986E+02 0.75467711E-02 0.93588463E-01
        3 -1    0    0  501    0 0.00000000E+00 0.00000000E+00 0.46636865E+03 0.46636892E+03 0.50000000E+00 0.0000E+00 0.9000E+01
        2 -1    0    0  502    0 0.00000000E+00 0.00000000E+00 -.18526525E+04 0.18526525E+04 0.32000000E+00 0.0000E+00 0.9000E+01
       25  1    1    2    0    0 -.16989716E+03 0.49456420E+03 -.33867046E+03 0.63543802E+03 0.12500000E+03 0.0000E+00 0.9000E+01
        4  1    1    2  501    0 -.18249352E+02 0.93370960E+01 0.26460585E+03 0.26540323E+03 0.15500000E+01 0.0000E+00 0.9000E+01
        1  1    1    2  502    0 0.18814651E+03 -.50390130E+03 -.13122192E+04 0.14181802E+04 0.32000000E+00 0.0000E+00 0.9000E+01
#aMCatNLO 1  0  0  1  1 0.17752828D+02 0.00000000D+00  -5  6  0 0.00000000D+00 0.00000000D+00 0.00000000D+00 0.00000000D+00 0.00000000D+00
  <mgrwgt>
 0.1874299472D-01    3    2    0
 0.929526423072033D+03 0.000000000000000D+00 0.000000000000000D+00 0.929526423072033D+03
 0.929526423072033D+03 0.000000000000000D+00 0.000000000000000D+00 -.929526423072033D+03
 0.540601996021534D+03 -.170066271632345D+03 0.494989654720127D+03 0.518480768745512D+02
 0.527730346428176D+03 -.182268397969791D+02 0.932557774048499D+01 0.527333039408706D+03
 0.790720503694357D+03 0.188293111429324D+03 -.504315232460612D+03 -.579181116283258D+03
 0.000000000000000D+00 -.000000000000000D+00 0.000000000000000D+00 -.000000000000000D+00
 0.159336627107148D+04 0.000000000000000D+00 0.000000000000000D+00 0.159336627107148D+04
 0.225786808388486D+04 0.000000000000000D+00 0.000000000000000D+00 -.225786808388486D+04
 0.284443153443571D+03 -.827703088315527D+02 0.236101165692300D+03 0.518480768745512D+02
 0.646818976024745D+03 0.106049285003004D+03 -.359232797004988D+03 0.527333039408706D+03
 0.138572500211880D+04 0.418577364402139D+03 -.118725566161976D+04 -.579181116283258D+03
 0.153424722336923D+04 -.441856340573591D+03 0.131038729293245D+04 -.664501812813384D+03
0.151104934777D-01 0.000000000000D+00 0.000000000000D+00 0.764495673497D-04 0.000000000000D+00  6 3 2 25 4 1 21 0 0.71749046D-01 0.28502348D+00 0.30079941D+06 0.30079941D+06 0.30079941D+06 0.10844664D+01  1  2  2  1  6  1        3 0.199312556604D-01 0.100000000000D+01
0.113678222218D-01 0.000000000000D+00 -.580282736388D-04 0.764495673497D-04 0.000000000000D+00  6 3 2 25 4 1 21 2 0.71749046D-01 0.28502348D+00 0.30079941D+06 0.30079941D+06 0.30079941D+06 0.10844664D+01  1  2  3  1  6  1        3 0.176345939272D-01 0.100000000000D+01
-.121338131596D-01 0.000000000000D+00 0.000000000000D+00 0.764495673497D-04 0.000000000000D+00  6 3 2 25 4 1 21 2 0.71749046D-01 0.28502348D+00 0.30079941D+06 0.30079941D+06 0.30079941D+06 0.10844664D+01  1  2 15  1  6  1        3 -.188228548690D-01 0.100000000000D+01
  </mgrwgt>
  </event>
  <event>
  5     66 0.20805674E-05 0.15051251E+03 0.75467711E-02 0.94546101E-01
        3 -1    0    0  501    0 0.00000000E+00 0.00000000E+00 0.15855609E+04 0.15855609E+04 0.50000000E+00 0.0000E+00 0.9000E+01
        2 -1    0    0  502    0 0.00000000E+00 0.00000000E+00 -.15034782E+04 0.15034783E+04 0.32000000E+00 0.0000E+00 0.9000E+01
       25  1    1    2    0    0 0.16821022E+03 -.44237262E+03 -.51697126E+03 0.71194979E+03 0.12500000E+03 0.0000E+00 0.9000E+01
        4  1    1    2  501    0 -.37336047E+02 0.14581974E+03 0.14545105E+04 0.14622792E+04 0.15500000E+01 0.0000E+00 0.9000E+01
        1  1    1    2  502    0 -.13087418E+03 0.29655288E+03 -.85545656E+03 0.91481019E+03 0.32000000E+00 0.0000E+00 0.9000E+01
#aMCatNLO 1  0  0  2  5 0.27729079D+02 0.00000000D+00  -5  6  0 0.00000000D+00 0.00000000D+00 0.00000000D+00 0.00000000D+00 0.00000000D+00
  <mgrwgt>
 0.1137342926D-01    9    2    0
 0.154397421762956D+04 0.000000000000000D+00 0.000000000000000D+00 0.154397421762956D+04
 0.154397421762956D+04 0.000000000000000D+00 0.000000000000000D+00 -.154397421762956D+04
 0.725878538711097D+03 0.168272375008006D+03 -.442516300502727D+03 -.535852950500324D+03
 0.142402604563973D+04 -.373332788075266D+02 0.145808922588386D+03 0.141604949173658D+04
 0.938043850908295D+03 -.130939096200479D+03 0.296707377914341D+03 -.880196541236252D+03
 0.000000000000000D+00 0.000000000000000D+00 -.000000000000000D+00 -.000000000000000D+00
 0.154538916219759D+04 0.000000000000000D+00 0.000000000000000D+00 0.154538916219759D+04
 0.168614194460439D+04 0.000000000000000D+00 0.000000000000000D+00 -.168614194460439D+04
 0.721709321650576D+03 0.166945591114280D+03 -.436153791689279D+03 -.535852950500324D+03
 0.142543365430132D+04 -.399449456632835D+02 0.158333006929567D+03 0.141604949173658D+04
 0.940929957228726D+03 -.132661266062242D+03 0.304965935299261D+03 -.880196541236252D+03
 0.143458173621353D+03 0.566062061124567D+01 -.271451505395484D+02 -.140752782406796D+03
0.366828968549D-02 0.000000000000D+00 0.000000000000D+00 0.183216608335D-03 0.000000000000D+00  6 3 2 25 4 1 21 0 0.24393245D+00 0.23130435D+00 0.23255633D+06 0.23255633D+06 0.23255633D+06 0.10928301D+01  1  2  2  2  6  2        2 0.205516082191D-03 0.100000000000D+01
0.594343933378D-03 0.000000000000D+00 -.140871982751D-04 0.183216608335D-03 0.000000000000D+00  6 3 2 25 4 1 21 2 0.24393245D+00 0.23130435D+00 0.23255633D+06 0.23255633D+06 0.23255633D+06 0.10928301D+01  1  2  3  2  6  2        2 0.397672283915D-04 0.100000000000D+01
-.242304839295D-02 0.000000000000D+00 0.000000000000D+00 0.183216608335D-03 0.000000000000D+00  6 3 2 25 4 1 21 2 0.24393245D+00 0.23130435D+00 0.23255633D+06 0.23255633D+06 0.23255633D+06 0.10928301D+01  1  2 15  2  6  2        2 -.162124846296D-03 0.100000000000D+01
0.320971584409D+00 0.000000000000D+00 0.000000000000D+00 0.183216608335D-03 0.000000000000D+00  6 3 2 25 4 1 21 2 0.24393245D+00 0.25836727D+00 0.25353535D+06 0.25353535D+06 0.25353535D+06 0.10900006D+01  1  2 12  2  6  2        2 0.170003384117D-01 0.100000000000D+01
-.152805615270D+00 0.000000000000D+00 0.000000000000D+00 0.183216608335D-03 0.000000000000D+00  6 3 2 25 4 1 21 2 0.24393245D+00 0.23130435D+00 0.23255633D+06 0.23255633D+06 0.23255633D+06 0.10928301D+01  1  2  4  2  6  2        2 -.102241403684D-01 0.100000000000D+01
-.428688364820D+00 0.000000000000D+00 -.872673303774D-02 0.183216608335D-03 0.000000000000D+00  6 3 2 25 4 1 21 2 0.24393245D+00 0.25268628D+00 0.23255633D+06 0.23255633D+06 0.23255633D+06 0.10928301D+01  1  2  5  2  6  2        2 -.240921048628D-01 0.100000000000D+01
0.427820684266D+00 0.000000000000D+00 0.869273493335D-02 0.183216608335D-03 0.000000000000D+00  6 3 2 25 4 1 21 2 0.24393245D+00 0.23130435D+00 0.23255633D+06 0.23255633D+06 0.23255633D+06 0.10928301D+01  1  2  6  2  6  2        2 0.286252486251D-01 0.100000000000D+01
0.585878307976D-02 0.000000000000D+00 0.000000000000D+00 0.183216608335D-03 0.000000000000D+00  6 3 21 25 4 1 -2 2 0.24393245D+00 0.25836727D+00 0.25353535D+06 0.25353535D+06 0.25353535D+06 0.10900006D+01  1  2 12  6  6  2        2 0.885528115836D-04 0.100000000000D+01
-.640314988770D-02 0.000000000000D+00 -.127326984232D-03 0.183216608335D-03 0.000000000000D+00  6 3 21 25 4 1 -2 2 0.24393245D+00 0.25268628D+00 0.23255633D+06 0.23255633D+06 0.23255633D+06 0.10928301D+01  1  2  5  6  6  2        2 -.107623822443D-03 0.100000000000D+01
  </mgrwgt>
  </event>
  <event>
  6     66 0.20805674E-05 0.95813860E+01 0.75467711E-02 0.94780456E-01
        3 -1    0    0  501    0 0.00000000E+00 0.00000000E+00 0.18002574E+03 0.18002644E+03 0.50000000E+00 0.0000E+00 0.9000E+01
        2 -1    0    0  503    0 0.00000000E+00 0.00000000E+00 -.20934331E+04 0.20934332E+04 0.32000000E+00 0.0000E+00 0.9000E+01
       25  1    1    2    0    0 -.44400549E+03 -.14951314E+03 -.97188144E+03 0.10861278E+04 0.12500000E+03 0.0000E+00 0.9000E+01
        4  1    1    2  501    0 -.23844221E+01 0.66825813E+01 0.57804467E+02 0.58258916E+02 0.15500000E+01 0.0000E+00 0.9000E+01
        1  1    1    2  502    0 0.45923156E+03 0.14019265E+03 -.82730131E+03 0.95654334E+03 0.32000000E+00 0.0000E+00 0.9000E+01
       21  1    1    2  503  502 -.12841648E+02 0.26379096E+01 -.17202910E+03 0.17252954E+03 0.75000000E+00 0.0000E+00 0.9000E+01
#aMCatNLO 2  0  0  2  4 0.14482421D+01 0.00000000D+00  -5  6  0 0.00000000D+00 0.00000000D+00 0.00000000D+00 0.00000000D+00 0.00000000D+00
  <mgrwgt>
 0.5589453028D-02    1    2    0
 0.587651449105300D+03 0.000000000000000D+00 0.000000000000000D+00 0.587651449105300D+03
 0.587651449105300D+03 0.000000000000000D+00 0.000000000000000D+00 -.587651449105300D+03
 0.506538407168091D+03 -.450128240786647D+03 -.148558827618272D+03 -.127557828138416D+03
 0.188792571472750D+03 -.443400438172660D+01 0.707002397368787D+01 0.188608031137191D+03
 0.479971919569760D+03 0.454562245168374D+03 0.141488803644584D+03 -.610502029987759D+02
 0.000000000000000D+00 -.000000000000000D+00 0.000000000000000D+00 -.000000000000000D+00
 0.588503342512953D+03 0.000000000000000D+00 0.000000000000000D+00 0.588503342512953D+03
 0.640386017610082D+03 0.000000000000000D+00 0.000000000000000D+00 -.640386017610082D+03
 0.501985139559556D+03 -.444618724437546D+03 -.149690583200035D+03 -.127557828138416D+03
 0.188740000590139D+03 -.237156182909831D+01 0.664636049342903D+01 0.188608031137191D+03
 0.484650871609973D+03 0.459831933770057D+03 0.140406313075319D+03 -.610502029987759D+02
 0.535133483633662D+02 -.128416475034132D+02 0.263790963128651D+01 -.518826750971289D+02
0.709187107631D-03 0.000000000000D+00 0.000000000000D+00 0.321804946496D-05 0.942464101094D-07  6 3 2 25 4 1 21 2 0.27696200D-01 0.32206525D+00 0.24327829D+06 0.24327829D+06 0.24327829D+06 0.10913507D+01  1  2  1  2  6  2        2 0.558945302768D-02 0.100000000000D+01
  </mgrwgt>
  </event>
  <event>
  5     66 -.20805674E-05 0.83617377E+02 0.75467711E-02 0.92065268E-01
        3 -1    0    0  501    0 0.00000000E+00 0.00000000E+00 0.91347730E+03 0.91347744E+03 0.50000000E+00 0.0000E+00 0.9000E+01
        2 -1    0    0  502    0 0.00000000E+00 0.00000000E+00 -.11901693E+04 0.11901694E+04 0.32000000E+00 0.0000E+00 0.9000E+01
       25  1    1    2    0    0 -.54047313E+03 -.60292041E+02 0.16338488E+03 0.58143440E+03 0.12500000E+03 0.0000E+00 0.9000E+01
        4  1    1    2  501    0 -.46972903E+02 -.69328010E+02 0.44457598E+03 0.45239699E+03 0.15500000E+01 0.0000E+00 0.9000E+01
        1  1    1    2  502    0 0.58744604E+03 0.12962005E+03 -.88465288E+03 0.10698154E+04 0.32000000E+00 0.0000E+00 0.9000E+01
#aMCatNLO 1  0  0  2  5 0.18604857D+02 0.00000000D+00  -5  6  0 0.00000000D+00 0.00000000D+00 0.00000000D+00 0.00000000D+00 0.00000000D+00
  <mgrwgt>
 -.2498275083D-02    9    2    0
 0.104268540155000D+04 0.000000000000000D+00 0.000000000000000D+00 0.104268540155000D+04
 0.104268540155000D+04 0.000000000000000D+00 0.000000000000000D+00 -.104268540155000D+04
 0.608878127495058D+03 -.540958848275195D+03 -.604612417967861D+02 0.242519147398826D+03
 0.514576090126874D+03 -.469026509766600D+02 -.692243247907958D+02 0.507736828208158D+03
 0.961916585478059D+03 0.587861499251855D+03 0.129685566587582D+03 -.750255975606984D+03
 0.000000000000000D+00 0.000000000000000D+00 -.000000000000000D+00 -.000000000000000D+00
 0.104434377479669D+04 0.000000000000000D+00 0.000000000000000D+00 0.104434377479669D+04
 0.109624682257367D+04 0.000000000000000D+00 0.000000000000000D+00 -.109624682257367D+04
 0.613050233859022D+03 -.545900473449154D+03 -.581612024251321D+02 0.242519147398826D+03
 0.514715328553314D+03 -.510652291987201D+02 -.672868865065689D+02 0.507736828208158D+03
 0.957688231641450D+03 0.580098386627299D+03 0.133298844417142D+03 -.750255975606984D+03
 0.551368033165680D+02 0.168673160205751D+02 -.785075548544131D+01 -.519030477769829D+02
0.237380235585D-03 0.000000000000D+00 0.000000000000D+00 0.115660818049D-04 0.000000000000D+00  6 3 2 25 4 1 21 0 0.14053498D+00 0.18310299D+00 0.38695178D+06 0.38695178D+06 0.38695178D+06 0.10764675D+01  1  2  2  2  6  2        2 0.138482427096D-03 0.100000000000D+01
0.584629806739D-04 0.000000000000D+00 -.911602608299D-06 0.115660818049D-04 0.000000000000D+00  6 3 2 25 4 1 21 2 0.14053498D+00 0.18310299D+00 0.38695178D+06 0.38695178D+06 0.38695178D+06 0.10764675D+01  1  2  3  2  6  2        2 0.395214514827D-04 0.100000000000D+01
-.183102346625D-03 0.000000000000D+00 0.000000000000D+00 0.115660818049D-04 0.000000000000D+00  6 3 2 25 4 1 21 2 0.14053498D+00 0.18310299D+00 0.38695178D+06 0.38695178D+06 0.38695178D+06 0.10764675D+01  1  2 15  2  6  2        2 -.123778678834D-03 0.100000000000D+01
0.749127628462D-02 0.000000000000D+00 0.000000000000D+00 0.115660818049D-04 0.000000000000D+00  6 3 2 25 4 1 21 2 0.14053498D+00 0.19396060D+00 0.39773979D+06 0.39773979D+06 0.39773979D+06 0.10756051D+01  1  2 12  2  6  2        2 0.459498745819D-02 0.100000000000D+01
-.120657410191D-01 0.000000000000D+00 0.000000000000D+00 0.115660818049D-04 0.000000000000D+00  6 3 2 25 4 1 21 2 0.14053498D+00 0.18310299D+00 0.38695178D+06 0.38695178D+06 0.38695178D+06 0.10764675D+01  1  2  4  2  6  2        2 -.815653927990D-02 0.100000000000D+01
-.186725031665D-01 0.000000000000D+00 -.102363732446D-02 0.115660818049D-04 0.000000000000D+00  6 3 2 25 4 1 21 2 0.14053498D+00 0.19263451D+00 0.38695178D+06 0.38695178D+06 0.38695178D+06 0.10764675D+01  1  2  5  2  6  2        2 -.116210553328D-01 0.100000000000D+01
0.187016802103D-01 0.000000000000D+00 0.102232072881D-02 0.115660818049D-04 0.000000000000D+00  6 3 2 25 4 1 21 2 0.14053498D+00 0.18310299D+00 0.38695178D+06 0.38695178D+06 0.38695178D+06 0.10764675D+01  1  2  6  2  6  2        2 0.126424882644D-01 0.100000000000D+01
0.146563702014D-03 0.000000000000D+00 0.000000000000D+00 0.115660818049D-04 0.000000000000D+00  6 3 21 25 4 1 -2 2 0.14053498D+00 0.19396060D+00 0.39773979D+06 0.39773979D+06 0.39773979D+06 0.10756051D+01  1  2 12  6  6  2        2 0.422173685895D-04 0.100000000000D+01
-.184395106636D-03 0.000000000000D+00 -.903968527734D-05 0.115660818049D-04 0.000000000000D+00  6 3 21 25 4 1 -2 2 0.14053498D+00 0.19263451D+00 0.38695178D+06 0.38695178D+06 0.38695178D+06 0.10764675D+01  1  2  5  6  6  2        2 -.545987609010D-04 0.100000000000D+01
  </mgrwgt>
  </event>
  <event>
  5     66 0.20805674E-05 0.86017668E+02 0.75467711E-02 0.91017204E-01
        3 -1    0    0  501    0 0.00000000E+00 0.00000000E+00 0.20347157E+04 0.20347158E+04 0.50000000E+00 0.0000E+00 0.9000E+01
        2 -1    0    0  502    0 0.00000000E+00 0.00000000E+00 -.29658732E+04 0.29658732E+04 0.32000000E+00 0.0000E+00 0.9000E+01
       25  1    1    2    0    0 0.32398123E+03 0.47990043E+03 0.50664708E+03 0.77947709E+03 0.12500000E+03 0.0000E+00 0.9000E+01
        4  1    1    2  501    0 0.84312061E+02 -.17178581E+02 0.13566267E+04 0.13593535E+04 0.15500000E+01 0.0000E+00 0.9000E+01
        1  1    1    2  502    0 -.40829329E+03 -.46272185E+03 -.27944313E+04 0.28617584E+04 0.32000000E+00 0.0000E+00 0.9000E+01
#aMCatNLO 1  0  0  1  4 0.32434254D+01 0.00000000D+00  -5  6  0 0.00000000D+00 0.00000000D+00 0.00000000D+00 0.00000000D+00 0.00000000D+00
  <mgrwgt>
 0.4668232210D-02    7    2    0
 0.245656447548285D+04 0.000000000000000D+00 0.000000000000000D+00 0.245656447548285D+04
 0.245656447548285D+04 0.000000000000000D+00 0.000000000000000D+00 -.245656447548285D+04
 0.889862431716665D+03 0.324132566292432D+03 0.480040500941321D+03 0.663874494392867D+03
 0.164015636593225D+04 0.842859325533198D+02 -.171732571098496D+02 0.163789922324969D+04
 0.238311015331679D+04 -.408418498845751D+03 -.462867243831471D+03 -.230177371764255D+04
 0.000000000000000D+00 -.000000000000000D+00 -.000000000000000D+00 0.000000000000000D+00
 0.369359146116128D+04 0.000000000000000D+00 0.000000000000000D+00 0.369359146116128D+04
 0.245912277956610D+04 0.000000000000000D+00 0.000000000000000D+00 -.245912277956610D+04
 0.901010937468560D+03 0.339392519328991D+03 0.490182703648455D+03 0.663874494392867D+03
 0.164174179264302D+04 0.112250842095424D+03 0.141302428847434D+01 0.163789922324969D+04
 0.237140493470780D+04 -.367905485361232D+03 -.435941132456655D+03 -.230177371764255D+04
 0.123855657590801D+04 -.837378760631827D+02 -.556545954802746D+02 0.123446868159517D+04
0.350832779087D-01 0.000000000000D+00 0.000000000000D+00 0.919252671199D-03 0.000000000000D+00  6 3 2 25 4 1 21 0 0.31303319D+00 0.45628820D+00 0.41981993D+06 0.41981993D+06 0.41981993D+06 0.10739168D+01  1  2  2  1  6  1        3 0.606651933157D-04 0.100000000000D+01
0.112365356993D-01 0.000000000000D+00 -.134729024809D-03 0.919252671199D-03 0.000000000000D+00  6 3 2 25 4 1 21 2 0.31303319D+00 0.45628820D+00 0.41981993D+06 0.41981993D+06 0.41981993D+06 0.10739168D+01  1  2  3  1  6  1        3 0.224085177230D-04 0.100000000000D+01
-.264010755097D-01 0.000000000000D+00 0.000000000000D+00 0.919252671199D-03 0.000000000000D+00  6 3 2 25 4 1 21 2 0.31303319D+00 0.45628820D+00 0.41981993D+06 0.41981993D+06 0.41981993D+06 0.10739168D+01  1  2 15  1  6  1        3 -.526504773622D-04 0.100000000000D+01
-.304173669085D+00 0.000000000000D+00 0.000000000000D+00 0.919252671199D-03 0.000000000000D+00  6 3 2 25 4 1 21 2 0.31303319D+00 0.45628820D+00 0.41981993D+06 0.41981993D+06 0.41981993D+06 0.10739168D+01  1  2  4  1  6  1        3 -.606599866451D-03 0.100000000000D+01
-.389576216162D+01 0.000000000000D+00 -.194565478547D-01 0.919252671199D-03 0.000000000000D+00  6 3 2 25 4 1 21 2 0.47076798D+00 0.45628820D+00 0.41981993D+06 0.41981993D+06 0.41981993D+06 0.10739168D+01  1  2  5  1  6  1        3 -.127850736702D-02 0.100000000000D+01
0.360121401434D+01 0.000000000000D+00 0.179419500993D-01 0.919252671199D-03 0.000000000000D+00  6 3 2 25 4 1 21 2 0.31303319D+00 0.45628820D+00 0.41981993D+06 0.41981993D+06 0.41981993D+06 0.10739168D+01  1  2  6  1  6  1        3 0.718173912533D-02 0.100000000000D+01
-.187494948301D+00 0.000000000000D+00 -.939810271215D-03 0.919252671199D-03 0.000000000000D+00  6 21 2 25 4 1 -3 2 0.47076798D+00 0.45628820D+00 0.41981993D+06 0.41981993D+06 0.41981993D+06 0.10739168D+01  1  2  5  5  6  1        3 -.658822915053D-03 0.100000000000D+01
  </mgrwgt>
  </event>
  <event>
  5     66 0.20805674E-05 0.16366317E+02 0.75467711E-02 0.84654384E-01
        3 -1    0    0  501    0 0.00000000E+00 0.00000000E+00 0.16950098E+04 0.16950099E+04 0.50000000E+00 0.0000E+00 0.9000E+01
        2 -1    0    0  502    0 0.00000000E+00 0.00000000E+00 -.12349991E+04 0.12349992E+04 0.32000000E+00 0.0000E+00 0.9000E+01
       25  1    1    2    0    0 -.41346436E+03 0.38485568E+03 0.10943293E+03 0.58878454E+03 0.12500000E+03 0.0000E+00 0.9000E+01
        4  1    1    2  501    0 -.10911242E+02 -.12206122E+02 0.12657282E+04 0.12658350E+04 0.15500000E+01 0.0000E+00 0.9000E+01
        1  1    1    2  502    0 0.42437560E+03 -.37264956E+03 -.91515041E+03 0.10753896E+04 0.32000000E+00 0.0000E+00 0.9000E+01
#aMCatNLO 1  0  0  1  4 0.14999988D+03 0.00000000D+00  -5  6  0 0.00000000D+00 0.00000000D+00 0.00000000D+00 0.00000000D+00 0.00000000D+00
  <mgrwgt>
 0.1304350079D-01    5    2    0
 0.144683650825417D+04 0.000000000000000D+00 0.000000000000000D+00 0.144683650825417D+04
 0.144683650825417D+04 0.000000000000000D+00 0.000000000000000D+00 -.144683650825417D+04
 0.579080872711655D+03 -.413689896023451D+03 0.385049612755381D+03 0.175249189878052D+02
 0.108013521585076D+04 -.109074094436867D+02 -.122018341412646D+02 0.108001121669351D+04
 0.123445692794593D+04 0.424597305467137D+03 -.372847778614117D+03 -.109753613568131D+04
 0.000000000000000D+00 -.000000000000000D+00 -.000000000000000D+00 0.000000000000000D+00
 0.307662595947120D+04 0.000000000000000D+00 0.000000000000000D+00 0.307662595947120D+04
 0.167445409290373D+04 0.000000000000000D+00 0.000000000000000D+00 -.167445409290373D+04
 0.540426824629584D+03 -.249555111273682D+03 0.462440565295548D+03 0.175249189878052D+02
 0.113340932196055D+04 0.313627792154790D+03 0.140819284586322D+03 0.108001121669351D+04
 0.137599872544742D+04 0.807324979234915D+03 -.192388412358956D+03 -.109753613568131D+04
 0.170124518033737D+04 -.871397660116022D+03 -.410871437522914D+03 0.140217186656747D+04
0.168679497448D+00 0.000000000000D+00 0.000000000000D+00 0.700971823401D-03 0.000000000000D+00  6 3 2 25 4 1 21 0 0.26077075D+00 0.18999988D+00 0.33654319D+06 0.33654319D+06 0.33654319D+06 0.10808778D+01  1  2  2  1  6  1        3 0.920980855538D-02 0.100000000000D+01
0.171881086437D+00 0.000000000000D+00 -.647773684533D-03 0.700971823401D-03 0.000000000000D+00  6 3 2 25 4 1 21 2 0.26077075D+00 0.18999988D+00 0.33654319D+06 0.33654319D+06 0.33654319D+06 0.10808778D+01  1  2  3  1  6  1        3 0.109640143456D-01 0.100000000000D+01
-.109084110661D+00 0.000000000000D+00 0.000000000000D+00 0.700971823401D-03 0.000000000000D+00  6 3 2 25 4 1 21 2 0.26077075D+00 0.18999988D+00 0.33654319D+06 0.33654319D+06 0.33654319D+06 0.10808778D+01  1  2 15  1  6  1        3 -.695829761700D-02 0.100000000000D+01
-.758428194859D-01 0.000000000000D+00 -.757736815967D-01 0.700971823401D-03 0.000000000000D+00  6 3 2 25 4 1 21 2 0.56994091D+00 0.18999988D+00 0.33654319D+06 0.33654319D+06 0.33654319D+06 0.10808778D+01  1  2  5  1  6  1        3 -.162850232606D-03 0.100000000000D+01
-.165964115804D-02 0.000000000000D+00 -.641887015990D-02 0.700971823401D-03 0.000000000000D+00  6 21 2 25 4 1 -3 2 0.56994091D+00 0.18999988D+00 0.33654319D+06 0.33654319D+06 0.33654319D+06 0.10808778D+01  1  2  5  5  6  1        3 -.917426066125D-05 0.100000000000D+01
  </mgrwgt>
  </event>
  <event>
  5     66 0.20805674E-05 0.51516353E+02 0.75467711E-02 0.91148977E-01
        3 -1    0    0  501    0 0.00000000E+00 0.00000000E+00 0.11618503E+04 0.11618504E+04 0.50000000E+00 0.0000E+00 0.9000E+01
        2 -1    0    0  502    0 0.00000000E+00 0.00000000E+00 -.18081232E+04 0.18081233E+04 0.32000000E+00 0.0000E+00 0.9000E+01
       25  1    1    2    0    0 -.34814191E+03 0.34336940E+03 0.12078673E+03 0.51896028E+03 0.12500000E+03 0.0000E+00 0.9000E+01
        4  1    1    2  501    0 -.34090988E+02 -.38654754E+02 0.80400516E+03 0.80565692E+03 0.15500000E+01 0.0000E+00 0.9000E+01
        1  1    1    2  502    0 0.38223290E+03 -.30471465E+03 -.15710648E+04 0.16453564E+04 0.32000000E+00 0.0000E+00 0.9000E+01
#aMCatNLO 1  0  0  1  1 0.50970096D+02 0.00000000D+00  -5  6  0 0.00000000D+00 0.00000000D+00 0.00000000D+00 0.00000000D+00 0.00000000D+00
  <mgrwgt>
 0.2109320689D-01    7    2    0
 0.144940287415154D+04 0.000000000000000D+00 0.000000000000000D+00 0.144940287415154D+04
 0.144940287415154D+04 0.000000000000000D+00 0.000000000000000D+00 -.144940287415154D+04
 0.559035908329453D+03 -.348356103642132D+03 0.343516521623554D+03 0.239876158108019D+03
 0.100422021284934D+04 -.340752578709929D+02 -.386369182112311D+02 0.100289795156204D+04
 0.133554962712429D+04 0.382431361513125D+03 -.304879603412323D+03 -.124277410967006D+04
 0.000000000000000D+00 -.000000000000000D+00 -.000000000000000D+00 0.000000000000000D+00
 0.219049405360963D+04 0.000000000000000D+00 0.000000000000000D+00 0.219049405360963D+04
 0.149195534330939D+04 0.000000000000000D+00 0.000000000000000D+00 -.149195534330939D+04
 0.585539639277800D+03 -.328362250402792D+03 0.402329877646847D+03 0.239876158108019D+03
 0.100497715975898D+04 0.102211729203365D+01 0.646045328605724D+02 0.100289795156204D+04
 0.132541627738841D+04 0.428914061480756D+03 -.168147401300270D+03 -.124277410967006D+04
 0.766516320493826D+03 -.101573928369997D+03 -.298787009207149D+03 0.698538710300243D+03
0.377318720181D-01 0.000000000000D+00 0.000000000000D+00 0.679028187513D-03 0.000000000000D+00  6 3 2 25 4 1 21 0 0.17874621D+00 0.27817282D+00 0.27329818D+06 0.27329818D+06 0.27329818D+06 0.10875599D+01  1  2  2  1  6  1        3 0.488370760430D-02 0.100000000000D+01
0.164668836236D-01 0.000000000000D+00 -.144900323579D-03 0.679028187513D-03 0.000000000000D+00  6 3 2 25 4 1 21 2 0.17874621D+00 0.27817282D+00 0.27329818D+06 0.27329818D+06 0.27329818D+06 0.10875599D+01  1  2  3  1  6  1        3 0.252091994049D-02 0.100000000000D+01
-.261541949832D-01 0.000000000000D+00 0.000000000000D+00 0.679028187513D-03 0.000000000000D+00  6 3 2 25 4 1 21 2 0.17874621D+00 0.27817282D+00 0.27329818D+06 0.27329818D+06 0.27329818D+06 0.10875599D+01  1  2 15  1  6  1        3 -.400395321711D-02 0.100000000000D+01
-.798122045586D-03 0.000000000000D+00 0.000000000000D+00 0.679028187513D-03 0.000000000000D+00  6 3 2 25 4 1 21 2 0.17874621D+00 0.27817282D+00 0.27329818D+06 0.27329818D+06 0.27329818D+06 0.10875599D+01  1  2  4  1  6  1        3 -.122184733047D-03 0.100000000000D+01
-.164666506088D+00 0.000000000000D+00 -.244604952265D-01 0.679028187513D-03 0.000000000000D+00  6 3 2 25 4 1 21 2 0.27273769D+00 0.27817282D+00 0.27329818D+06 0.27329818D+06 0.27329818D+06 0.10875599D+01  1  2  5  1  6  1        3 -.405741153008D-02 0.100000000000D+01
0.162326298590D+00 0.000000000000D+00 0.224283174424D-01 0.679028187513D-03 0.000000000000D+00  6 3 2 25 4 1 21 2 0.17874621D+00 0.27817282D+00 0.27329818D+06 0.27329818D+06 0.27329818D+06 0.10875599D+01  1  2  6  1  6  1        3 0.248505796443D-01 0.100000000000D+01
-.726382681795D-02 0.000000000000D+00 -.121242693996D-02 0.679028187513D-03 0.000000000000D+00  6 21 2 25 4 1 -3 2 0.27273769D+00 0.27817282D+00 0.27329818D+06 0.27329818D+06 0.27329818D+06 0.10875599D+01  1  2  5  5  6  1        3 -.297845081564D-02 0.100000000000D+01
  </mgrwgt>
  </event>
  <event>
  5     66 -.20805674E-05 0.12260242E+02 0.75467711E-02 0.94774276E-01
        3 -1    0    0  501    0 0.00000000E+00 0.00000000E+00 0.55064705E+03 0.55064728E+03 0.50000000E+00 0.0000E+00 0.9000E+01
        2 -1    0    0  502    0 -.00000000E+00 -.00000000E+00 -.11612983E+04 0.11612983E+04 0.32000000E+00 0.0000E+00 0.9000E+01
       25  1    1    2    0    0 0.27774484E+03 -.39288314E+03 -.62358645E+03 0.79748632E+03 0.12500000E+03 0.0000E+00 0.9000E+01
        4  1    1    2  501    0 -.28523464E+03 0.38318818E+03 0.34052244E+03 0.58664292E+03 0.15500000E+01 0.0000E+00 0.9000E+01
        1  1    1    2  502    0 0.74897996E+01 0.96949581E+01 -.32758718E+03 0.32781634E+03 0.32000000E+00 0.0000E+00 0.9000E+01
#aMCatNLO 1  0  0  4  5 0.31582804D+01 0.00000000D+00  -5  6  0 0.00000000D+00 0.00000000D+00 0.00000000D+00 0.00000000D+00 0.00000000D+00
  <mgrwgt>
 -.2049893184D-01    5    2    0
 0.799665987335367D+03 0.000000000000000D+00 0.000000000000000D+00 0.799665987335367D+03
 0.799665987335367D+03 -.000000000000000D+00 -.000000000000000D+00 -.799665987335367D+03
 0.615371398262864D+03 0.277722126597501D+03 -.392867030114243D+03 -.362743538670736D+03
 0.757918477179233D+03 -.285216897034228D+03 0.383164352223165D+03 0.588452902857363D+03
 0.226042099228636D+03 0.749477043672654D+01 0.970267789107820D+01 -.225709364186627D+03
 0.000000000000000D+00 0.000000000000000D+00 0.000000000000000D+00 0.000000000000000D+00
 0.799665987335367D+03 0.000000000000000D+00 0.000000000000000D+00 0.799665987335367D+03
 0.799665987335367D+03 -.000000000000000D+00 -.000000000000000D+00 -.799665987335367D+03
 0.615327169545310D+03 0.277704611293456D+03 -.392843499810821D+03 -.362707401500684D+03
 0.355128514088241D+03 -.133716443215021D+03 0.173818070868513D+03 0.279326784558865D+03
 0.226029002494420D+03 0.748833656006182D+01 0.971132125060618D+01 -.225696089961154D+03
 0.402847288542763D+03 -.151476504638497D+03 0.209314107691702D+03 0.309076706902973D+03
0.162394195189D-04 0.000000000000D+00 0.000000000000D+00 0.515115528588D-04 0.000000000000D+00  6 3 2 25 4 1 21 0 0.84714952D-01 0.17866129D+00 0.24354995D+06 0.24354995D+06 0.24354995D+06 0.10913141D+01  1  2  2  3  6  4        4 0.360080524414D-04 0.100000000000D+01
0.110002789629D-04 0.000000000000D+00 -.623636468901D-07 0.515115528588D-04 0.000000000000D+00  6 3 2 25 4 1 21 2 0.84714952D-01 0.17866129D+00 0.24354995D+06 0.24354995D+06 0.24354995D+06 0.10913141D+01  1  2  3  3  6  4        4 0.290490808475D-04 0.100000000000D+01
-.117826272245D-04 0.000000000000D+00 0.000000000000D+00 0.515115528588D-04 0.000000000000D+00  6 3 2 25 4 1 21 2 0.84714952D-01 0.17866129D+00 0.24354995D+06 0.24354995D+06 0.24354995D+06 0.10913141D+01  1  2 15  3  6  4        4 -.311150737170D-04 0.100000000000D+01
-.831298146489D-02 0.000000000000D+00 0.000000000000D+00 0.515115528588D-04 0.000000000000D+00  6 3 2 25 4 1 21 2 0.84714952D-01 0.17866129D+00 0.24354995D+06 0.24354995D+06 0.24354995D+06 0.10913141D+01  1  2  5  3  6  4        4 -.219525769729D-01 0.100000000000D+01
0.537610273750D-03 0.000000000000D+00 0.000000000000D+00 0.515115528588D-04 0.196721950976D-05  6 3 2 25 4 1 21 2 0.84714952D-01 0.17866129D+00 0.24354269D+06 0.24354269D+06 0.24354269D+06 0.10913151D+01  1  2 11  3  6  4        4 0.141970307497D-02 0.100000000000D+01
  </mgrwgt>
  </event>
  <event>
  5     66 -.20805674E-05 0.85419012E+02 0.75467711E-02 0.89693529E-01
        3 -1    0    0  501    0 0.00000000E+00 0.00000000E+00 0.92399842E+03 0.92399855E+03 0.50000000E+00 0.0000E+00 0.9000E+01
        2 -1    0    0  502    0 0.00000000E+00 0.00000000E+00 -.12251281E+04 0.12251281E+04 0.32000000E+00 0.0000E+00 0.9000E+01
       25  1    1    2    0    0 -.16368824E+03 -.66536449E+03 0.34578082E+03 0.77762017E+03 0.12500000E+03 0.0000E+00 0.9000E+01
        4  1    1    2  501    0 0.24470762E+03 0.63849846E+03 0.34609215E+02 0.68466218E+03 0.15500000E+01 0.0000E+00 0.9000E+01
        1  1    1    2  502    0 -.81019385E+02 0.26866035E+02 -.68151970E+03 0.68684432E+03 0.32000000E+00 0.0000E+00 0.9000E+01
#aMCatNLO 1  0  0  2  1 0.12077452D+03 0.00000000D+00  -5  6  0 0.00000000D+00 0.00000000D+00 0.00000000D+00 0.00000000D+00 0.00000000D+00
  <mgrwgt>
 -.3454060469D-03    5    2    0
 0.106396268273408D+04 0.000000000000000D+00 0.000000000000000D+00 0.106396268273408D+04
 0.106396268273408D+04 0.000000000000000D+00 0.000000000000000D+00 -.106396268273408D+04
 0.834256662373727D+03 -.163449069051137D+03 -.664912400339936D+03 0.459929429820980D+03
 0.695860618472924D+03 0.244525231110061D+03 0.638022558565218D+03 0.131744549997273D+03
 0.597808084621515D+03 -.810761620589245D+02 0.268898417747176D+02 -.591673979818253D+03
 0.000000000000000D+00 -.000000000000000D+00 0.000000000000000D+00 -.000000000000000D+00
 0.106861286134753D+04 0.000000000000000D+00 0.000000000000000D+00 0.106861286134753D+04
 0.230692636059328D+04 0.000000000000000D+00 0.000000000000000D+00 -.230692636059328D+04
 0.869112436202602D+03 -.149645297345565D+03 -.711198025397236D+03 0.459929429820980D+03
 0.666245023148889D+03 0.255563470169073D+03 0.601010080723961D+03 0.131744549997273D+03
 0.595992545993171D+03 -.714018340575857D+02 -.554928632029230D+01 -.591673979818253D+03
 0.124418921659615D+04 -.345163387659215D+02 0.115737230993567D+03 -.123831349924576D+04
0.784669970117D-04 0.000000000000D+00 0.000000000000D+00 0.101791290695D-05 0.000000000000D+00  6 3 2 25 4 1 21 0 0.14215362D+00 0.18848126D+00 0.53634990D+06 0.53634990D+06 0.53634990D+06 0.10663630D+01  1  2  2  2  6  2        2 0.415285698785D-04 0.100000000000D+01
0.229582359894D-04 0.000000000000D+00 -.301333929360D-06 0.101791290695D-05 0.000000000000D+00  6 3 2 25 4 1 21 2 0.14215362D+00 0.18848126D+00 0.53634990D+06 0.53634990D+06 0.53634990D+06 0.10663630D+01  1  2  3  2  6  2        2 0.138168358905D-04 0.100000000000D+01
-.498699013481D-04 0.000000000000D+00 0.000000000000D+00 0.101791290695D-05 0.000000000000D+00  6 3 2 25 4 1 21 2 0.14215362D+00 0.18848126D+00 0.53634990D+06 0.53634990D+06 0.53634990D+06 0.10663630D+01  1  2 15  2  6  2        2 -.300129436391D-04 0.100000000000D+01
-.393646337716D-02 0.000000000000D+00 -.405251381399D-04 0.101791290695D-05 0.000000000000D+00  6 3 2 25 4 1 21 2 0.14215362D+00 0.40901008D+00 0.53634990D+06 0.53634990D+06 0.53634990D+06 0.10663630D+01  1  2  5  2  6  2        2 -.367816387812D-03 0.100000000000D+01
-.327724478829D-03 0.000000000000D+00 -.340004316850D-05 0.101791290695D-05 0.000000000000D+00  6 3 21 25 4 1 -2 2 0.14215362D+00 0.40901008D+00 0.53634990D+06 0.53634990D+06 0.53634990D+06 0.10663630D+01  1  2  5  6  6  2        2 -.292212125100D-05 0.100000000000D+01
  </mgrwgt>
  </event>
  <event>
  5     66 0.20805674E-05 0.13796052E+03 0.75467711E-02 0.92306998E-01
        3 -1    0    0  501    0 0.00000000E+00 0.00000000E+00 0.14662145E+04 0.14662146E+04 0.50000000E+00 0.0000E+00 0.9000E+01
        2 -1    0    0  502    0 0.00000000E+00 0.00000000E+00 -.65655544E+03 0.65655551E+03 0.32000000E+00 0.0000E+00 0.9000E+01
       25  1    1    2    0    0 0.31407590E+03 0.44569030E+03 0.22635005E+03 0.60344251E+03 0.12500000E+03 0.0000E+00 0.9000E+01
        4  1    1    2  501    0 -.12860381E+03 0.50296263E+02 0.89451972E+03 0.90511689E+03 0.15500000E+01 0.0000E+00 0.9000E+01
        1  1    1    2  502    0 -.18547209E+03 -.49598656E+03 -.31121071E+03 0.61421069E+03 0.32000000E+00 0.0000E+00 0.9000E+01
#aMCatNLO 1  0  0  5  2 0.34277169D+02 0.00000000D+00  -5  6  0 0.00000000D+00 0.00000000D+00 0.00000000D+00 0.00000000D+00 0.00000000D+00
  <mgrwgt>
 0.5500724129D-03    7    2    0
 0.981147932151456D+03 0.000000000000000D+00 0.000000000000000D+00 0.981147932151456D+03
 0.981147932151456D+03 -.000000000000000D+00 -.000000000000000D+00 -.981147932151456D+03
 0.559770881978250D+03 0.314160036458576D+03 0.446103564275190D+03 -.367719241072649D+01
 0.609479358189057D+03 -.128483877209731D+03 0.502493580608878D+02 0.593659821253020D+03
 0.793045624135604D+03 -.185676159248845D+03 -.496352922336078D+03 -.589982628842294D+03
 0.000000000000000D+00 0.000000000000000D+00 0.000000000000000D+00 -.000000000000000D+00
 0.981147932151456D+03 0.000000000000000D+00 0.000000000000000D+00 0.981147932151456D+03
 0.981147932151456D+03 -.000000000000000D+00 -.000000000000000D+00 -.981147932151456D+03
 0.558659355609043D+03 0.313743204491126D+03 0.444989281396849D+03 -.500166842820066D+01
 0.608072030809011D+03 -.128937651011522D+03 0.490363215918568D+02 0.592217963226856D+03
 0.683630251233474D+03 -.128554432441816D+03 -.441183201861326D+03 -.506143715456879D+03
 0.111934226651384D+03 -.562511210377883D+02 -.528424011273803D+02 -.810725793417762D+02
0.427583830665D-03 0.000000000000D+00 0.000000000000D+00 0.350002340412D-05 0.000000000000D+00  6 3 2 25 4 1 21 0 0.22557147D+00 0.10100854D+00 0.37679001D+06 0.37679001D+06 0.37679001D+06 0.10773041D+01  1  2  2  4  6  5        1 0.111271356392D-03 0.100000000000D+01
0.707370893681D-04 0.000000000000D+00 -.164203449516D-05 0.350002340412D-05 0.000000000000D+00  6 3 2 25 4 1 21 2 0.22557147D+00 0.10100854D+00 0.37679001D+06 0.37679001D+06 0.37679001D+06 0.10773041D+01  1  2  3  4  6  5        1 0.213641653069D-04 0.100000000000D+01
-.332776826120D-03 0.000000000000D+00 0.000000000000D+00 0.350002340412D-05 0.000000000000D+00  6 3 2 25 4 1 21 2 0.22557147D+00 0.10100854D+00 0.37679001D+06 0.37679001D+06 0.37679001D+06 0.10773041D+01  1  2 15  4  6  5        1 -.100505960693D-03 0.100000000000D+01
0.110402323715D-01 0.000000000000D+00 0.000000000000D+00 0.350002340412D-05 0.000000000000D+00  6 3 2 25 4 1 21 2 0.22557147D+00 0.10100854D+00 0.38025345D+06 0.38025345D+06 0.38025345D+06 0.10770162D+01  1  2 12  4  6  5        1 0.333075359382D-02 0.100000000000D+01
-.110889099780D-01 0.000000000000D+00 0.000000000000D+00 0.350002340412D-05 0.000000000000D+00  6 3 2 25 4 1 21 2 0.22557147D+00 0.10100854D+00 0.37679001D+06 0.37679001D+06 0.37679001D+06 0.10773041D+01  1  2  4  4  6  5        1 -.334909603943D-02 0.100000000000D+01
-.117599299696D-01 0.000000000000D+00 0.000000000000D+00 0.350002340412D-05 0.000000000000D+00  6 3 2 25 4 1 21 2 0.22557147D+00 0.10100854D+00 0.37679001D+06 0.37679001D+06 0.37679001D+06 0.10773041D+01  1  2  5  4  6  5        1 -.355175891620D-02 0.100000000000D+01
0.135355790752D-01 0.000000000000D+00 -.000000000000D+00 0.350002340412D-05 0.000000000000D+00  6 3 2 25 4 1 21 2 0.22557147D+00 0.10100854D+00 0.37679001D+06 0.37679001D+06 0.37679001D+06 0.10773041D+01  1  2  6  4  6  5        1 0.408804421374D-02 0.100000000000D+01
  </mgrwgt>
  </event>
  <event>
  5     66 0.20805674E-05 0.13902433E+03 0.75467711E-02 0.92988119E-01
        3 -1    0    0  501    0 0.00000000E+00 0.00000000E+00 0.41491666E+03 0.41491696E+03 0.50000000E+00 0.0000E+00 0.9000E+01
        2 -1    0    0  502    0 -.00000000E+00 -.00000000E+00 -.11153217E+04 0.11153217E+04 0.32000000E+00 0.0000E+00 0.9000E+01
       25  1    1    2    0    0 -.51374796E+02 0.53700139E+03 -.19323865E+03 0.58649470E+03 0.12500000E+03 0.0000E+00 0.9000E+01
        4  1    1    2  501    0 0.11644416E+03 -.76923798E+02 0.10539373E+03 0.17489069E+03 0.15500000E+01 0.0000E+00 0.9000E+01
        1  1    1    2  502    0 -.65069362E+02 -.46007759E+03 -.61256007E+03 0.76885327E+03 0.32000000E+00 0.0000E+00 0.9000E+01
#aMCatNLO 1  0  0  4  1 0.11188383D+01 0.00000000D+00  -5  6  0 0.00000000D+00 0.00000000D+00 0.00000000D+00 0.00000000D+00 0.00000000D+00
  <mgrwgt>
 0.8704474306D-04    8    2    0
 0.680268919110034D+03 0.000000000000000D+00 0.000000000000000D+00 0.680268919110034D+03
 0.680268919110034D+03 -.000000000000000D+00 -.000000000000000D+00 -.680268919110034D+03
 0.560592714152624D+03 -.510181606970666D+02 0.537345661304024D+03 0.854165014375765D+02
 0.249996680350119D+03 0.115998642335044D+03 -.766294871691045D+02 0.207775303774790D+03
 0.549948443717324D+03 -.649804816379773D+02 -.460716174134919D+03 -.293191805212366D+03
 0.000000000000000D+00 0.000000000000000D+00 -.000000000000000D+00 0.000000000000000D+00
 0.680268919110034D+03 0.000000000000000D+00 0.000000000000000D+00 0.680268919110034D+03
 0.680268919110034D+03 -.000000000000000D+00 -.000000000000000D+00 -.680268919110034D+03
 0.560590457698155D+03 -.510131605762565D+02 0.537342358190421D+03 0.854254575908497D+02
 0.223183052716986D+03 0.103005103699769D+03 -.676367075391237D+02 0.186080357440381D+03
 0.549945894756158D+03 -.649755764586019D+02 -.460719414529569D+03 -.293183019116992D+03
 0.268184330487680D+02 0.129836333350894D+02 -.898623612172752D+01 0.216772040857617D+02
0.264873507226D-06 0.000000000000D+00 0.000000000000D+00 0.153474690782D-06 0.000000000000D+00  6 3 2 25 4 1 21 0 0.63833359D-01 0.17158797D+00 0.33544226D+06 0.33544226D+06 0.33544226D+06 0.10809820D+01  1  2  2  3  6  4        4 0.115577427237D-05 0.100000000000D+01
0.223032404166D-07 0.000000000000D+00 -.101718401054D-08 0.153474690782D-06 0.000000000000D+00  6 3 2 25 4 1 21 2 0.63833359D-01 0.17158797D+00 0.33544226D+06 0.33544226D+06 0.33544226D+06 0.10809820D+01  1  2  3  3  6  4        4 0.113720667931D-06 0.100000000000D+01
-.203853735917D-06 0.000000000000D+00 0.000000000000D+00 0.153474690782D-06 0.000000000000D+00  6 3 2 25 4 1 21 2 0.63833359D-01 0.17158797D+00 0.33544226D+06 0.33544226D+06 0.33544226D+06 0.10809820D+01  1  2 15  3  6  4        4 -.103941770683D-05 0.100000000000D+01
0.407104283730D-08 0.000000000000D+00 0.000000000000D+00 0.153474690782D-06 0.000000000000D+00  6 3 2 25 4 1 21 2 0.63833359D-01 0.17158797D+00 0.33543714D+06 0.33543714D+06 0.33543714D+06 0.10809825D+01  1  2 12  3  6  4        4 0.207576267244D-07 0.100000000000D+01
-.579798067183D-03 0.000000000000D+00 0.000000000000D+00 0.153474690782D-06 0.000000000000D+00  6 3 2 25 4 1 21 2 0.63833359D-01 0.17158797D+00 0.33544226D+06 0.33544226D+06 0.33544226D+06 0.10809820D+01  1  2  4  3  6  4        4 -.295629792953D-02 0.100000000000D+01
-.580783639374D-03 0.000000000000D+00 0.000000000000D+00 0.153474690782D-06 0.000000000000D+00  6 3 2 25 4 1 21 2 0.63833359D-01 0.17158797D+00 0.33544226D+06 0.33544226D+06 0.33544226D+06 0.10809820D+01  1  2  5  3  6  4        4 -.296132320504D-02 0.100000000000D+01
0.667758464928D-03 0.000000000000D+00 -.000000000000D+00 0.153474690782D-06 0.000000000000D+00  6 3 2 25 4 1 21 2 0.63833359D-01 0.17158797D+00 0.33544226D+06 0.33544226D+06 0.33544226D+06 0.10809820D+01  1  2  6  3  6  4        4 0.340479397746D-02 0.100000000000D+01
0.509844832363D-03 0.000000000000D+00 0.000000000000D+00 0.153474690782D-06 0.537856771643D-06  6 3 2 25 4 1 21 2 0.63833359D-01 0.17158797D+00 0.33543714D+06 0.33543714D+06 0.33543714D+06 0.10809825D+01  1  2 11  3  6  4        4 0.259962106530D-02 0.100000000000D+01
  </mgrwgt>
  </event>
  <event>
  5     66 0.20805674E-05 0.95714579E+02 0.75467711E-02 0.90705779E-01
        3 -1    0    0  501    0 0.00000000E+00 0.00000000E+00 0.73293726E+03 0.73293743E+03 0.50000000E+00 0.0000E+00 0.9000E+01
        2 -1    0    0  502    0 0.00000000E+00 0.00000000E+00 -.15800105E+04 0.15800106E+04 0.32000000E+00 0.0000E+00 0.9000E+01
       25  1    1    2    0    0 -.41445048E+03 0.31035131E+03 0.10596447E+03 0.54308434E+03 0.12500000E+03 0.0000E+00 0.9000E+01
        4  1    1    2  501    0 0.69369394E+02 0.66148678E+02 0.35391446E+03 0.36666825E+03 0.15500000E+01 0.0000E+00 0.9000E+01
        1  1    1    2  502    0 0.34508108E+03 -.37649999E+03 -.13069522E+04 0.14031954E+04 0.32000000E+00 0.0000E+00 0.9000E+01
#aMCatNLO 1  0  0  1  1 0.25746907D+03 0.00000000D+00  -5  6  0 0.00000000D+00 0.00000000D+00 0.00000000D+00 0.00000000D+00 0.00000000D+00
  <mgrwgt>
 0.1515807705D-02    7    2    0
 0.107612676806689D+04 0.000000000000000D+00 0.000000000000000D+00 0.107612676806689D+04
 0.107612676806689D+04 0.000000000000000D+00 0.000000000000000D+00 -.107612676806689D+04
 0.625981055644584D+03 -.414617966322108D+03 0.310699167630870D+03 0.328306642123354D+03
 0.532565464581965D+03 0.692693581817641D+02 0.660532865286579D+02 0.523893780666705D+03
 0.993707015907232D+03 0.345348608140344D+03 -.376752454159528D+03 -.852200422790059D+03
 0.000000000000000D+00 -.000000000000000D+00 0.000000000000000D+00 0.000000000000000D+00
 0.149373151921922D+04 0.000000000000000D+00 0.000000000000000D+00 0.149373151921922D+04
 0.112422715463445D+04 0.000000000000000D+00 0.000000000000000D+00 -.112422715463445D+04
 0.588483261364739D+03 -.407349390992918D+03 0.238681317454607D+03 0.328306642123354D+03
 0.529332891611983D+03 0.756248254324992D+02 0.308261242345175D+01 0.523893780666705D+03
 0.104978288892344D+04 0.357578905975919D+03 -.497931600999518D+03 -.852200422790059D+03
 0.450359631953519D+03 -.258543404154999D+02 0.256167671121460D+03 0.369504364584773D+03
0.105633897059D-02 0.000000000000D+00 0.000000000000D+00 0.186033758129D-04 0.000000000000D+00  6 3 2 25 4 1 21 0 0.11275959D+00 0.24307856D+00 0.32477413D+06 0.32477413D+06 0.32477413D+06 0.10820115D+01  1  2  2  1  6  1        3 0.676381676776D-03 0.100000000000D+01
0.205555334090D-03 0.000000000000D+00 -.405661978749D-05 0.186033758129D-04 0.000000000000D+00  6 3 2 25 4 1 21 2 0.11275959D+00 0.24307856D+00 0.32477413D+06 0.32477413D+06 0.32477413D+06 0.10820115D+01  1  2  3  1  6  1        3 0.154092341220D-03 0.100000000000D+01
-.782488608831D-03 0.000000000000D+00 0.000000000000D+00 0.186033758129D-04 0.000000000000D+00  6 3 2 25 4 1 21 2 0.11275959D+00 0.24307856D+00 0.32477413D+06 0.32477413D+06 0.32477413D+06 0.10820115D+01  1  2 15  1  6  1        3 -.586584153832D-03 0.100000000000D+01
-.641609745489D-04 0.000000000000D+00 0.000000000000D+00 0.186033758129D-04 0.000000000000D+00  6 3 2 25 4 1 21 2 0.11275959D+00 0.24307856D+00 0.32477413D+06 0.32477413D+06 0.32477413D+06 0.10820115D+01  1  2  4  1  6  1        3 -.480975831981D-04 0.100000000000D+01
-.369606480209D-02 0.000000000000D+00 -.842257300255D-03 0.186033758129D-04 0.000000000000D+00  6 3 2 25 4 1 21 2 0.15986068D+00 0.24307856D+00 0.32477413D+06 0.32477413D+06 0.32477413D+06 0.10820115D+01  1  2  5  1  6  1        3 -.105343816340D-02 0.100000000000D+01
0.380474296824D-02 0.000000000000D+00 0.793431838908D-03 0.186033758129D-04 0.000000000000D+00  6 3 2 25 4 1 21 2 0.11275959D+00 0.24307856D+00 0.32477413D+06 0.32477413D+06 0.32477413D+06 0.10820115D+01  1  2  6  1  6  1        3 0.285218456778D-02 0.100000000000D+01
-.135625974566D-03 0.000000000000D+00 -.363127397175D-04 0.186033758129D-04 0.000000000000D+00  6 21 2 25 4 1 -3 2 0.15986068D+00 0.24307856D+00 0.32477413D+06 0.32477413D+06 0.32477413D+06 0.10820115D+01  1  2  5  5  6  1        3 -.478730980551D-03 0.100000000000D+01
  </mgrwgt>
  </event>
  <event>
  5     66 -.20805674E-05 0.10841017E+03 0.75467711E-02 0.93913297E-01
        3 -1    0    0  501    0 0.00000000E+00 0.00000000E+00 0.35016958E+03 0.35016993E+03 0.50000000E+00 0.0000E+00 0.9000E+01
        2 -1    0    0  502    0 0.00000000E+00 0.00000000E+00 -.40072599E+04 0.40072599E+04 0.32000000E+00 0.0000E+00 0.9000E+01
       25  1    1    2    0    0 -.51883346E+03 0.29218448E+02 -.43773127E+02 0.53626763E+03 0.12500000E+03 0.0000E+00 0.9000E+01
        4  1    1    2  501    0 0.41410164E+03 -.15089229E+01 -.31305562E+03 0.51912298E+03 0.15500000E+01 0.0000E+00 0.9000E+01
        1  1    1    2  502    0 0.10473182E+03 -.27709525E+02 -.33002616E+04 0.33020393E+04 0.32000000E+00 0.0000E+00 0.9000E+01
#aMCatNLO 1  0  0  2  5 0.11884402D+02 0.00000000D+00  -5  6  0 0.00000000D+00 0.00000000D+00 0.00000000D+00 0.00000000D+00 0.00000000D+00
  <mgrwgt>
 -.5145188301D-02    9    2    0
 0.118457642886568D+04 0.000000000000000D+00 0.000000000000000D+00 0.118457642886568D+04
 0.118457642886568D+04 0.000000000000000D+00 0.000000000000000D+00 -.118457642886568D+04
 0.919134950523660D+03 -.518095026615190D+03 0.292336515183033D+02 0.748269332720274D+03
 0.470622052116486D+03 0.413290728436151D+03 -.150596811740997D+01 0.225108022484933D+03
 0.979395855091221D+03 0.104804298179039D+03 -.277276834008933D+02 -.973377355205206D+03
 0.000000000000000D+00 0.000000000000000D+00 0.000000000000000D+00 -.000000000000000D+00
 0.118464626940693D+04 0.000000000000000D+00 0.000000000000000D+00 0.118464626940693D+04
 0.182732685866595D+04 0.000000000000000D+00 0.000000000000000D+00 -.182732685866595D+04
 0.921499505939077D+03 -.522372695354881D+03 0.274974963223232D+02 0.748269332720274D+03
 0.468709811505552D+03 0.411107703699706D+03 -.239198102999615D+01 0.225108022484933D+03
 0.978973348014758D+03 0.100253011696551D+03 -.295748904091517D+02 -.973377355205206D+03
 0.642790462613494D+03 0.110119799586251D+02 0.446937511682459D+01 -.642680589259024D+03
0.856050394836D-04 0.000000000000D+00 0.000000000000D+00 0.604235241279D-05 0.000000000000D+00  6 3 2 25 4 1 21 0 0.53872271D-01 0.61650156D+00 0.27850203D+06 0.27850203D+06 0.27850203D+06 0.10869492D+01  1  2  2  2  6  2        2 0.860663984971D-05 0.100000000000D+01
0.193702620290D-04 0.000000000000D+00 -.328745891942D-06 0.604235241279D-05 0.000000000000D+00  6 3 2 25 4 1 21 2 0.53872271D-01 0.61650156D+00 0.27850203D+06 0.27850203D+06 0.27850203D+06 0.10869492D+01  1  2  3  2  6  2        2 0.230084969613D-05 0.100000000000D+01
-.550612316575D-04 0.000000000000D+00 0.000000000000D+00 0.604235241279D-05 0.000000000000D+00  6 3 2 25 4 1 21 2 0.53872271D-01 0.61650156D+00 0.27850203D+06 0.27850203D+06 0.27850203D+06 0.10869492D+01  1  2 15  2  6  2        2 -.654031514586D-05 0.100000000000D+01
0.981193309723D-01 0.000000000000D+00 0.000000000000D+00 0.604235241279D-05 0.000000000000D+00  6 3 2 25 4 1 21 2 0.53872271D-01 0.95960596D+00 0.28374113D+06 0.28374113D+06 0.28374113D+06 0.10863468D+01  1  2 12  2  6  2        2 0.784987965671D-06 0.100000000000D+01
-.158147582240D+00 0.000000000000D+00 0.000000000000D+00 0.604235241279D-05 0.000000000000D+00  6 3 2 25 4 1 21 2 0.53872271D-01 0.61650156D+00 0.27850203D+06 0.27850203D+06 0.27850203D+06 0.10869492D+01  1  2  4  2  6  2        2 -.187851778151D-01 0.100000000000D+01
-.101136576304D+00 0.000000000000D+00 -.266700289692D-04 0.604235241279D-05 0.000000000000D+00  6 3 2 25 4 1 21 2 0.53872271D-01 0.95101599D+00 0.27850203D+06 0.27850203D+06 0.27850203D+06 0.10869492D+01  1  2  5  2  6  2        2 -.174027935113D-05 0.100000000000D+01
0.114802841765D+00 0.000000000000D+00 0.302703944690D-04 0.604235241279D-05 0.000000000000D+00  6 3 2 25 4 1 21 2 0.53872271D-01 0.61650156D+00 0.27850203D+06 0.27850203D+06 0.27850203D+06 0.10869492D+01  1  2  6  2  6  2        2 0.136365777186D-01 0.100000000000D+01
0.503407535591D-02 0.000000000000D+00 0.000000000000D+00 0.604235241279D-05 0.000000000000D+00  6 3 21 25 4 1 -2 2 0.53872271D-01 0.95960596D+00 0.28374113D+06 0.28374113D+06 0.28374113D+06 0.10863468D+01  1  2 12  6  6  2        2 0.132319959094D-09 0.100000000000D+01
-.510842166907D-02 0.000000000000D+00 -.134737357065D-05 0.604235241279D-05 0.000000000000D+00  6 3 21 25 4 1 -2 2 0.53872271D-01 0.95101599D+00 0.27850203D+06 0.27850203D+06 0.27850203D+06 0.10869492D+01  1  2  5  6  6  2        2 -.220153377892D-09 0.100000000000D+01
  </mgrwgt>
  </event>
  <event>
  6     66 -.20805674E-05 0.16922063E+02 0.75467711E-02 0.94501532E-01
        3 -1    0    0  501    0 0.00000000E+00 0.00000000E+00 0.94968078E+03 0.94968091E+03 0.50000000E+00 0.0000E+00 0.9000E+01
        2 -1    0    0  502    0 -.00000000E+00 -.00000000E+00 -.33188131E+04 0.33188131E+04 0.32000000E+00 0.0000E+00 0.9000E+01
       25  1    1    2    0    0 -.40573541E+03 0.26241216E+03 0.65896394E+03 0.82664372E+03 0.12500000E+03 0.0000E+00 0.9000E+01
        4  1    1    2  503    0 -.45805039E+01 -.81790082E+01 0.12223790E+03 0.12260662E+03 0.15500000E+01 0.0000E+00 0.9000E+01
        1  1    1    2  502    0 0.41936633E+03 -.23469777E+03 -.32151880E+04 0.32509053E+04 0.32000000E+00 0.0000E+00 0.9000E+01
       21  1    1    2  501  503 -.90504169E+01 -.19535380E+02 0.64853895E+02 0.68338359E+02 0.75000000E+00 0.0000E+00 0.9000E+01
#aMCatNLO 2  0  0  4  1 0.10613978D+02 0.00000000D+00  -5  6  0 0.00000000D+00 0.00000000D+00 0.00000000D+00 0.00000000D+00 0.00000000D+00
  <mgrwgt>
 -.2487002711D-02    5    2    0
 0.177533470329827D+04 0.000000000000000D+00 0.000000000000000D+00 0.177533470329827D+04
 0.177533470329827D+04 -.000000000000000D+00 -.000000000000000D+00 -.177533470329827D+04
 0.143496669205406D+04 -.406065533711472D+03 0.262446873824388D+03 0.134526459406913D+04
 0.352471069769913D+03 -.135846444230830D+02 -.276202989239660D+02 0.351124524275927D+03
 0.176323164477256D+04 0.419650178134555D+03 -.234826574900422D+03 -.169638911834506D+04
 0.000000000000000D+00 0.000000000000000D+00 -.000000000000000D+00 0.000000000000000D+00
 0.177533470329827D+04 0.000000000000000D+00 0.000000000000000D+00 0.177533470329827D+04
 0.177533470329827D+04 -.000000000000000D+00 -.000000000000000D+00 -.177533470329827D+04
 0.143522873005451D+04 -.406076387348094D+03 0.262424806210501D+03 0.134554512978851D+04
 0.226563362596889D+03 -.450811498785732D+01 -.803707582144792D+01 0.226375881185929D+03
 0.176290050237587D+04 0.419636844074890D+03 -.234853685710417D+03 -.169604447072599D+04
 0.125976811569271D+03 -.905234173893875D+01 -.195340446786359D+02 0.124123459751548D+03
-.891070126885D-01 0.000000000000D+00 0.000000000000D+00 0.512182383639D-03 0.000000000000D+00  6 3 2 25 4 1 21 2 0.14610475D+00 0.51058664D+00 0.25554042D+06 0.25554042D+06 0.25554042D+06 0.10897437D+01  1  2 13  3  6  4        4 -.328037694334D-02 0.100000000000D+01
-.393829503770D-02 0.000000000000D+00 0.000000000000D+00 0.512182383639D-03 0.000000000000D+00  6 3 2 25 4 1 21 2 0.14610475D+00 0.51058664D+00 0.25555898D+06 0.25555898D+06 0.25555898D+06 0.10897413D+01  1  2  8  3  6  4        4 -.144982309223D-03 0.100000000000D+01
-.176558051973D-01 0.000000000000D+00 0.000000000000D+00 0.512182383639D-03 0.000000000000D+00  6 3 2 25 4 1 21 2 0.14610475D+00 0.51058664D+00 0.25555898D+06 0.25555898D+06 0.25555898D+06 0.10897413D+01  1  2  9  3  6  4        4 -.649971468416D-03 0.100000000000D+01
0.249919133688D-01 0.000000000000D+00 0.000000000000D+00 0.512182383639D-03 0.000000000000D+00  6 3 2 25 4 1 21 2 0.14610475D+00 0.51058664D+00 0.25555898D+06 0.25555898D+06 0.25555898D+06 0.10897413D+01  1  2 10  3  6  4        4 0.920039072094D-03 0.100000000000D+01
0.181531671103D-01 0.000000000000D+00 0.000000000000D+00 0.512182383639D-03 0.196598933435D-05  6 3 2 25 4 1 21 2 0.14610475D+00 0.51058664D+00 0.25554042D+06 0.25554042D+06 0.25554042D+06 0.10897437D+01  1  2  1  3  6  4        4 0.668288937544D-03 0.100000000000D+01
  </mgrwgt>
  </event>
  <event>
  5     66 -.20805674E-05 0.35420240E+02 0.75467711E-02 0.92436685E-01
        3 -1    0    0  501    0 0.00000000E+00 0.00000000E+00 0.39854167E+03 0.39854198E+03 0.50000000E+00 0.0000E+00 0.9000E+01
        2 -1    0    0  502    0 0.00000000E+00 0.00000000E+00 -.16996429E+04 0.16996430E+04 0.32000000E+00 0.0000E+00 0.9000E+01
       25  1    1    2    0    0 -.45937457E+03 0.32836533E+03 -.25294293E+03 0.63123206E+03 0.12500000E+03 0.0000E+00 0.9000E+01
        4  1    1    2  501    0 0.48240074E+03 -.30149352E+03 -.17798750E+03 0.59606272E+03 0.15500000E+01 0.0000E+00 0.9000E+01
        1  1    1    2  502    0 -.23026165E+02 -.26871810E+02 -.87017082E+03 0.87089016E+03 0.32000000E+00 0.0000E+00 0.9000E+01
#aMCatNLO 1  0  0  1  5 0.43965642D+02 0.00000000D+00  -5  6  0 0.00000000D+00 0.00000000D+00 0.00000000D+00 0.00000000D+00 0.00000000D+00
  <mgrwgt>
 -.2035646795D-01    7    2    0
 0.823030310961597D+03 0.000000000000000D+00 0.000000000000000D+00 0.823030310961597D+03
 0.823030310961597D+03 0.000000000000000D+00 0.000000000000000D+00 -.823030310961597D+03
 0.604553471757410D+03 -.459075624380845D+03 0.328216575967424D+03 0.177153466162802D+03
 0.618736178298792D+03 0.482121629004590D+03 -.301319083673779D+03 0.244131118450208D+03
 0.422770971866991D+03 -.230460046237453D+02 -.268974922936455D+02 -.421284584613010D+03
 0.000000000000000D+00 -.000000000000000D+00 -.000000000000000D+00 0.000000000000000D+00
 0.983331997472071D+03 0.000000000000000D+00 0.000000000000000D+00 0.983331997472071D+03
 0.826343958559657D+03 0.000000000000000D+00 0.000000000000000D+00 -.826343958559657D+03
 0.612487722488239D+03 -.457726934979853D+03 0.344410964719889D+03 0.177153466162802D+03
 0.612005229311296D+03 0.483485500580715D+03 -.284942394944728D+03 0.244131118450208D+03
 0.422154718093987D+03 -.221096827243192D+02 -.156546065516773D+02 -.421284584613010D+03
 0.163028286138207D+03 -.364888287654306D+01 -.438139632234832D+02 0.156988038912414D+03
0.230444283207D-03 0.000000000000D+00 0.000000000000D+00 0.810563812128D-05 0.000000000000D+00  6 3 2 25 4 1 21 0 0.61314130D-01 0.26148355D+00 0.34926477D+06 0.34926477D+06 0.34926477D+06 0.10797000D+01  1  2  2  1  6  1        3 0.513482417650D-03 0.100000000000D+01
0.116547433823D-03 0.000000000000D+00 -.884966724887D-06 0.810563812128D-05 0.000000000000D+00  6 3 2 25 4 1 21 2 0.61314130D-01 0.26148355D+00 0.34926477D+06 0.34926477D+06 0.34926477D+06 0.10797000D+01  1  2  3  1  6  1        3 0.302739108838D-03 0.100000000000D+01
-.156691033597D-03 0.000000000000D+00 0.000000000000D+00 0.810563812128D-05 0.000000000000D+00  6 3 2 25 4 1 21 2 0.61314130D-01 0.26148355D+00 0.34926477D+06 0.34926477D+06 0.34926477D+06 0.10797000D+01  1  2 15  1  6  1        3 -.407014571819D-03 0.100000000000D+01
-.859227835585D-02 0.000000000000D+00 0.000000000000D+00 0.810563812128D-05 0.000000000000D+00  6 3 2 25 4 1 21 2 0.61314130D-01 0.26148355D+00 0.34926477D+06 0.34926477D+06 0.34926477D+06 0.10797000D+01  1  2  4  1  6  1        3 -.223189701138D-01 0.100000000000D+01
-.826787261465D-02 0.000000000000D+00 -.333134479611D-03 0.810563812128D-05 0.000000000000D+00  6 3 2 25 4 1 21 2 0.73394142D-01 0.26148355D+00 0.34926477D+06 0.34926477D+06 0.34926477D+06 0.10797000D+01  1  2  5  1  6  1        3 -.145505869447D-01 0.100000000000D+01
0.820014178475D-02 0.000000000000D+00 0.327819307493D-03 0.810563812128D-05 0.000000000000D+00  6 3 2 25 4 1 21 2 0.61314130D-01 0.26148355D+00 0.34926477D+06 0.34926477D+06 0.34926477D+06 0.10797000D+01  1  2  6  1  6  1        3 0.213003713152D-01 0.100000000000D+01
-.214708143840D-03 0.000000000000D+00 -.877970029332D-05 0.810563812128D-05 0.000000000000D+00  6 21 2 25 4 1 -3 2 0.73394142D-01 0.26148355D+00 0.34926477D+06 0.34926477D+06 0.34926477D+06 0.10797000D+01  1  2  5  5  6  1        3 -.519648915663D-02 0.100000000000D+01
  </mgrwgt>
  </event>
  <event>
  5     66 0.20805674E-05 0.20053747E+03 0.75467711E-02 0.93950999E-01
        3 -1    0    0  501    0 0.00000000E+00 0.00000000E+00 0.14590106E+03 0.14590191E+03 0.50000000E+00 0.0000E+00 0.9000E+01
        2 -1    0    0  502    0 0.00000000E+00 0.00000000E+00 -.24964445E+04 0.24964445E+04 0.32000000E+00 0.0000E+00 0.9000E+01
       25  1    1    2    0    0 -.32628919E+02 -.46687212E+03 -.87864042E+03 0.10033286E+04 0.12500000E+03 0.0000E+00 0.9000E+01
        4  1    1    2  501    0 -.13231264E+03 0.35330888E+03 -.40506125E+03 0.55354387E+03 0.15500000E+01 0.0000E+00 0.9000E+01
        1  1    1    2  502    0 0.16494156E+03 0.11356324E+03 -.10668417E+04 0.10854740E+04 0.32000000E+00 0.0000E+00 0.9000E+01
#aMCatNLO 1  0  0  1  5 0.43965642D+02 0.00000000D+00  -5  6  0 0.00000000D+00 0.00000000D+00 0.00000000D+00 0.00000000D+00 0.00000000D+00
  <mgrwgt>
 0.9241680934D-03    7    2    0
 0.603518884121675D+03 0.000000000000000D+00 0.000000000000000D+00 0.603518884121675D+03
 0.603518884121675D+03 0.000000000000000D+00 0.000000000000000D+00 -.603518884121675D+03
 0.485320325127557D+03 -.329353393941128D+02 -.466761147514992D+03 0.309856833295588D+02
 0.422539604840590D+03 -.132178930027954D+03 0.352951850436038D+03 0.191032561070840D+03
 0.299177838275204D+03 0.165114269422067D+03 0.113809297078955D+03 -.222018244400399D+03
 0.000000000000000D+00 -.000000000000000D+00 -.000000000000000D+00 0.000000000000000D+00
 0.801982152046979D+03 0.000000000000000D+00 0.000000000000000D+00 0.801982152046979D+03
 0.770517746774388D+03 0.000000000000000D+00 0.000000000000000D+00 -.770517746774388D+03
 0.410431021958688D+03 0.523593122720066D+02 -.386169669488758D+03 0.309856833295588D+02
 0.476303638867299D+03 -.465898637944568D+02 0.433821508918772D+03 0.191032561070840D+03
 0.362456547359341D+03 0.228115988187657D+03 0.173337081463223D+03 -.222018244400399D+03
 0.323308690636039D+03 -.233885436665206D+03 -.220988920893238D+03 0.314644052725911D+02
0.155593212767D-03 0.000000000000D+00 0.000000000000D+00 0.679274207774D-07 0.000000000000D+00  6 3 2 25 4 1 21 0 0.22446384D-01 0.38406845D+00 0.28183246D+06 0.28183246D+06 0.28183246D+06 0.10865648D+01  1  2  2  1  6  1        3 0.891148492441D-03 0.100000000000D+01
0.563128782913D-05 0.000000000000D+00 -.597518905658D-06 0.679274207774D-07 0.000000000000D+00  6 3 2 25 4 1 21 2 0.22446384D-01 0.38406845D+00 0.28183246D+06 0.28183246D+06 0.28183246D+06 0.10865648D+01  1  2  3  1  6  1        3 0.380783762353D-04 0.100000000000D+01
-.966817115190D-04 0.000000000000D+00 0.000000000000D+00 0.679274207774D-07 0.000000000000D+00  6 3 2 25 4 1 21 2 0.22446384D-01 0.38406845D+00 0.28183246D+06 0.28183246D+06 0.28183246D+06 0.10865648D+01  1  2 15  1  6  1        3 -.653755002054D-03 0.100000000000D+01
-.123930205787D-04 0.000000000000D+00 0.000000000000D+00 0.679274207774D-07 0.000000000000D+00  6 3 2 25 4 1 21 2 0.22446384D-01 0.38406845D+00 0.28183246D+06 0.28183246D+06 0.28183246D+06 0.10865648D+01  1  2  4  1  6  1        3 -.838007423180D-04 0.100000000000D+01
-.880504231361D-04 0.000000000000D+00 -.984290588416D-04 0.679274207774D-07 0.000000000000D+00  6 3 2 25 4 1 21 2 0.41707892D-01 0.38406845D+00 0.28183246D+06 0.28183246D+06 0.28183246D+06 0.10865648D+01  1  2  5  1  6  1        3 -.185416595384D-03 0.100000000000D+01
0.137972427577D-03 0.000000000000D+00 0.821511195440D-04 0.679274207774D-07 0.000000000000D+00  6 3 2 25 4 1 21 2 0.22446384D-01 0.38406845D+00 0.28183246D+06 0.28183246D+06 0.28183246D+06 0.10865648D+01  1  2  6  1  6  1        3 0.932959949266D-03 0.100000000000D+01
-.475484706713D-06 0.000000000000D+00 -.664742894032D-05 0.679274207774D-07 0.000000000000D+00  6 21 2 25 4 1 -3 2 0.41707892D-01 0.38406845D+00 0.28183246D+06 0.28183246D+06 0.28183246D+06 0.10865648D+01  1  2  5  5  6  1        3 -.150463848098D-04 0.100000000000D+01
  </mgrwgt>
  </event>
</LesHouchesEvents>
