<event>
 5    0  0.1911311E+001  0.2723034E+03  0.7546771E-02  0.1099969E+00
         21   -1    0    0  504  501  0.00000000000E+00  0.00000000000E+00  0.12666966405E+04  0.12666966405E+04  0.00000000000E+00 0. -1.
         21   -1    0    0  503  502 -0.00000000000E+00 -0.00000000000E+00 -0.92248300854E+02  0.92248300854E+02  0.00000000000E+00 0. -1.
         25    1    1    2    0    0 -0.37857764226E+02 -0.25853239494E+03  0.41091557532E+03  0.50274130484E+03  0.12500000000E+03 0.  0.
         21    1    1    2  503  501 -0.58683765827E+02  0.42211189359E+02  0.18784288075E+02  0.74688810121E+02  0.00000000000E+00 0. -1.
         21    1    1    2  504  502  0.96541530053E+02  0.21632120558E+03  0.74474847629E+03  0.78151482644E+03  0.00000000000E+00 0. -1.
<mgrwt>
<rscale>  4 0.27230337E+03</rscale>
<asrwt>0</asrwt>
<pdfrwt beam="1">  1       21 0.19487639E+00 0.27230337E+03</pdfrwt>
<pdfrwt beam="2">  1       21 0.14192047E-01 0.27230337E+03</pdfrwt>
<totfact> 0.59142453E+03</totfact>
</mgrwt>
</event>
<event>
 5    0  0.1911311E+001  0.2504449E+03  0.7546771E-02  0.1113024E+00
         21   -1    0    0  502  501  0.00000000000E+00  0.00000000000E+00  0.10549893887E+04  0.10549893887E+04  0.00000000000E+00 0.  1.
         21   -1    0    0  504  502 -0.00000000000E+00 -0.00000000000E+00 -0.10848298237E+03  0.10848298237E+03  0.00000000000E+00 0.  1.
         25    1    1    2    0    0  0.18349216436E+03  0.10015774056E+03  0.25231256688E+03  0.35069584939E+03  0.12500000000E+03 0.  0.
         21    1    1    2  503  501  0.54513547632E+02 -0.10369568197E+03  0.47486749670E+03  0.48910495884E+03  0.00000000000E+00 0.  1.
         21    1    1    2  504  503 -0.23800571199E+03  0.35379414173E+01  0.21932634275E+03  0.32367156284E+03  0.00000000000E+00 0.  1.
<mgrwt>
<rscale>  4 0.25044490E+03</rscale>
<asrwt>0</asrwt>
<pdfrwt beam="1">  1       21 0.16230605E+00 0.25044490E+03</pdfrwt>
<pdfrwt beam="2">  1       21 0.16689690E-01 0.25044490E+03</pdfrwt>
<totfact> 0.74920841E+03</totfact>
</mgrwt>
</event>
<event>
 5    0  0.1911311E+001  0.2795153E+03  0.7546771E-02  0.1095954E+00
         21   -1    0    0  504  501  0.00000000000E+00  0.00000000000E+00  0.10229887498E+04  0.10229887498E+04  0.00000000000E+00 0. -1.
         21   -1    0    0  503  502 -0.00000000000E+00 -0.00000000000E+00 -0.61645375139E+03  0.61645375139E+03  0.00000000000E+00 0. -1.
         25    1    1    2    0    0 -0.13611009919E+03  0.27865852734E+03 -0.17626613964E+03  0.37798318209E+03  0.12500000000E+03 0.  0.
         21    1    1    2  503  501  0.70234585306E+02 -0.40916297873E+02 -0.31761892748E+03  0.32785488176E+03  0.00000000000E+00 0. -1.
         21    1    1    2  504  502  0.65875513882E+02 -0.23774222947E+03  0.90042006558E+03  0.93360443738E+03  0.00000000000E+00 0. -1.
<mgrwt>
<rscale>  4 0.27951528E+03</rscale>
<asrwt>0</asrwt>
<pdfrwt beam="1">  1       21 0.15738288E+00 0.27951528E+03</pdfrwt>
<pdfrwt beam="2">  1       21 0.94839039E-01 0.27951528E+03</pdfrwt>
<totfact> 0.22334456E+02</totfact>
</mgrwt>
</event>
