<event>
 5    0  0.1723834E+000  0.7468529E+03  0.7546771E-02  0.9640301E-01
         21   -1    0    0  503  501  0.00000000000E+00  0.00000000000E+00  0.74473614418E+03  0.74473614418E+03  0.00000000000E+00 0.  1.
         21   -1    0    0  504  502 -0.00000000000E+00 -0.00000000000E+00 -0.25689259826E+03  0.25689259826E+03  0.00000000000E+00 0. -1.
         25    1    1    2    0    0 -0.17111908251E+02  0.20471275373E+03 -0.80385826715E+02  0.25354883175E+03  0.12500000000E+03 0.  0.
         21    1    1    2  503  502 -0.15315378313E+02  0.28942208132E+02 -0.64757994254E+02  0.72565901388E+02  0.00000000000E+00 0. -1.
         21    1    1    2  504  501  0.32427286564E+02 -0.23365496186E+03  0.63298736689E+03  0.67551400930E+03  0.00000000000E+00 0.  1.
<mgrwt>
<rscale>  4 0.74685293E+03</rscale>
<asrwt>0</asrwt>
<pdfrwt beam="1">  1       21 0.11457479E+00 0.74685293E+03</pdfrwt>
<pdfrwt beam="2">  1       21 0.39521938E-01 0.74685293E+03</pdfrwt>
<totfact> 0.29263413E+03</totfact>
</mgrwt>
</event>
<event>
 5    0  0.1723834E+000  0.6178019E+03  0.7546771E-02  0.9869146E-01
         21   -1    0    0  503  501  0.00000000000E+00  0.00000000000E+00  0.36156625059E+03  0.36156625059E+03  0.00000000000E+00 0. -1.
         21   -1    0    0  504  502 -0.00000000000E+00 -0.00000000000E+00 -0.56941521992E+03  0.56941521992E+03  0.00000000000E+00 0.  1.
         25    1    1    2    0    0 -0.23089239275E+03 -0.26172750407E+03  0.14301968899E+03  0.39735653368E+03  0.12500000000E+03 0.  0.
         21    1    1    2  503  502  0.10620663785E+03  0.91118861785E+02 -0.27598330422E+03  0.30943380731E+03  0.00000000000E+00 0.  1.
         21    1    1    2  504  501  0.12468575490E+03  0.17060864228E+03 -0.74885354094E+02  0.22419112952E+03  0.00000000000E+00 0.  1.
<mgrwt>
<rscale>  4 0.61780192E+03</rscale>
<asrwt>0</asrwt>
<pdfrwt beam="1">  1       21 0.55625578E-01 0.61780192E+03</pdfrwt>
<pdfrwt beam="2">  1       21 0.87602341E-01 0.61780192E+03</pdfrwt>
<totfact> 0.28176670E+03</totfact>
</mgrwt>
</event>
<event>
 5    0  0.1723834E+000  0.5864884E+03  0.7546771E-02  0.9933842E-01
         21   -1    0    0  503  501  0.00000000000E+00  0.00000000000E+00  0.14432213430E+03  0.14432213430E+03  0.00000000000E+00 0.  1.
         21   -1    0    0  504  502 -0.00000000000E+00 -0.00000000000E+00 -0.69894886896E+03  0.69894886896E+03  0.00000000000E+00 0.  1.
         25    1    1    2    0    0 -0.21983742316E+03  0.16228722984E+03 -0.32886010124E+03  0.44546560336E+03  0.12500000000E+03 0.  0.
         21    1    1    2  503  502  0.27723991546E+02  0.33119869567E+02 -0.70963751128E+02  0.83074661850E+02  0.00000000000E+00 0. -1.
         21    1    1    2  504  501  0.19211343161E+03 -0.19540709941E+03 -0.15480288229E+03  0.31473073804E+03  0.00000000000E+00 0.  1.
<mgrwt>
<rscale>  4 0.58648836E+03</rscale>
<asrwt>0</asrwt>
<pdfrwt beam="1">  1       21 0.22203405E-01 0.58648836E+03</pdfrwt>
<pdfrwt beam="2">  1       21 0.10753059E+00 0.58648836E+03</pdfrwt>
<totfact> 0.11266429E+04</totfact>
</mgrwt>
</event>
<event>
 5    0  0.1723834E+000  0.4685479E+03  0.7546771E-02  0.1022331E+00
         21   -1    0    0  503  501  0.00000000000E+00  0.00000000000E+00  0.14076986298E+03  0.14076986298E+03  0.00000000000E+00 0.  1.
         21   -1    0    0  504  502 -0.00000000000E+00 -0.00000000000E+00 -0.23074342334E+04  0.23074342334E+04  0.00000000000E+00 0.  1.
         25    1    1    2    0    0  0.24954756324E+03  0.17393441483E+03 -0.27766545721E+03  0.43040710161E+03  0.12500000000E+03 0.  0.
         21    1    1    2  503  502 -0.96195815737E+02 -0.51944179307E+02  0.90140557710E+01  0.10969542347E+03  0.00000000000E+00 0.  1.
         21    1    1    2  504  501 -0.15335174751E+03 -0.12199023553E+03 -0.18980129690E+04  0.19081015713E+04  0.00000000000E+00 0.  1.
<mgrwt>
<rscale>  4 0.46854793E+03</rscale>
<asrwt>0</asrwt>
<pdfrwt beam="1">  1       21 0.21656904E-01 0.46854793E+03</pdfrwt>
<pdfrwt beam="2">  1       21 0.35498985E+00 0.46854793E+03</pdfrwt>
<totfact> 0.24848874E+02</totfact>
</mgrwt>
</event>
<event>
 5    0  0.1723834E+000  0.4040787E+03  0.7546771E-02  0.1042376E+00
         21   -1    0    0  503  501  0.00000000000E+00  0.00000000000E+00  0.40033538527E+03  0.40033538527E+03  0.00000000000E+00 0. -1.
         21   -1    0    0  504  502 -0.00000000000E+00 -0.00000000000E+00 -0.37659261692E+03  0.37659261692E+03  0.00000000000E+00 0. -1.
         25    1    1    2    0    0 -0.75290565915E+02  0.19475917346E+03  0.70187078879E+02  0.25328053815E+03  0.12500000000E+03 0.  0.
         21    1    1    2  503  502  0.65588476608E+02 -0.87896829933E+02  0.21482614814E+03  0.24120110883E+03  0.00000000000E+00 0. -1.
         21    1    1    2  504  501  0.97020893064E+01 -0.10686234353E+03 -0.26127045867E+03  0.28244635522E+03  0.00000000000E+00 0. -1.
<mgrwt>
<rscale>  4 0.40407866E+03</rscale>
<asrwt>0</asrwt>
<pdfrwt beam="1">  1       21 0.61590059E-01 0.40407866E+03</pdfrwt>
<pdfrwt beam="2">  1       21 0.57937326E-01 0.40407866E+03</pdfrwt>
<totfact> 0.61377446E+03</totfact>
</mgrwt>
</event>
<event>
 5    0  0.1723834E+000  0.5078539E+03  0.7546771E-02  0.1011749E+00
         21   -1    0    0  503  501  0.00000000000E+00  0.00000000000E+00  0.89876328159E+03  0.89876328159E+03  0.00000000000E+00 0.  1.
         21   -1    0    0  504  502 -0.00000000000E+00 -0.00000000000E+00 -0.21528403232E+03  0.21528403232E+03  0.00000000000E+00 0.  1.
         25    1    1    2    0    0 -0.14001486783E+02 -0.22465813660E+03  0.25505261099E+03  0.36241434070E+03  0.12500000000E+03 0.  0.
         21    1    1    2  503  502 -0.22824914499E+03  0.19962059936E+03  0.58626801770E+02  0.30884163865E+03  0.00000000000E+00 0.  1.
         21    1    1    2  504  501  0.24225063178E+03  0.25037537240E+02  0.36979983651E+03  0.44279133455E+03  0.00000000000E+00 0.  1.
<mgrwt>
<rscale>  4 0.50785391E+03</rscale>
<asrwt>0</asrwt>
<pdfrwt beam="1">  1       21 0.13827127E+00 0.50785391E+03</pdfrwt>
<pdfrwt beam="2">  1       21 0.33120621E-01 0.50785391E+03</pdfrwt>
<totfact> 0.27444643E+03</totfact>
</mgrwt>
</event>
<event>
 5    0  0.1723834E+000  0.5232001E+03  0.7546771E-02  0.1007895E+00
         21   -1    0    0  503  501  0.00000000000E+00  0.00000000000E+00  0.11966840993E+03  0.11966840993E+03  0.00000000000E+00 0. -1.
         21   -1    0    0  504  502 -0.00000000000E+00 -0.00000000000E+00 -0.16412652830E+04  0.16412652830E+04  0.00000000000E+00 0. -1.
         25    1    1    2    0    0 -0.21350157685E+03 -0.10817235225E+03 -0.24328275537E+03  0.36344969413E+03  0.12500000000E+03 0.  0.
         21    1    1    2  503  502  0.23526497559E+03 -0.90940142166E+02 -0.27007078065E+03  0.36953747409E+03  0.00000000000E+00 0. -1.
         21    1    1    2  504  501 -0.21763398743E+02  0.19911249441E+03 -0.10082433371E+04  0.10279465247E+04  0.00000000000E+00 0. -1.
<mgrwt>
<rscale>  4 0.52320009E+03</rscale>
<asrwt>0</asrwt>
<pdfrwt beam="1">  1       21 0.18410524E-01 0.52320009E+03</pdfrwt>
<pdfrwt beam="2">  1       21 0.25250236E+00 0.52320009E+03</pdfrwt>
<totfact> 0.13841597E+03</totfact>
</mgrwt>
</event>
<event>
 5    0  0.1723834E+000  0.4436919E+03  0.7546771E-02  0.1029620E+00
         21   -1    0    0  503  501  0.00000000000E+00  0.00000000000E+00  0.18745421437E+03  0.18745421437E+03  0.00000000000E+00 0.  1.
         21   -1    0    0  504  502 -0.00000000000E+00 -0.00000000000E+00 -0.53017287861E+03  0.53017287861E+03  0.00000000000E+00 0.  1.
         25    1    1    2    0    0  0.18550898357E+03  0.12688847737E+03 -0.43166567269E+02  0.26077312209E+03  0.12500000000E+03 0.  0.
         21    1    1    2  503  502 -0.17567504047E+03 -0.62159536532E+02 -0.41882451331E+02  0.19099651190E+03  0.00000000000E+00 0.  1.
         21    1    1    2  504  501 -0.98339430963E+01 -0.64728940840E+02 -0.25766964564E+03  0.26585745899E+03  0.00000000000E+00 0.  1.
<mgrwt>
<rscale>  4 0.44369186E+03</rscale>
<asrwt>0</asrwt>
<pdfrwt beam="1">  1       21 0.28839110E-01 0.44369186E+03</pdfrwt>
<pdfrwt beam="2">  1       21 0.81565058E-01 0.44369186E+03</pdfrwt>
<totfact> 0.13606581E+04</totfact>
</mgrwt>
</event>
<event>
 5    0  0.1853688E+000  0.7911988E+03  0.7546771E-02  0.9572845E-01
         21   -1    0    0  503  501  0.00000000000E+00  0.00000000000E+00  0.42815783501E+03  0.42815783501E+03  0.00000000000E+00 0. -1.
         21   -1    0    0  504  502 -0.00000000000E+00 -0.00000000000E+00 -0.44342298056E+03  0.44342298056E+03  0.00000000000E+00 0.  1.
         25    1    1    2    0    0 -0.11563318945E+03 -0.18154445805E+03  0.35910619032E+03  0.43693441233E+03  0.12500000000E+03 0.  0.
         21    1    1    2  503  502  0.11058436599E+03  0.15699264354E+03 -0.30029790177E+03  0.35644694126E+03  0.00000000000E+00 0.  1.
         21    1    1    2  504  501  0.50488234594E+01  0.24551814509E+02 -0.74073434106E+02  0.78199461982E+02  0.00000000000E+00 0.  1.
<mgrwt>
<rscale>  4 0.79119881E+03</rscale>
<asrwt>0</asrwt>
<pdfrwt beam="1">  1       21 0.65870436E-01 0.79119881E+03</pdfrwt>
<pdfrwt beam="2">  1       21 0.68218920E-01 0.79119881E+03</pdfrwt>
<totfact> 0.33313660E+03</totfact>
</mgrwt>
</event>
<event>
 5    0  0.1723834E+000  0.4580058E+03  0.7546771E-02  0.1025361E+00
         21   -1    0    0  503  501  0.00000000000E+00  0.00000000000E+00  0.28812329730E+03  0.28812329730E+03  0.00000000000E+00 0. -1.
         21   -1    0    0  504  502 -0.00000000000E+00 -0.00000000000E+00 -0.55713305901E+03  0.55713305901E+03  0.00000000000E+00 0. -1.
         25    1    1    2    0    0 -0.67868969141E+02  0.20371511884E+03  0.16590156604E+03  0.29875470914E+03  0.12500000000E+03 0.  0.
         21    1    1    2  503  502  0.48850330431E+02 -0.47457570053E+02 -0.37002704262E+03  0.37624272486E+03  0.00000000000E+00 0. -1.
         21    1    1    2  504  501  0.19018638710E+02 -0.15625754879E+03 -0.64884285132E+02  0.17025892232E+03  0.00000000000E+00 0. -1.
<mgrwt>
<rscale>  4 0.45800578E+03</rscale>
<asrwt>0</asrwt>
<pdfrwt beam="1">  1       21 0.44326662E-01 0.45800578E+03</pdfrwt>
<pdfrwt beam="2">  1       21 0.85712777E-01 0.45800578E+03</pdfrwt>
<totfact> 0.50402085E+03</totfact>
</mgrwt>
</event>
<event>
 5    0  0.1723834E+000  0.4068600E+03  0.7546771E-02  0.1041430E+00
         21   -1    0    0  503  501  0.00000000000E+00  0.00000000000E+00  0.46314343814E+03  0.46314343814E+03  0.00000000000E+00 0. -1.
         21   -1    0    0  504  502 -0.00000000000E+00 -0.00000000000E+00 -0.10136857485E+04  0.10136857485E+04  0.00000000000E+00 0.  1.
         25    1    1    2    0    0 -0.12218836423E+03 -0.16296285025E+03  0.29658139384E+03  0.38088372252E+03  0.12500000000E+03 0.  0.
         21    1    1    2  503  502  0.15091168915E+03  0.82116951721E+01  0.69184642076E+02  0.16621758198E+03  0.00000000000E+00 0.  1.
         21    1    1    2  504  501 -0.28723324919E+02  0.15475115508E+03 -0.91630834626E+03  0.92972788213E+03  0.00000000000E+00 0.  1.
<mgrwt>
<rscale>  4 0.40685998E+03</rscale>
<asrwt>0</asrwt>
<pdfrwt beam="1">  1       21 0.71252836E-01 0.40685998E+03</pdfrwt>
<pdfrwt beam="2">  1       21 0.15595165E+00 0.40685998E+03</pdfrwt>
<totfact> 0.40651224E+02</totfact>
</mgrwt>
</event>
<event>
 5    0  0.1723834E+000  0.4885696E+03  0.7546771E-02  0.1016806E+00
         21   -1    0    0  503  501  0.00000000000E+00  0.00000000000E+00  0.29748861311E+03  0.29748861311E+03  0.00000000000E+00 0. -1.
         21   -1    0    0  504  502 -0.00000000000E+00 -0.00000000000E+00 -0.22908132271E+03  0.22908132271E+03  0.00000000000E+00 0. -1.
         25    1    1    2    0    0 -0.12812164771E+03  0.16791944501E+03 -0.86645106503E+02  0.26027768077E+03  0.12500000000E+03 0.  0.
         21    1    1    2  503  502  0.11759748440E+03 -0.13642761800E+03  0.14605330021E+03  0.23189055563E+03  0.00000000000E+00 0. -1.
         21    1    1    2  504  501  0.10524163315E+02 -0.31491827010E+02  0.89990967003E+01  0.34401699425E+02  0.00000000000E+00 0.  1.
<mgrwt>
<rscale>  4 0.48856959E+03</rscale>
<asrwt>0</asrwt>
<pdfrwt beam="1">  1       21 0.45767479E-01 0.48856959E+03</pdfrwt>
<pdfrwt beam="2">  1       21 0.35243280E-01 0.48856959E+03</pdfrwt>
<totfact> 0.32163892E+04</totfact>
</mgrwt>
</event>
<event>
 5    0  0.1723834E+000  0.4326621E+03  0.7546771E-02  0.1033022E+00
         21   -1    0    0  503  501  0.00000000000E+00  0.00000000000E+00  0.45219018630E+03  0.45219018630E+03  0.00000000000E+00 0. -1.
         21   -1    0    0  504  502 -0.00000000000E+00 -0.00000000000E+00 -0.33063420075E+03  0.33063420075E+03  0.00000000000E+00 0.  1.
         25    1    1    2    0    0 -0.20071801153E+03  0.15828139451E+03  0.33805513312E+03  0.44186761935E+03  0.12500000000E+03 0.  0.
         21    1    1    2  503  502  0.23843701461E+02 -0.51050000371E+02 -0.52110101823E+02  0.76746904493E+02  0.00000000000E+00 0.  1.
         21    1    1    2  504  501  0.17687431006E+03 -0.10723139414E+03 -0.16438904575E+03  0.26420986320E+03  0.00000000000E+00 0.  1.
<mgrwt>
<rscale>  4 0.43266207E+03</rscale>
<asrwt>0</asrwt>
<pdfrwt beam="1">  1       21 0.69567721E-01 0.43266207E+03</pdfrwt>
<pdfrwt beam="2">  1       21 0.50866800E-01 0.43266207E+03</pdfrwt>
<totfact> 0.61354638E+03</totfact>
</mgrwt>
</event>
<event>
 5    0  0.1723834E+000  0.4365151E+03  0.7546771E-02  0.1031821E+00
         21   -1    0    0  503  501  0.00000000000E+00  0.00000000000E+00  0.14355038470E+04  0.14355038470E+04  0.00000000000E+00 0.  1.
         21   -1    0    0  504  502 -0.00000000000E+00 -0.00000000000E+00 -0.86429056644E+02  0.86429056644E+02  0.00000000000E+00 0.  1.
         25    1    1    2    0    0  0.19924901782E+03  0.13898841715E+03  0.44837228088E+03  0.52505300063E+03  0.12500000000E+03 0.  0.
         21    1    1    2  503  502 -0.17659784656E+03 -0.98798344329E+02  0.16877873668E+03  0.26350365122E+03  0.00000000000E+00 0.  1.
         21    1    1    2  504  501 -0.22651171263E+02 -0.40190072819E+02  0.73192377281E+03  0.73337625180E+03  0.00000000000E+00 0. -1.
<mgrwt>
<rscale>  4 0.43651507E+03</rscale>
<asrwt>0</asrwt>
<pdfrwt beam="1">  1       21 0.22084673E+00 0.43651507E+03</pdfrwt>
<pdfrwt beam="2">  1       21 0.13296779E-01 0.43651507E+03</pdfrwt>
<totfact> 0.41542767E+03</totfact>
</mgrwt>
</event>
<event>
 5    0  0.1723834E+000  0.5362681E+03  0.7546771E-02  0.1004723E+00
         21   -1    0    0  503  501  0.00000000000E+00  0.00000000000E+00  0.48643039605E+03  0.48643039605E+03  0.00000000000E+00 0. -1.
         21   -1    0    0  504  502 -0.00000000000E+00 -0.00000000000E+00 -0.35577661425E+03  0.35577661425E+03  0.00000000000E+00 0. -1.
         25    1    1    2    0    0  0.16323041424E+03  0.19364255234E+03  0.17685399981E+03  0.33323256663E+03  0.12500000000E+03 0.  0.
         21    1    1    2  503  502  0.65311506656E+02 -0.83585009914E+02 -0.18984121391E+03  0.21746662567E+03  0.00000000000E+00 0. -1.
         21    1    1    2  504  501 -0.22854192090E+03 -0.11005754243E+03  0.14364099590E+03  0.29150781800E+03  0.00000000000E+00 0. -1.
<mgrwt>
<rscale>  4 0.53626813E+03</rscale>
<asrwt>0</asrwt>
<pdfrwt beam="1">  1       21 0.74835446E-01 0.53626813E+03</pdfrwt>
<pdfrwt beam="2">  1       21 0.54734863E-01 0.53626813E+03</pdfrwt>
<totfact> 0.43046903E+03</totfact>
</mgrwt>
</event>
<event>
 5    0  0.1723834E+000  0.4484472E+03  0.7546771E-02  0.1028186E+00
         21   -1    0    0  503  501  0.00000000000E+00  0.00000000000E+00  0.14262364617E+03  0.14262364617E+03  0.00000000000E+00 0.  1.
         21   -1    0    0  504  502 -0.00000000000E+00 -0.00000000000E+00 -0.53502808333E+03  0.53502808333E+03  0.00000000000E+00 0. -1.
         25    1    1    2    0    0  0.17723112788E+03 -0.11019296048E+03 -0.15847572018E+03  0.29033242175E+03  0.12500000000E+03 0.  0.
         21    1    1    2  503  502 -0.18166789050E+03  0.81153899920E+02 -0.55607600797E+02  0.20659473173E+03  0.00000000000E+00 0. -1.
         21    1    1    2  504  501  0.44367626192E+01  0.29039060563E+02 -0.17832111618E+03  0.18072457602E+03  0.00000000000E+00 0. -1.
<mgrwt>
<rscale>  4 0.44844724E+03</rscale>
<asrwt>0</asrwt>
<pdfrwt beam="1">  1       21 0.21942100E-01 0.44844724E+03</pdfrwt>
<pdfrwt beam="2">  1       21 0.82312011E-01 0.44844724E+03</pdfrwt>
<totfact> 0.22655628E+04</totfact>
</mgrwt>
</event>
<event>
 5    0  0.1723834E+000  0.5732301E+03  0.7546771E-02  0.9962556E-01
         21   -1    0    0  503  501  0.00000000000E+00  0.00000000000E+00  0.14287480895E+04  0.14287480895E+04  0.00000000000E+00 0.  1.
         21   -1    0    0  504  502 -0.00000000000E+00 -0.00000000000E+00 -0.10324819206E+03  0.10324819206E+03  0.00000000000E+00 0.  1.
         25    1    1    2    0    0  0.26787926434E+03 -0.14877883685E+03  0.67632390895E+03  0.75294984719E+03  0.12500000000E+03 0.  0.
         21    1    1    2  503  502 -0.45981790988E+02  0.66036694543E+02 -0.76495154726E+01  0.80831214364E+02  0.00000000000E+00 0.  1.
         21    1    1    2  504  501 -0.22189747335E+03  0.82742142303E+02  0.65682550398E+03  0.69821522002E+03  0.00000000000E+00 0.  1.
<mgrwt>
<rscale>  4 0.57323005E+03</rscale>
<asrwt>0</asrwt>
<pdfrwt beam="1">  1       21 0.21980738E+00 0.57323005E+03</pdfrwt>
<pdfrwt beam="2">  1       21 0.15884338E-01 0.57323005E+03</pdfrwt>
<totfact> 0.28833630E+03</totfact>
</mgrwt>
</event>
<event>
 5    0  0.1723834E+000  0.4428110E+03  0.7546771E-02  0.1029888E+00
         21   -1    0    0  503  501  0.00000000000E+00  0.00000000000E+00  0.48500646988E+03  0.48500646988E+03  0.00000000000E+00 0. -1.
         21   -1    0    0  504  502 -0.00000000000E+00 -0.00000000000E+00 -0.20229108973E+03  0.20229108973E+03  0.00000000000E+00 0. -1.
         25    1    1    2    0    0 -0.22220106083E+03  0.12520243604E+02  0.10979123797E+03  0.27786540603E+03  0.12500000000E+03 0.  0.
         21    1    1    2  503  502  0.10120857051E+03  0.10968512974E+03 -0.20464955628E+02  0.15064135170E+03  0.00000000000E+00 0. -1.
         21    1    1    2  504  501  0.12099249032E+03 -0.12220537335E+03  0.19338909781E+03  0.25879080188E+03  0.00000000000E+00 0. -1.
<mgrwt>
<rscale>  4 0.44281099E+03</rscale>
<asrwt>0</asrwt>
<pdfrwt beam="1">  1       21 0.74616379E-01 0.44281099E+03</pdfrwt>
<pdfrwt beam="2">  1       21 0.31121706E-01 0.44281099E+03</pdfrwt>
<totfact> 0.14355514E+04</totfact>
</mgrwt>
</event>
<event>
 5    0  0.1723834E+000  0.4414438E+03  0.7546771E-02  0.1030305E+00
         21   -1    0    0  503  501  0.00000000000E+00  0.00000000000E+00  0.14440214665E+03  0.14440214665E+03  0.00000000000E+00 0.  1.
         21   -1    0    0  504  502 -0.00000000000E+00 -0.00000000000E+00 -0.70896090070E+03  0.70896090070E+03  0.00000000000E+00 0.  1.
         25    1    1    2    0    0  0.20518424075E+03 -0.34981221700E+02 -0.15739244167E+03  0.28934691845E+03  0.12500000000E+03 0.  0.
         21    1    1    2  503  502 -0.16818466711E+02  0.15489928976E+02 -0.37040432348E+03  0.37110936606E+03  0.00000000000E+00 0.  1.
         21    1    1    2  504  501 -0.18836577404E+03  0.19491292724E+02 -0.36761988901E+02  0.19290676284E+03  0.00000000000E+00 0.  1.
<mgrwt>
<rscale>  4 0.44144385E+03</rscale>
<asrwt>0</asrwt>
<pdfrwt beam="1">  1       21 0.22215714E-01 0.44144385E+03</pdfrwt>
<pdfrwt beam="2">  1       21 0.10907091E+00 0.44144385E+03</pdfrwt>
<totfact> 0.11283683E+04</totfact>
</mgrwt>
</event>
<event>
 5    0  0.1723834E+000  0.4296246E+03  0.7546771E-02  0.1033979E+00
         21   -1    0    0  503  501  0.00000000000E+00  0.00000000000E+00  0.14965644923E+03  0.14965644923E+03  0.00000000000E+00 0.  1.
         21   -1    0    0  504  502 -0.00000000000E+00 -0.00000000000E+00 -0.11482031529E+04  0.11482031529E+04  0.00000000000E+00 0. -1.
         25    1    1    2    0    0 -0.27146175925E+03  0.12704420390E+03 -0.12287476667E+03  0.34721020256E+03  0.12500000000E+03 0.  0.
         21    1    1    2  503  502  0.96057376280E+02 -0.30557918423E+02 -0.75839342050E+02  0.12614440819E+03  0.00000000000E+00 0. -1.
         21    1    1    2  504  501  0.17540438297E+03 -0.96486285477E+02 -0.79983259498E+03  0.82450499140E+03  0.00000000000E+00 0. -1.
<mgrwt>
<rscale>  4 0.42962459E+03</rscale>
<asrwt>0</asrwt>
<pdfrwt beam="1">  1       21 0.23024069E-01 0.42962459E+03</pdfrwt>
<pdfrwt beam="2">  1       21 0.17664664E+00 0.42962459E+03</pdfrwt>
<totfact> 0.29360984E+03</totfact>
</mgrwt>
</event>
<event>
 5    0  0.1723834E+000  0.4325538E+03  0.7546771E-02  0.1033056E+00
         21   -1    0    0  503  501  0.00000000000E+00  0.00000000000E+00  0.58588469905E+03  0.58588469905E+03  0.00000000000E+00 0.  1.
         21   -1    0    0  504  502 -0.00000000000E+00 -0.00000000000E+00 -0.26480125217E+03  0.26480125217E+03  0.00000000000E+00 0. -1.
         25    1    1    2    0    0  0.18010417299E+03  0.94350937691E+02  0.25511781970E+03  0.34935614278E+03  0.12500000000E+03 0.  0.
         21    1    1    2  503  502 -0.62691165216E+02  0.59099655282E+02 -0.17345209510E+03  0.19367132143E+03  0.00000000000E+00 0. -1.
         21    1    1    2  504  501 -0.11741300778E+03 -0.15345059297E+03  0.23941772229E+03  0.30765848700E+03  0.00000000000E+00 0. -1.
<mgrwt>
<rscale>  4 0.43255384E+03</rscale>
<asrwt>0</asrwt>
<pdfrwt beam="1">  1       21 0.90136107E-01 0.43255384E+03</pdfrwt>
<pdfrwt beam="2">  1       21 0.40738654E-01 0.43255384E+03</pdfrwt>
<totfact> 0.53801403E+03</totfact>
</mgrwt>
</event>
<event>
 5    0  0.1723834E+000  0.4811449E+03  0.7546771E-02  0.1018821E+00
         21   -1    0    0  503  501  0.00000000000E+00  0.00000000000E+00  0.85583229466E+03  0.85583229466E+03  0.00000000000E+00 0. -1.
         21   -1    0    0  504  502 -0.00000000000E+00 -0.00000000000E+00 -0.22712232793E+03  0.22712232793E+03  0.00000000000E+00 0. -1.
         25    1    1    2    0    0 -0.19373541796E+03  0.76030385776E+02  0.37087514053E+03  0.44326899463E+03  0.12500000000E+03 0.  0.
         21    1    1    2  503  502  0.16010265016E+03 -0.17611721623E+03  0.39827865508E+03  0.46397846883E+03  0.00000000000E+00 0. -1.
         21    1    1    2  504  501  0.33632767798E+02  0.10008683046E+03 -0.14044382889E+03  0.17570715914E+03  0.00000000000E+00 0. -1.
<mgrwt>
<rscale>  4 0.48114488E+03</rscale>
<asrwt>0</asrwt>
<pdfrwt beam="1">  1       21 0.13166651E+00 0.48114488E+03</pdfrwt>
<pdfrwt beam="2">  1       21 0.34941897E-01 0.48114488E+03</pdfrwt>
<totfact> 0.28267709E+03</totfact>
</mgrwt>
</event>
<event>
 5    0  0.2141100E+000  0.8285169E+03  0.7546771E-02  0.9519633E-01
         21   -1    0    0  503  501  0.00000000000E+00  0.00000000000E+00  0.99588183478E+03  0.99588183478E+03  0.00000000000E+00 0.  1.
         21   -1    0    0  504  502 -0.00000000000E+00 -0.00000000000E+00 -0.48135625104E+03  0.48135625104E+03  0.00000000000E+00 0. -1.
         25    1    1    2    0    0 -0.60172650257E+02  0.21695268905E+03 -0.63542475007E+02  0.26523925663E+03  0.12500000000E+03 0.  0.
         21    1    1    2  503  502 -0.68941298232E+01 -0.57340158660E+02 -0.30586534304E+03  0.31127002891E+03  0.00000000000E+00 0. -1.
         21    1    1    2  504  501  0.67066780080E+02 -0.15961253039E+03  0.88393340180E+03  0.90072880028E+03  0.00000000000E+00 0.  1.
<mgrwt>
<rscale>  4 0.82851689E+03</rscale>
<asrwt>0</asrwt>
<pdfrwt beam="1">  1       21 0.15321259E+00 0.82851689E+03</pdfrwt>
<pdfrwt beam="2">  1       21 0.74054808E-01 0.82851689E+03</pdfrwt>
<totfact> 0.33647245E+02</totfact>
</mgrwt>
</event>
<event>
 5    0  0.1723834E+000  0.5897130E+03  0.7546771E-02  0.9926981E-01
         21   -1    0    0  503  501  0.00000000000E+00  0.00000000000E+00  0.17114320215E+04  0.17114320215E+04  0.00000000000E+00 0. -1.
         21   -1    0    0  504  502 -0.00000000000E+00 -0.00000000000E+00 -0.13410705203E+03  0.13410705203E+03  0.00000000000E+00 0. -1.
         25    1    1    2    0    0 -0.17550982518E+03  0.15329412132E+03  0.53993897766E+03  0.60121700405E+03  0.12500000000E+03 0.  0.
         21    1    1    2  503  502 -0.99039085708E+02 -0.18117064583E+02 -0.51613630039E+02  0.11314121854E+03  0.00000000000E+00 0. -1.
         21    1    1    2  504  501  0.27454891088E+03 -0.13517705674E+03  0.10889996219E+04  0.11311808510E+04  0.00000000000E+00 0. -1.
<mgrwt>
<rscale>  4 0.58971295E+03</rscale>
<asrwt>0</asrwt>
<pdfrwt beam="1">  1       21 0.26329722E+00 0.58971295E+03</pdfrwt>
<pdfrwt beam="2">  1       21 0.20631855E-01 0.58971295E+03</pdfrwt>
<totfact> 0.93085408E+02</totfact>
</mgrwt>
</event>
<event>
 5    0  0.1723834E+000  0.3751967E+03  0.7546771E-02  0.1052723E+00
         21   -1    0    0  503  501  0.00000000000E+00  0.00000000000E+00  0.45087158446E+03  0.45087158446E+03  0.00000000000E+00 0. -1.
         21   -1    0    0  504  502 -0.00000000000E+00 -0.00000000000E+00 -0.12337340179E+03  0.12337340179E+03  0.00000000000E+00 0.  1.
         25    1    1    2    0    0 -0.42846896837E+02  0.19722495302E+03  0.13325532897E+03  0.27224165985E+03  0.12500000000E+03 0.  0.
         21    1    1    2  503  502 -0.19507269545E+00 -0.84584814433E+02  0.14893517987E+02  0.85886237338E+02  0.00000000000E+00 0.  1.
         21    1    1    2  504  501  0.43041969533E+02 -0.11264013858E+03  0.17934933571E+03  0.21611708906E+03  0.00000000000E+00 0. -1.
<mgrwt>
<rscale>  4 0.37519674E+03</rscale>
<asrwt>0</asrwt>
<pdfrwt beam="1">  1       21 0.69364859E-01 0.37519674E+03</pdfrwt>
<pdfrwt beam="2">  1       21 0.18980523E-01 0.37519674E+03</pdfrwt>
<totfact> 0.44971106E+04</totfact>
</mgrwt>
</event>
<event>
 5    0  0.1723834E+000  0.6012920E+03  0.7546771E-02  0.9902729E-01
         21   -1    0    0  503  501  0.00000000000E+00  0.00000000000E+00  0.87352248739E+03  0.87352248739E+03  0.00000000000E+00 0.  1.
         21   -1    0    0  504  502 -0.00000000000E+00 -0.00000000000E+00 -0.96446832076E+03  0.96446832076E+03  0.00000000000E+00 0.  1.
         25    1    1    2    0    0 -0.21575723584E+03  0.12930143225E+03  0.72345206314E+03  0.77606567561E+03  0.12500000000E+03 0.  0.
         21    1    1    2  503  502  0.71543485050E+02  0.12065338691E+01 -0.85932962464E+03  0.86230350211E+03  0.00000000000E+00 0.  1.
         21    1    1    2  504  501  0.14421375079E+03 -0.13050796612E+03  0.44931728133E+02  0.19962163042E+03  0.00000000000E+00 0.  1.
<mgrwt>
<rscale>  4 0.60129200E+03</rscale>
<asrwt>0</asrwt>
<pdfrwt beam="1">  1       21 0.13438808E+00 0.60129200E+03</pdfrwt>
<pdfrwt beam="2">  1       21 0.14837974E+00 0.60129200E+03</pdfrwt>
<totfact> 0.91134938E+01</totfact>
</mgrwt>
</event>
<event>
 5    0  0.1723834E+000  0.6689894E+03  0.7546771E-02  0.9771785E-01
         21   -1    0    0  503  501  0.00000000000E+00  0.00000000000E+00  0.12850830369E+03  0.12850830369E+03  0.00000000000E+00 0. -1.
         21   -1    0    0  504  502 -0.00000000000E+00 -0.00000000000E+00 -0.10263334094E+04  0.10263334094E+04  0.00000000000E+00 0. -1.
         25    1    1    2    0    0  0.17278191767E+03  0.16440268887E+03 -0.73369836669E+03  0.78154982469E+03  0.12500000000E+03 0.  0.
         21    1    1    2  503  502 -0.15213937051E+03 -0.16084136239E+03 -0.14137820963E+02  0.22184726704E+03  0.00000000000E+00 0. -1.
         21    1    1    2  504  501 -0.20642547155E+02 -0.35613264893E+01 -0.14998891802E+03  0.15144462132E+03  0.00000000000E+00 0. -1.
<mgrwt>
<rscale>  4 0.66898936E+03</rscale>
<asrwt>0</asrwt>
<pdfrwt beam="1">  1       21 0.19770509E-01 0.66898936E+03</pdfrwt>
<pdfrwt beam="2">  1       21 0.15789744E+00 0.66898936E+03</pdfrwt>
<totfact> 0.50311612E+03</totfact>
</mgrwt>
</event>
<event>
 5    0  0.1723834E+000  0.4289297E+03  0.7546771E-02  0.1034199E+00
         21   -1    0    0  503  501  0.00000000000E+00  0.00000000000E+00  0.16093397021E+04  0.16093397021E+04  0.00000000000E+00 0. -1.
         21   -1    0    0  504  502 -0.00000000000E+00 -0.00000000000E+00 -0.63107973415E+02  0.63107973415E+02  0.00000000000E+00 0. -1.
         25    1    1    2    0    0 -0.16262157091E+03  0.12481748550E+03  0.11539637420E+04  0.11786782843E+04  0.12500000000E+03 0.  0.
         21    1    1    2  503  502  0.73296009224E+02  0.48793545791E+02  0.54269419226E+02  0.10343251395E+03  0.00000000000E+00 0.  1.
         21    1    1    2  504  501  0.89325561682E+02 -0.17361103129E+03  0.33799856746E+03  0.39033687728E+03  0.00000000000E+00 0. -1.
<mgrwt>
<rscale>  4 0.42892975E+03</rscale>
<asrwt>0</asrwt>
<pdfrwt beam="1">  1       21 0.24759069E+00 0.42892975E+03</pdfrwt>
<pdfrwt beam="2">  1       21 0.97089202E-02 0.42892975E+03</pdfrwt>
<totfact> 0.50185044E+03</totfact>
</mgrwt>
</event>
<event>
 5    0  0.1723834E+000  0.5099700E+03  0.7546771E-02  0.1011209E+00
         21   -1    0    0  503  501  0.00000000000E+00  0.00000000000E+00  0.29361782594E+03  0.29361782594E+03  0.00000000000E+00 0. -1.
         21   -1    0    0  504  502 -0.00000000000E+00 -0.00000000000E+00 -0.56929251170E+03  0.56929251170E+03  0.00000000000E+00 0. -1.
         25    1    1    2    0    0 -0.54304400201E+02 -0.21579738907E+03  0.14981227315E+03  0.29594965484E+03  0.12500000000E+03 0.  0.
         21    1    1    2  503  502  0.73577897249E+02  0.19049471644E+03 -0.78908555737E+02  0.21892579593E+03  0.00000000000E+00 0. -1.
         21    1    1    2  504  501 -0.19273497049E+02  0.25302672631E+02 -0.34657840318E+03  0.34803488687E+03  0.00000000000E+00 0. -1.
<mgrwt>
<rscale>  4 0.50996999E+03</rscale>
<asrwt>0</asrwt>
<pdfrwt beam="1">  1       21 0.45171974E-01 0.50996999E+03</pdfrwt>
<pdfrwt beam="2">  1       21 0.87583463E-01 0.50996999E+03</pdfrwt>
<totfact> 0.45312811E+03</totfact>
</mgrwt>
</event>
<event>
 5    0  0.1723834E+000  0.4442210E+03  0.7546771E-02  0.1029460E+00
         21   -1    0    0  503  501  0.00000000000E+00  0.00000000000E+00  0.13990522961E+04  0.13990522961E+04  0.00000000000E+00 0.  1.
         21   -1    0    0  504  502 -0.00000000000E+00 -0.00000000000E+00 -0.40886781798E+03  0.40886781798E+03  0.00000000000E+00 0.  1.
         25    1    1    2    0    0 -0.19314102847E+03  0.52308459674E+02  0.41261436075E+03  0.47530542026E+03  0.12500000000E+03 0.  0.
         21    1    1    2  503  502  0.33393256764E+03 -0.89834000155E+02 -0.29097192448E+03  0.45193557965E+03  0.00000000000E+00 0.  1.
         21    1    1    2  504  501 -0.14079153917E+03  0.37525540481E+02  0.86854204181E+03  0.88067911414E+03  0.00000000000E+00 0.  1.
<mgrwt>
<rscale>  4 0.44422104E+03</rscale>
<asrwt>0</asrwt>
<pdfrwt beam="1">  1       21 0.21523881E+00 0.44422104E+03</pdfrwt>
<pdfrwt beam="2">  1       21 0.62902742E-01 0.44422104E+03</pdfrwt>
<totfact> 0.20345925E+02</totfact>
</mgrwt>
</event>
<event>
 5    0  0.1723834E+000  0.4797497E+03  0.7546771E-02  0.1019204E+00
         21   -1    0    0  503  501  0.00000000000E+00  0.00000000000E+00  0.10453444988E+03  0.10453444988E+03  0.00000000000E+00 0.  1.
         21   -1    0    0  504  502 -0.00000000000E+00 -0.00000000000E+00 -0.22244087861E+04  0.22244087861E+04  0.00000000000E+00 0. -1.
         25    1    1    2    0    0 -0.20685729696E+03  0.10137585532E+03 -0.31066466627E+03  0.40645361385E+03  0.12500000000E+03 0.  0.
         21    1    1    2  503  502  0.19181371432E+03 -0.81965048192E+02 -0.13580582574E+03  0.24890558939E+03  0.00000000000E+00 0.  1.
         21    1    1    2  504  501  0.15043582643E+02 -0.19410807125E+02 -0.16734038442E+04  0.16735840327E+04  0.00000000000E+00 0. -1.
<mgrwt>
<rscale>  4 0.47974971E+03</rscale>
<asrwt>0</asrwt>
<pdfrwt beam="1">  1       21 0.16082225E-01 0.47974971E+03</pdfrwt>
<pdfrwt beam="2">  1       21 0.34221669E+00 0.47974971E+03</pdfrwt>
<totfact> 0.51948472E+02</totfact>
</mgrwt>
</event>
<event>
 5    0  0.1723834E+000  0.4174814E+03  0.7546771E-02  0.1037889E+00
         21   -1    0    0  503  501  0.00000000000E+00  0.00000000000E+00  0.11665723364E+03  0.11665723364E+03  0.00000000000E+00 0. -1.
         21   -1    0    0  504  502 -0.00000000000E+00 -0.00000000000E+00 -0.24245118846E+04  0.24245118846E+04  0.00000000000E+00 0.  1.
         25    1    1    2    0    0 -0.22428093555E+03  0.13662905411E+03 -0.89202773584E+02  0.30422289739E+03  0.12500000000E+03 0.  0.
         21    1    1    2  503  502  0.17501465590E+03 -0.11367881568E+03 -0.20276731031E+04  0.20383844622E+04  0.00000000000E+00 0.  1.
         21    1    1    2  504  501  0.49266279649E+02 -0.22950238431E+02 -0.19097877430E+03  0.19856175863E+03  0.00000000000E+00 0.  1.
<mgrwt>
<rscale>  4 0.41748139E+03</rscale>
<asrwt>0</asrwt>
<pdfrwt beam="1">  1       21 0.17947266E-01 0.41748139E+03</pdfrwt>
<pdfrwt beam="2">  1       21 0.37300184E+00 0.41748139E+03</pdfrwt>
<totfact> 0.28386981E+02</totfact>
</mgrwt>
</event>
<event>
 5    0  0.1723834E+000  0.7967430E+03  0.7546771E-02  0.9564743E-01
         21   -1    0    0  503  501  0.00000000000E+00  0.00000000000E+00  0.10988358701E+04  0.10988358701E+04  0.00000000000E+00 0.  1.
         21   -1    0    0  504  502 -0.00000000000E+00 -0.00000000000E+00 -0.23549544173E+03  0.23549544173E+03  0.00000000000E+00 0. -1.
         25    1    1    2    0    0 -0.32645379814E+03 -0.44761096626E+02  0.86054093194E+03  0.92990931474E+03  0.12500000000E+03 0.  0.
         21    1    1    2  503  502  0.35369894021E+02 -0.13028136502E+02 -0.86630126274E+02  0.94475078840E+02  0.00000000000E+00 0. -1.
         21    1    1    2  504  501  0.29108390412E+03  0.57789233128E+02  0.89429622659E+02  0.30994691822E+03  0.00000000000E+00 0. -1.
<mgrwt>
<rscale>  4 0.79674301E+03</rscale>
<asrwt>0</asrwt>
<pdfrwt beam="1">  1       21 0.16905167E+00 0.79674301E+03</pdfrwt>
<pdfrwt beam="2">  1       21 0.36230069E-01 0.79674301E+03</pdfrwt>
<totfact> 0.12098933E+03</totfact>
</mgrwt>
</event>
<event>
 5    0  0.1723834E+000  0.4377429E+03  0.7546771E-02  0.1031442E+00
         21   -1    0    0  503  501  0.00000000000E+00  0.00000000000E+00  0.20648870320E+03  0.20648870320E+03  0.00000000000E+00 0. -1.
         21   -1    0    0  504  502 -0.00000000000E+00 -0.00000000000E+00 -0.52405968789E+03  0.52405968789E+03  0.00000000000E+00 0. -1.
         25    1    1    2    0    0 -0.16989765587E+03 -0.14087528239E+03  0.22763601196E+01  0.25365575190E+03  0.12500000000E+03 0.  0.
         21    1    1    2  503  502 -0.95080721861E+01  0.18519200438E+02 -0.24695042260E+03  0.24782630095E+03  0.00000000000E+00 0.  1.
         21    1    1    2  504  501  0.17940572806E+03  0.12235608195E+03 -0.72896922214E+02  0.22906633825E+03  0.00000000000E+00 0. -1.
<mgrwt>
<rscale>  4 0.43774291E+03</rscale>
<asrwt>0</asrwt>
<pdfrwt beam="1">  1       21 0.31767493E-01 0.43774291E+03</pdfrwt>
<pdfrwt beam="2">  1       21 0.80624567E-01 0.43774291E+03</pdfrwt>
<totfact> 0.11552026E+04</totfact>
</mgrwt>
</event>
<event>
 5    0  0.1723834E+000  0.5370108E+03  0.7546771E-02  0.1004546E+00
         21   -1    0    0  503  501  0.00000000000E+00  0.00000000000E+00  0.24758333737E+03  0.24758333737E+03  0.00000000000E+00 0.  1.
         21   -1    0    0  504  502 -0.00000000000E+00 -0.00000000000E+00 -0.45688208772E+03  0.45688208772E+03  0.00000000000E+00 0.  1.
         25    1    1    2    0    0  0.33629555983E+02 -0.28474006417E+03 -0.12384081366E+03  0.33640659671E+03  0.12500000000E+03 0.  0.
         21    1    1    2  503  502  0.93490674778E+00  0.20006891783E+03  0.48494103021E+02  0.20586433387E+03  0.00000000000E+00 0.  1.
         21    1    1    2  504  501 -0.34564462731E+02  0.84671146347E+02 -0.13395203971E+03  0.16219449451E+03  0.00000000000E+00 0.  1.
<mgrwt>
<rscale>  4 0.53701083E+03</rscale>
<asrwt>0</asrwt>
<pdfrwt beam="1">  1       21 0.38089745E-01 0.53701083E+03</pdfrwt>
<pdfrwt beam="2">  1       21 0.70289550E-01 0.53701083E+03</pdfrwt>
<totfact> 0.10658704E+04</totfact>
</mgrwt>
</event>
<event>
 5    0  0.1723834E+000  0.5469521E+03  0.7546771E-02  0.1002202E+00
         21   -1    0    0  503  501  0.00000000000E+00  0.00000000000E+00  0.44749977632E+03  0.44749977632E+03  0.00000000000E+00 0.  1.
         21   -1    0    0  504  502 -0.00000000000E+00 -0.00000000000E+00 -0.39754920019E+03  0.39754920019E+03  0.00000000000E+00 0.  1.
         25    1    1    2    0    0 -0.17652478660E+03 -0.17412448526E+03  0.14688315429E+03  0.31413372577E+03  0.12500000000E+03 0.  0.
         21    1    1    2  503  502  0.21487837286E+03  0.16212309411E+03  0.13107380883E+03  0.29939431546E+03  0.00000000000E+00 0.  1.
         21    1    1    2  504  501 -0.38353586261E+02  0.12001391148E+02 -0.22800638699E+03  0.23152093528E+03  0.00000000000E+00 0.  1.
<mgrwt>
<rscale>  4 0.54695209E+03</rscale>
<asrwt>0</asrwt>
<pdfrwt beam="1">  1       21 0.68846119E-01 0.54695209E+03</pdfrwt>
<pdfrwt beam="2">  1       21 0.61161416E-01 0.54695209E+03</pdfrwt>
<totfact> 0.40695227E+03</totfact>
</mgrwt>
</event>
<event>
 5    0  0.1723834E+000  0.4234589E+03  0.7546771E-02  0.1035946E+00
         21   -1    0    0  503  501  0.00000000000E+00  0.00000000000E+00  0.36067299895E+03  0.36067299895E+03  0.00000000000E+00 0.  1.
         21   -1    0    0  504  502 -0.00000000000E+00 -0.00000000000E+00 -0.38292656495E+03  0.38292656495E+03  0.00000000000E+00 0.  1.
         25    1    1    2    0    0  0.16437226653E+03  0.13105957469E+03  0.21885226313E+03  0.32820141255E+03  0.12500000000E+03 0.  0.
         21    1    1    2  503  502 -0.13754323474E+03 -0.67831579464E+02  0.11336895184E+02  0.15377837880E+03  0.00000000000E+00 0.  1.
         21    1    1    2  504  501 -0.26829031796E+02 -0.63227995231E+02 -0.25244272432E+03  0.26161977255E+03  0.00000000000E+00 0.  1.
<mgrwt>
<rscale>  4 0.42345894E+03</rscale>
<asrwt>0</asrwt>
<pdfrwt beam="1">  1       21 0.55488154E-01 0.42345894E+03</pdfrwt>
<pdfrwt beam="2">  1       21 0.58911779E-01 0.42345894E+03</pdfrwt>
<totfact> 0.73796273E+03</totfact>
</mgrwt>
</event>
<event>
 5    0  0.1723834E+000  0.5445426E+03  0.7546771E-02  0.1002765E+00
         21   -1    0    0  503  501  0.00000000000E+00  0.00000000000E+00  0.54146361696E+03  0.54146361696E+03  0.00000000000E+00 0. -1.
         21   -1    0    0  504  502 -0.00000000000E+00 -0.00000000000E+00 -0.27748764302E+03  0.27748764302E+03  0.00000000000E+00 0. -1.
         25    1    1    2    0    0  0.23571394536E+03  0.10001203207E+03  0.30669472392E+03  0.41862886221E+03  0.12500000000E+03 0.  0.
         21    1    1    2  503  502 -0.21221577121E+02  0.83884231092E+01 -0.13941535911E+03  0.14127053244E+03  0.00000000000E+00 0. -1.
         21    1    1    2  504  501 -0.21449236824E+03 -0.10840045518E+03  0.96696609131E+02  0.25905186533E+03  0.00000000000E+00 0. -1.
<mgrwt>
<rscale>  4 0.54454256E+03</rscale>
<asrwt>0</asrwt>
<pdfrwt beam="1">  1       21 0.83302095E-01 0.54454256E+03</pdfrwt>
<pdfrwt beam="2">  1       21 0.42690407E-01 0.54454256E+03</pdfrwt>
<totfact> 0.56839338E+03</totfact>
</mgrwt>
</event>
<event>
 5    0  0.1723834E+000  0.6653072E+03  0.7546771E-02  0.9778473E-01
         21   -1    0    0  503  501  0.00000000000E+00  0.00000000000E+00  0.62798758715E+03  0.62798758715E+03  0.00000000000E+00 0.  1.
         21   -1    0    0  504  502 -0.00000000000E+00 -0.00000000000E+00 -0.15002469298E+04  0.15002469298E+04  0.00000000000E+00 0. -1.
         25    1    1    2    0    0 -0.37603999608E+03  0.11791886896E+03  0.14662413236E+03  0.43867365376E+03  0.12500000000E+03 0.  0.
         21    1    1    2  503  502  0.25172235245E+03 -0.29662152172E+03 -0.12868173959E+04  0.13443390496E+04  0.00000000000E+00 0. -1.
         21    1    1    2  504  501  0.12431764363E+03  0.17870265276E+03  0.26793392089E+03  0.34522181360E+03  0.00000000000E+00 0. -1.
<mgrwt>
<rscale>  4 0.66530724E+03</rscale>
<asrwt>0</asrwt>
<pdfrwt beam="1">  1       21 0.96613475E-01 0.66530724E+03</pdfrwt>
<pdfrwt beam="2">  1       21 0.23080722E+00 0.66530724E+03</pdfrwt>
<totfact> 0.53988717E+01</totfact>
</mgrwt>
</event>
<event>
 5    0  0.1723834E+000  0.4949870E+03  0.7546771E-02  0.1015096E+00
         21   -1    0    0  503  501  0.00000000000E+00  0.00000000000E+00  0.10648282577E+04  0.10648282577E+04  0.00000000000E+00 0.  1.
         21   -1    0    0  504  502 -0.00000000000E+00 -0.00000000000E+00 -0.69950979245E+02  0.69950979245E+02  0.00000000000E+00 0.  1.
         25    1    1    2    0    0  0.10989511465E+03  0.21369481870E+03  0.56434610980E+03  0.62598238267E+03  0.12500000000E+03 0.  0.
         21    1    1    2  503  502 -0.37552969118E+02 -0.24645116229E+01  0.22985693762E+02  0.44098088676E+02  0.00000000000E+00 0. -1.
         21    1    1    2  504  501 -0.72342145532E+02 -0.21123030707E+03  0.40754547488E+03  0.46469876559E+03  0.00000000000E+00 0.  1.
<mgrwt>
<rscale>  4 0.49498698E+03</rscale>
<asrwt>0</asrwt>
<pdfrwt beam="1">  1       21 0.16381972E+00 0.49498698E+03</pdfrwt>
<pdfrwt beam="2">  1       21 0.10761690E-01 0.49498698E+03</pdfrwt>
<totfact> 0.14708304E+04</totfact>
</mgrwt>
</event>
<event>
 5    0  0.1723834E+000  0.3443902E+03  0.7546771E-02  0.1064941E+00
         21   -1    0    0  503  501  0.00000000000E+00  0.00000000000E+00  0.13061568337E+03  0.13061568337E+03  0.00000000000E+00 0.  1.
         21   -1    0    0  504  502 -0.00000000000E+00 -0.00000000000E+00 -0.11344351368E+04  0.11344351368E+04  0.00000000000E+00 0. -1.
         25    1    1    2    0    0  0.20438439625E+03 -0.17651473626E+02 -0.55484204574E+02  0.24655233300E+03  0.12500000000E+03 0.  0.
         21    1    1    2  503  502 -0.10171514554E+03 -0.89338295844E+01 -0.49580126678E+02  0.11350759051E+03  0.00000000000E+00 0. -1.
         21    1    1    2  504  501 -0.10266925071E+03  0.26585303210E+02 -0.89875512216E+03  0.90499089664E+03  0.00000000000E+00 0. -1.
<mgrwt>
<rscale>  4 0.34439024E+03</rscale>
<asrwt>0</asrwt>
<pdfrwt beam="1">  1       21 0.20094721E-01 0.34439024E+03</pdfrwt>
<pdfrwt beam="2">  1       21 0.17452848E+00 0.34439024E+03</pdfrwt>
<totfact> 0.40983392E+03</totfact>
</mgrwt>
</event>
<event>
 5    0  0.1723834E+000  0.4965016E+03  0.7546771E-02  0.1014696E+00
         21   -1    0    0  503  501  0.00000000000E+00  0.00000000000E+00  0.17468607718E+03  0.17468607718E+03  0.00000000000E+00 0. -1.
         21   -1    0    0  504  502 -0.00000000000E+00 -0.00000000000E+00 -0.13531710532E+04  0.13531710532E+04  0.00000000000E+00 0. -1.
         25    1    1    2    0    0 -0.16898307485E+03 -0.17980558033E+03 -0.13475297900E+03  0.30768277763E+03  0.12500000000E+03 0.  0.
         21    1    1    2  503  502  0.13183343397E+03  0.17064399413E+03 -0.44463578777E+02  0.22017365165E+03  0.00000000000E+00 0. -1.
         21    1    1    2  504  501  0.37149640876E+02  0.91615862051E+01 -0.99926841827E+03  0.10000007011E+04  0.00000000000E+00 0. -1.
<mgrwt>
<rscale>  4 0.49650160E+03</rscale>
<asrwt>0</asrwt>
<pdfrwt beam="1">  1       21 0.26874781E-01 0.49650160E+03</pdfrwt>
<pdfrwt beam="2">  1       21 0.20818016E+00 0.49650160E+03</pdfrwt>
<totfact> 0.12884504E+03</totfact>
</mgrwt>
</event>
<event>
 5    0  0.1723834E+000  0.1227225E+04  0.7546771E-02  0.9089355E-01
         21   -1    0    0  503  501  0.00000000000E+00  0.00000000000E+00  0.23598938230E+03  0.23598938230E+03  0.00000000000E+00 0. -1.
         21   -1    0    0  504  502 -0.00000000000E+00 -0.00000000000E+00 -0.22994577735E+04  0.22994577735E+04  0.00000000000E+00 0. -1.
         25    1    1    2    0    0  0.43613696162E+03  0.41722990566E+03 -0.67253688260E+03  0.91226482006E+03  0.12500000000E+03 0.  0.
         21    1    1    2  503  502  0.52363292602E+02 -0.50874525216E+02 -0.68888398765E+03  0.69274185680E+03  0.00000000000E+00 0. -1.
         21    1    1    2  504  501 -0.48850025422E+03 -0.36635538044E+03 -0.70204752096E+03  0.93044047894E+03  0.00000000000E+00 0. -1.
<mgrwt>
<rscale>  4 0.12272247E+04</rscale>
<asrwt>0</asrwt>
<pdfrwt beam="1">  1       21 0.36306058E-01 0.12272247E+04</pdfrwt>
<pdfrwt beam="2">  1       21 0.35376274E+00 0.12272247E+04</pdfrwt>
<totfact> 0.68877988E+01</totfact>
</mgrwt>
</event>
<event>
 5    0  0.1723834E+000  0.9263422E+03  0.7546771E-02  0.9393239E-01
         21   -1    0    0  503  501  0.00000000000E+00  0.00000000000E+00  0.27512342166E+03  0.27512342166E+03  0.00000000000E+00 0. -1.
         21   -1    0    0  504  502 -0.00000000000E+00 -0.00000000000E+00 -0.10291359701E+04  0.10291359701E+04  0.00000000000E+00 0. -1.
         25    1    1    2    0    0 -0.16062791592E+03  0.29958987465E+03 -0.60420415780E+03  0.70444523184E+03  0.12500000000E+03 0.  0.
         21    1    1    2  503  502  0.17964419318E+03 -0.28591216367E+03  0.97452092985E+02  0.35144659894E+03  0.00000000000E+00 0. -1.
         21    1    1    2  504  501 -0.19016277266E+02 -0.13677710979E+02 -0.24726048360E+03  0.24836756094E+03  0.00000000000E+00 0. -1.
<mgrwt>
<rscale>  4 0.92634222E+03</rscale>
<asrwt>0</asrwt>
<pdfrwt beam="1">  1       21 0.42326680E-01 0.92634222E+03</pdfrwt>
<pdfrwt beam="2">  1       21 0.15832861E+00 0.92634222E+03</pdfrwt>
<totfact> 0.10277606E+03</totfact>
</mgrwt>
</event>
<event>
 5    0  0.1723834E+000  0.6787637E+03  0.7546771E-02  0.9754255E-01
         21   -1    0    0  503  501  0.00000000000E+00  0.00000000000E+00  0.21269186480E+03  0.21269186480E+03  0.00000000000E+00 0.  1.
         21   -1    0    0  504  502 -0.00000000000E+00 -0.00000000000E+00 -0.17255372568E+04  0.17255372568E+04  0.00000000000E+00 0.  1.
         25    1    1    2    0    0  0.11557430363E+03  0.31585490716E+03 -0.32725815714E+03  0.48563838754E+03  0.12500000000E+03 0.  0.
         21    1    1    2  503  502 -0.26818454847E+02 -0.27042299527E+03 -0.91165878513E+01  0.27190244219E+03  0.00000000000E+00 0.  1.
         21    1    1    2  504  501 -0.88755848785E+02 -0.45431911886E+02 -0.11764706470E+04  0.11806882918E+04  0.00000000000E+00 0.  1.
<mgrwt>
<rscale>  4 0.67876368E+03</rscale>
<asrwt>0</asrwt>
<pdfrwt beam="1">  1       21 0.32721825E-01 0.67876368E+03</pdfrwt>
<pdfrwt beam="2">  1       21 0.26546727E+00 0.67876368E+03</pdfrwt>
<totfact> 0.35234472E+02</totfact>
</mgrwt>
</event>
<event>
 5    0  0.1733515E+000  0.4785868E+03  0.7546771E-02  0.1019524E+00
         21   -1    0    0  503  501  0.00000000000E+00  0.00000000000E+00  0.24744138533E+03  0.24744138533E+03  0.00000000000E+00 0.  1.
         21   -1    0    0  504  502 -0.00000000000E+00 -0.00000000000E+00 -0.93917124602E+03  0.93917124602E+03  0.00000000000E+00 0.  1.
         25    1    1    2    0    0 -0.31357547154E+03 -0.11130449974E+03  0.23904647039E+02  0.35625089496E+03  0.12500000000E+03 0.  0.
         21    1    1    2  503  502  0.97486050304E+02 -0.45300437900E+02 -0.61413771274E+02  0.12380351764E+03  0.00000000000E+00 0. -1.
         21    1    1    2  504  501  0.21608942123E+03  0.15660493764E+03 -0.65422073646E+03  0.70655821874E+03  0.00000000000E+00 0.  1.
<mgrwt>
<rscale>  4 0.47858678E+03</rscale>
<asrwt>0</asrwt>
<pdfrwt beam="1">  1       21 0.38067906E-01 0.47858678E+03</pdfrwt>
<pdfrwt beam="2">  1       21 0.14448788E+00 0.47858678E+03</pdfrwt>
<totfact> 0.18576134E+03</totfact>
</mgrwt>
</event>
<event>
 5    0  0.1723834E+000  0.6376567E+03  0.7546771E-02  0.9830220E-01
         21   -1    0    0  503  501  0.00000000000E+00  0.00000000000E+00  0.86924743706E+02  0.86924743706E+02  0.00000000000E+00 0. -1.
         21   -1    0    0  504  502 -0.00000000000E+00 -0.00000000000E+00 -0.26222944554E+04  0.26222944554E+04  0.00000000000E+00 0. -1.
         25    1    1    2    0    0 -0.25490579885E+03 -0.25844071654E+03 -0.89362133585E+03  0.97260097786E+03  0.12500000000E+03 0.  0.
         21    1    1    2  503  502  0.19141842071E+03  0.33189626050E+02 -0.13436934040E+04  0.13576651012E+04  0.00000000000E+00 0. -1.
         21    1    1    2  504  501  0.63487378135E+02  0.22525109049E+03 -0.29805497184E+03  0.37895312004E+03  0.00000000000E+00 0.  1.
<mgrwt>
<rscale>  4 0.63765669E+03</rscale>
<asrwt>0</asrwt>
<pdfrwt beam="1">  1       21 0.13373038E-01 0.63765669E+03</pdfrwt>
<pdfrwt beam="2">  1       21 0.40342991E+00 0.63765669E+03</pdfrwt>
<totfact> 0.27846861E+02</totfact>
</mgrwt>
</event>
<event>
 5    0  0.1723834E+000  0.8614144E+03  0.7546771E-02  0.9475144E-01
         21   -1    0    0  503  501  0.00000000000E+00  0.00000000000E+00  0.22962814453E+03  0.22962814453E+03  0.00000000000E+00 0. -1.
         21   -1    0    0  504  502 -0.00000000000E+00 -0.00000000000E+00 -0.88060924925E+03  0.88060924925E+03  0.00000000000E+00 0.  1.
         25    1    1    2    0    0  0.22164360164E+03 -0.25263243152E+03  0.16128285697E+02  0.35893474783E+03  0.12500000000E+03 0.  0.
         21    1    1    2  503  502 -0.25183138270E+02  0.32835508551E+00 -0.61439606585E+02  0.66401231370E+02  0.00000000000E+00 0.  1.
         21    1    1    2  504  501 -0.19646046337E+03  0.25230407643E+03 -0.60566978382E+03  0.68490141458E+03  0.00000000000E+00 0.  1.
<mgrwt>
<rscale>  4 0.86141439E+03</rscale>
<asrwt>0</asrwt>
<pdfrwt beam="1">  1       21 0.35327407E-01 0.86141439E+03</pdfrwt>
<pdfrwt beam="2">  1       21 0.13547834E+00 0.86141439E+03</pdfrwt>
<totfact> 0.23290317E+03</totfact>
</mgrwt>
</event>
<event>
 5    0  0.1723834E+000  0.4038842E+03  0.7546771E-02  0.1042443E+00
         21   -1    0    0  503  501  0.00000000000E+00  0.00000000000E+00  0.96440658951E+03  0.96440658951E+03  0.00000000000E+00 0.  1.
         21   -1    0    0  504  502 -0.00000000000E+00 -0.00000000000E+00 -0.88406374778E+03  0.88406374778E+03  0.00000000000E+00 0.  1.
         25    1    1    2    0    0  0.97662172241E+02 -0.18932889932E+03  0.76918456863E+03  0.80786956412E+03  0.12500000000E+03 0.  0.
         21    1    1    2  503  502  0.20044164545E+02  0.14588116845E+03 -0.83505185869E+03  0.84793554622E+03  0.00000000000E+00 0.  1.
         21    1    1    2  504  501 -0.11770633679E+03  0.43447730872E+02  0.14621013179E+03  0.19266522695E+03  0.00000000000E+00 0. -1.
<mgrwt>
<rscale>  4 0.40388415E+03</rscale>
<asrwt>0</asrwt>
<pdfrwt beam="1">  1       21 0.14837024E+00 0.40388415E+03</pdfrwt>
<pdfrwt beam="2">  1       21 0.13600981E+00 0.40388415E+03</pdfrwt>
<totfact> 0.97576818E+01</totfact>
</mgrwt>
</event>
<event>
 5    0  0.1723834E+000  0.1030668E+04  0.7546771E-02  0.9275533E-01
         21   -1    0    0  503  501  0.00000000000E+00  0.00000000000E+00  0.15401190928E+04  0.15401190928E+04  0.00000000000E+00 0. -1.
         21   -1    0    0  504  502 -0.00000000000E+00 -0.00000000000E+00 -0.45909600508E+03  0.45909600508E+03  0.00000000000E+00 0. -1.
         25    1    1    2    0    0 -0.32305133743E+03 -0.16111665684E+03  0.12056571363E+03  0.40060184102E+03  0.12500000000E+03 0.  0.
         21    1    1    2  503  502  0.38791947319E+03  0.13186753293E+03  0.12421989209E+04  0.13080247410E+04  0.00000000000E+00 0. -1.
         21    1    1    2  504  501 -0.64868135763E+02  0.29249123909E+02 -0.28174154688E+03  0.29058851581E+03  0.00000000000E+00 0. -1.
<mgrwt>
<rscale>  4 0.10306684E+04</rscale>
<asrwt>0</asrwt>
<pdfrwt beam="1">  1       21 0.23694140E+00 0.10306684E+04</pdfrwt>
<pdfrwt beam="2">  1       21 0.70630156E-01 0.10306684E+04</pdfrwt>
<totfact> 0.92227931E+01</totfact>
</mgrwt>
</event>
<event>
 5    0  0.1723834E+000  0.4894061E+03  0.7546771E-02  0.1016582E+00
         21   -1    0    0  503  501  0.00000000000E+00  0.00000000000E+00  0.14090823286E+04  0.14090823286E+04  0.00000000000E+00 0. -1.
         21   -1    0    0  504  502 -0.00000000000E+00 -0.00000000000E+00 -0.18239901204E+03  0.18239901204E+03  0.00000000000E+00 0.  1.
         25    1    1    2    0    0  0.12862110540E+03  0.16915272836E+03  0.10701247317E+04  0.10981566262E+04  0.12500000000E+03 0.  0.
         21    1    1    2  503  502 -0.10855104209E+03 -0.15863393600E+03  0.29551676321E+03  0.35253115000E+03  0.00000000000E+00 0.  1.
         21    1    1    2  504  501 -0.20070063316E+02 -0.10518792361E+02 -0.13895817839E+03  0.14079356439E+03  0.00000000000E+00 0.  1.
<mgrwt>
<rscale>  4 0.48940610E+03</rscale>
<asrwt>0</asrwt>
<pdfrwt beam="1">  1       21 0.21678189E+00 0.48940610E+03</pdfrwt>
<pdfrwt beam="2">  1       21 0.28061387E-01 0.48940610E+03</pdfrwt>
<totfact> 0.10431392E+03</totfact>
</mgrwt>
</event>
<event>
 5    0  0.1723834E+000  0.5460274E+03  0.7546771E-02  0.1002418E+00
         21   -1    0    0  503  501  0.00000000000E+00  0.00000000000E+00  0.59835965608E+03  0.59835965608E+03  0.00000000000E+00 0. -1.
         21   -1    0    0  504  502 -0.00000000000E+00 -0.00000000000E+00 -0.74462913880E+03  0.74462913880E+03  0.00000000000E+00 0. -1.
         25    1    1    2    0    0  0.32802128400E+02 -0.25676198801E+03  0.40256166252E+03  0.49465502145E+03  0.12500000000E+03 0.  0.
         21    1    1    2  503  502 -0.31226973831E+00  0.21639965454E+03  0.69921280599E+02  0.22741568433E+03  0.00000000000E+00 0. -1.
         21    1    1    2  504  501 -0.32489858662E+02  0.40362333472E+02 -0.61875242584E+03  0.62091808910E+03  0.00000000000E+00 0. -1.
<mgrwt>
<rscale>  4 0.54602745E+03</rscale>
<asrwt>0</asrwt>
<pdfrwt beam="1">  1       21 0.92055332E-01 0.54602745E+03</pdfrwt>
<pdfrwt beam="2">  1       21 0.11455833E+00 0.54602745E+03</pdfrwt>
<totfact> 0.47438518E+02</totfact>
</mgrwt>
</event>
<event>
 5    0  0.1723834E+000  0.5926257E+03  0.7546771E-02  0.9920825E-01
         21   -1    0    0  503  501  0.00000000000E+00  0.00000000000E+00  0.26637416041E+04  0.26637416041E+04  0.00000000000E+00 0. -1.
         21   -1    0    0  504  502 -0.00000000000E+00 -0.00000000000E+00 -0.55978468324E+02  0.55978468324E+02  0.00000000000E+00 0. -1.
         25    1    1    2    0    0  0.11415941865E+03  0.26874865960E+03  0.14651418185E+04  0.14991743605E+04  0.12500000000E+03 0.  0.
         21    1    1    2  503  502  0.69756959638E+01 -0.22463198962E+02 -0.16913209582E+02  0.28970887114E+02  0.00000000000E+00 0. -1.
         21    1    1    2  504  501 -0.12113511461E+03 -0.24628546064E+03  0.11595345269E+04  0.11915748248E+04  0.00000000000E+00 0. -1.
<mgrwt>
<rscale>  4 0.59262573E+03</rscale>
<asrwt>0</asrwt>
<pdfrwt beam="1">  1       21 0.40980630E+00 0.59262573E+03</pdfrwt>
<pdfrwt beam="2">  1       21 0.86120741E-02 0.59262573E+03</pdfrwt>
<totfact> 0.57490028E+02</totfact>
</mgrwt>
</event>
<event>
 5    0  0.1723834E+000  0.6319085E+03  0.7546771E-02  0.9841332E-01
         21   -1    0    0  503  501  0.00000000000E+00  0.00000000000E+00  0.16952666840E+04  0.16952666840E+04  0.00000000000E+00 0.  1.
         21   -1    0    0  504  502 -0.00000000000E+00 -0.00000000000E+00 -0.79289983090E+02  0.79289983090E+02  0.00000000000E+00 0.  1.
         25    1    1    2    0    0 -0.21511492385E+03 -0.89582206516E+02  0.32747737830E+03  0.42091072152E+03  0.12500000000E+03 0.  0.
         21    1    1    2  503  502  0.24434147638E+03  0.78934359423E+02  0.12963736869E+04  0.13215589757E+04  0.00000000000E+00 0.  1.
         21    1    1    2  504  501 -0.29226552526E+02  0.10647847093E+02 -0.78743643193E+01  0.32086969843E+02  0.00000000000E+00 0.  1.
<mgrwt>
<rscale>  4 0.63190851E+03</rscale>
<asrwt>0</asrwt>
<pdfrwt beam="1">  1       21 0.26081023E+00 0.63190851E+03</pdfrwt>
<pdfrwt beam="2">  1       21 0.12198460E-01 0.63190851E+03</pdfrwt>
<totfact> 0.25471794E+03</totfact>
</mgrwt>
</event>
<event>
 5    0  0.1723834E+000  0.3890848E+03  0.7546771E-02  0.1047626E+00
         21   -1    0    0  503  501  0.00000000000E+00  0.00000000000E+00  0.21941247427E+04  0.21941247427E+04  0.00000000000E+00 0.  1.
         21   -1    0    0  504  502 -0.00000000000E+00 -0.00000000000E+00 -0.20885482224E+03  0.20885482224E+03  0.00000000000E+00 0. -1.
         25    1    1    2    0    0 -0.11809960915E+03  0.20570916746E+03  0.13530297630E+04  0.13793398127E+04  0.12500000000E+03 0.  0.
         21    1    1    2  503  502  0.39127485681E+02 -0.11903831687E+03 -0.17093938149E+03  0.21194658092E+03  0.00000000000E+00 0. -1.
         21    1    1    2  504  501  0.78972123473E+02 -0.86670850589E+02  0.80317953894E+03  0.81169317134E+03  0.00000000000E+00 0.  1.
<mgrwt>
<rscale>  4 0.38908480E+03</rscale>
<asrwt>0</asrwt>
<pdfrwt beam="1">  1       21 0.33755764E+00 0.38908480E+03</pdfrwt>
<pdfrwt beam="2">  1       21 0.32131513E-01 0.38908480E+03</pdfrwt>
<totfact> 0.15496127E+02</totfact>
</mgrwt>
</event>
<event>
 5    0  0.1723834E+000  0.8541582E+03  0.7546771E-02  0.9484773E-01
         21   -1    0    0  503  501  0.00000000000E+00  0.00000000000E+00  0.88689275184E+03  0.88689275184E+03  0.00000000000E+00 0. -1.
         21   -1    0    0  504  502 -0.00000000000E+00 -0.00000000000E+00 -0.31529153624E+03  0.31529153624E+03  0.00000000000E+00 0. -1.
         25    1    1    2    0    0 -0.80666292829E+02 -0.30083297704E+03 -0.11239632583E+02  0.33579586093E+03  0.12500000000E+03 0.  0.
         21    1    1    2  503  502  0.10519652800E+03  0.28816418332E+03  0.69032447267E+03  0.75541563633E+03  0.00000000000E+00 0. -1.
         21    1    1    2  504  501 -0.24530235167E+02  0.12668793722E+02 -0.10748362448E+03  0.11097279082E+03  0.00000000000E+00 0. -1.
<mgrwt>
<rscale>  4 0.85415825E+03</rscale>
<asrwt>0</asrwt>
<pdfrwt beam="1">  1       21 0.13644504E+00 0.85415825E+03</pdfrwt>
<pdfrwt beam="2">  1       21 0.48506390E-01 0.85415825E+03</pdfrwt>
<totfact> 0.11767494E+03</totfact>
</mgrwt>
</event>
<event>
 5    0  0.1723834E+000  0.5108975E+03  0.7546771E-02  0.1010973E+00
         21   -1    0    0  503  501  0.00000000000E+00  0.00000000000E+00  0.11447915581E+03  0.11447915581E+03  0.00000000000E+00 0. -1.
         21   -1    0    0  504  502 -0.00000000000E+00 -0.00000000000E+00 -0.13313288228E+04  0.13313288228E+04  0.00000000000E+00 0.  1.
         25    1    1    2    0    0  0.50853559511E+02  0.21662396406E+03 -0.54403294248E+03  0.60092334688E+03  0.12500000000E+03 0.  0.
         21    1    1    2  503  502 -0.10523828984E+03 -0.11468356773E+03 -0.70736662516E+03  0.72428927974E+03  0.00000000000E+00 0.  1.
         21    1    1    2  504  501  0.54384730332E+02 -0.10194039633E+03  0.34549900623E+02  0.12059535202E+03  0.00000000000E+00 0.  1.
<mgrwt>
<rscale>  4 0.51089751E+03</rscale>
<asrwt>0</asrwt>
<pdfrwt beam="1">  1       21 0.17612176E-01 0.51089751E+03</pdfrwt>
<pdfrwt beam="2">  1       21 0.20481983E+00 0.51089751E+03</pdfrwt>
<totfact> 0.30406858E+03</totfact>
</mgrwt>
</event>
<event>
 5    0  0.1723834E+000  0.5868818E+03  0.7546771E-02  0.9933002E-01
         21   -1    0    0  503  501  0.00000000000E+00  0.00000000000E+00  0.24399294465E+03  0.24399294465E+03  0.00000000000E+00 0. -1.
         21   -1    0    0  504  502 -0.00000000000E+00 -0.00000000000E+00 -0.49428317661E+03  0.49428317661E+03  0.00000000000E+00 0.  1.
         25    1    1    2    0    0 -0.97749190561E+02  0.25223630907E+03 -0.18396794282E+03  0.35021031374E+03  0.12500000000E+03 0.  0.
         21    1    1    2  503  502  0.38633029384E+02 -0.20370608604E+02 -0.13273631265E+03  0.13973690046E+03  0.00000000000E+00 0.  1.
         21    1    1    2  504  501  0.59116161176E+02 -0.23186570046E+03  0.66414023500E+02  0.24832890706E+03  0.00000000000E+00 0. -1.
<mgrwt>
<rscale>  4 0.58688182E+03</rscale>
<asrwt>0</asrwt>
<pdfrwt beam="1">  1       21 0.37537376E-01 0.58688182E+03</pdfrwt>
<pdfrwt beam="2">  1       21 0.76043566E-01 0.58688182E+03</pdfrwt>
<totfact> 0.90714189E+03</totfact>
</mgrwt>
</event>
<event>
 5    0  0.1723834E+000  0.3473429E+03  0.7546771E-02  0.1063711E+00
         21   -1    0    0  503  501  0.00000000000E+00  0.00000000000E+00  0.95657415545E+02  0.95657415545E+02  0.00000000000E+00 0. -1.
         21   -1    0    0  504  502 -0.00000000000E+00 -0.00000000000E+00 -0.72084982089E+03  0.72084982089E+03  0.00000000000E+00 0. -1.
         25    1    1    2    0    0 -0.15960963961E+03  0.16886880187E+03 -0.33664995496E+03  0.42772666678E+03  0.12500000000E+03 0.  0.
         21    1    1    2  503  502  0.29892942557E+02 -0.58089484691E+02 -0.16006930490E+02  0.67262159273E+02  0.00000000000E+00 0.  1.
         21    1    1    2  504  501  0.12971669705E+03 -0.11077931718E+03 -0.27253551989E+03  0.32151841037E+03  0.00000000000E+00 0. -1.
<mgrwt>
<rscale>  4 0.34734286E+03</rscale>
<asrwt>0</asrwt>
<pdfrwt beam="1">  1       21 0.14716525E-01 0.34734286E+03</pdfrwt>
<pdfrwt beam="2">  1       21 0.11089997E+00 0.34734286E+03</pdfrwt>
<totfact> 0.24221888E+04</totfact>
</mgrwt>
</event>
<event>
 5    0  0.1723834E+000  0.4809738E+03  0.7546771E-02  0.1018868E+00
         21   -1    0    0  503  501  0.00000000000E+00  0.00000000000E+00  0.27393664036E+03  0.27393664036E+03  0.00000000000E+00 0.  1.
         21   -1    0    0  504  502 -0.00000000000E+00 -0.00000000000E+00 -0.41021429086E+03  0.41021429086E+03  0.00000000000E+00 0.  1.
         25    1    1    2    0    0 -0.21133206876E+03  0.67681510015E+01  0.32419752064E+02  0.24775611290E+03  0.12500000000E+03 0.  0.
         21    1    1    2  503  502  0.23307189081E+03 -0.32572370887E+02  0.27843804897E+02  0.23697835999E+03  0.00000000000E+00 0.  1.
         21    1    1    2  504  501 -0.21739822051E+02  0.25804219886E+02 -0.19654120746E+03  0.19941645834E+03  0.00000000000E+00 0.  1.
<mgrwt>
<rscale>  4 0.48097382E+03</rscale>
<asrwt>0</asrwt>
<pdfrwt beam="1">  1       21 0.42144099E-01 0.48097382E+03</pdfrwt>
<pdfrwt beam="2">  1       21 0.63109891E-01 0.48097382E+03</pdfrwt>
<totfact> 0.11165057E+04</totfact>
</mgrwt>
</event>
<event>
 5    0  0.1723834E+000  0.6149932E+03  0.7546771E-02  0.9874779E-01
         21   -1    0    0  503  501  0.00000000000E+00  0.00000000000E+00  0.30650997909E+03  0.30650997909E+03  0.00000000000E+00 0. -1.
         21   -1    0    0  504  502 -0.00000000000E+00 -0.00000000000E+00 -0.21853713533E+04  0.21853713533E+04  0.00000000000E+00 0. -1.
         25    1    1    2    0    0  0.26879219806E+03 -0.10526428457E+03  0.97928611808E+02  0.32946142165E+03  0.12500000000E+03 0.  0.
         21    1    1    2  503  502 -0.92489273381E+01  0.41299248240E+02 -0.18764060484E+04  0.18768832753E+04  0.00000000000E+00 0. -1.
         21    1    1    2  504  501 -0.25954327073E+03  0.63965036335E+02 -0.10038393761E+03  0.28553663545E+03  0.00000000000E+00 0. -1.
<mgrwt>
<rscale>  4 0.61499316E+03</rscale>
<asrwt>0</asrwt>
<pdfrwt beam="1">  1       21 0.47155384E-01 0.61499316E+03</pdfrwt>
<pdfrwt beam="2">  1       21 0.33621096E+00 0.61499316E+03</pdfrwt>
<totfact> 0.62538122E+01</totfact>
</mgrwt>
</event>
<event>
 5    0  0.1723834E+000  0.4020750E+03  0.7546771E-02  0.1043064E+00
         21   -1    0    0  503  501  0.00000000000E+00  0.00000000000E+00  0.11221628913E+04  0.11221628913E+04  0.00000000000E+00 0.  1.
         21   -1    0    0  504  502 -0.00000000000E+00 -0.00000000000E+00 -0.71678533557E+02  0.71678533557E+02  0.00000000000E+00 0.  1.
         25    1    1    2    0    0  0.52349423564E+02  0.20917319176E+03  0.87943141930E+03  0.91406701480E+03  0.12500000000E+03 0.  0.
         21    1    1    2  503  502 -0.28748489803E+02 -0.10653844782E+03  0.11903336306E+03  0.16231407225E+03  0.00000000000E+00 0. -1.
         21    1    1    2  504  501 -0.23600933761E+02 -0.10263474394E+03  0.52019575409E+02  0.11746033783E+03  0.00000000000E+00 0.  1.
<mgrwt>
<rscale>  4 0.40207502E+03</rscale>
<asrwt>0</asrwt>
<pdfrwt beam="1">  1       21 0.17264043E+00 0.40207502E+03</pdfrwt>
<pdfrwt beam="2">  1       21 0.11027468E-01 0.40207502E+03</pdfrwt>
<totfact> 0.12497923E+04</totfact>
</mgrwt>
</event>
<event>
 5    0  0.1723834E+000  0.6899692E+03  0.7546771E-02  0.9734542E-01
         21   -1    0    0  503  501  0.00000000000E+00  0.00000000000E+00  0.26821105647E+03  0.26821105647E+03  0.00000000000E+00 0. -1.
         21   -1    0    0  504  502 -0.00000000000E+00 -0.00000000000E+00 -0.10556098623E+04  0.10556098623E+04  0.00000000000E+00 0. -1.
         25    1    1    2    0    0 -0.75976033908E+02  0.26750535293E+03 -0.30891147576E+03  0.43403084157E+03  0.12500000000E+03 0.  0.
         21    1    1    2  503  502  0.45802383015E+02 -0.24094447984E+03  0.13163013606E+03  0.27834976805E+03  0.00000000000E+00 0. -1.
         21    1    1    2  504  501  0.30173650892E+02 -0.26560873097E+02 -0.61011746608E+03  0.61144030911E+03  0.00000000000E+00 0. -1.
<mgrwt>
<rscale>  4 0.68996917E+03</rscale>
<asrwt>0</asrwt>
<pdfrwt beam="1">  1       21 0.41263238E-01 0.68996917E+03</pdfrwt>
<pdfrwt beam="2">  1       21 0.16240152E+00 0.68996917E+03</pdfrwt>
<totfact> 0.10649714E+03</totfact>
</mgrwt>
</event>
<event>
 5    0  0.1723834E+000  0.4397451E+03  0.7546771E-02  0.1030825E+00
         21   -1    0    0  503  501  0.00000000000E+00  0.00000000000E+00  0.22990212963E+03  0.22990212963E+03  0.00000000000E+00 0. -1.
         21   -1    0    0  504  502 -0.00000000000E+00 -0.00000000000E+00 -0.40615840970E+03  0.40615840970E+03  0.00000000000E+00 0.  1.
         25    1    1    2    0    0  0.18433183714E+03  0.12117568568E+03 -0.10026029657E+03  0.27265160930E+03  0.12500000000E+03 0.  0.
         21    1    1    2  503  502 -0.11159864247E+03 -0.73810685057E+02  0.10008976370E+03  0.16709349188E+03  0.00000000000E+00 0.  1.
         21    1    1    2  504  501 -0.72733194668E+02 -0.47365000622E+02 -0.17608574721E+03  0.19631543816E+03  0.00000000000E+00 0.  1.
<mgrwt>
<rscale>  4 0.43974507E+03</rscale>
<asrwt>0</asrwt>
<pdfrwt beam="1">  1       21 0.35369559E-01 0.43974507E+03</pdfrwt>
<pdfrwt beam="2">  1       21 0.62485909E-01 0.43974507E+03</pdfrwt>
<totfact> 0.16534726E+04</totfact>
</mgrwt>
</event>
<event>
 5    0  0.1723834E+000  0.5070306E+03  0.7546771E-02  0.1011960E+00
         21   -1    0    0  503  501  0.00000000000E+00  0.00000000000E+00  0.12380334177E+03  0.12380334177E+03  0.00000000000E+00 0. -1.
         21   -1    0    0  504  502 -0.00000000000E+00 -0.00000000000E+00 -0.59971527680E+03  0.59971527680E+03  0.00000000000E+00 0. -1.
         25    1    1    2    0    0  0.22104656341E+03 -0.82842034095E+01 -0.12009472976E+03  0.28103016802E+03  0.12500000000E+03 0.  0.
         21    1    1    2  503  502 -0.93915063979E+01 -0.31779784884E+02 -0.92075562462E+01  0.34393810660E+02  0.00000000000E+00 0. -1.
         21    1    1    2  504  501 -0.21165505701E+03  0.40063988293E+02 -0.34660964902E+03  0.40809463989E+03  0.00000000000E+00 0. -1.
<mgrwt>
<rscale>  4 0.50703059E+03</rscale>
<asrwt>0</asrwt>
<pdfrwt beam="1">  1       21 0.19046668E-01 0.50703059E+03</pdfrwt>
<pdfrwt beam="2">  1       21 0.92263890E-01 0.50703059E+03</pdfrwt>
<totfact> 0.22363591E+04</totfact>
</mgrwt>
</event>
<event>
 5    0  0.1723834E+000  0.5853123E+03  0.7546771E-02  0.9936356E-01
         21   -1    0    0  503  501  0.00000000000E+00  0.00000000000E+00  0.58424687942E+03  0.58424687942E+03  0.00000000000E+00 0. -1.
         21   -1    0    0  504  502 -0.00000000000E+00 -0.00000000000E+00 -0.29045696045E+03  0.29045696045E+03  0.00000000000E+00 0. -1.
         25    1    1    2    0    0 -0.10239545659E+02  0.20431567050E+03  0.10586721110E+03  0.26207366883E+03  0.12500000000E+03 0.  0.
         21    1    1    2  503  502  0.16167114978E+03  0.10272802035E+03 -0.47241429782E+02  0.19728750473E+03  0.00000000000E+00 0. -1.
         21    1    1    2  504  501 -0.15143160412E+03 -0.30704369085E+03  0.23516413764E+03  0.41534266630E+03  0.00000000000E+00 0. -1.
<mgrwt>
<rscale>  4 0.58531232E+03</rscale>
<asrwt>0</asrwt>
<pdfrwt beam="1">  1       21 0.89884135E-01 0.58531232E+03</pdfrwt>
<pdfrwt beam="2">  1       21 0.44685686E-01 0.58531232E+03</pdfrwt>
<totfact> 0.42701285E+03</totfact>
</mgrwt>
</event>
<event>
 5    0  0.1723834E+000  0.4156823E+03  0.7546771E-02  0.1038481E+00
         21   -1    0    0  503  501  0.00000000000E+00  0.00000000000E+00  0.20576145445E+03  0.20576145445E+03  0.00000000000E+00 0. -1.
         21   -1    0    0  504  502 -0.00000000000E+00 -0.00000000000E+00 -0.50580865873E+03  0.50580865873E+03  0.00000000000E+00 0.  1.
         25    1    1    2    0    0  0.95285048318E+02  0.25044702869E+03 -0.25060606482E+02  0.29674229326E+03  0.12500000000E+03 0.  0.
         21    1    1    2  503  502  0.54242543391E+01 -0.11795385164E+03 -0.35699412499E+02  0.12335713074E+03  0.00000000000E+00 0.  1.
         21    1    1    2  504  501 -0.10070930266E+03 -0.13249317705E+03 -0.23928718530E+03  0.29147068919E+03  0.00000000000E+00 0.  1.
<mgrwt>
<rscale>  4 0.41568227E+03</rscale>
<asrwt>0</asrwt>
<pdfrwt beam="1">  1       21 0.31655609E-01 0.41568227E+03</pdfrwt>
<pdfrwt beam="2">  1       21 0.77816715E-01 0.41568227E+03</pdfrwt>
<totfact> 0.12707457E+04</totfact>
</mgrwt>
</event>
<event>
 5    0  0.1723834E+000  0.7700843E+03  0.7546771E-02  0.9604358E-01
         21   -1    0    0  503  501  0.00000000000E+00  0.00000000000E+00  0.11022305886E+04  0.11022305886E+04  0.00000000000E+00 0.  1.
         21   -1    0    0  504  502 -0.00000000000E+00 -0.00000000000E+00 -0.38701735492E+03  0.38701735492E+03  0.00000000000E+00 0.  1.
         25    1    1    2    0    0 -0.11276411978E+03 -0.34674838852E+03  0.33669806549E+03  0.51180150348E+03  0.12500000000E+03 0.  0.
         21    1    1    2  503  502  0.86127631379E+02 -0.10587895535E+02 -0.24410882879E+03  0.25907372061E+03  0.00000000000E+00 0.  1.
         21    1    1    2  504  501  0.26636488401E+02  0.35733628406E+03  0.62262399694E+03  0.71837271941E+03  0.00000000000E+00 0.  1.
<mgrwt>
<rscale>  4 0.77008428E+03</rscale>
<asrwt>0</asrwt>
<pdfrwt beam="1">  1       21 0.16957394E+00 0.77008428E+03</pdfrwt>
<pdfrwt beam="2">  1       21 0.59541132E-01 0.77008428E+03</pdfrwt>
<totfact> 0.41886806E+02</totfact>
</mgrwt>
</event>
<event>
 5    0  0.1723834E+000  0.4479201E+03  0.7546771E-02  0.1028344E+00
         21   -1    0    0  503  501  0.00000000000E+00  0.00000000000E+00  0.27818621782E+04  0.27818621782E+04  0.00000000000E+00 0.  1.
         21   -1    0    0  504  502 -0.00000000000E+00 -0.00000000000E+00 -0.56741107659E+02  0.56741107659E+02  0.00000000000E+00 0.  1.
         25    1    1    2    0    0 -0.22977509224E+03 -0.19904724343E+02  0.14046156180E+04  0.14289026648E+04  0.12500000000E+03 0.  0.
         21    1    1    2  503  502  0.17748887149E+03 -0.32343174127E+02  0.13234839671E+04  0.13357238455E+04  0.00000000000E+00 0.  1.
         21    1    1    2  504  501  0.52286220748E+02  0.52247898470E+02 -0.29785145219E+01  0.73976775568E+02  0.00000000000E+00 0.  1.
<mgrwt>
<rscale>  4 0.44792008E+03</rscale>
<asrwt>0</asrwt>
<pdfrwt beam="1">  1       21 0.42797869E+00 0.44792008E+03</pdfrwt>
<pdfrwt beam="2">  1       21 0.87294034E-02 0.44792008E+03</pdfrwt>
<totfact> 0.46141197E+02</totfact>
</mgrwt>
</event>
<event>
 5    0  0.1723834E+000  0.4163996E+03  0.7546771E-02  0.1038245E+00
         21   -1    0    0  503  501  0.00000000000E+00  0.00000000000E+00  0.33975011146E+03  0.33975011146E+03  0.00000000000E+00 0. -1.
         21   -1    0    0  504  502 -0.00000000000E+00 -0.00000000000E+00 -0.36269008773E+03  0.36269008773E+03  0.00000000000E+00 0. -1.
         25    1    1    2    0    0 -0.22849814509E+02  0.23120004374E+03  0.17051097292E+03  0.31412508040E+03  0.12500000000E+03 0.  0.
         21    1    1    2  503  502  0.12515078165E+03 -0.17914915281E+03 -0.15234685826E+03  0.26639576258E+03  0.00000000000E+00 0. -1.
         21    1    1    2  504  501 -0.10230096714E+03 -0.52050890929E+02 -0.41104090946E+02  0.12191935621E+03  0.00000000000E+00 0.  1.
<mgrwt>
<rscale>  4 0.41639958E+03</rscale>
<asrwt>0</asrwt>
<pdfrwt beam="1">  1       21 0.52269248E-01 0.41639958E+03</pdfrwt>
<pdfrwt beam="2">  1       21 0.55798475E-01 0.41639958E+03</pdfrwt>
<totfact> 0.94617995E+03</totfact>
</mgrwt>
</event>
<event>
 5    0  0.1723834E+000  0.5536920E+03  0.7546771E-02  0.1000643E+00
         21   -1    0    0  503  501  0.00000000000E+00  0.00000000000E+00  0.18074521517E+04  0.18074521517E+04  0.00000000000E+00 0. -1.
         21   -1    0    0  504  502 -0.00000000000E+00 -0.00000000000E+00 -0.23239006311E+03  0.23239006311E+03  0.00000000000E+00 0.  1.
         25    1    1    2    0    0 -0.22208242263E+03  0.20420722393E+03  0.13569673340E+04  0.13957100480E+04  0.12500000000E+03 0.  0.
         21    1    1    2  503  502  0.79876259726E+02 -0.67319029571E+02 -0.17526078398E+03  0.20403041688E+03  0.00000000000E+00 0.  1.
         21    1    1    2  504  501  0.14220616290E+03 -0.13688819436E+03  0.39335553864E+03  0.44010174994E+03  0.00000000000E+00 0.  1.
<mgrwt>
<rscale>  4 0.55369197E+03</rscale>
<asrwt>0</asrwt>
<pdfrwt beam="1">  1       21 0.27806955E+00 0.55369197E+03</pdfrwt>
<pdfrwt beam="2">  1       21 0.35752319E-01 0.55369197E+03</pdfrwt>
<totfact> 0.25911942E+02</totfact>
</mgrwt>
</event>
<event>
 5    0  0.1723834E+000  0.3558508E+03  0.7546771E-02  0.1060239E+00
         21   -1    0    0  503  501  0.00000000000E+00  0.00000000000E+00  0.73837631030E+02  0.73837631030E+02  0.00000000000E+00 0. -1.
         21   -1    0    0  504  502 -0.00000000000E+00 -0.00000000000E+00 -0.10063257573E+04  0.10063257573E+04  0.00000000000E+00 0.  1.
         25    1    1    2    0    0 -0.19455791491E+03  0.12041411212E+03 -0.26951266306E+03  0.37498588800E+03  0.12500000000E+03 0.  0.
         21    1    1    2  503  502  0.15768210569E+03 -0.58797019154E+02 -0.45154708790E+03  0.48188744381E+03  0.00000000000E+00 0.  1.
         21    1    1    2  504  501  0.36875809222E+02 -0.61617092965E+02 -0.21142837533E+03  0.22329005653E+03  0.00000000000E+00 0.  1.
<mgrwt>
<rscale>  4 0.35585084E+03</rscale>
<asrwt>0</asrwt>
<pdfrwt beam="1">  1       21 0.11359636E-01 0.35585084E+03</pdfrwt>
<pdfrwt beam="2">  1       21 0.15481934E+00 0.35585084E+03</pdfrwt>
<totfact> 0.16336962E+04</totfact>
</mgrwt>
</event>
<event>
 5    0  0.1723834E+000  0.4914899E+03  0.7546771E-02  0.1016024E+00
         21   -1    0    0  503  501  0.00000000000E+00  0.00000000000E+00  0.14767382927E+04  0.14767382927E+04  0.00000000000E+00 0. -1.
         21   -1    0    0  504  502 -0.00000000000E+00 -0.00000000000E+00 -0.27991277816E+03  0.27991277816E+03  0.00000000000E+00 0. -1.
         25    1    1    2    0    0  0.22411638843E+03 -0.21115514594E+02  0.50487020998E+03  0.56673887236E+03  0.12500000000E+03 0.  0.
         21    1    1    2  503  502 -0.24958378454E+03  0.23109450038E+03 -0.11238309031E+03  0.35822715223E+03  0.00000000000E+00 0. -1.
         21    1    1    2  504  501  0.25467396115E+02 -0.20997898578E+03  0.80433839481E+03  0.83168504622E+03  0.00000000000E+00 0. -1.
<mgrwt>
<rscale>  4 0.49148986E+03</rscale>
<asrwt>0</asrwt>
<pdfrwt beam="1">  1       21 0.22719050E+00 0.49148986E+03</pdfrwt>
<pdfrwt beam="2">  1       21 0.43063505E-01 0.49148986E+03</pdfrwt>
<totfact> 0.37517737E+02</totfact>
</mgrwt>
</event>
<event>
 5    0  0.1723834E+000  0.4293787E+03  0.7546771E-02  0.1034056E+00
         21   -1    0    0  503  501  0.00000000000E+00  0.00000000000E+00  0.93333240589E+02  0.93333240589E+02  0.00000000000E+00 0.  1.
         21   -1    0    0  504  502 -0.00000000000E+00 -0.00000000000E+00 -0.15225120889E+04  0.15225120889E+04  0.00000000000E+00 0.  1.
         25    1    1    2    0    0 -0.73262617991E+02  0.18914790064E+03 -0.26515173349E+03  0.35647549885E+03  0.12500000000E+03 0.  0.
         21    1    1    2  503  502  0.19671139406E+02 -0.10092453639E+02 -0.10279251793E+04  0.10281629178E+04  0.00000000000E+00 0.  1.
         21    1    1    2  504  501  0.53591478586E+02 -0.17905544700E+03 -0.13610193552E+03  0.23120691281E+03  0.00000000000E+00 0.  1.
<mgrwt>
<rscale>  4 0.42937875E+03</rscale>
<asrwt>0</asrwt>
<pdfrwt beam="1">  1       21 0.14358960E-01 0.42937875E+03</pdfrwt>
<pdfrwt beam="2">  1       21 0.23423263E+00 0.42937875E+03</pdfrwt>
<totfact> 0.29783647E+03</totfact>
</mgrwt>
</event>
<event>
 5    0  0.1723834E+000  0.6101991E+03  0.7546771E-02  0.9884469E-01
         21   -1    0    0  503  501  0.00000000000E+00  0.00000000000E+00  0.38977359289E+03  0.38977359289E+03  0.00000000000E+00 0. -1.
         21   -1    0    0  504  502 -0.00000000000E+00 -0.00000000000E+00 -0.43704706677E+03  0.43704706677E+03  0.00000000000E+00 0. -1.
         25    1    1    2    0    0 -0.13845642600E+02 -0.23470653865E+03 -0.14836002232E+03  0.30481889266E+03  0.12500000000E+03 0.  0.
         21    1    1    2  503  502 -0.13509687519E+03  0.15919466777E+03  0.23029999378E+03  0.31085719401E+03  0.00000000000E+00 0. -1.
         21    1    1    2  504  501  0.14894251779E+03  0.75511870876E+02 -0.12921344533E+03  0.21114457299E+03  0.00000000000E+00 0. -1.
<mgrwt>
<rscale>  4 0.61019905E+03</rscale>
<asrwt>0</asrwt>
<pdfrwt beam="1">  1       21 0.59965168E-01 0.61019905E+03</pdfrwt>
<pdfrwt beam="2">  1       21 0.67238011E-01 0.61019905E+03</pdfrwt>
<totfact> 0.44109954E+03</totfact>
</mgrwt>
</event>
<event>
 5    0  0.1723834E+000  0.4687685E+03  0.7546771E-02  0.1022268E+00
         21   -1    0    0  503  501  0.00000000000E+00  0.00000000000E+00  0.54612271290E+02  0.54612271290E+02  0.00000000000E+00 0. -1.
         21   -1    0    0  504  502 -0.00000000000E+00 -0.00000000000E+00 -0.16459612000E+04  0.16459612000E+04  0.00000000000E+00 0.  1.
         25    1    1    2    0    0 -0.17170517733E+03 -0.17809512412E+03 -0.49272576482E+03  0.56533549373E+03  0.12500000000E+03 0.  0.
         21    1    1    2  503  502  0.15331193686E+03  0.57168260531E+02 -0.63936452872E+03  0.65996951489E+03  0.00000000000E+00 0.  1.
         21    1    1    2  504  501  0.18393240467E+02  0.12092686359E+03 -0.45925863520E+03  0.47526846270E+03  0.00000000000E+00 0.  1.
<mgrwt>
<rscale>  4 0.46876853E+03</rscale>
<asrwt>0</asrwt>
<pdfrwt beam="1">  1       21 0.84018890E-02 0.46876853E+03</pdfrwt>
<pdfrwt beam="2">  1       21 0.25322477E+00 0.46876853E+03</pdfrwt>
<totfact> 0.58996360E+03</totfact>
</mgrwt>
</event>
<event>
 5    0  0.1723834E+000  0.5386548E+03  0.7546771E-02  0.1004155E+00
         21   -1    0    0  503  501  0.00000000000E+00  0.00000000000E+00  0.65679008117E+03  0.65679008117E+03  0.00000000000E+00 0. -1.
         21   -1    0    0  504  502 -0.00000000000E+00 -0.00000000000E+00 -0.13132681542E+03  0.13132681542E+03  0.00000000000E+00 0. -1.
         25    1    1    2    0    0 -0.22848370724E+03  0.14699488540E+02  0.98423860897E+02  0.27880662803E+03  0.12500000000E+03 0.  0.
         21    1    1    2  503  502  0.20629614824E+03  0.16535711614E+02  0.42283549639E+03  0.47076680803E+03  0.00000000000E+00 0. -1.
         21    1    1    2  504  501  0.22187559003E+02 -0.31235200153E+02  0.42039084571E+01  0.38543460527E+02  0.00000000000E+00 0. -1.
<mgrwt>
<rscale>  4 0.53865482E+03</rscale>
<asrwt>0</asrwt>
<pdfrwt beam="1">  1       21 0.10104463E+00 0.53865482E+03</pdfrwt>
<pdfrwt beam="2">  1       21 0.20204126E-01 0.53865482E+03</pdfrwt>
<totfact> 0.15927050E+04</totfact>
</mgrwt>
</event>
<event>
 5    0  0.1723834E+000  0.3915782E+03  0.7546771E-02  0.1046735E+00
         21   -1    0    0  503  501  0.00000000000E+00  0.00000000000E+00  0.31502629625E+03  0.31502629625E+03  0.00000000000E+00 0. -1.
         21   -1    0    0  504  502 -0.00000000000E+00 -0.00000000000E+00 -0.41433853000E+03  0.41433853000E+03  0.00000000000E+00 0. -1.
         25    1    1    2    0    0  0.20217782350E+03 -0.28161112893E+02  0.84337385610E+02  0.25378478128E+03  0.12500000000E+03 0.  0.
         21    1    1    2  503  502 -0.56211717204E+02  0.62565256224E+01 -0.28884408288E+03  0.29432941660E+03  0.00000000000E+00 0. -1.
         21    1    1    2  504  501 -0.14596610630E+03  0.21904587270E+02  0.10519446352E+03  0.18125062837E+03  0.00000000000E+00 0. -1.
<mgrwt>
<rscale>  4 0.39157820E+03</rscale>
<asrwt>0</asrwt>
<pdfrwt beam="1">  1       21 0.48465584E-01 0.39157820E+03</pdfrwt>
<pdfrwt beam="2">  1       21 0.63744389E-01 0.39157820E+03</pdfrwt>
<totfact> 0.83758350E+03</totfact>
</mgrwt>
</event>
<event>
 5    0  0.1723834E+000  0.7019913E+03  0.7546771E-02  0.9713833E-01
         21   -1    0    0  503  501  0.00000000000E+00  0.00000000000E+00  0.72145801032E+03  0.72145801032E+03  0.00000000000E+00 0. -1.
         21   -1    0    0  504  502 -0.00000000000E+00 -0.00000000000E+00 -0.39730919343E+03  0.39730919343E+03  0.00000000000E+00 0.  1.
         25    1    1    2    0    0 -0.10538403352E+03 -0.23990893126E+03  0.54470040939E+03  0.61724033067E+03  0.12500000000E+03 0.  0.
         21    1    1    2  503  502  0.94352417176E+02  0.25783234284E+03  0.53902760387E+01  0.27460690217E+03  0.00000000000E+00 0.  1.
         21    1    1    2  504  501  0.11031616339E+02 -0.17923411580E+02 -0.22594186854E+03  0.22691997092E+03  0.00000000000E+00 0.  1.
<mgrwt>
<rscale>  4 0.70199126E+03</rscale>
<asrwt>0</asrwt>
<pdfrwt beam="1">  1       21 0.11099354E+00 0.70199126E+03</pdfrwt>
<pdfrwt beam="2">  1       21 0.61124491E-01 0.70199126E+03</pdfrwt>
<totfact> 0.12569695E+03</totfact>
</mgrwt>
</event>
<event>
 5    0  0.1723834E+000  0.5642007E+03  0.7546771E-02  0.9982594E-01
         21   -1    0    0  503  501  0.00000000000E+00  0.00000000000E+00  0.12267403076E+03  0.12267403076E+03  0.00000000000E+00 0. -1.
         21   -1    0    0  504  502 -0.00000000000E+00 -0.00000000000E+00 -0.24343359635E+04  0.24343359635E+04  0.00000000000E+00 0.  1.
         25    1    1    2    0    0 -0.13808864113E+03 -0.22250371997E+03 -0.10374084482E+03  0.30816155032E+03  0.12500000000E+03 0.  0.
         21    1    1    2  503  502  0.40419016773E+02  0.62328628736E+02 -0.17807242012E+04  0.17822730530E+04  0.00000000000E+00 0.  1.
         21    1    1    2  504  501  0.97669624360E+02  0.16017509123E+03 -0.42719688672E+03  0.46657539091E+03  0.00000000000E+00 0.  1.
<mgrwt>
<rscale>  4 0.56420072E+03</rscale>
<asrwt>0</asrwt>
<pdfrwt beam="1">  1       21 0.18872929E-01 0.56420072E+03</pdfrwt>
<pdfrwt beam="2">  1       21 0.37451320E+00 0.56420072E+03</pdfrwt>
<totfact> 0.23151702E+02</totfact>
</mgrwt>
</event>
<event>
 5    0  0.1723834E+000  0.4907191E+03  0.7546771E-02  0.1016230E+00
         21   -1    0    0  503  501  0.00000000000E+00  0.00000000000E+00  0.60820595597E+02  0.60820595597E+02  0.00000000000E+00 0.  1.
         21   -1    0    0  504  502 -0.00000000000E+00 -0.00000000000E+00 -0.11573041010E+04  0.11573041010E+04  0.00000000000E+00 0.  1.
         25    1    1    2    0    0 -0.62686794084E+02  0.23719454404E+03 -0.58690798358E+03  0.64828764223E+03  0.12500000000E+03 0.  0.
         21    1    1    2  503  502  0.76778934278E+02 -0.20119656662E+03 -0.44908939141E+03  0.49805255209E+03  0.00000000000E+00 0.  1.
         21    1    1    2  504  501 -0.14092140194E+02 -0.35997977425E+02 -0.60486130368E+02  0.71784502233E+02  0.00000000000E+00 0.  1.
<mgrwt>
<rscale>  4 0.49071915E+03</rscale>
<asrwt>0</asrwt>
<pdfrwt beam="1">  1       21 0.93570152E-02 0.49071915E+03</pdfrwt>
<pdfrwt beam="2">  1       21 0.17804678E+00 0.49071915E+03</pdfrwt>
<totfact> 0.14927024E+04</totfact>
</mgrwt>
</event>
<event>
 5    0  0.1723834E+000  0.4542020E+03  0.7546771E-02  0.1026476E+00
         21   -1    0    0  503  501  0.00000000000E+00  0.00000000000E+00  0.57804644661E+03  0.57804644661E+03  0.00000000000E+00 0.  1.
         21   -1    0    0  504  502 -0.00000000000E+00 -0.00000000000E+00 -0.10712173952E+04  0.10712173952E+04  0.00000000000E+00 0.  1.
         25    1    1    2    0    0  0.14310589549E+03  0.16415129704E+03  0.25230711882E+03  0.35596183483E+03  0.12500000000E+03 0.  0.
         21    1    1    2  503  502 -0.18595974121E+03  0.34056330815E+02 -0.97145336525E+03  0.98967797787E+03  0.00000000000E+00 0.  1.
         21    1    1    2  504  501  0.42853845722E+02 -0.19820762785E+03  0.22597529782E+03  0.30362402912E+03  0.00000000000E+00 0. -1.
<mgrwt>
<rscale>  4 0.45420198E+03</rscale>
<asrwt>0</asrwt>
<pdfrwt beam="1">  1       21 0.88930224E-01 0.45420198E+03</pdfrwt>
<pdfrwt beam="2">  1       21 0.16480267E+00 0.45420198E+03</pdfrwt>
<totfact> 0.20400692E+02</totfact>
</mgrwt>
</event>
<event>
 5    0  0.1723834E+000  0.4021378E+03  0.7546771E-02  0.1043042E+00
         21   -1    0    0  503  501  0.00000000000E+00  0.00000000000E+00  0.55661517841E+03  0.55661517841E+03  0.00000000000E+00 0. -1.
         21   -1    0    0  504  502 -0.00000000000E+00 -0.00000000000E+00 -0.24526887322E+03  0.24526887322E+03  0.00000000000E+00 0.  1.
         25    1    1    2    0    0 -0.92385646688E+02  0.21026089667E+03  0.38623790048E+03  0.46642198506E+03  0.12500000000E+03 0.  0.
         21    1    1    2  503  502  0.36076537392E+01 -0.12379062496E+03  0.72018337780E+02  0.14326121237E+03  0.00000000000E+00 0.  1.
         21    1    1    2  504  501  0.88777992949E+02 -0.86470271716E+02 -0.14690993306E+03  0.19220085420E+03  0.00000000000E+00 0.  1.
<mgrwt>
<rscale>  4 0.40213781E+03</rscale>
<asrwt>0</asrwt>
<pdfrwt beam="1">  1       21 0.85633104E-01 0.40213781E+03</pdfrwt>
<pdfrwt beam="2">  1       21 0.37733673E-01 0.40213781E+03</pdfrwt>
<totfact> 0.71772209E+03</totfact>
</mgrwt>
</event>
<event>
 5    0  0.1723834E+000  0.5303704E+03  0.7546771E-02  0.1006142E+00
         21   -1    0    0  503  501  0.00000000000E+00  0.00000000000E+00  0.18903747687E+03  0.18903747687E+03  0.00000000000E+00 0. -1.
         21   -1    0    0  504  502 -0.00000000000E+00 -0.00000000000E+00 -0.12498482778E+04  0.12498482778E+04  0.00000000000E+00 0.  1.
         25    1    1    2    0    0  0.28500868100E+03  0.16111328553E+03 -0.12608030311E+03  0.37243614466E+03  0.12500000000E+03 0.  0.
         21    1    1    2  503  502 -0.16722936859E+03  0.54938063748E+02 -0.11421480428E+03  0.20983058424E+03  0.00000000000E+00 0.  1.
         21    1    1    2  504  501 -0.11777931241E+03 -0.21605134928E+03 -0.82051569353E+03  0.85661902576E+03  0.00000000000E+00 0.  1.
<mgrwt>
<rscale>  4 0.53037044E+03</rscale>
<asrwt>0</asrwt>
<pdfrwt beam="1">  1       21 0.29082689E-01 0.53037044E+03</pdfrwt>
<pdfrwt beam="2">  1       21 0.19228435E+00 0.53037044E+03</pdfrwt>
<totfact> 0.13908305E+03</totfact>
</mgrwt>
</event>
<event>
 5    0  0.1723834E+000  0.9028102E+03  0.7546771E-02  0.9422075E-01
         21   -1    0    0  503  501  0.00000000000E+00  0.00000000000E+00  0.22619056603E+03  0.22619056603E+03  0.00000000000E+00 0.  1.
         21   -1    0    0  504  502 -0.00000000000E+00 -0.00000000000E+00 -0.97033508703E+03  0.97033508703E+03  0.00000000000E+00 0. -1.
         25    1    1    2    0    0 -0.98894252560E+02 -0.23389906469E+03 -0.82103114487E+03  0.86845033623E+03  0.12500000000E+03 0.  0.
         21    1    1    2  503  502  0.11224168108E+03  0.20907262194E+03  0.12806490588E+03  0.26964824556E+03  0.00000000000E+00 0.  1.
         21    1    1    2  504  501 -0.13347428519E+02  0.24826442747E+02 -0.51178282003E+02  0.58427071262E+02  0.00000000000E+00 0. -1.
<mgrwt>
<rscale>  4 0.90281015E+03</rscale>
<asrwt>0</asrwt>
<pdfrwt beam="1">  1       21 0.34798549E-01 0.90281015E+03</pdfrwt>
<pdfrwt beam="2">  1       21 0.14928232E+00 0.90281015E+03</pdfrwt>
<totfact> 0.18291708E+03</totfact>
</mgrwt>
</event>
