<event>
 5    0  0.1480317E+000  0.3199601E+03  0.7546771E-02  0.1075668E+00
         21   -1    0    0  504  501  0.00000000000E+00  0.00000000000E+00  0.10603762871E+03  0.10603762871E+03  0.00000000000E+00 0.  1.
         21   -1    0    0  501  502 -0.00000000000E+00 -0.00000000000E+00 -0.24387612835E+04  0.24387612835E+04  0.00000000000E+00 0. -1.
         25    1    1    2    0    0 -0.28417914104E+03  0.77405931497E+02 -0.21636227894E+04  0.21871529525E+04  0.12500000000E+03 0.  0.
         21    1    1    2  503  502  0.11525204050E+03  0.24528407749E+02 -0.64690728650E+02  0.13442308582E+03  0.00000000000E+00 0.  1.
         21    1    1    2  504  503  0.16892710054E+03 -0.10193433925E+03 -0.10441013673E+03  0.22322287398E+03  0.00000000000E+00 0.  1.
<mgrwt>
<rscale>  4 0.31996010E+03</rscale>
<asrwt>0</asrwt>
<pdfrwt beam="1">  1       21 0.16313481E-01 0.31996010E+03</pdfrwt>
<pdfrwt beam="2">  1       21 0.37519405E+00 0.31996010E+03</pdfrwt>
<totfact> 0.35587787E+02</totfact>
</mgrwt>
</event>
<event>
 5    0  0.1480317E+000  0.3027994E+03  0.7546771E-02  0.1083850E+00
         21   -1    0    0  504  501  0.00000000000E+00  0.00000000000E+00  0.18837357695E+03  0.18837357695E+03  0.00000000000E+00 0. -1.
         21   -1    0    0  501  502 -0.00000000000E+00 -0.00000000000E+00 -0.69300201790E+03  0.69300201790E+03  0.00000000000E+00 0. -1.
         25    1    1    2    0    0  0.34994544070E+02  0.27356507903E+03 -0.50496443572E+03  0.58879245233E+03  0.12500000000E+03 0.  0.
         21    1    1    2  503  502 -0.53600923611E+02 -0.23126101131E+03  0.27495334148E+02  0.23897846716E+03  0.00000000000E+00 0. -1.
         21    1    1    2  504  503  0.18606379541E+02 -0.42304067711E+02 -0.27159339381E+02  0.53604675358E+02  0.00000000000E+00 0. -1.
<mgrwt>
<rscale>  4 0.30279939E+03</rscale>
<asrwt>0</asrwt>
<pdfrwt beam="1">  1       21 0.28980550E-01 0.30279939E+03</pdfrwt>
<pdfrwt beam="2">  1       21 0.10661570E+00 0.30279939E+03</pdfrwt>
<totfact> 0.75100238E+03</totfact>
</mgrwt>
</event>
<event>
 5    0  0.1539411E+000  0.2484674E+03  0.7546771E-02  0.1114277E+00
         21   -1    0    0  504  501  0.00000000000E+00  0.00000000000E+00  0.21058577894E+03  0.21058577894E+03  0.00000000000E+00 0.  1.
         21   -1    0    0  501  502 -0.00000000000E+00 -0.00000000000E+00 -0.55039525453E+03  0.55039525453E+03  0.00000000000E+00 0.  1.
         25    1    1    2    0    0 -0.17142557134E+03  0.12932250686E+03  0.10106264079E+03  0.26823440244E+03  0.12500000000E+03 0.  0.
         21    1    1    2  503  502  0.25773823316E+02 -0.20286042491E+01 -0.66593809386E+02  0.71436269864E+02  0.00000000000E+00 0. -1.
         21    1    1    2  504  503  0.14565174802E+03 -0.12729390261E+03 -0.37427830700E+03  0.42131036117E+03  0.00000000000E+00 0.  1.
<mgrwt>
<rscale>  4 0.24846738E+03</rscale>
<asrwt>0</asrwt>
<pdfrwt beam="1">  1       21 0.32397812E-01 0.24846738E+03</pdfrwt>
<pdfrwt beam="2">  1       21 0.84676193E-01 0.24846738E+03</pdfrwt>
<totfact> 0.10701203E+04</totfact>
</mgrwt>
</event>
<event>
 5    0  0.1480317E+000  0.2673742E+03  0.7546771E-02  0.1102792E+00
         21   -1    0    0  504  501  0.00000000000E+00  0.00000000000E+00  0.71990574229E+03  0.71990574229E+03  0.00000000000E+00 0.  1.
         21   -1    0    0  501  502 -0.00000000000E+00 -0.00000000000E+00 -0.21181821187E+03  0.21181821187E+03  0.00000000000E+00 0.  1.
         25    1    1    2    0    0 -0.23517587519E+03  0.23585879066E+02 -0.92452797749E+02  0.28290723881E+03  0.12500000000E+03 0.  0.
         21    1    1    2  503  502  0.47565559874E+02  0.92724957455E+01  0.19259330389E+03  0.19859668267E+03  0.00000000000E+00 0. -1.
         21    1    1    2  504  503  0.18761031531E+03 -0.32858374811E+02  0.40794702428E+03  0.45022003268E+03  0.00000000000E+00 0.  1.
<mgrwt>
<rscale>  4 0.26737424E+03</rscale>
<asrwt>0</asrwt>
<pdfrwt beam="1">  1       21 0.11075473E+00 0.26737424E+03</pdfrwt>
<pdfrwt beam="2">  1       21 0.32587418E-01 0.26737424E+03</pdfrwt>
<totfact> 0.55316732E+03</totfact>
</mgrwt>
</event>
<event>
 5    0  0.1480317E+000  0.2466791E+03  0.7546771E-02  0.1115422E+00
         21   -1    0    0  504  501  0.00000000000E+00  0.00000000000E+00  0.62533668123E+03  0.62533668123E+03  0.00000000000E+00 0. -1.
         21   -1    0    0  501  502 -0.00000000000E+00 -0.00000000000E+00 -0.16945688749E+03  0.16945688749E+03  0.00000000000E+00 0. -1.
         25    1    1    2    0    0 -0.37803630441E+02  0.20927602316E+03 -0.33196146014E+02  0.24890269676E+03  0.12500000000E+03 0.  0.
         21    1    1    2  503  502  0.64913901546E+02 -0.77950705408E+02  0.14823904263E+03  0.17962444391E+03  0.00000000000E+00 0. -1.
         21    1    1    2  504  503 -0.27110271105E+02 -0.13132531775E+03  0.34083689712E+03  0.36626642806E+03  0.00000000000E+00 0. -1.
<mgrwt>
<rscale>  4 0.24667908E+03</rscale>
<asrwt>0</asrwt>
<pdfrwt beam="1">  1       21 0.96205642E-01 0.24667908E+03</pdfrwt>
<pdfrwt beam="2">  1       21 0.26070291E-01 0.24667908E+03</pdfrwt>
<totfact> 0.12158900E+04</totfact>
</mgrwt>
</event>
<event>
 5    0  0.1480317E+000  0.3313252E+03  0.7546771E-02  0.1070552E+00
         21   -1    0    0  504  501  0.00000000000E+00  0.00000000000E+00  0.88769389526E+03  0.88769389526E+03  0.00000000000E+00 0.  1.
         21   -1    0    0  501  502 -0.00000000000E+00 -0.00000000000E+00 -0.13021267708E+03  0.13021267708E+03  0.00000000000E+00 0.  1.
         25    1    1    2    0    0  0.18839126492E+03 -0.22814109209E+03  0.35016478100E+03  0.47516313036E+03  0.12500000000E+03 0.  0.
         21    1    1    2  503  502  0.15702702563E+02 -0.13418025693E+02 -0.67492428792E+01  0.21729485975E+02  0.00000000000E+00 0. -1.
         21    1    1    2  504  503 -0.20409396749E+03  0.24155911778E+03  0.41406568006E+03  0.52101395601E+03  0.00000000000E+00 0.  1.
<mgrwt>
<rscale>  4 0.33132524E+03</rscale>
<asrwt>0</asrwt>
<pdfrwt beam="1">  1       21 0.13656829E+00 0.33132524E+03</pdfrwt>
<pdfrwt beam="2">  1       21 0.20032720E-01 0.33132524E+03</pdfrwt>
<totfact> 0.80897167E+03</totfact>
</mgrwt>
</event>
<event>
 5    0  0.1480317E+000  0.4901762E+03  0.7546771E-02  0.1016796E+00
         21   -1    0    0  504  501  0.00000000000E+00  0.00000000000E+00  0.31599690719E+03  0.31599690719E+03  0.00000000000E+00 0. -1.
         21   -1    0    0  501  502 -0.00000000000E+00 -0.00000000000E+00 -0.95572852109E+03  0.95572852109E+03  0.00000000000E+00 0. -1.
         25    1    1    2    0    0 -0.43462869981E+03  0.17223518642E+03 -0.61275454218E+03  0.78080739949E+03  0.12500000000E+03 0.  0.
         21    1    1    2  503  502  0.26356539897E+02 -0.61036524657E+02  0.42724936471E+01  0.66621158347E+02  0.00000000000E+00 0. -1.
         21    1    1    2  504  503  0.40827215991E+03 -0.11119866177E+03 -0.31249565366E+02  0.42429687045E+03  0.00000000000E+00 0. -1.
<mgrwt>
<rscale>  4 0.48860816E+03</rscale>
<asrwt>0</asrwt>
<pdfrwt beam="1">  1       21 0.48614909E-01 0.49017624E+03</pdfrwt>
<pdfrwt beam="2">  1       21 0.14703516E+00 0.49017624E+03</pdfrwt>
<totfact> 0.10594555E+03</totfact>
</mgrwt>
</event>
<event>
 5    0  0.1480317E+000  0.2423591E+03  0.7546771E-02  0.1118231E+00
         21   -1    0    0  504  501  0.00000000000E+00  0.00000000000E+00  0.22205885360E+03  0.22205885360E+03  0.00000000000E+00 0. -1.
         21   -1    0    0  501  502 -0.00000000000E+00 -0.00000000000E+00 -0.72817733428E+03  0.72817733428E+03  0.00000000000E+00 0. -1.
         25    1    1    2    0    0  0.21459473207E+03 -0.30603530940E+02 -0.62726531825E+03  0.67533269920E+03  0.12500000000E+03 0.  0.
         21    1    1    2  503  502 -0.56169968648E+02  0.61363312965E+02  0.24193296946E+02  0.86636234758E+02  0.00000000000E+00 0. -1.
         21    1    1    2  504  503 -0.15842476342E+03 -0.30759782025E+02  0.96953540624E+02  0.18826725391E+03  0.00000000000E+00 0. -1.
<mgrwt>
<rscale>  4 0.24235905E+03</rscale>
<asrwt>0</asrwt>
<pdfrwt beam="1">  1       21 0.34162900E-01 0.24235905E+03</pdfrwt>
<pdfrwt beam="2">  1       21 0.11202728E+00 0.24235905E+03</pdfrwt>
<totfact> 0.49736678E+03</totfact>
</mgrwt>
</event>
<event>
 5    0  0.1480317E+000  0.2442979E+03  0.7546771E-02  0.1116962E+00
         21   -1    0    0  504  501  0.00000000000E+00  0.00000000000E+00  0.45025859785E+03  0.45025859785E+03  0.00000000000E+00 0. -1.
         21   -1    0    0  501  502 -0.00000000000E+00 -0.00000000000E+00 -0.20932180225E+03  0.20932180225E+03  0.00000000000E+00 0. -1.
         25    1    1    2    0    0  0.22360970550E+03  0.10487349799E+03 -0.29000054353E+02  0.27832670394E+03  0.12500000000E+03 0.  0.
         21    1    1    2  503  502 -0.33252171439E+02 -0.37875340847E+02  0.86963581228E+01  0.51145625368E+02  0.00000000000E+00 0. -1.
         21    1    1    2  504  503 -0.19035753406E+03 -0.66998157143E+02  0.26124049182E+03  0.33010807079E+03  0.00000000000E+00 0. -1.
<mgrwt>
<rscale>  4 0.24429791E+03</rscale>
<asrwt>0</asrwt>
<pdfrwt beam="1">  1       21 0.69270553E-01 0.24429791E+03</pdfrwt>
<pdfrwt beam="2">  1       21 0.32203354E-01 0.24429791E+03</pdfrwt>
<totfact> 0.17076126E+04</totfact>
</mgrwt>
</event>
<event>
 5    0  0.1480317E+000  0.2614043E+03  0.7546771E-02  0.1106302E+00
         21   -1    0    0  504  501  0.00000000000E+00  0.00000000000E+00  0.31977313289E+03  0.31977313289E+03  0.00000000000E+00 0. -1.
         21   -1    0    0  501  502 -0.00000000000E+00 -0.00000000000E+00 -0.20116753195E+03  0.20116753195E+03  0.00000000000E+00 0. -1.
         25    1    1    2    0    0 -0.19310972260E+03 -0.12416045230E+03  0.60083454116E+02  0.26822043982E+03  0.12500000000E+03 0.  0.
         21    1    1    2  503  502  0.13412130575E+03  0.59094329826E+02 -0.11039815883E+01  0.14656699236E+03  0.00000000000E+00 0. -1.
         21    1    1    2  504  503  0.58988416845E+02  0.65066122478E+02  0.59626128416E+02  0.10615323267E+03  0.00000000000E+00 0. -1.
<mgrwt>
<rscale>  4 0.26140425E+03</rscale>
<asrwt>0</asrwt>
<pdfrwt beam="1">  1       21 0.49195866E-01 0.26140425E+03</pdfrwt>
<pdfrwt beam="2">  1       21 0.30948851E-01 0.26140425E+03</pdfrwt>
<totfact> 0.38284503E+04</totfact>
</mgrwt>
</event>
<event>
 5    0  0.1480317E+000  0.2217864E+03  0.7546771E-02  0.1132558E+00
         21   -1    0    0  504  501  0.00000000000E+00  0.00000000000E+00  0.51742744340E+02  0.51742744340E+02  0.00000000000E+00 0.  1.
         21   -1    0    0  501  502 -0.00000000000E+00 -0.00000000000E+00 -0.12797742832E+04  0.12797742832E+04  0.00000000000E+00 0.  1.
         25    1    1    2    0    0  0.30854319068E+02 -0.20814861745E+03 -0.41394366826E+03  0.48088688529E+03  0.12500000000E+03 0.  0.
         21    1    1    2  503  502 -0.60935653046E+02  0.14864246847E+03 -0.39742322818E+03  0.42866415705E+03  0.00000000000E+00 0.  1.
         21    1    1    2  504  503  0.30081333978E+02  0.59506148977E+02 -0.41666464246E+03  0.42196598523E+03  0.00000000000E+00 0.  1.
<mgrwt>
<rscale>  4 0.22178637E+03</rscale>
<asrwt>0</asrwt>
<pdfrwt beam="1">  1       21 0.79604229E-02 0.22178637E+03</pdfrwt>
<pdfrwt beam="2">  1       21 0.19688833E+00 0.22178637E+03</pdfrwt>
<totfact> 0.16655112E+04</totfact>
</mgrwt>
</event>
<event>
 5    0  0.1480317E+000  0.2745686E+03  0.7546771E-02  0.1098693E+00
         21   -1    0    0  504  501  0.00000000000E+00  0.00000000000E+00  0.74490641392E+03  0.74490641392E+03  0.00000000000E+00 0.  1.
         21   -1    0    0  501  502 -0.00000000000E+00 -0.00000000000E+00 -0.13635324026E+03  0.13635324026E+03  0.00000000000E+00 0. -1.
         25    1    1    2    0    0 -0.21286047377E+03 -0.12022205749E+03  0.62791826931E+02  0.28165712831E+03  0.12500000000E+03 0.  0.
         21    1    1    2  503  502  0.19174167123E+03  0.12089561408E+03  0.48730591010E+03  0.53744550236E+03  0.00000000000E+00 0.  1.
         21    1    1    2  504  503  0.21118802542E+02 -0.67355658402E+00  0.58455436635E+02  0.62157023509E+02  0.00000000000E+00 0.  1.
<mgrwt>
<rscale>  4 0.27456862E+03</rscale>
<asrwt>0</asrwt>
<pdfrwt beam="1">  1       21 0.11460098E+00 0.27456862E+03</pdfrwt>
<pdfrwt beam="2">  1       21 0.20977422E-01 0.27456862E+03</pdfrwt>
<totfact> 0.11884422E+04</totfact>
</mgrwt>
</event>
<event>
 5    0  0.1480317E+000  0.2532750E+03  0.7546771E-02  0.1111252E+00
         21   -1    0    0  504  501  0.00000000000E+00  0.00000000000E+00  0.50517324012E+03  0.50517324012E+03  0.00000000000E+00 0.  1.
         21   -1    0    0  501  502 -0.00000000000E+00 -0.00000000000E+00 -0.13907227121E+03  0.13907227121E+03  0.00000000000E+00 0.  1.
         25    1    1    2    0    0 -0.12702648517E+03  0.18505980838E+03  0.88903617207E+02  0.27186708842E+03  0.12500000000E+03 0.  0.
         21    1    1    2  503  502  0.25850779319E+02  0.91146497758E+01  0.16746825454E+02  0.32121578335E+02  0.00000000000E+00 0. -1.
         21    1    1    2  504  503  0.10117570586E+03 -0.19417445815E+03  0.26045052625E+03  0.34025684457E+03  0.00000000000E+00 0.  1.
<mgrwt>
<rscale>  4 0.25327497E+03</rscale>
<asrwt>0</asrwt>
<pdfrwt beam="1">  1       21 0.77718959E-01 0.25327497E+03</pdfrwt>
<pdfrwt beam="2">  1       21 0.21395734E-01 0.25327497E+03</pdfrwt>
<totfact> 0.28956070E+04</totfact>
</mgrwt>
</event>
<event>
 5    0  0.1480317E+000  0.2445604E+03  0.7546771E-02  0.1116792E+00
         21   -1    0    0  504  501  0.00000000000E+00  0.00000000000E+00  0.47050786545E+03  0.47050786545E+03  0.00000000000E+00 0.  1.
         21   -1    0    0  501  502 -0.00000000000E+00 -0.00000000000E+00 -0.11995760051E+03  0.11995760051E+03  0.00000000000E+00 0.  1.
         25    1    1    2    0    0  0.20106831727E+03 -0.61288829288E+02  0.11190603270E+03  0.26894748365E+03  0.12500000000E+03 0.  0.
         21    1    1    2  503  502 -0.16700084474E+03  0.31044821240E+02  0.18555434107E+03  0.25156207297E+03  0.00000000000E+00 0.  1.
         21    1    1    2  504  503 -0.34067472537E+02  0.30244008048E+02  0.53089891168E+02  0.69955909343E+02  0.00000000000E+00 0.  1.
<mgrwt>
<rscale>  4 0.24456040E+03</rscale>
<asrwt>0</asrwt>
<pdfrwt beam="1">  1       21 0.72385824E-01 0.24456040E+03</pdfrwt>
<pdfrwt beam="2">  1       21 0.18455016E-01 0.24456040E+03</pdfrwt>
<totfact> 0.45016423E+04</totfact>
</mgrwt>
</event>
<event>
 5    0  0.1480317E+000  0.3323038E+03  0.7546771E-02  0.1070122E+00
         21   -1    0    0  504  501  0.00000000000E+00  0.00000000000E+00  0.28834981971E+04  0.28834981971E+04  0.00000000000E+00 0. -1.
         21   -1    0    0  501  502 -0.00000000000E+00 -0.00000000000E+00 -0.58506817345E+02  0.58506817345E+02  0.00000000000E+00 0. -1.
         25    1    1    2    0    0 -0.26623273953E+03  0.16790845044E+03  0.56730756437E+03  0.66070870429E+03  0.12500000000E+03 0.  0.
         21    1    1    2  503  502  0.19568697488E+02 -0.19962845656E+02  0.45046853510E+03  0.45133507536E+03  0.00000000000E+00 0. -1.
         21    1    1    2  504  503  0.24666404204E+03 -0.14794560478E+03  0.18072152803E+04  0.18299612348E+04  0.00000000000E+00 0. -1.
<mgrwt>
<rscale>  4 0.33230375E+03</rscale>
<asrwt>0</asrwt>
<pdfrwt beam="1">  1       21 0.44361500E+00 0.33230375E+03</pdfrwt>
<pdfrwt beam="2">  1       21 0.90010511E-02 0.33230375E+03</pdfrwt>
<totfact> 0.37604137E+02</totfact>
</mgrwt>
</event>
<event>
 5    0  0.1480317E+000  0.2465183E+03  0.7546771E-02  0.1115525E+00
         21   -1    0    0  504  501  0.00000000000E+00  0.00000000000E+00  0.51783545520E+03  0.51783545520E+03  0.00000000000E+00 0. -1.
         21   -1    0    0  501  502 -0.00000000000E+00 -0.00000000000E+00 -0.10325768418E+03  0.10325768418E+03  0.00000000000E+00 0. -1.
         25    1    1    2    0    0  0.21244183750E+03 -0.38387657804E+01  0.22032667064E+03  0.33062835970E+03  0.12500000000E+03 0.  0.
         21    1    1    2  503  502 -0.31231046013E+02  0.20149061988E+01  0.12191842621E+02  0.33586888938E+02  0.00000000000E+00 0. -1.
         21    1    1    2  504  503 -0.18121079149E+03  0.18238595816E+01  0.18205925776E+03  0.25687789074E+03  0.00000000000E+00 0. -1.
<mgrwt>
<rscale>  4 0.24651830E+03</rscale>
<asrwt>0</asrwt>
<pdfrwt beam="1">  1       21 0.79666992E-01 0.24651830E+03</pdfrwt>
<pdfrwt beam="2">  1       21 0.15885798E-01 0.24651830E+03</pdfrwt>
<totfact> 0.47840333E+04</totfact>
</mgrwt>
</event>
<event>
 5    0  0.1480317E+000  0.2713536E+03  0.7546771E-02  0.1100507E+00
         21   -1    0    0  504  501  0.00000000000E+00  0.00000000000E+00  0.17225232352E+03  0.17225232352E+03  0.00000000000E+00 0. -1.
         21   -1    0    0  501  502 -0.00000000000E+00 -0.00000000000E+00 -0.70733718656E+03  0.70733718656E+03  0.00000000000E+00 0.  1.
         25    1    1    2    0    0 -0.80656040591E+02 -0.25900121694E+03 -0.49021693643E+03  0.57404239567E+03  0.12500000000E+03 0.  0.
         21    1    1    2  503  502  0.55988461876E+02  0.22782046598E+03  0.13428789520E+02  0.23498341425E+03  0.00000000000E+00 0. -1.
         21    1    1    2  504  503  0.24667578715E+02  0.31180750958E+02 -0.58296716130E+02  0.70563700169E+02  0.00000000000E+00 0.  1.
<mgrwt>
<rscale>  4 0.27135356E+03</rscale>
<asrwt>0</asrwt>
<pdfrwt beam="1">  1       21 0.26500357E-01 0.27135356E+03</pdfrwt>
<pdfrwt beam="2">  1       21 0.10882111E+00 0.27135356E+03</pdfrwt>
<totfact> 0.86415329E+03</totfact>
</mgrwt>
</event>
<event>
 5    0  0.1480317E+000  0.2160567E+03  0.7546771E-02  0.1136858E+00
         21   -1    0    0  504  501  0.00000000000E+00  0.00000000000E+00  0.81171835444E+03  0.81171835444E+03  0.00000000000E+00 0.  1.
         21   -1    0    0  501  502 -0.00000000000E+00 -0.00000000000E+00 -0.39622154204E+03  0.39622154204E+03  0.00000000000E+00 0.  1.
         25    1    1    2    0    0 -0.20647560059E+03 -0.37991551104E+02 -0.32688798036E+03  0.40811307661E+03  0.12500000000E+03 0.  0.
         21    1    1    2  503  502  0.41779304474E+02 -0.22211411919E+02  0.12176092958E+02  0.48858104154E+02  0.00000000000E+00 0. -1.
         21    1    1    2  504  503  0.16469629612E+03  0.60202963023E+02  0.73020869981E+03  0.75096871572E+03  0.00000000000E+00 0.  1.
<mgrwt>
<rscale>  4 0.21605674E+03</rscale>
<asrwt>0</asrwt>
<pdfrwt beam="1">  1       21 0.12487975E+00 0.21605674E+03</pdfrwt>
<pdfrwt beam="2">  1       21 0.60957161E-01 0.21605674E+03</pdfrwt>
<totfact> 0.11708536E+03</totfact>
</mgrwt>
</event>
<event>
 5    0  0.1480317E+000  0.2595448E+03  0.7546771E-02  0.1107417E+00
         21   -1    0    0  504  501  0.00000000000E+00  0.00000000000E+00  0.37045299717E+03  0.37045299717E+03  0.00000000000E+00 0. -1.
         21   -1    0    0  501  502 -0.00000000000E+00 -0.00000000000E+00 -0.57644242164E+03  0.57644242164E+03  0.00000000000E+00 0. -1.
         25    1    1    2    0    0 -0.21032199448E+03  0.57868260649E+02 -0.40769344565E+03  0.47898123406E+03  0.12500000000E+03 0.  0.
         21    1    1    2  503  502  0.27888486121E+03  0.64280300221E+01  0.41300366149E+02  0.28199965537E+03  0.00000000000E+00 0. -1.
         21    1    1    2  504  503 -0.68562866730E+02 -0.64296290671E+02  0.16040365503E+03  0.18591452938E+03  0.00000000000E+00 0.  1.
<mgrwt>
<rscale>  4 0.25954478E+03</rscale>
<asrwt>0</asrwt>
<pdfrwt beam="1">  1       21 0.56992768E-01 0.25954478E+03</pdfrwt>
<pdfrwt beam="2">  1       21 0.88683450E-01 0.25954478E+03</pdfrwt>
<totfact> 0.29901994E+03</totfact>
</mgrwt>
</event>
<event>
 5    0  0.1480317E+000  0.2622516E+03  0.7546771E-02  0.1105798E+00
         21   -1    0    0  504  501  0.00000000000E+00  0.00000000000E+00  0.87573563430E+02  0.87573563430E+02  0.00000000000E+00 0. -1.
         21   -1    0    0  501  502 -0.00000000000E+00 -0.00000000000E+00 -0.72579211910E+03  0.72579211910E+03  0.00000000000E+00 0. -1.
         25    1    1    2    0    0  0.93136411182E+02  0.21089449753E+03 -0.26593625767E+03  0.37349427482E+03  0.12500000000E+03 0.  0.
         21    1    1    2  503  502 -0.95049865485E+02 -0.18328349822E+03 -0.33319420437E+03  0.39197665170E+03  0.00000000000E+00 0. -1.
         21    1    1    2  504  503  0.19134543030E+01 -0.27610999309E+02 -0.39088093627E+02  0.47894756014E+02  0.00000000000E+00 0.  1.
<mgrwt>
<rscale>  4 0.26225156E+03</rscale>
<asrwt>0</asrwt>
<pdfrwt beam="1">  1       21 0.13472856E-01 0.26225156E+03</pdfrwt>
<pdfrwt beam="2">  1       21 0.11166033E+00 0.26225156E+03</pdfrwt>
<totfact> 0.28949879E+04</totfact>
</mgrwt>
</event>
<event>
 5    0  0.1480317E+000  0.5120768E+03  0.7546771E-02  0.1011840E+00
         21   -1    0    0  504  501  0.00000000000E+00  0.00000000000E+00  0.45009022817E+03  0.45009022817E+03  0.00000000000E+00 0. -1.
         21   -1    0    0  501  502 -0.00000000000E+00 -0.00000000000E+00 -0.59712120473E+03  0.59712120473E+03  0.00000000000E+00 0. -1.
         25    1    1    2    0    0  0.72402220867E+02  0.47241302050E+03 -0.19883898124E+03  0.53252050100E+03  0.12500000000E+03 0.  0.
         21    1    1    2  503  502 -0.10987264898E+03 -0.17353279533E+03  0.57944585154E+02  0.21340854012E+03  0.00000000000E+00 0. -1.
         21    1    1    2  504  503  0.37470428110E+02 -0.29888022517E+03 -0.61365804812E+01  0.30128239178E+03  0.00000000000E+00 0. -1.
<mgrwt>
<rscale>  4 0.50749788E+03</rscale>
<asrwt>0</asrwt>
<pdfrwt beam="1">  1       21 0.69244650E-01 0.51207684E+03</pdfrwt>
<pdfrwt beam="2">  1       21 0.91864801E-01 0.51207684E+03</pdfrwt>
<totfact> 0.15976007E+03</totfact>
</mgrwt>
</event>
<event>
 5    0  0.1480317E+000  0.2588754E+03  0.7546771E-02  0.1107821E+00
         21   -1    0    0  504  501  0.00000000000E+00  0.00000000000E+00  0.45150936637E+03  0.45150936637E+03  0.00000000000E+00 0.  1.
         21   -1    0    0  501  502 -0.00000000000E+00 -0.00000000000E+00 -0.72609014698E+03  0.72609014698E+03  0.00000000000E+00 0.  1.
         25    1    1    2    0    0  0.19350805127E+03 -0.13123770363E+03 -0.62403440944E+03  0.67802112425E+03  0.12500000000E+03 0.  0.
         21    1    1    2  503  502 -0.91518995871E+02  0.91392307680E+02  0.36660117870E+03  0.38874761058E+03  0.00000000000E+00 0.  1.
         21    1    1    2  504  503 -0.10198905540E+03  0.39845395951E+02 -0.17147549869E+02  0.11083077852E+03  0.00000000000E+00 0.  1.
<mgrwt>
<rscale>  4 0.25887541E+03</rscale>
<asrwt>0</asrwt>
<pdfrwt beam="1">  1       21 0.69462981E-01 0.25887541E+03</pdfrwt>
<pdfrwt beam="2">  1       21 0.11170617E+00 0.25887541E+03</pdfrwt>
<totfact> 0.11192706E+03</totfact>
</mgrwt>
</event>
<event>
 5    0  0.1480317E+000  0.2541546E+03  0.7546771E-02  0.1110707E+00
         21   -1    0    0  504  501  0.00000000000E+00  0.00000000000E+00  0.89983006431E+03  0.89983006431E+03  0.00000000000E+00 0.  1.
         21   -1    0    0  501  502 -0.00000000000E+00 -0.00000000000E+00 -0.14665597977E+03  0.14665597977E+03  0.00000000000E+00 0.  1.
         25    1    1    2    0    0  0.16098860892E+03 -0.15182967001E+03 -0.62505660631E+01  0.25423148993E+03  0.12500000000E+03 0.  0.
         21    1    1    2  503  502 -0.88395866839E+02  0.11231621955E+03  0.46846794198E+03  0.48978666286E+03  0.00000000000E+00 0.  1.
         21    1    1    2  504  503 -0.72592742080E+02  0.39513450466E+02  0.29095670862E+03  0.30246789129E+03  0.00000000000E+00 0.  1.
<mgrwt>
<rscale>  4 0.25415464E+03</rscale>
<asrwt>0</asrwt>
<pdfrwt beam="1">  1       21 0.13843539E+00 0.25415464E+03</pdfrwt>
<pdfrwt beam="2">  1       21 0.22562459E-01 0.25415464E+03</pdfrwt>
<totfact> 0.64902131E+03</totfact>
</mgrwt>
</event>
<event>
 5    0  0.1480317E+000  0.2900813E+03  0.7546771E-02  0.1090307E+00
         21   -1    0    0  504  501  0.00000000000E+00  0.00000000000E+00  0.87845412724E+03  0.87845412724E+03  0.00000000000E+00 0.  1.
         21   -1    0    0  501  502 -0.00000000000E+00 -0.00000000000E+00 -0.88846163521E+02  0.88846163521E+02  0.00000000000E+00 0.  1.
         25    1    1    2    0    0  0.62923117072E+02 -0.25409223007E+03  0.36961097781E+03  0.46985046021E+03  0.12500000000E+03 0.  0.
         21    1    1    2  503  502  0.84836340185E+01  0.18858333543E+02  0.29912603243E+02  0.36364441739E+02  0.00000000000E+00 0.  1.
         21    1    1    2  504  503 -0.71406751091E+02  0.23523389652E+03  0.39008438266E+03  0.46108538881E+03  0.00000000000E+00 0.  1.
<mgrwt>
<rscale>  4 0.29008133E+03</rscale>
<asrwt>0</asrwt>
<pdfrwt beam="1">  1       21 0.13514678E+00 0.29008133E+03</pdfrwt>
<pdfrwt beam="2">  1       21 0.13668641E-01 0.29008133E+03</pdfrwt>
<totfact> 0.17221294E+04</totfact>
</mgrwt>
</event>
<event>
 5    0  0.1480317E+000  0.2835855E+03  0.7546771E-02  0.1093747E+00
         21   -1    0    0  504  501  0.00000000000E+00  0.00000000000E+00  0.31073828423E+04  0.31073828423E+04  0.00000000000E+00 0.  1.
         21   -1    0    0  501  502 -0.00000000000E+00 -0.00000000000E+00 -0.32364892342E+02  0.32364892342E+02  0.00000000000E+00 0.  1.
         25    1    1    2    0    0  0.24156551203E+03  0.10057827084E+03  0.92249586810E+03  0.96700233290E+03  0.12500000000E+03 0.  0.
         21    1    1    2  503  502 -0.20354560082E+03 -0.13291956442E+03  0.18844553517E+04  0.19000711552E+04  0.00000000000E+00 0.  1.
         21    1    1    2  504  503 -0.38019911212E+02  0.32341293584E+02  0.26806673010E+03  0.27267424650E+03  0.00000000000E+00 0. -1.
<mgrwt>
<rscale>  4 0.28358547E+03</rscale>
<asrwt>0</asrwt>
<pdfrwt beam="1">  1       21 0.47805866E+00 0.28358547E+03</pdfrwt>
<pdfrwt beam="2">  1       21 0.49792167E-02 0.28358547E+03</pdfrwt>
<totfact> 0.64539226E+02</totfact>
</mgrwt>
</event>
<event>
 5    0  0.1480317E+000  0.2601480E+03  0.7546771E-02  0.1107054E+00
         21   -1    0    0  504  501  0.00000000000E+00  0.00000000000E+00  0.59082008097E+03  0.59082008097E+03  0.00000000000E+00 0. -1.
         21   -1    0    0  501  502 -0.00000000000E+00 -0.00000000000E+00 -0.11682778193E+03  0.11682778193E+03  0.00000000000E+00 0. -1.
         25    1    1    2    0    0  0.12081976857E+03 -0.19353178012E+03  0.13088815311E+03  0.29121929026E+03  0.12500000000E+03 0.  0.
         21    1    1    2  503  502 -0.10961620913E+03  0.15668285555E+03  0.31593024425E+03  0.36929276971E+03  0.00000000000E+00 0. -1.
         21    1    1    2  504  503 -0.11203559441E+02  0.36848924564E+02  0.27173901686E+02  0.47135802937E+02  0.00000000000E+00 0. -1.
<mgrwt>
<rscale>  4 0.26014797E+03</rscale>
<asrwt>0</asrwt>
<pdfrwt beam="1">  1       21 0.90895395E-01 0.26014797E+03</pdfrwt>
<pdfrwt beam="2">  1       21 0.17973505E-01 0.26014797E+03</pdfrwt>
<totfact> 0.27924510E+04</totfact>
</mgrwt>
</event>
<event>
 5    0  0.1480317E+000  0.1998777E+03  0.7546771E-02  0.1149842E+00
         21   -1    0    0  504  501  0.00000000000E+00  0.00000000000E+00  0.98123815166E+02  0.98123815166E+02  0.00000000000E+00 0.  1.
         21   -1    0    0  501  502 -0.00000000000E+00 -0.00000000000E+00 -0.91334274785E+03  0.91334274785E+03  0.00000000000E+00 0.  1.
         25    1    1    2    0    0 -0.22135171790E+03  0.12646891707E+03 -0.30097388760E+03  0.41376472907E+03  0.12500000000E+03 0.  0.
         21    1    1    2  503  502  0.13035154056E+03 -0.43800068367E+02 -0.42245433436E+03  0.44427202785E+03  0.00000000000E+00 0.  1.
         21    1    1    2  504  503  0.91000177344E+02 -0.82668848708E+02 -0.91790710729E+02  0.15342980610E+03  0.00000000000E+00 0.  1.
<mgrwt>
<rscale>  4 0.19987766E+03</rscale>
<asrwt>0</asrwt>
<pdfrwt beam="1">  1       21 0.15095972E-01 0.19987766E+03</pdfrwt>
<pdfrwt beam="2">  1       21 0.14051427E+00 0.19987766E+03</pdfrwt>
<totfact> 0.13673868E+04</totfact>
</mgrwt>
</event>
<event>
 5    0  0.1480317E+000  0.2630196E+03  0.7546771E-02  0.1105342E+00
         21   -1    0    0  504  501  0.00000000000E+00  0.00000000000E+00  0.74003747508E+03  0.74003747508E+03  0.00000000000E+00 0.  1.
         21   -1    0    0  501  502 -0.00000000000E+00 -0.00000000000E+00 -0.22062028216E+03  0.22062028216E+03  0.00000000000E+00 0.  1.
         25    1    1    2    0    0 -0.19156105445E+03 -0.13447902371E+03 -0.10460910460E+03  0.28521625159E+03  0.12500000000E+03 0.  0.
         21    1    1    2  503  502  0.15538210399E+03  0.15206308730E+03  0.54506882392E+03  0.58682774608E+03  0.00000000000E+00 0.  1.
         21    1    1    2  504  503  0.36178950462E+02 -0.17584063583E+02  0.78957473601E+02  0.88613759575E+02  0.00000000000E+00 0.  1.
<mgrwt>
<rscale>  4 0.26301964E+03</rscale>
<asrwt>0</asrwt>
<pdfrwt beam="1">  1       21 0.11385192E+00 0.26301964E+03</pdfrwt>
<pdfrwt beam="2">  1       21 0.33941582E-01 0.26301964E+03</pdfrwt>
<totfact> 0.47803466E+03</totfact>
</mgrwt>
</event>
<event>
 5    0  0.1480317E+000  0.2445386E+03  0.7546771E-02  0.1116806E+00
         21   -1    0    0  504  501  0.00000000000E+00  0.00000000000E+00  0.24515076422E+04  0.24515076422E+04  0.00000000000E+00 0. -1.
         21   -1    0    0  501  502 -0.00000000000E+00 -0.00000000000E+00 -0.56539135703E+02  0.56539135703E+02  0.00000000000E+00 0. -1.
         25    1    1    2    0    0 -0.18493313670E+03 -0.99869239928E+02  0.24189797294E+03  0.34396767210E+03  0.12500000000E+03 0.  0.
         21    1    1    2  503  502  0.16480791457E+03  0.96690764893E+02  0.20579112641E+04  0.20667630545E+04  0.00000000000E+00 0. -1.
         21    1    1    2  504  503  0.20125222133E+02  0.31784750348E+01  0.95159269464E+02  0.97316051267E+02  0.00000000000E+00 0.  1.
<mgrwt>
<rscale>  4 0.24453861E+03</rscale>
<asrwt>0</asrwt>
<pdfrwt beam="1">  1       21 0.37715494E+00 0.24453861E+03</pdfrwt>
<pdfrwt beam="2">  1       21 0.86983305E-02 0.24453861E+03</pdfrwt>
<totfact> 0.11649498E+03</totfact>
</mgrwt>
</event>
<event>
 5    0  0.1480317E+000  0.2445445E+03  0.7546771E-02  0.1116802E+00
         21   -1    0    0  504  501  0.00000000000E+00  0.00000000000E+00  0.19507702909E+04  0.19507702909E+04  0.00000000000E+00 0. -1.
         21   -1    0    0  501  502 -0.00000000000E+00 -0.00000000000E+00 -0.26191389864E+03  0.26191389864E+03  0.00000000000E+00 0. -1.
         25    1    1    2    0    0  0.10265723173E+03  0.17797571723E+03 -0.16100931093E+03  0.28941814276E+03  0.12500000000E+03 0.  0.
         21    1    1    2  503  502  0.12691413767E+03  0.68721447664E+02  0.25337701894E+03  0.29159861014E+03  0.00000000000E+00 0. -1.
         21    1    1    2  504  503 -0.22957136940E+03 -0.24669716489E+03  0.15964886842E+04  0.16316674366E+04  0.00000000000E+00 0. -1.
<mgrwt>
<rscale>  4 0.24454447E+03</rscale>
<asrwt>0</asrwt>
<pdfrwt beam="1">  1       21 0.30011850E+00 0.24454447E+03</pdfrwt>
<pdfrwt beam="2">  1       21 0.40294447E-01 0.24454447E+03</pdfrwt>
<totfact> 0.18822777E+02</totfact>
</mgrwt>
</event>
<event>
 5    0  0.1480317E+000  0.2574081E+03  0.7546771E-02  0.1108711E+00
         21   -1    0    0  504  501  0.00000000000E+00  0.00000000000E+00  0.24197302762E+03  0.24197302762E+03  0.00000000000E+00 0. -1.
         21   -1    0    0  501  502 -0.00000000000E+00 -0.00000000000E+00 -0.50790752301E+03  0.50790752301E+03  0.00000000000E+00 0. -1.
         25    1    1    2    0    0  0.21735103085E+03  0.10584390929E+03 -0.37153755028E+03  0.46055353111E+03  0.12500000000E+03 0.  0.
         21    1    1    2  503  502 -0.19111708671E+03 -0.11397316090E+03  0.12544492075E+03  0.25544480887E+03  0.00000000000E+00 0. -1.
         21    1    1    2  504  503 -0.26233944145E+02  0.81292516095E+01 -0.19841865867E+02  0.33882210645E+02  0.00000000000E+00 0. -1.
<mgrwt>
<rscale>  4 0.25740814E+03</rscale>
<asrwt>0</asrwt>
<pdfrwt beam="1">  1       21 0.37226620E-01 0.25740814E+03</pdfrwt>
<pdfrwt beam="2">  1       21 0.78139619E-01 0.25740814E+03</pdfrwt>
<totfact> 0.96958623E+03</totfact>
</mgrwt>
</event>
<event>
 5    0  0.1480317E+000  0.2388126E+03  0.7546771E-02  0.1120586E+00
         21   -1    0    0  504  501  0.00000000000E+00  0.00000000000E+00  0.20156417808E+03  0.20156417808E+03  0.00000000000E+00 0. -1.
         21   -1    0    0  501  502 -0.00000000000E+00 -0.00000000000E+00 -0.25482359751E+03  0.25482359751E+03  0.00000000000E+00 0. -1.
         25    1    1    2    0    0  0.52843241839E+02  0.19650460469E+03  0.64695486368E+01  0.23890023636E+03  0.12500000000E+03 0.  0.
         21    1    1    2  503  502 -0.80234048857E+01 -0.36122685389E+02 -0.31479312665E+02  0.48581586548E+02  0.00000000000E+00 0. -1.
         21    1    1    2  504  503 -0.44819836953E+02 -0.16038191930E+03 -0.28249655395E+02  0.16890595268E+03  0.00000000000E+00 0. -1.
<mgrwt>
<rscale>  4 0.23881262E+03</rscale>
<asrwt>0</asrwt>
<pdfrwt beam="1">  1       21 0.31009873E-01 0.23881262E+03</pdfrwt>
<pdfrwt beam="2">  1       21 0.39203630E-01 0.23881262E+03</pdfrwt>
<totfact> 0.61425738E+04</totfact>
</mgrwt>
</event>
<event>
 5    0  0.1480317E+000  0.2736141E+03  0.7546771E-02  0.1099229E+00
         21   -1    0    0  504  501  0.00000000000E+00  0.00000000000E+00  0.38934724587E+03  0.38934724587E+03  0.00000000000E+00 0. -1.
         21   -1    0    0  501  502 -0.00000000000E+00 -0.00000000000E+00 -0.18524215264E+03  0.18524215264E+03  0.00000000000E+00 0. -1.
         25    1    1    2    0    0 -0.22680807879E+03  0.88305134332E+02  0.11040875748E+03  0.29505049582E+03  0.12500000000E+03 0.  0.
         21    1    1    2  503  502  0.15021746786E+03 -0.31292928597E+02  0.10112752326E+03  0.18376972273E+03  0.00000000000E+00 0. -1.
         21    1    1    2  504  503  0.76590610927E+02 -0.57012205736E+02 -0.74311875141E+01  0.95769179974E+02  0.00000000000E+00 0. -1.
<mgrwt>
<rscale>  4 0.27361415E+03</rscale>
<asrwt>0</asrwt>
<pdfrwt beam="1">  1       21 0.59899576E-01 0.27361415E+03</pdfrwt>
<pdfrwt beam="2">  1       21 0.28498793E-01 0.27361415E+03</pdfrwt>
<totfact> 0.29451095E+04</totfact>
</mgrwt>
</event>
<event>
 5    0  0.1480317E+000  0.2786682E+03  0.7546771E-02  0.1096419E+00
         21   -1    0    0  504  501  0.00000000000E+00  0.00000000000E+00  0.22712832321E+03  0.22712832321E+03  0.00000000000E+00 0.  1.
         21   -1    0    0  501  502 -0.00000000000E+00 -0.00000000000E+00 -0.37902796135E+03  0.37902796135E+03  0.00000000000E+00 0. -1.
         25    1    1    2    0    0 -0.19924316472E+03 -0.14944267507E+03 -0.20961938034E+03  0.34870651906E+03  0.12500000000E+03 0.  0.
         21    1    1    2  503  502  0.18226531607E+03  0.13100919116E+03  0.59828506358E+02  0.23230046015E+03  0.00000000000E+00 0.  1.
         21    1    1    2  504  503  0.16977848648E+02  0.18433483907E+02 -0.21087641591E+01  0.25149305357E+02  0.00000000000E+00 0.  1.
<mgrwt>
<rscale>  4 0.27866818E+03</rscale>
<asrwt>0</asrwt>
<pdfrwt beam="1">  1       21 0.34942819E-01 0.27866818E+03</pdfrwt>
<pdfrwt beam="2">  1       21 0.58311993E-01 0.27866818E+03</pdfrwt>
<totfact> 0.20812482E+04</totfact>
</mgrwt>
</event>
<event>
 5    0  0.1480317E+000  0.2554776E+03  0.7546771E-02  0.1109891E+00
         21   -1    0    0  504  501  0.00000000000E+00  0.00000000000E+00  0.67097332446E+02  0.67097332446E+02  0.00000000000E+00 0. -1.
         21   -1    0    0  501  502 -0.00000000000E+00 -0.00000000000E+00 -0.15723155377E+04  0.15723155377E+04  0.00000000000E+00 0. -1.
         25    1    1    2    0    0 -0.21806408690E+03 -0.45736970322E+02 -0.12852355313E+04  0.13103813137E+04  0.12500000000E+03 0.  0.
         21    1    1    2  503  502  0.10718587886E+03 -0.27013436107E+02 -0.11842481892E+03  0.16199683976E+03  0.00000000000E+00 0. -1.
         21    1    1    2  504  503  0.11087820804E+03  0.72750406429E+02 -0.10155785508E+03  0.16703471670E+03  0.00000000000E+00 0. -1.
<mgrwt>
<rscale>  4 0.25547762E+03</rscale>
<asrwt>0</asrwt>
<pdfrwt beam="1">  1       21 0.10322667E-01 0.25547762E+03</pdfrwt>
<pdfrwt beam="2">  1       21 0.24189469E+00 0.25547762E+03</pdfrwt>
<totfact> 0.53865779E+03</totfact>
</mgrwt>
</event>
<event>
 5    0  0.1480317E+000  0.2394721E+03  0.7546771E-02  0.1120145E+00
         21   -1    0    0  504  501  0.00000000000E+00  0.00000000000E+00  0.31788534728E+03  0.31788534728E+03  0.00000000000E+00 0. -1.
         21   -1    0    0  501  502 -0.00000000000E+00 -0.00000000000E+00 -0.19276087586E+03  0.19276087586E+03  0.00000000000E+00 0. -1.
         25    1    1    2    0    0 -0.19888793731E+03 -0.85566079595E+02  0.84648043747E+00  0.25000736412E+03  0.12500000000E+03 0.  0.
         21    1    1    2  503  502  0.18945930464E+03  0.61221507282E+02  0.12394126090E+03  0.23453003480E+03  0.00000000000E+00 0. -1.
         21    1    1    2  504  503  0.94286326688E+01  0.24344572313E+02  0.33673007840E+00  0.26108824222E+02  0.00000000000E+00 0. -1.
<mgrwt>
<rscale>  4 0.23947210E+03</rscale>
<asrwt>0</asrwt>
<pdfrwt beam="1">  1       21 0.48905438E-01 0.23947210E+03</pdfrwt>
<pdfrwt beam="2">  1       21 0.29655519E-01 0.23947210E+03</pdfrwt>
<totfact> 0.42534372E+04</totfact>
</mgrwt>
</event>
<event>
 5    0  0.1480317E+000  0.2811604E+03  0.7546771E-02  0.1095057E+00
         21   -1    0    0  504  501  0.00000000000E+00  0.00000000000E+00  0.19946209547E+03  0.19946209547E+03  0.00000000000E+00 0. -1.
         21   -1    0    0  501  502 -0.00000000000E+00 -0.00000000000E+00 -0.45712395438E+03  0.45712395438E+03  0.00000000000E+00 0. -1.
         25    1    1    2    0    0  0.14759997686E+03 -0.20405983617E+03 -0.28130631797E+03  0.39772404307E+03  0.12500000000E+03 0.  0.
         21    1    1    2  503  502 -0.14221580816E+03  0.17526210184E+03  0.33009766064E+02  0.22810476779E+03  0.00000000000E+00 0. -1.
         21    1    1    2  504  503 -0.53841686922E+01  0.28797734326E+02 -0.93653069993E+01  0.30757238986E+02  0.00000000000E+00 0. -1.
<mgrwt>
<rscale>  4 0.28116040E+03</rscale>
<asrwt>0</asrwt>
<pdfrwt beam="1">  1       21 0.30686476E-01 0.28116040E+03</pdfrwt>
<pdfrwt beam="2">  1       21 0.70326762E-01 0.28116040E+03</pdfrwt>
<totfact> 0.17847288E+04</totfact>
</mgrwt>
</event>
<event>
 5    0  0.1480317E+000  0.2709778E+03  0.7546771E-02  0.1100721E+00
         21   -1    0    0  504  501  0.00000000000E+00  0.00000000000E+00  0.10931072946E+04  0.10931072946E+04  0.00000000000E+00 0. -1.
         21   -1    0    0  501  502 -0.00000000000E+00 -0.00000000000E+00 -0.25791136781E+03  0.25791136781E+03  0.00000000000E+00 0. -1.
         25    1    1    2    0    0 -0.23834378240E+03  0.31562518271E+02 -0.16535471341E+03  0.31744469190E+03  0.12500000000E+03 0.  0.
         21    1    1    2  503  502  0.17747864147E+03 -0.65468199796E+02  0.70720975855E+03  0.73207267123E+03  0.00000000000E+00 0. -1.
         21    1    1    2  504  503  0.60865140930E+02  0.33905681525E+02  0.29334088161E+03  0.30150129924E+03  0.00000000000E+00 0. -1.
<mgrwt>
<rscale>  4 0.27097777E+03</rscale>
<asrwt>0</asrwt>
<pdfrwt beam="1">  1       21 0.16817035E+00 0.27097777E+03</pdfrwt>
<pdfrwt beam="2">  1       21 0.39678673E-01 0.27097777E+03</pdfrwt>
<totfact> 0.12553642E+03</totfact>
</mgrwt>
</event>
<event>
 5    0  0.1480317E+000  0.2935477E+03  0.7546771E-02  0.1088511E+00
         21   -1    0    0  504  501  0.00000000000E+00  0.00000000000E+00  0.23085270414E+04  0.23085270414E+04  0.00000000000E+00 0.  1.
         21   -1    0    0  501  502 -0.00000000000E+00 -0.00000000000E+00 -0.80737548554E+03  0.80737548554E+03  0.00000000000E+00 0.  1.
         25    1    1    2    0    0  0.25260261664E+03  0.82874735358E+02 -0.77132456691E+03  0.82537439457E+03  0.12500000000E+03 0.  0.
         21    1    1    2  503  502 -0.74487546961E+01 -0.36722077976E+02  0.27967726741E+03  0.28217613093E+03  0.00000000000E+00 0. -1.
         21    1    1    2  504  503 -0.24515386194E+03 -0.46152657382E+02  0.19927988554E+04  0.20083520015E+04  0.00000000000E+00 0.  1.
<mgrwt>
<rscale>  4 0.29354773E+03</rscale>
<asrwt>0</asrwt>
<pdfrwt beam="1">  1       21 0.35515800E+00 0.29354773E+03</pdfrwt>
<pdfrwt beam="2">  1       21 0.12421161E+00 0.29354773E+03</pdfrwt>
<totfact> 0.66586661E+00</totfact>
</mgrwt>
</event>
<event>
 5    0  0.1480317E+000  0.2557817E+03  0.7546771E-02  0.1109704E+00
         21   -1    0    0  504  501  0.00000000000E+00  0.00000000000E+00  0.30332446913E+03  0.30332446913E+03  0.00000000000E+00 0. -1.
         21   -1    0    0  501  502 -0.00000000000E+00 -0.00000000000E+00 -0.21605803334E+03  0.21605803334E+03  0.00000000000E+00 0. -1.
         25    1    1    2    0    0  0.14586540681E+03 -0.16888627122E+03 -0.39992100152E+02  0.25888927669E+03  0.12500000000E+03 0.  0.
         21    1    1    2  503  502 -0.12061368864E+03  0.14772690903E+03  0.90384436708E+02  0.21104560630E+03  0.00000000000E+00 0. -1.
         21    1    1    2  504  503 -0.25251718163E+02  0.21159362191E+02  0.36874099227E+02  0.49447619481E+02  0.00000000000E+00 0. -1.
<mgrwt>
<rscale>  4 0.25578172E+03</rscale>
<asrwt>0</asrwt>
<pdfrwt beam="1">  1       21 0.46665303E-01 0.25578172E+03</pdfrwt>
<pdfrwt beam="2">  1       21 0.33239697E-01 0.25578172E+03</pdfrwt>
<totfact> 0.37199722E+04</totfact>
</mgrwt>
</event>
<event>
 5    0  0.1480317E+000  0.3339497E+03  0.7546771E-02  0.1069402E+00
         21   -1    0    0  504  501  0.00000000000E+00  0.00000000000E+00  0.24358603591E+03  0.24358603591E+03  0.00000000000E+00 0.  1.
         21   -1    0    0  501  502 -0.00000000000E+00 -0.00000000000E+00 -0.49347327633E+03  0.49347327633E+03  0.00000000000E+00 0. -1.
         25    1    1    2    0    0 -0.67164015540E+02 -0.30230184393E+03 -0.24921878638E+03  0.41669222852E+03  0.12500000000E+03 0.  0.
         21    1    1    2  503  502  0.73401187140E+02  0.15878805303E+03  0.16436692575E+02  0.17570300202E+03  0.00000000000E+00 0.  1.
         21    1    1    2  504  503 -0.62371716007E+01  0.14351379091E+03 -0.17105146615E+02  0.14466408169E+03  0.00000000000E+00 0.  1.
<mgrwt>
<rscale>  4 0.33394971E+03</rscale>
<asrwt>0</asrwt>
<pdfrwt beam="1">  1       21 0.37474775E-01 0.33394971E+03</pdfrwt>
<pdfrwt beam="2">  1       21 0.75918965E-01 0.33394971E+03</pdfrwt>
<totfact> 0.98547535E+03</totfact>
</mgrwt>
</event>
<event>
 5    0  0.1480317E+000  0.2713349E+03  0.7546771E-02  0.1100518E+00
         21   -1    0    0  504  501  0.00000000000E+00  0.00000000000E+00  0.11846151343E+04  0.11846151343E+04  0.00000000000E+00 0.  1.
         21   -1    0    0  501  502 -0.00000000000E+00 -0.00000000000E+00 -0.12330634970E+03  0.12330634970E+03  0.00000000000E+00 0.  1.
         25    1    1    2    0    0  0.14934627500E+03 -0.19214664522E+03  0.68466739711E+02  0.28202364719E+03  0.12500000000E+03 0.  0.
         21    1    1    2  503  502 -0.24920956833E+02  0.15163161617E+01  0.49034065696E+02  0.55024475489E+02  0.00000000000E+00 0. -1.
         21    1    1    2  504  503 -0.12442531816E+03  0.19063032906E+03  0.94380797923E+03  0.97087336137E+03  0.00000000000E+00 0.  1.
<mgrwt>
<rscale>  4 0.27133492E+03</rscale>
<asrwt>0</asrwt>
<pdfrwt beam="1">  1       21 0.18224847E+00 0.27133492E+03</pdfrwt>
<pdfrwt beam="2">  1       21 0.18970208E-01 0.27133492E+03</pdfrwt>
<totfact> 0.42079445E+03</totfact>
</mgrwt>
</event>
<event>
 5    0  0.1480317E+000  0.2572401E+03  0.7546771E-02  0.1108813E+00
         21   -1    0    0  504  501  0.00000000000E+00  0.00000000000E+00  0.12422140905E+03  0.12422140905E+03  0.00000000000E+00 0.  1.
         21   -1    0    0  501  502 -0.00000000000E+00 -0.00000000000E+00 -0.93209988525E+03  0.93209988525E+03  0.00000000000E+00 0.  1.
         25    1    1    2    0    0  0.86884426672E+02  0.20131715507E+03 -0.74917293912E+03  0.79054575657E+03  0.12500000000E+03 0.  0.
         21    1    1    2  503  502 -0.10851600009E+03 -0.19811238996E+03 -0.27332091257E+02  0.22753304055E+03  0.00000000000E+00 0.  1.
         21    1    1    2  504  503  0.21631573414E+02 -0.32047651135E+01 -0.31373445821E+02  0.38242497179E+02  0.00000000000E+00 0.  1.
<mgrwt>
<rscale>  4 0.25724012E+03</rscale>
<asrwt>0</asrwt>
<pdfrwt beam="1">  1       21 0.19110986E-01 0.25724012E+03</pdfrwt>
<pdfrwt beam="2">  1       21 0.14339998E+00 0.25724012E+03</pdfrwt>
<totfact> 0.80813400E+03</totfact>
</mgrwt>
</event>
<event>
 5    0  0.1480317E+000  0.2207544E+03  0.7546771E-02  0.1133322E+00
         21   -1    0    0  504  501  0.00000000000E+00  0.00000000000E+00  0.43150818932E+03  0.43150818932E+03  0.00000000000E+00 0. -1.
         21   -1    0    0  501  502 -0.00000000000E+00 -0.00000000000E+00 -0.19273294579E+03  0.19273294579E+03  0.00000000000E+00 0. -1.
         25    1    1    2    0    0 -0.10210674747E+03  0.17324092019E+03 -0.45252417176E+02  0.24106220269E+03  0.12500000000E+03 0.  0.
         21    1    1    2  503  502  0.11712661613E+03 -0.80035502036E+02  0.24049641667E+03  0.27921828777E+03  0.00000000000E+00 0. -1.
         21    1    1    2  504  503 -0.15019868658E+02 -0.93205418151E+02  0.43531244033E+02  0.10396064464E+03  0.00000000000E+00 0. -1.
<mgrwt>
<rscale>  4 0.22075444E+03</rscale>
<asrwt>0</asrwt>
<pdfrwt beam="1">  1       21 0.66385875E-01 0.22075444E+03</pdfrwt>
<pdfrwt beam="2">  1       21 0.29651222E-01 0.22075444E+03</pdfrwt>
<totfact> 0.22330374E+04</totfact>
</mgrwt>
</event>
<event>
 5    0  0.1480317E+000  0.2875459E+03  0.7546771E-02  0.1091637E+00
         21   -1    0    0  504  501  0.00000000000E+00  0.00000000000E+00  0.17171733501E+03  0.17171733501E+03  0.00000000000E+00 0.  1.
         21   -1    0    0  501  502 -0.00000000000E+00 -0.00000000000E+00 -0.56803538425E+03  0.56803538425E+03  0.00000000000E+00 0. -1.
         25    1    1    2    0    0  0.25738892968E+03  0.28435944091E+02 -0.34519288870E+03  0.44926695232E+03  0.12500000000E+03 0.  0.
         21    1    1    2  503  502 -0.15984463360E+03 -0.65516733808E+02 -0.66294671685E+02  0.18503440975E+03  0.00000000000E+00 0.  1.
         21    1    1    2  504  503 -0.97544296083E+02  0.37080789718E+02  0.15169511141E+02  0.10545135719E+03  0.00000000000E+00 0.  1.
<mgrwt>
<rscale>  4 0.28754593E+03</rscale>
<asrwt>0</asrwt>
<pdfrwt beam="1">  1       21 0.26418051E-01 0.28754593E+03</pdfrwt>
<pdfrwt beam="2">  1       21 0.87390061E-01 0.28754593E+03</pdfrwt>
<totfact> 0.14549131E+04</totfact>
</mgrwt>
</event>
<event>
 5    0  0.1480317E+000  0.2887997E+03  0.7546771E-02  0.1090977E+00
         21   -1    0    0  504  501  0.00000000000E+00  0.00000000000E+00  0.43220071596E+03  0.43220071596E+03  0.00000000000E+00 0.  1.
         21   -1    0    0  501  502 -0.00000000000E+00 -0.00000000000E+00 -0.73878970812E+03  0.73878970812E+03  0.00000000000E+00 0. -1.
         25    1    1    2    0    0  0.29571150192E+03 -0.60927623393E+02 -0.58760014980E+03  0.67235139898E+03  0.12500000000E+03 0.  0.
         21    1    1    2  503  502 -0.37902488740E+02  0.63975484124E+02 -0.41956332703E+02  0.85380296764E+02  0.00000000000E+00 0. -1.
         21    1    1    2  504  503 -0.25780901318E+03 -0.30478607319E+01  0.32296749034E+03  0.41325872834E+03  0.00000000000E+00 0.  1.
<mgrwt>
<rscale>  4 0.28879973E+03</rscale>
<asrwt>0</asrwt>
<pdfrwt beam="1">  1       21 0.66492418E-01 0.28879973E+03</pdfrwt>
<pdfrwt beam="2">  1       21 0.11365996E+00 0.28879973E+03</pdfrwt>
<totfact> 0.11567927E+03</totfact>
</mgrwt>
</event>
<event>
 5    0  0.1480317E+000  0.3080775E+03  0.7546771E-02  0.1081271E+00
         21   -1    0    0  504  501  0.00000000000E+00  0.00000000000E+00  0.40599346759E+03  0.40599346759E+03  0.00000000000E+00 0.  1.
         21   -1    0    0  501  502 -0.00000000000E+00 -0.00000000000E+00 -0.48824071105E+03  0.48824071105E+03  0.00000000000E+00 0.  1.
         25    1    1    2    0    0 -0.22316487625E+03  0.24291175836E+03 -0.26914105530E+03  0.44370101644E+03  0.12500000000E+03 0.  0.
         21    1    1    2  503  502  0.58210879943E+02 -0.24785123707E+02 -0.56205909160E+02  0.84628087095E+02  0.00000000000E+00 0. -1.
         21    1    1    2  504  503  0.16495399630E+03 -0.21812663465E+03  0.24309972101E+03  0.36590507511E+03  0.00000000000E+00 0.  1.
<mgrwt>
<rscale>  4 0.30807746E+03</rscale>
<asrwt>0</asrwt>
<pdfrwt beam="1">  1       21 0.62460534E-01 0.30807746E+03</pdfrwt>
<pdfrwt beam="2">  1       21 0.75113955E-01 0.30807746E+03</pdfrwt>
<totfact> 0.34890400E+03</totfact>
</mgrwt>
</event>
