<event>
 5    0  0.1856407E+000  0.3346174E+03  0.7546771E-02  0.1069112E+00
         21   -1    0    0  502  501  0.00000000000E+00  0.00000000000E+00  0.29060928736E+03  0.29060928736E+03  0.00000000000E+00 0. -1.
         21   -1    0    0  503  502 -0.00000000000E+00 -0.00000000000E+00 -0.64019574427E+03  0.64019574427E+03  0.00000000000E+00 0. -1.
         25    1    1    2    0    0 -0.19945707643E+03  0.26296989163E+03  0.96143358794E+02  0.36579343171E+03  0.12500000000E+03 0.  0.
         21    1    1    2  503  504  0.17037595458E+03 -0.25463052332E+03 -0.43667568985E+03  0.53343258937E+03  0.00000000000E+00 0. -1.
         21    1    1    2  504  501  0.29081121858E+02 -0.83393683087E+01 -0.90541258629E+01  0.31579010552E+02  0.00000000000E+00 0.  1.
<mgrwt>
<rscale>  4 0.33461736E+03</rscale>
<asrwt>0</asrwt>
<pdfrwt beam="1">  1       21 0.44709121E-01 0.33461736E+03</pdfrwt>
<pdfrwt beam="2">  1       21 0.98491653E-01 0.33461736E+03</pdfrwt>
<totfact> 0.37370285E+03</totfact>
</mgrwt>
</event>
<event>
 5    0  0.1856407E+000  0.2394312E+03  0.7546771E-02  0.1120172E+00
         21   -1    0    0  502  501  0.00000000000E+00  0.00000000000E+00  0.60594882394E+03  0.60594882394E+03  0.00000000000E+00 0.  1.
         21   -1    0    0  503  502 -0.00000000000E+00 -0.00000000000E+00 -0.21337379020E+03  0.21337379020E+03  0.00000000000E+00 0. -1.
         25    1    1    2    0    0  0.13411832282E+03  0.16314426590E+03  0.48852993557E+03  0.54670858230E+03  0.12500000000E+03 0.  0.
         21    1    1    2  503  504 -0.58607748954E+02  0.37121498512E+01 -0.63716156139E+02  0.86651006036E+02  0.00000000000E+00 0. -1.
         21    1    1    2  504  501 -0.75510573861E+02 -0.16685641575E+03 -0.32238745692E+02  0.18596302580E+03  0.00000000000E+00 0. -1.
<mgrwt>
<rscale>  4 0.23943122E+03</rscale>
<asrwt>0</asrwt>
<pdfrwt beam="1">  1       21 0.93222895E-01 0.23943122E+03</pdfrwt>
<pdfrwt beam="2">  1       21 0.32826737E-01 0.23943122E+03</pdfrwt>
<totfact> 0.83815118E+03</totfact>
</mgrwt>
</event>
<event>
 5    0  0.1856407E+000  0.2841985E+03  0.7546771E-02  0.1093418E+00
         21   -1    0    0  502  501  0.00000000000E+00  0.00000000000E+00  0.33636119528E+03  0.33636119528E+03  0.00000000000E+00 0.  1.
         21   -1    0    0  503  502 -0.00000000000E+00 -0.00000000000E+00 -0.77758273431E+03  0.77758273431E+03  0.00000000000E+00 0.  1.
         25    1    1    2    0    0  0.19470720898E+03  0.16502382956E+03 -0.69318106220E+03  0.74917871469E+03  0.12500000000E+03 0.  0.
         21    1    1    2  503  504 -0.14444724384E+03 -0.90415583027E+02  0.13614584968E+03  0.21811849140E+03  0.00000000000E+00 0. -1.
         21    1    1    2  504  501 -0.50259965145E+02 -0.74608246529E+02  0.11581367348E+03  0.14664672350E+03  0.00000000000E+00 0.  1.
<mgrwt>
<rscale>  4 0.28419845E+03</rscale>
<asrwt>0</asrwt>
<pdfrwt beam="1">  1       21 0.51747876E-01 0.28419845E+03</pdfrwt>
<pdfrwt beam="2">  1       21 0.11962811E+00 0.28419845E+03</pdfrwt>
<totfact> 0.17566331E+03</totfact>
</mgrwt>
</event>
<event>
 5    0  0.1899512E+000  0.2385770E+03  0.7546771E-02  0.1120744E+00
         21   -1    0    0  502  501  0.00000000000E+00  0.00000000000E+00  0.88009060146E+02  0.88009060146E+02  0.00000000000E+00 0.  1.
         21   -1    0    0  503  502 -0.00000000000E+00 -0.00000000000E+00 -0.65165343376E+03  0.65165343376E+03  0.00000000000E+00 0.  1.
         25    1    1    2    0    0 -0.15842153602E+03 -0.14332457224E+03 -0.30814330699E+03  0.39524247460E+03  0.12500000000E+03 0.  0.
         21    1    1    2  503  504  0.15284426081E+03  0.12185634805E+03 -0.25616655573E+03  0.32222917605E+03  0.00000000000E+00 0.  1.
         21    1    1    2  504  501  0.55772752045E+01  0.21468224190E+02  0.66548910969E+00  0.22190843254E+02  0.00000000000E+00 0.  1.
<mgrwt>
<rscale>  4 0.23857697E+03</rscale>
<asrwt>0</asrwt>
<pdfrwt beam="1">  1       21 0.13539855E-01 0.23857697E+03</pdfrwt>
<pdfrwt beam="2">  1       21 0.10025438E+00 0.23857697E+03</pdfrwt>
<totfact> 0.37652134E+04</totfact>
</mgrwt>
</event>
<event>
 5    0  0.3835362E+000  0.2721564E+03  0.7546771E-02  0.1100052E+00
         21   -1    0    0  502  501  0.00000000000E+00  0.00000000000E+00  0.31969816188E+03  0.31969816188E+03  0.00000000000E+00 0. -1.
         21   -1    0    0  503  502 -0.00000000000E+00 -0.00000000000E+00 -0.22992742993E+03  0.22992742993E+03  0.00000000000E+00 0. -1.
         25    1    1    2    0    0 -0.48315853976E+02 -0.23687481496E+03  0.11896988452E+03  0.29702345552E+03  0.12500000000E+03 0.  0.
         21    1    1    2  503  504  0.50901420949E+02  0.21478137509E+03 -0.45059236944E+02  0.22528277469E+03  0.00000000000E+00 0. -1.
         21    1    1    2  504  501 -0.25855669735E+01  0.22093439870E+02  0.15860084372E+02  0.27319361598E+02  0.00000000000E+00 0. -1.
<mgrwt>
<rscale>  4 0.27215639E+03</rscale>
<asrwt>0</asrwt>
<pdfrwt beam="1">  1       21 0.49184333E-01 0.27215639E+03</pdfrwt>
<pdfrwt beam="2">  1       21 0.35373451E-01 0.27215639E+03</pdfrwt>
<totfact> 0.29244200E+04</totfact>
</mgrwt>
</event>
<event>
 5    0  0.1856407E+000  0.2551928E+03  0.7546771E-02  0.1110066E+00
         21   -1    0    0  502  501  0.00000000000E+00  0.00000000000E+00  0.44991072599E+03  0.44991072599E+03  0.00000000000E+00 0.  1.
         21   -1    0    0  503  502 -0.00000000000E+00 -0.00000000000E+00 -0.12324325387E+04  0.12324325387E+04  0.00000000000E+00 0. -1.
         25    1    1    2    0    0 -0.14797298007E+03  0.16883441055E+03  0.39680474109E+03  0.47273678043E+03  0.12500000000E+03 0.  0.
         21    1    1    2  503  504  0.33924851981E+02 -0.50184360657E+02 -0.93692117060E+02  0.11156871621E+03  0.00000000000E+00 0. -1.
         21    1    1    2  504  501  0.11404812809E+03 -0.11865004989E+03 -0.10856344367E+04  0.10980377680E+04  0.00000000000E+00 0. -1.
<mgrwt>
<rscale>  4 0.25519282E+03</rscale>
<asrwt>0</asrwt>
<pdfrwt beam="1">  1       21 0.69217035E-01 0.25519282E+03</pdfrwt>
<pdfrwt beam="2">  1       21 0.18960501E+00 0.25519282E+03</pdfrwt>
<totfact> 0.27794224E+02</totfact>
</mgrwt>
</event>
<event>
 5    0  0.3215372E+000  0.2436647E+03  0.7546771E-02  0.1117375E+00
         21   -1    0    0  502  501  0.00000000000E+00  0.00000000000E+00  0.11526050450E+03  0.11526050450E+03  0.00000000000E+00 0. -1.
         21   -1    0    0  503  502 -0.00000000000E+00 -0.00000000000E+00 -0.63629863137E+03  0.63629863137E+03  0.00000000000E+00 0. -1.
         25    1    1    2    0    0  0.10747803393E+03  0.17943232774E+03 -0.70635555807E+02  0.25369641259E+03  0.12500000000E+03 0.  0.
         21    1    1    2  503  504 -0.42892808651E+01 -0.20432712405E+02 -0.28430555668E+02  0.35273079851E+02  0.00000000000E+00 0. -1.
         21    1    1    2  504  501 -0.10318875307E+03 -0.15899961533E+03 -0.42197201540E+03  0.46258964344E+03  0.00000000000E+00 0. -1.
<mgrwt>
<rscale>  4 0.24366470E+03</rscale>
<asrwt>0</asrwt>
<pdfrwt beam="1">  1       21 0.17732386E-01 0.24366470E+03</pdfrwt>
<pdfrwt beam="2">  1       21 0.97892095E-01 0.24366470E+03</pdfrwt>
<totfact> 0.24230102E+04</totfact>
</mgrwt>
</event>
<event>
 5    0  0.1856407E+000  0.2477296E+03  0.7546771E-02  0.1114748E+00
         21   -1    0    0  502  501  0.00000000000E+00  0.00000000000E+00  0.38635346505E+03  0.38635346505E+03  0.00000000000E+00 0. -1.
         21   -1    0    0  503  502 -0.00000000000E+00 -0.00000000000E+00 -0.38146506025E+03  0.38146506025E+03  0.00000000000E+00 0. -1.
         25    1    1    2    0    0  0.19253158484E+03  0.93148044537E+02  0.30530776038E+03  0.39317018950E+03  0.12500000000E+03 0.  0.
         21    1    1    2  503  504 -0.70570391781E+02 -0.41891049787E+02 -0.65346265040E+02  0.10490555087E+03  0.00000000000E+00 0. -1.
         21    1    1    2  504  501 -0.12196119306E+03 -0.51256994750E+02 -0.23507309055E+03  0.26974278493E+03  0.00000000000E+00 0. -1.
<mgrwt>
<rscale>  4 0.24772963E+03</rscale>
<asrwt>0</asrwt>
<pdfrwt beam="1">  1       21 0.59438995E-01 0.24772963E+03</pdfrwt>
<pdfrwt beam="2">  1       21 0.58686932E-01 0.24772963E+03</pdfrwt>
<totfact> 0.69243954E+03</totfact>
</mgrwt>
</event>
<event>
 5    0  0.1856407E+000  0.2847324E+03  0.7546771E-02  0.1093132E+00
         21   -1    0    0  502  501  0.00000000000E+00  0.00000000000E+00  0.11091151732E+03  0.11091151732E+03  0.00000000000E+00 0. -1.
         21   -1    0    0  503  502 -0.00000000000E+00 -0.00000000000E+00 -0.17930416860E+04  0.17930416860E+04  0.00000000000E+00 0. -1.
         25    1    1    2    0    0  0.22126110628E+03  0.12841757492E+03 -0.10261414568E+03  0.30265857594E+03  0.12500000000E+03 0.  0.
         21    1    1    2  503  504 -0.18770506084E+03 -0.92974206214E+02 -0.13848888704E+04  0.14006407735E+04  0.00000000000E+00 0. -1.
         21    1    1    2  504  501 -0.33556045440E+02 -0.35443368702E+02 -0.19462715262E+03  0.20065385395E+03  0.00000000000E+00 0. -1.
<mgrwt>
<rscale>  4 0.28473242E+03</rscale>
<asrwt>0</asrwt>
<pdfrwt beam="1">  1       21 0.17063311E-01 0.28473242E+03</pdfrwt>
<pdfrwt beam="2">  1       21 0.27585256E+00 0.28473242E+03</pdfrwt>
<totfact> 0.13248036E+03</totfact>
</mgrwt>
</event>
<event>
 5    0  0.1856407E+000  0.2419279E+03  0.7546771E-02  0.1118515E+00
         21   -1    0    0  502  501  0.00000000000E+00  0.00000000000E+00  0.59519488546E+02  0.59519488546E+02  0.00000000000E+00 0. -1.
         21   -1    0    0  503  502 -0.00000000000E+00 -0.00000000000E+00 -0.94590995146E+03  0.94590995146E+03  0.00000000000E+00 0. -1.
         25    1    1    2    0    0 -0.11924527067E+03  0.16936547947E+03 -0.32901079997E+03  0.40838365138E+03  0.12500000000E+03 0.  0.
         21    1    1    2  503  504  0.71199275807E+02 -0.94715296510E+02 -0.38969327421E+03  0.40730967608E+03  0.00000000000E+00 0. -1.
         21    1    1    2  504  501  0.48045994858E+02 -0.74650182960E+02 -0.16768638874E+03  0.18973611255E+03  0.00000000000E+00 0. -1.
<mgrwt>
<rscale>  4 0.24192788E+03</rscale>
<asrwt>0</asrwt>
<pdfrwt beam="1">  1       21 0.91568449E-02 0.24192788E+03</pdfrwt>
<pdfrwt beam="2">  1       21 0.14552460E+00 0.24192788E+03</pdfrwt>
<totfact> 0.29809328E+04</totfact>
</mgrwt>
</event>
<event>
 5    0  0.1856407E+000  0.5049029E+03  0.7546771E-02  0.1012507E+00
         21   -1    0    0  502  501  0.00000000000E+00  0.00000000000E+00  0.97181883220E+03  0.97181883220E+03  0.00000000000E+00 0. -1.
         21   -1    0    0  503  502 -0.00000000000E+00 -0.00000000000E+00 -0.38577748889E+03  0.38577748889E+03  0.00000000000E+00 0. -1.
         25    1    1    2    0    0 -0.25667487467E+03 -0.41710064151E+03  0.60511819439E+03  0.78844655216E+03  0.12500000000E+03 0.  0.
         21    1    1    2  503  504  0.28297394595E+03  0.39911877921E+03 -0.84391265714E+02  0.49647954614E+03  0.00000000000E+00 0. -1.
         21    1    1    2  504  501 -0.26299071282E+02  0.17981862299E+02  0.65314414636E+02  0.72670222796E+02  0.00000000000E+00 0. -1.
<mgrwt>
<rscale>  4 0.50490290E+03</rscale>
<asrwt>0</asrwt>
<pdfrwt beam="1">  1       21 0.14951059E+00 0.50490290E+03</pdfrwt>
<pdfrwt beam="2">  1       21 0.59350383E-01 0.50490290E+03</pdfrwt>
<totfact> 0.65471605E+02</totfact>
</mgrwt>
</event>
