<event>
 5    0  0.1856407E+000  0.3745920E+03  0.7546771E-02  0.1052968E+00
         21   -1    0    0  502  501  0.00000000000E+00  0.00000000000E+00  0.21640855179E+03  0.21640855179E+03  0.00000000000E+00 0. -1.
         21   -1    0    0  503  502 -0.00000000000E+00 -0.00000000000E+00 -0.84159295642E+03  0.84159295642E+03  0.00000000000E+00 0. -1.
         25    1    1    2    0    0  0.35236343350E+03 -0.19857981793E+02 -0.58864884283E+02  0.37900448983E+03  0.12500000000E+03 0.  0.
         21    1    1    2  503  504 -0.26142274318E+03  0.74936521678E+01 -0.30362580511E+03  0.40073262283E+03  0.00000000000E+00 0. -1.
         21    1    1    2  504  501 -0.90940690321E+02  0.12364329625E+02 -0.26269371524E+03  0.27826439555E+03  0.00000000000E+00 0. -1.
<mgrwt>
<rscale>  4 0.37454530E+03</rscale>
<asrwt>0</asrwt>
<pdfrwt beam="1">  1       21 0.33293624E-01 0.37459198E+03</pdfrwt>
<pdfrwt beam="2">  1       21 0.12947584E+00 0.37459198E+03</pdfrwt>
<totfact> 0.33924973E+03</totfact>
</mgrwt>
</event>
<event>
 5    0  0.1856407E+000  0.4579114E+03  0.7546771E-02  0.1025389E+00
         21   -1    0    0  502  501  0.00000000000E+00  0.00000000000E+00  0.30737005448E+03  0.30737005448E+03  0.00000000000E+00 0.  1.
         21   -1    0    0  503  502 -0.00000000000E+00 -0.00000000000E+00 -0.10415021982E+04  0.10415021982E+04  0.00000000000E+00 0.  1.
         25    1    1    2    0    0  0.35430368838E+03 -0.26177620501E+03  0.34784498870E+02  0.45923071159E+03  0.12500000000E+03 0.  0.
         21    1    1    2  503  504 -0.24265339558E+02  0.17691120727E+02 -0.21544476377E+02  0.36958719117E+02  0.00000000000E+00 0. -1.
         21    1    1    2  504  501 -0.33003834882E+03  0.24408508428E+03 -0.74737216624E+03  0.85268282200E+03  0.00000000000E+00 0.  1.
<mgrwt>
<rscale>  4 0.45791144E+03</rscale>
<asrwt>0</asrwt>
<pdfrwt beam="1">  1       21 0.47287700E-01 0.45791144E+03</pdfrwt>
<pdfrwt beam="2">  1       21 0.16023111E+00 0.45791144E+03</pdfrwt>
<totfact> 0.89917648E+02</totfact>
</mgrwt>
</event>
<event>
 5    0  0.1856407E+000  0.2389837E+03  0.7546771E-02  0.1120472E+00
         21   -1    0    0  502  501  0.00000000000E+00  0.00000000000E+00  0.18363924271E+03  0.18363924271E+03  0.00000000000E+00 0. -1.
         21   -1    0    0  503  502 -0.00000000000E+00 -0.00000000000E+00 -0.45290348475E+03  0.45290348475E+03  0.00000000000E+00 0. -1.
         25    1    1    2    0    0  0.88166598450E+02  0.19095190575E+03 -0.19446860090E+03  0.31253642368E+03  0.12500000000E+03 0.  0.
         21    1    1    2  503  504 -0.16639661793E+03 -0.12571711471E+03 -0.23233555259E+02  0.20983904660E+03  0.00000000000E+00 0. -1.
         21    1    1    2  504  501  0.78230019479E+02 -0.65234791044E+02 -0.51562085882E+02  0.11416725717E+03  0.00000000000E+00 0.  1.
<mgrwt>
<rscale>  4 0.23898373E+03</rscale>
<asrwt>0</asrwt>
<pdfrwt beam="1">  1       21 0.28252191E-01 0.23898373E+03</pdfrwt>
<pdfrwt beam="2">  1       21 0.69677459E-01 0.23898373E+03</pdfrwt>
<totfact> 0.21847010E+04</totfact>
</mgrwt>
</event>
<event>
 5    0  0.1856407E+000  0.2402553E+03  0.7546771E-02  0.1119623E+00
         21   -1    0    0  502  501  0.00000000000E+00  0.00000000000E+00  0.86133275677E+03  0.86133275677E+03  0.00000000000E+00 0.  1.
         21   -1    0    0  503  502 -0.00000000000E+00 -0.00000000000E+00 -0.65193803291E+02  0.65193803291E+02  0.00000000000E+00 0.  1.
         25    1    1    2    0    0 -0.18293495164E+02  0.20435991720E+03  0.31397417835E+03  0.39535099898E+03  0.12500000000E+03 0.  0.
         21    1    1    2  503  504  0.48957473736E+02 -0.16097472773E+03  0.39090483945E+03  0.42557759657E+03  0.00000000000E+00 0.  1.
         21    1    1    2  504  501 -0.30663978572E+02 -0.43385189475E+02  0.91259935686E+02  0.10559796451E+03  0.00000000000E+00 0.  1.
<mgrwt>
<rscale>  4 0.24025534E+03</rscale>
<asrwt>0</asrwt>
<pdfrwt beam="1">  1       21 0.13251272E+00 0.24025534E+03</pdfrwt>
<pdfrwt beam="2">  1       21 0.10029816E-01 0.24025534E+03</pdfrwt>
<totfact> 0.32378339E+04</totfact>
</mgrwt>
</event>
<event>
 5    0  0.1856407E+000  0.4518884E+03  0.7546771E-02  0.1028976E+00
         21   -1    0    0  502  501  0.00000000000E+00  0.00000000000E+00  0.17727113706E+04  0.17727113706E+04  0.00000000000E+00 0.  1.
         21   -1    0    0  503  502 -0.00000000000E+00 -0.00000000000E+00 -0.39274252834E+03  0.39274252834E+03  0.00000000000E+00 0. -1.
         25    1    1    2    0    0  0.74387358828E+02  0.40262349426E+03  0.16046629358E+04  0.16607851441E+04  0.12500000000E+03 0.  0.
         21    1    1    2  503  504 -0.58524112235E+02 -0.25418011206E+03 -0.34836754835E+02  0.26314672821E+03  0.00000000000E+00 0. -1.
         21    1    1    2  504  501 -0.15863246593E+02 -0.14844338219E+03 -0.18985733869E+03  0.24152202666E+03  0.00000000000E+00 0. -1.
<mgrwt>
<rscale>  4 0.44581849E+03</rscale>
<asrwt>0</asrwt>
<pdfrwt beam="1">  1       21 0.27272482E+00 0.45188839E+03</pdfrwt>
<pdfrwt beam="2">  1       21 0.60421928E-01 0.45188839E+03</pdfrwt>
<totfact> 0.97386344E+01</totfact>
</mgrwt>
</event>
<event>
 5    0  0.1856407E+000  0.2736813E+03  0.7546771E-02  0.1099191E+00
         21   -1    0    0  502  501  0.00000000000E+00  0.00000000000E+00  0.17850248998E+04  0.17850248998E+04  0.00000000000E+00 0. -1.
         21   -1    0    0  503  502 -0.00000000000E+00 -0.00000000000E+00 -0.10834156251E+03  0.10834156251E+03  0.00000000000E+00 0.  1.
         25    1    1    2    0    0 -0.21541717835E+03 -0.11345442746E+03  0.15965239978E+04  0.16198118235E+04  0.12500000000E+03 0.  0.
         21    1    1    2  503  504  0.11472345887E+03  0.46776308899E+02 -0.78163257604E+01  0.12413939761E+03  0.00000000000E+00 0.  1.
         21    1    1    2  504  501  0.10069371948E+03  0.66678118559E+02  0.87975665192E+02  0.14941524120E+03  0.00000000000E+00 0.  1.
<mgrwt>
<rscale>  4 0.27368133E+03</rscale>
<asrwt>0</asrwt>
<pdfrwt beam="1">  1       21 0.27461919E+00 0.27368133E+03</pdfrwt>
<pdfrwt beam="2">  1       21 0.16667934E-01 0.27368133E+03</pdfrwt>
<totfact> 0.14205241E+03</totfact>
</mgrwt>
</event>
<event>
 5    0  0.1856407E+000  0.2566731E+03  0.7546771E-02  0.1109159E+00
         21   -1    0    0  502  501  0.00000000000E+00  0.00000000000E+00  0.88903961885E+02  0.88903961885E+02  0.00000000000E+00 0.  1.
         21   -1    0    0  503  502 -0.00000000000E+00 -0.00000000000E+00 -0.75978466751E+03  0.75978466751E+03  0.00000000000E+00 0.  1.
         25    1    1    2    0    0  0.18828713692E+03 -0.12167173009E+03 -0.21564206040E+03  0.33523507282E+03  0.12500000000E+03 0.  0.
         21    1    1    2  503  504 -0.11056354929E+03  0.80947223213E+02 -0.35334720606E+03  0.37898680638E+03  0.00000000000E+00 0.  1.
         21    1    1    2  504  501 -0.77723587630E+02  0.40724506879E+02 -0.10189143916E+03  0.13446675020E+03  0.00000000000E+00 0.  1.
<mgrwt>
<rscale>  4 0.25667305E+03</rscale>
<asrwt>0</asrwt>
<pdfrwt beam="1">  1       21 0.13677532E-01 0.25667305E+03</pdfrwt>
<pdfrwt beam="2">  1       21 0.11688996E+00 0.25667305E+03</pdfrwt>
<totfact> 0.25234344E+04</totfact>
</mgrwt>
</event>
