<event>
 5    0  0.2754780E-002  0.7458026E+03  0.7546771E-02  0.9641959E-01
         -1   -1    0    0    0  501 -0.00000000000E+00  0.00000000000E+00  0.82527719258E+02  0.82527719258E+02  0.00000000000E+00 0. -1.
          1   -1    0    0  503    0  0.00000000000E+00 -0.00000000000E+00 -0.20438014482E+04  0.20438014482E+04  0.00000000000E+00 0.  1.
         25    1    1    2    0    0 -0.33380283246E+03 -0.39728503927E+02 -0.12049381426E+04  0.12571808193E+04  0.12500000000E+03 0.  0.
         21    1    1    2  502  501  0.17432876563E+02 -0.24893324489E+02 -0.34440578282E+03  0.34574401806E+03  0.00000000000E+00 0. -1.
         21    1    1    2  503  502  0.31636995589E+03  0.64621828416E+02 -0.41192980350E+03  0.52340433005E+03  0.00000000000E+00 0. -1.
<mgrwt>
<rscale>  4 0.74580260E+03</rscale>
<asrwt>0</asrwt>
<pdfrwt beam="1">  1        1 0.31443099E+00 0.74580260E+03</pdfrwt>
<pdfrwt beam="2">  1       -1 0.12696572E-01 0.74580260E+03</pdfrwt>
<totfact> 0.12366127E+02</totfact>
</mgrwt>
</event>
<event>
 5    0  0.2754780E-002  0.4852792E+03  0.7546771E-02  0.1017694E+00
          1   -1    0    0  502    0  0.00000000000E+00  0.00000000000E+00  0.60222045356E+03  0.60222045356E+03  0.00000000000E+00 0. -1.
         -1   -1    0    0    0  501 -0.00000000000E+00 -0.00000000000E+00 -0.11853029271E+03  0.11853029271E+03  0.00000000000E+00 0.  1.
         25    1    1    2    0    0 -0.18058856564E+03 -0.13245065668E+03  0.11112157528E+03  0.27951459888E+03  0.12500000000E+03 0.  0.
         21    1    1    2  502  503  0.16509342127E+03  0.11515928632E+03  0.27412285006E+03  0.34008945278E+03  0.00000000000E+00 0. -1.
         21    1    1    2  503  501  0.15495144375E+02  0.17291370357E+02  0.98445735514E+02  0.10114669460E+03  0.00000000000E+00 0.  1.
<mgrwt>
<rscale>  4 0.48527921E+03</rscale>
<asrwt>0</asrwt>
<pdfrwt beam="1">  1        1 0.92649299E-01 0.48527921E+03</pdfrwt>
<pdfrwt beam="2">  1       -1 0.18235430E-01 0.48527921E+03</pdfrwt>
<totfact> 0.81933227E+02</totfact>
</mgrwt>
</event>
<event>
 5    0  0.2754780E-002  0.9904452E+03  0.7546771E-02  0.9319087E-01
          2   -1    0    0  503    0  0.00000000000E+00  0.00000000000E+00  0.23773464578E+04  0.23773464578E+04  0.00000000000E+00 0.  1.
         -2   -1    0    0    0  501 -0.00000000000E+00 -0.00000000000E+00 -0.12018616265E+03  0.12018616265E+03  0.00000000000E+00 0. -1.
         25    1    1    2    0    0 -0.38281313827E+03  0.31146485191E+03  0.92240788754E+03  0.10535737107E+04  0.12500000000E+03 0.  0.
         21    1    1    2  502  501  0.25551592610E+02  0.78641156811E+01  0.32694920765E+03  0.32804041304E+03  0.00000000000E+00 0. -1.
         21    1    1    2  503  502  0.35726154566E+03 -0.31932896759E+03  0.10078031999E+04  0.11159184967E+04  0.00000000000E+00 0.  1.
<mgrwt>
<rscale>  4 0.99044515E+03</rscale>
<asrwt>0</asrwt>
<pdfrwt beam="1">  1        2 0.36574557E+00 0.99044515E+03</pdfrwt>
<pdfrwt beam="2">  1       -2 0.18490181E-01 0.99044515E+03</pdfrwt>
<totfact> 0.10132492E+02</totfact>
</mgrwt>
</event>
<event>
 5    0  0.2754780E-002  0.5490721E+03  0.7546771E-02  0.1001709E+00
         -1   -1    0    0    0  501 -0.00000000000E+00  0.00000000000E+00  0.13014137289E+03  0.13014137289E+03  0.00000000000E+00 0.  1.
          1   -1    0    0  502    0  0.00000000000E+00 -0.00000000000E+00 -0.11478782552E+04  0.11478782552E+04  0.00000000000E+00 0. -1.
         25    1    1    2    0    0 -0.20632042492E+03  0.21282347398E+03 -0.25948715071E+03  0.41330440380E+03  0.12500000000E+03 0.  0.
         21    1    1    2  502  503  0.20716595077E+03 -0.52745014101E+01 -0.40720996139E+03  0.45690863877E+03  0.00000000000E+00 0.  1.
         21    1    1    2  503  501 -0.84552584344E+00 -0.20754897257E+03 -0.35103977019E+03  0.40780658551E+03  0.00000000000E+00 0. -1.
<mgrwt>
<rscale>  4 0.54907207E+03</rscale>
<asrwt>0</asrwt>
<pdfrwt beam="1">  1        1 0.17659665E+00 0.54907207E+03</pdfrwt>
<pdfrwt beam="2">  1       -1 0.20021750E-01 0.54907207E+03</pdfrwt>
<totfact> 0.24498176E+02</totfact>
</mgrwt>
</event>
<event>
 5    0  0.2754780E-002  0.6474283E+03  0.7546771E-02  0.9811617E-01
         -4   -1    0    0    0  501 -0.00000000000E+00  0.00000000000E+00  0.12260138414E+04  0.12260138414E+04  0.00000000000E+00 0.  1.
          4   -1    0    0  503    0  0.00000000000E+00 -0.00000000000E+00 -0.85472807778E+02  0.85472807778E+02  0.00000000000E+00 0. -1.
         25    1    1    2    0    0  0.22684951853E+03 -0.29272549602E+02  0.99941705571E+03  0.10328489906E+04  0.12500000000E+03 0.  0.
         21    1    1    2  502  501 -0.18855067564E+02  0.24700387338E+02  0.96768998191E+01  0.32546353061E+02  0.00000000000E+00 0.  1.
         21    1    1    2  503  502 -0.20799445097E+03  0.45721622642E+01  0.13144707813E+03  0.24609130551E+03  0.00000000000E+00 0.  1.
<mgrwt>
<rscale>  4 0.64742828E+03</rscale>
<asrwt>0</asrwt>
<pdfrwt beam="1">  1        4 0.13149664E-01 0.64742828E+03</pdfrwt>
<pdfrwt beam="2">  1       -4 0.18861750E+00 0.64742828E+03</pdfrwt>
<totfact> 0.15451411E+01</totfact>
</mgrwt>
</event>
<event>
 5    0  0.2754780E-002  0.5093071E+03  0.7546771E-02  0.1011378E+00
         -2   -1    0    0    0  501 -0.00000000000E+00  0.00000000000E+00  0.18359543916E+03  0.18359543916E+03  0.00000000000E+00 0.  1.
          2   -1    0    0  502    0  0.00000000000E+00 -0.00000000000E+00 -0.44046425084E+03  0.44046425084E+03  0.00000000000E+00 0. -1.
         25    1    1    2    0    0 -0.16553831407E+03 -0.17516647582E+03 -0.24836902891E+02  0.27263180192E+03  0.12500000000E+03 0.  0.
         21    1    1    2  502  503  0.15533474183E+03  0.15545016368E+03 -0.14907131462E+03  0.26554828610E+03  0.00000000000E+00 0. -1.
         21    1    1    2  503  501  0.10203572244E+02  0.19716312137E+02 -0.82960594165E+02  0.85879601973E+02  0.00000000000E+00 0. -1.
<mgrwt>
<rscale>  4 0.50930712E+03</rscale>
<asrwt>0</asrwt>
<pdfrwt beam="1">  1        2 0.67763730E-01 0.50930712E+03</pdfrwt>
<pdfrwt beam="2">  1       -2 0.28245452E-01 0.50930712E+03</pdfrwt>
<totfact> 0.82106117E+02</totfact>
</mgrwt>
</event>
<event>
 5    0  0.2754780E-002  0.5857592E+03  0.7546771E-02  0.9935400E-01
         -2   -1    0    0    0  501 -0.00000000000E+00  0.00000000000E+00  0.86387881017E+02  0.86387881017E+02  0.00000000000E+00 0. -1.
          2   -1    0    0  502    0  0.00000000000E+00 -0.00000000000E+00 -0.10910560868E+04  0.10910560868E+04  0.00000000000E+00 0.  1.
         25    1    1    2    0    0 -0.60352534871E+02 -0.20307054316E+03 -0.16497306623E+03  0.29617762668E+03  0.12500000000E+03 0.  0.
         21    1    1    2  502  503  0.52616914023E+02  0.23000422297E+03 -0.78667235734E+03  0.82129402776E+03  0.00000000000E+00 0.  1.
         21    1    1    2  503  501  0.77356208481E+01 -0.26933679809E+02 -0.53022782166E+02  0.59972313333E+02  0.00000000000E+00 0.  1.
<mgrwt>
<rscale>  4 0.58575924E+03</rscale>
<asrwt>0</asrwt>
<pdfrwt beam="1">  1        2 0.16785478E+00 0.58575924E+03</pdfrwt>
<pdfrwt beam="2">  1       -2 0.13290444E-01 0.58575924E+03</pdfrwt>
<totfact> 0.95745559E+02</totfact>
</mgrwt>
</event>
<event>
 5    0  0.2754780E-002  0.4591422E+03  0.7546771E-02  0.1025030E+00
         -1   -1    0    0    0  501 -0.00000000000E+00  0.00000000000E+00  0.28360212199E+03  0.28360212199E+03  0.00000000000E+00 0.  1.
          1   -1    0    0  503    0  0.00000000000E+00 -0.00000000000E+00 -0.39388768615E+03  0.39388768615E+03  0.00000000000E+00 0. -1.
         25    1    1    2    0    0 -0.11519714854E+03  0.16578018211E+03  0.18390593994E+03  0.30033289290E+03  0.12500000000E+03 0.  0.
         21    1    1    2  502  501  0.83577267363E+01 -0.10157074408E+03 -0.18605382510E+03  0.21213791147E+03  0.00000000000E+00 0. -1.
         21    1    1    2  503  502  0.10683942181E+03 -0.64209438037E+02 -0.10813767900E+03  0.16501900377E+03  0.00000000000E+00 0. -1.
<mgrwt>
<rscale>  4 0.45914220E+03</rscale>
<asrwt>0</asrwt>
<pdfrwt beam="1">  1        1 0.60598105E-01 0.45914220E+03</pdfrwt>
<pdfrwt beam="2">  1       -1 0.43631096E-01 0.45914220E+03</pdfrwt>
<totfact> 0.32486402E+02</totfact>
</mgrwt>
</event>
<event>
 5    0  0.2754780E-002  0.5176268E+03  0.7546771E-02  0.1009278E+00
         -2   -1    0    0    0  501 -0.00000000000E+00  0.00000000000E+00  0.74248185557E+02  0.74248185557E+02  0.00000000000E+00 0.  1.
          2   -1    0    0  503    0  0.00000000000E+00 -0.00000000000E+00 -0.15200599912E+04  0.15200599912E+04  0.00000000000E+00 0. -1.
         25    1    1    2    0    0  0.37488349816E+02 -0.21669525364E+03 -0.27529608810E+03  0.37386514340E+03  0.12500000000E+03 0.  0.
         21    1    1    2  502  501 -0.59564096403E+01 -0.20935275120E+02 -0.61535508243E+03  0.61573991428E+03  0.00000000000E+00 0.  1.
         21    1    1    2  503  502 -0.31531940175E+02  0.23763052876E+03 -0.55516063509E+03  0.60470311906E+03  0.00000000000E+00 0. -1.
<mgrwt>
<rscale>  4 0.51762677E+03</rscale>
<asrwt>0</asrwt>
<pdfrwt beam="1">  1        2 0.23385539E+00 0.51762677E+03</pdfrwt>
<pdfrwt beam="2">  1       -2 0.11422798E-01 0.51762677E+03</pdfrwt>
<totfact> 0.70033740E+02</totfact>
</mgrwt>
</event>
<event>
 5    0  0.2754780E-002  0.5363533E+03  0.7546771E-02  0.1004703E+00
          1   -1    0    0  502    0  0.00000000000E+00  0.00000000000E+00  0.22909923635E+03  0.22909923635E+03  0.00000000000E+00 0. -1.
         -1   -1    0    0    0  501 -0.00000000000E+00 -0.00000000000E+00 -0.35440989446E+03  0.35440989446E+03  0.00000000000E+00 0.  1.
         25    1    1    2    0    0  0.12275623502E+02 -0.20561503116E+03  0.62189659275E+02  0.24883887496E+03  0.12500000000E+03 0.  0.
         21    1    1    2  502  503 -0.12633392862E+02  0.22624273993E+03 -0.20653664300E+03  0.30659870333E+03  0.00000000000E+00 0.  1.
         21    1    1    2  503  501  0.35776935963E+00 -0.20627708766E+02  0.19036325609E+02  0.28071552514E+02  0.00000000000E+00 0.  1.
<mgrwt>
<rscale>  4 0.53635329E+03</rscale>
<asrwt>0</asrwt>
<pdfrwt beam="1">  1        1 0.35246037E-01 0.53635329E+03</pdfrwt>
<pdfrwt beam="2">  1       -1 0.54524599E-01 0.53635329E+03</pdfrwt>
<totfact> 0.42913594E+02</totfact>
</mgrwt>
</event>
<event>
 5    0  0.2754780E-002  0.7136965E+03  0.7546771E-02  0.9694092E-01
          1   -1    0    0  503    0  0.00000000000E+00  0.00000000000E+00  0.37106257000E+03  0.37106257000E+03  0.00000000000E+00 0. -1.
         -1   -1    0    0    0  501 -0.00000000000E+00 -0.00000000000E+00 -0.13097311951E+04  0.13097311951E+04  0.00000000000E+00 0.  1.
         25    1    1    2    0    0 -0.12948497555E+03 -0.29186129910E+03 -0.24679171472E+03  0.42246955779E+03  0.12500000000E+03 0.  0.
         21    1    1    2  502  501  0.25558863666E+02  0.12065181104E+03  0.25885069503E+03  0.28672948459E+03  0.00000000000E+00 0.  1.
         21    1    1    2  503  502  0.10392611188E+03  0.17120948805E+03 -0.95072760541E+03  0.97159472272E+03  0.00000000000E+00 0. -1.
<mgrwt>
<rscale>  4 0.71369650E+03</rscale>
<asrwt>0</asrwt>
<pdfrwt beam="1">  1        1 0.57086549E-01 0.71369650E+03</pdfrwt>
<pdfrwt beam="2">  1       -1 0.20149711E+00 0.71369650E+03</pdfrwt>
<totfact> 0.10094887E+01</totfact>
</mgrwt>
</event>
<event>
 5    0  0.2754780E-002  0.5268707E+03  0.7546771E-02  0.1006994E+00
          1   -1    0    0  503    0  0.00000000000E+00  0.00000000000E+00  0.56229499250E+03  0.56229499250E+03  0.00000000000E+00 0.  1.
         -1   -1    0    0    0  501 -0.00000000000E+00 -0.00000000000E+00 -0.20751721917E+03  0.20751721917E+03  0.00000000000E+00 0. -1.
         25    1    1    2    0    0  0.22712119113E+03  0.88828646183E+02 -0.33711034772E+02  0.27610867010E+03  0.12500000000E+03 0.  0.
         21    1    1    2  502  501 -0.10490510047E+03  0.50953741023E+02  0.18043686192E+03  0.21484604946E+03  0.00000000000E+00 0.  1.
         21    1    1    2  503  502 -0.12221609066E+03 -0.13978238721E+03  0.20805194618E+03  0.27885749210E+03  0.00000000000E+00 0.  1.
<mgrwt>
<rscale>  4 0.52687066E+03</rscale>
<asrwt>0</asrwt>
<pdfrwt beam="1">  1        1 0.86506921E-01 0.52687066E+03</pdfrwt>
<pdfrwt beam="2">  1       -1 0.31925726E-01 0.52687066E+03</pdfrwt>
<totfact> 0.35015502E+02</totfact>
</mgrwt>
</event>
<event>
 5    0  0.2754780E-002  0.6258294E+03  0.7546771E-02  0.9853221E-01
          1   -1    0    0  502    0  0.00000000000E+00  0.00000000000E+00  0.45405683247E+03  0.45405683247E+03  0.00000000000E+00 0.  1.
         -1   -1    0    0    0  501 -0.00000000000E+00 -0.00000000000E+00 -0.28968168646E+03  0.28968168646E+03  0.00000000000E+00 0. -1.
         25    1    1    2    0    0  0.19917352074E+03  0.14522117072E+03 -0.12931636058E+03  0.30513439810E+03  0.12500000000E+03 0.  0.
         21    1    1    2  502  503 -0.22470316608E+03 -0.14506471465E+03  0.18074097454E+03  0.32280425052E+03  0.00000000000E+00 0.  1.
         21    1    1    2  503  501  0.25529645334E+02 -0.15645607007E+00  0.11295053206E+03  0.11579987030E+03  0.00000000000E+00 0.  1.
<mgrwt>
<rscale>  4 0.62582941E+03</rscale>
<asrwt>0</asrwt>
<pdfrwt beam="1">  1        1 0.69854897E-01 0.62582941E+03</pdfrwt>
<pdfrwt beam="2">  1       -1 0.44566413E-01 0.62582941E+03</pdfrwt>
<totfact> 0.25666704E+02</totfact>
</mgrwt>
</event>
<event>
 5    0  0.2754780E-002  0.4327518E+03  0.7546771E-02  0.1032994E+00
         -2   -1    0    0    0  501 -0.00000000000E+00  0.00000000000E+00  0.14371612448E+03  0.14371612448E+03  0.00000000000E+00 0.  1.
          2   -1    0    0  503    0  0.00000000000E+00 -0.00000000000E+00 -0.50668695217E+03  0.50668695217E+03  0.00000000000E+00 0. -1.
         25    1    1    2    0    0 -0.57194714680E+02 -0.20006603811E+03 -0.77331508612E+02  0.25476031327E+03  0.12500000000E+03 0.  0.
         21    1    1    2  502  501  0.67903015090E+01  0.19753140893E+02 -0.17892552415E+03  0.18014060609E+03  0.00000000000E+00 0.  1.
         21    1    1    2  503  502  0.50404413171E+02  0.18031289721E+03 -0.10671379493E+03  0.21550215729E+03  0.00000000000E+00 0. -1.
<mgrwt>
<rscale>  4 0.43275180E+03</rscale>
<asrwt>0</asrwt>
<pdfrwt beam="1">  1        2 0.77951838E-01 0.43275180E+03</pdfrwt>
<pdfrwt beam="2">  1       -2 0.22110173E-01 0.43275180E+03</pdfrwt>
<totfact> 0.10859244E+03</totfact>
</mgrwt>
</event>
<event>
 5    0  0.5951167E-002  0.1076781E+04  0.7546771E-02  0.9228123E-01
          1   -1    0    0  502    0  0.00000000000E+00  0.00000000000E+00  0.25754265013E+04  0.25754265013E+04  0.00000000000E+00 0. -1.
         -1   -1    0    0    0  501 -0.00000000000E+00 -0.00000000000E+00 -0.18001988611E+03  0.18001988611E+03  0.00000000000E+00 0.  1.
         25    1    1    2    0    0 -0.31340609949E+03  0.14705455727E+03  0.14580446036E+04  0.15037843902E+04  0.12500000000E+03 0.  0.
         21    1    1    2  502  503  0.47466737699E+02 -0.26718131814E+02  0.95752045063E+03  0.95906848720E+03  0.00000000000E+00 0.  1.
         21    1    1    2  503  501  0.26593936179E+03 -0.12033642545E+03 -0.20158439062E+02  0.29259351002E+03  0.00000000000E+00 0.  1.
<mgrwt>
<rscale>  4 0.10767808E+04</rscale>
<asrwt>0</asrwt>
<pdfrwt beam="1">  1        1 0.39621944E+00 0.10767808E+04</pdfrwt>
<pdfrwt beam="2">  1       -1 0.27695369E-01 0.10767808E+04</pdfrwt>
<totfact> 0.14208626E+01</totfact>
</mgrwt>
</event>
<event>
 5    0  0.2754780E-002  0.4695686E+03  0.7546771E-02  0.1022042E+00
          3   -1    0    0  502    0  0.00000000000E+00  0.00000000000E+00  0.58163624334E+03  0.58163624334E+03  0.00000000000E+00 0.  1.
         -3   -1    0    0    0  501 -0.00000000000E+00 -0.00000000000E+00 -0.11276160631E+03  0.11276160631E+03  0.00000000000E+00 0. -1.
         25    1    1    2    0    0 -0.89472458886E+02 -0.18029595880E+03  0.87488697246E+02  0.25256924952E+03  0.12500000000E+03 0.  0.
         21    1    1    2  502  503  0.48796344973E+02  0.17374784898E+03  0.32826852911E+03  0.37460596032E+03  0.00000000000E+00 0.  1.
         21    1    1    2  503  501  0.40676113913E+02  0.65481098196E+01  0.53117410683E+02  0.67222639809E+02  0.00000000000E+00 0.  1.
<mgrwt>
<rscale>  4 0.46956860E+03</rscale>
<asrwt>0</asrwt>
<pdfrwt beam="1">  1        3 0.89482497E-01 0.46956860E+03</pdfrwt>
<pdfrwt beam="2">  1       -3 0.17347940E-01 0.46956860E+03</pdfrwt>
<totfact> 0.87109222E+01</totfact>
</mgrwt>
</event>
<event>
 5    0  0.2754780E-002  0.5190645E+03  0.7546771E-02  0.1008919E+00
          2   -1    0    0  503    0  0.00000000000E+00  0.00000000000E+00  0.68797701286E+03  0.68797701286E+03  0.00000000000E+00 0. -1.
         -2   -1    0    0    0  501 -0.00000000000E+00 -0.00000000000E+00 -0.25524742715E+03  0.25524742715E+03  0.00000000000E+00 0.  1.
         25    1    1    2    0    0 -0.12854421015E+03  0.18156907336E+03 -0.14313825542E+03  0.29258247133E+03  0.12500000000E+03 0.  0.
         21    1    1    2  502  501  0.60419214952E+02 -0.33538185487E+02  0.41828941308E+03  0.42395910713E+03  0.00000000000E+00 0. -1.
         21    1    1    2  503  502  0.68124995201E+02 -0.14803088787E+03  0.15757842805E+03  0.22668286155E+03  0.00000000000E+00 0. -1.
<mgrwt>
<rscale>  4 0.51906451E+03</rscale>
<asrwt>0</asrwt>
<pdfrwt beam="1">  1        2 0.10584262E+00 0.51906451E+03</pdfrwt>
<pdfrwt beam="2">  1       -2 0.39268835E-01 0.51906451E+03</pdfrwt>
<totfact> 0.26186830E+02</totfact>
</mgrwt>
</event>
<event>
 5    0  0.2754780E-002  0.5876815E+03  0.7546771E-02  0.9931298E-01
          2   -1    0    0  502    0  0.00000000000E+00  0.00000000000E+00  0.10164765635E+04  0.10164765635E+04  0.00000000000E+00 0. -1.
         -2   -1    0    0    0  501 -0.00000000000E+00 -0.00000000000E+00 -0.28606959344E+03  0.28606959344E+03  0.00000000000E+00 0.  1.
         25    1    1    2    0    0  0.29020727446E+03 -0.11955226309E+02 -0.51739014716E+02  0.32041397477E+03  0.12500000000E+03 0.  0.
         21    1    1    2  502  503 -0.25821097747E+03  0.15054386099E+02  0.68236184354E+02  0.26749900987E+03  0.00000000000E+00 0. -1.
         21    1    1    2  503  501 -0.31996296988E+02 -0.30991597901E+01  0.71390980042E+03  0.71463317230E+03  0.00000000000E+00 0. -1.
<mgrwt>
<rscale>  4 0.58768148E+03</rscale>
<asrwt>0</asrwt>
<pdfrwt beam="1">  1        2 0.15638101E+00 0.58768148E+03</pdfrwt>
<pdfrwt beam="2">  1       -2 0.44010707E-01 0.58768148E+03</pdfrwt>
<totfact> 0.12346086E+02</totfact>
</mgrwt>
</event>
<event>
 5    0  0.2754780E-002  0.4116353E+03  0.7546771E-02  0.1039824E+00
          2   -1    0    0  503    0  0.00000000000E+00  0.00000000000E+00  0.14710281898E+04  0.14710281898E+04  0.00000000000E+00 0.  1.
         -2   -1    0    0    0  501 -0.00000000000E+00 -0.00000000000E+00 -0.41213078331E+02  0.41213078331E+02  0.00000000000E+00 0. -1.
         25    1    1    2    0    0  0.14510594454E+03 -0.13769002906E+03  0.76902868391E+03  0.80439069856E+03  0.12500000000E+03 0.  0.
         21    1    1    2  502  501  0.69786731678E+01  0.72261666469E+02  0.33064923746E+03  0.33852528496E+03  0.00000000000E+00 0.  1.
         21    1    1    2  503  502 -0.15208461771E+03  0.65428362590E+02  0.33013719010E+03  0.36932528463E+03  0.00000000000E+00 0. -1.
<mgrwt>
<rscale>  4 0.41163526E+03</rscale>
<asrwt>0</asrwt>
<pdfrwt beam="1">  1        2 0.22631199E+00 0.41163526E+03</pdfrwt>
<pdfrwt beam="2">  1       -2 0.63404747E-02 0.41163526E+03</pdfrwt>
<totfact> 0.19151400E+03</totfact>
</mgrwt>
</event>
<event>
 5    0  0.2754780E-002  0.4517573E+03  0.7546771E-02  0.1027199E+00
         -2   -1    0    0    0  501 -0.00000000000E+00  0.00000000000E+00  0.84737601883E+02  0.84737601883E+02  0.00000000000E+00 0. -1.
          2   -1    0    0  502    0  0.00000000000E+00 -0.00000000000E+00 -0.10414630300E+04  0.10414630300E+04  0.00000000000E+00 0.  1.
         25    1    1    2    0    0 -0.56189199680E+02 -0.21816705297E+03 -0.32355822381E+03  0.41360490007E+03  0.12500000000E+03 0.  0.
         21    1    1    2  502  503 -0.11435058732E+02  0.19344387392E+03 -0.21988452260E+03  0.29308786431E+03  0.00000000000E+00 0.  1.
         21    1    1    2  503  501  0.67624258412E+02  0.24723179052E+02 -0.41328268174E+03  0.41950786755E+03  0.00000000000E+00 0.  1.
<mgrwt>
<rscale>  4 0.45175729E+03</rscale>
<asrwt>0</asrwt>
<pdfrwt beam="1">  1        2 0.16022508E+00 0.45175729E+03</pdfrwt>
<pdfrwt beam="2">  1       -2 0.13036555E-01 0.45175729E+03</pdfrwt>
<totfact> 0.10645936E+03</totfact>
</mgrwt>
</event>
<event>
 5    0  0.2754780E-002  0.8425152E+03  0.7546771E-02  0.9500438E-01
          2   -1    0    0  503    0  0.00000000000E+00  0.00000000000E+00  0.20685367539E+04  0.20685367539E+04  0.00000000000E+00 0. -1.
         -2   -1    0    0    0  501 -0.00000000000E+00 -0.00000000000E+00 -0.47679025570E+03  0.47679025570E+03  0.00000000000E+00 0.  1.
         25    1    1    2    0    0 -0.20653899533E+03  0.14936117711E+03  0.24146652027E+03  0.37269048583E+03  0.12500000000E+03 0.  0.
         21    1    1    2  502  501  0.23198336550E+03 -0.30267873687E+03  0.17251656468E+04  0.17668127259E+04  0.00000000000E+00 0. -1.
         21    1    1    2  503  502 -0.25444370173E+02  0.15331755976E+03 -0.37488566891E+03  0.40582379780E+03  0.00000000000E+00 0.  1.
<mgrwt>
<rscale>  4 0.84251523E+03</rscale>
<asrwt>0</asrwt>
<pdfrwt beam="1">  1        2 0.31823642E+00 0.84251523E+03</pdfrwt>
<pdfrwt beam="2">  1       -2 0.73352348E-01 0.84251523E+03</pdfrwt>
<totfact> 0.10501963E+01</totfact>
</mgrwt>
</event>
<event>
 5    0  0.2754780E-002  0.4925492E+03  0.7546771E-02  0.1015742E+00
         -1   -1    0    0    0  501 -0.00000000000E+00  0.00000000000E+00  0.12942570419E+03  0.12942570419E+03  0.00000000000E+00 0.  1.
          1   -1    0    0  502    0  0.00000000000E+00 -0.00000000000E+00 -0.59846314356E+03  0.59846314356E+03  0.00000000000E+00 0. -1.
         25    1    1    2    0    0  0.21985497074E+01 -0.22156158388E+03 -0.31688252651E+03  0.40636671207E+03  0.12500000000E+03 0.  0.
         21    1    1    2  502  503 -0.89188868033E+01  0.19360424508E+03 -0.30108493401E+02  0.19613432037E+03  0.00000000000E+00 0.  1.
         21    1    1    2  503  501  0.67203370960E+01  0.27957338808E+02 -0.12204641947E+03  0.12538781531E+03  0.00000000000E+00 0. -1.
<mgrwt>
<rscale>  4 0.49254921E+03</rscale>
<asrwt>0</asrwt>
<pdfrwt beam="1">  1        1 0.92071251E-01 0.49254921E+03</pdfrwt>
<pdfrwt beam="2">  1       -1 0.19911647E-01 0.49254921E+03</pdfrwt>
<totfact> 0.71516437E+02</totfact>
</mgrwt>
</event>
<event>
 5    0  0.2754780E-002  0.5567314E+03  0.7546771E-02  0.9999478E-01
         -2   -1    0    0    0  501 -0.00000000000E+00  0.00000000000E+00  0.42761532030E+03  0.42761532030E+03  0.00000000000E+00 0. -1.
          2   -1    0    0  503    0  0.00000000000E+00 -0.00000000000E+00 -0.18120831887E+03  0.18120831887E+03  0.00000000000E+00 0.  1.
         25    1    1    2    0    0  0.55656806291E+02 -0.19387465776E+03  0.30985511909E+03  0.39028227969E+03  0.12500000000E+03 0.  0.
         21    1    1    2  502  501  0.81365482380E+01  0.22507481555E+02 -0.18479623752E+02  0.30237173102E+02  0.00000000000E+00 0. -1.
         21    1    1    2  503  502 -0.63793354529E+02  0.17136717621E+03 -0.44968493905E+02  0.18830418638E+03  0.00000000000E+00 0.  1.
<mgrwt>
<rscale>  4 0.55673137E+03</rscale>
<asrwt>0</asrwt>
<pdfrwt beam="1">  1        2 0.27878203E-01 0.55673137E+03</pdfrwt>
<pdfrwt beam="2">  1       -2 0.65786972E-01 0.55673137E+03</pdfrwt>
<totfact> 0.41543733E+02</totfact>
</mgrwt>
</event>
<event>
 5    0  0.2754780E-002  0.9585027E+03  0.7546771E-02  0.9355267E-01
         -2   -1    0    0    0  501 -0.00000000000E+00  0.00000000000E+00  0.19610087539E+03  0.19610087539E+03  0.00000000000E+00 0.  1.
          2   -1    0    0  503    0  0.00000000000E+00 -0.00000000000E+00 -0.12996244602E+04  0.12996244602E+04  0.00000000000E+00 0. -1.
         25    1    1    2    0    0  0.47379910283E+03 -0.47483302256E+02 -0.39833083876E+03  0.63327143544E+03  0.12500000000E+03 0.  0.
         21    1    1    2  502  501 -0.22591940581E+02  0.26563373258E+02 -0.10921587371E+03  0.11464778955E+03  0.00000000000E+00 0.  1.
         21    1    1    2  503  502 -0.45120716225E+03  0.20919928998E+02 -0.59597687235E+03  0.74780611062E+03  0.00000000000E+00 0. -1.
<mgrwt>
<rscale>  4 0.95850267E+03</rscale>
<asrwt>0</asrwt>
<pdfrwt beam="1">  1        2 0.19994222E+00 0.95850267E+03</pdfrwt>
<pdfrwt beam="2">  1       -2 0.30169366E-01 0.95850267E+03</pdfrwt>
<totfact> 0.16772756E+02</totfact>
</mgrwt>
</event>
<event>
 5    0  0.2754780E-002  0.5115270E+03  0.7546771E-02  0.1010813E+00
          2   -1    0    0  502    0  0.00000000000E+00  0.00000000000E+00  0.44943169538E+03  0.44943169538E+03  0.00000000000E+00 0.  1.
         -2   -1    0    0    0  501 -0.00000000000E+00 -0.00000000000E+00 -0.20964896227E+03  0.20964896227E+03  0.00000000000E+00 0. -1.
         25    1    1    2    0    0 -0.18017192913E+03 -0.16727038871E+03 -0.29871487943E+02  0.27741415389E+03  0.12500000000E+03 0.  0.
         21    1    1    2  502  503  0.16061361316E+03  0.11825522133E+03  0.14586743493E+03  0.24709985568E+03  0.00000000000E+00 0.  1.
         21    1    1    2  503  501  0.19558315967E+02  0.49015167383E+02  0.12378678612E+03  0.13456664807E+03  0.00000000000E+00 0.  1.
<mgrwt>
<rscale>  4 0.51152701E+03</rscale>
<asrwt>0</asrwt>
<pdfrwt beam="1">  1        2 0.69143338E-01 0.51152701E+03</pdfrwt>
<pdfrwt beam="2">  1       -2 0.32253687E-01 0.51152701E+03</pdfrwt>
<totfact> 0.62818124E+02</totfact>
</mgrwt>
</event>
<event>
 5    0  0.2754780E-002  0.5312413E+03  0.7546771E-02  0.1005932E+00
         -1   -1    0    0    0  501 -0.00000000000E+00  0.00000000000E+00  0.27810438042E+03  0.27810438042E+03  0.00000000000E+00 0.  1.
          1   -1    0    0  503    0  0.00000000000E+00 -0.00000000000E+00 -0.36536973517E+03  0.36536973517E+03  0.00000000000E+00 0. -1.
         25    1    1    2    0    0  0.11456560860E+03 -0.17326349899E+03  0.13602503479E+03  0.27798080661E+03  0.12500000000E+03 0.  0.
         21    1    1    2  502  501  0.37668315629E+02  0.85256903378E+01 -0.10506103060E+03  0.11193484510E+03  0.00000000000E+00 0.  1.
         21    1    1    2  503  502 -0.15223392423E+03  0.16473780865E+03 -0.11822935894E+03  0.25355846387E+03  0.00000000000E+00 0. -1.
<mgrwt>
<rscale>  4 0.53124129E+03</rscale>
<asrwt>0</asrwt>
<pdfrwt beam="1">  1        1 0.56210729E-01 0.53124129E+03</pdfrwt>
<pdfrwt beam="2">  1       -1 0.42785289E-01 0.53124129E+03</pdfrwt>
<totfact> 0.37018851E+02</totfact>
</mgrwt>
</event>
<event>
 5    0  0.2754780E-002  0.4023463E+03  0.7546771E-02  0.1042970E+00
          2   -1    0    0  502    0  0.00000000000E+00  0.00000000000E+00  0.20727114209E+04  0.20727114209E+04  0.00000000000E+00 0. -1.
         -2   -1    0    0    0  501 -0.00000000000E+00 -0.00000000000E+00 -0.36986010484E+02  0.36986010484E+02  0.00000000000E+00 0.  1.
         25    1    1    2    0    0 -0.43735008990E+02 -0.21775466617E+03  0.10844718715E+04  0.11140170940E+04  0.12500000000E+03 0.  0.
         21    1    1    2  502  503  0.77334166012E+02  0.12180760488E+03  0.80337739085E+03  0.81623090972E+03  0.00000000000E+00 0. -1.
         21    1    1    2  503  501 -0.33599157022E+02  0.95947061287E+02  0.14787614801E+03  0.17944942762E+03  0.00000000000E+00 0. -1.
<mgrwt>
<rscale>  4 0.40234627E+03</rscale>
<asrwt>0</asrwt>
<pdfrwt beam="1">  1        2 0.31887859E+00 0.40234627E+03</pdfrwt>
<pdfrwt beam="2">  1       -2 0.56901571E-02 0.40234627E+03</pdfrwt>
<totfact> 0.10779874E+03</totfact>
</mgrwt>
</event>
<event>
 5    0  0.2754780E-002  0.4183894E+03  0.7546771E-02  0.1037592E+00
         -2   -1    0    0    0  501 -0.00000000000E+00  0.00000000000E+00  0.41685703842E+02  0.41685703842E+02  0.00000000000E+00 0.  1.
          2   -1    0    0  502    0  0.00000000000E+00 -0.00000000000E+00 -0.20140071215E+04  0.20140071215E+04  0.00000000000E+00 0. -1.
         25    1    1    2    0    0  0.10820486305E+03  0.18807904515E+03 -0.61071374678E+03  0.66005931560E+03  0.12500000000E+03 0.  0.
         21    1    1    2  502  503 -0.85980691499E+02 -0.14429589836E+03 -0.41431578481E+03  0.44706996671E+03  0.00000000000E+00 0. -1.
         21    1    1    2  503  501 -0.22224171548E+02 -0.43783146784E+02 -0.94729188606E+03  0.94856354301E+03  0.00000000000E+00 0. -1.
<mgrwt>
<rscale>  4 0.41838942E+03</rscale>
<asrwt>0</asrwt>
<pdfrwt beam="1">  1        2 0.30984726E+00 0.41838942E+03</pdfrwt>
<pdfrwt beam="2">  1       -2 0.64131849E-02 0.41838942E+03</pdfrwt>
<totfact> 0.96084742E+02</totfact>
</mgrwt>
</event>
<event>
 5    0  0.2754780E-002  0.6843743E+03  0.7546771E-02  0.9744334E-01
          2   -1    0    0  503    0  0.00000000000E+00  0.00000000000E+00  0.20287779131E+04  0.20287779131E+04  0.00000000000E+00 0.  1.
         -2   -1    0    0    0  501 -0.00000000000E+00 -0.00000000000E+00 -0.93886455797E+02  0.93886455797E+02  0.00000000000E+00 0. -1.
         25    1    1    2    0    0  0.43920833823E+02 -0.34414924950E+03  0.58447494143E+03  0.69108878065E+03  0.12500000000E+03 0.  0.
         21    1    1    2  502  501 -0.11015185414E+03  0.20087678578E+03  0.11684218628E+04  0.11906697962E+04  0.00000000000E+00 0. -1.
         21    1    1    2  503  502  0.66231020316E+02  0.14327246372E+03  0.18199465308E+03  0.24090579209E+03  0.00000000000E+00 0. -1.
<mgrwt>
<rscale>  4 0.68437427E+03</rscale>
<asrwt>0</asrwt>
<pdfrwt beam="1">  1        2 0.31211965E+00 0.68437427E+03</pdfrwt>
<pdfrwt beam="2">  1       -2 0.14444072E-01 0.68437427E+03</pdfrwt>
<totfact> 0.24777086E+02</totfact>
</mgrwt>
</event>
<event>
 5    0  0.2754780E-002  0.5562502E+03  0.7546771E-02  0.1000058E+00
         -1   -1    0    0    0  501 -0.00000000000E+00  0.00000000000E+00  0.51098610911E+02  0.51098610911E+02  0.00000000000E+00 0. -1.
          1   -1    0    0  503    0  0.00000000000E+00 -0.00000000000E+00 -0.15138097492E+04  0.15138097492E+04  0.00000000000E+00 0.  1.
         25    1    1    2    0    0  0.85228514052E+02  0.18313953599E+03 -0.29806549912E+03  0.38114568214E+03  0.12500000000E+03 0.  0.
         21    1    1    2  502  501 -0.10229243801E+02 -0.28821372661E+02 -0.34490444660E+03  0.34625768762E+03  0.00000000000E+00 0. -1.
         21    1    1    2  503  502 -0.74999270251E+02 -0.15431816333E+03 -0.81974119260E+03  0.83750499038E+03  0.00000000000E+00 0.  1.
<mgrwt>
<rscale>  4 0.55625021E+03</rscale>
<asrwt>0</asrwt>
<pdfrwt beam="1">  1        1 0.23289381E+00 0.55625021E+03</pdfrwt>
<pdfrwt beam="2">  1       -1 0.78613245E-02 0.55625021E+03</pdfrwt>
<totfact> 0.60660141E+02</totfact>
</mgrwt>
</event>
<event>
 5    0  0.2754780E-002  0.6420875E+03  0.7546771E-02  0.9821741E-01
          2   -1    0    0  503    0  0.00000000000E+00  0.00000000000E+00  0.31463819048E+03  0.31463819048E+03  0.00000000000E+00 0.  1.
         -2   -1    0    0    0  501 -0.00000000000E+00 -0.00000000000E+00 -0.95995382052E+03  0.95995382052E+03  0.00000000000E+00 0. -1.
         25    1    1    2    0    0 -0.21506890647E+03  0.81975560618E+02 -0.12174261463E+03  0.28882674960E+03  0.12500000000E+03 0.  0.
         21    1    1    2  502  501 -0.45633169065E+02 -0.13964087612E+02  0.20420982379E+03  0.20971178792E+03  0.00000000000E+00 0.  1.
         21    1    1    2  503  502  0.26070207554E+03 -0.68011473007E+02 -0.72778283920E+03  0.77605347347E+03  0.00000000000E+00 0. -1.
<mgrwt>
<rscale>  4 0.64208753E+03</rscale>
<asrwt>0</asrwt>
<pdfrwt beam="1">  1        2 0.48405876E-01 0.64208753E+03</pdfrwt>
<pdfrwt beam="2">  1       -2 0.14768520E+00 0.64208753E+03</pdfrwt>
<totfact> 0.33150461E+01</totfact>
</mgrwt>
</event>
<event>
 5    0  0.2754780E-002  0.4225742E+03  0.7546771E-02  0.1036232E+00
          2   -1    0    0  502    0  0.00000000000E+00  0.00000000000E+00  0.16406183390E+04  0.16406183390E+04  0.00000000000E+00 0. -1.
         -2   -1    0    0    0  501 -0.00000000000E+00 -0.00000000000E+00 -0.68502334974E+02  0.68502334974E+02  0.00000000000E+00 0.  1.
         25    1    1    2    0    0  0.52064279981E+02  0.19919908282E+03  0.29389955932E+03  0.37999067727E+03  0.12500000000E+03 0.  0.
         21    1    1    2  502  503 -0.66849580399E+02 -0.16576945777E+03  0.29286641940E+03  0.34310219927E+03  0.00000000000E+00 0. -1.
         21    1    1    2  503  501  0.14785300418E+02 -0.33429625047E+02  0.98535002535E+03  0.98602779748E+03  0.00000000000E+00 0. -1.
<mgrwt>
<rscale>  4 0.42257425E+03</rscale>
<asrwt>0</asrwt>
<pdfrwt beam="1">  1        2 0.25240279E+00 0.42257425E+03</pdfrwt>
<pdfrwt beam="2">  1       -2 0.10538822E-01 0.42257425E+03</pdfrwt>
<totfact> 0.69148010E+02</totfact>
</mgrwt>
</event>
<event>
 5    0  0.2754780E-002  0.5053239E+03  0.7546771E-02  0.1012399E+00
          2   -1    0    0  503    0  0.00000000000E+00  0.00000000000E+00  0.11802113195E+04  0.11802113195E+04  0.00000000000E+00 0.  1.
         -2   -1    0    0    0  501 -0.00000000000E+00 -0.00000000000E+00 -0.93916014340E+02  0.93916014340E+02  0.00000000000E+00 0. -1.
         25    1    1    2    0    0 -0.21193404584E+03  0.25248659147E+02  0.50513982000E+03  0.56244535052E+03  0.12500000000E+03 0.  0.
         21    1    1    2  502  501  0.20987207861E+02  0.22165411265E+02  0.49659822750E+03  0.49753549412E+03  0.00000000000E+00 0.  1.
         21    1    1    2  503  502  0.19094683798E+03 -0.47414070412E+02  0.84557257627E+02  0.21414648917E+03  0.00000000000E+00 0. -1.
<mgrwt>
<rscale>  4 0.50532390E+03</rscale>
<asrwt>0</asrwt>
<pdfrwt beam="1">  1        2 0.18157096E+00 0.50532390E+03</pdfrwt>
<pdfrwt beam="2">  1       -2 0.14448618E-01 0.50532390E+03</pdfrwt>
<totfact> 0.73909221E+02</totfact>
</mgrwt>
</event>
<event>
 5    0  0.2754780E-002  0.4988352E+03  0.7546771E-02  0.1014083E+00
         -2   -1    0    0    0  501 -0.00000000000E+00  0.00000000000E+00  0.69899337107E+02  0.69899337107E+02  0.00000000000E+00 0. -1.
          2   -1    0    0  502    0  0.00000000000E+00 -0.00000000000E+00 -0.11025238229E+04  0.11025238229E+04  0.00000000000E+00 0.  1.
         25    1    1    2    0    0  0.16947133077E+03  0.11668157775E+03 -0.64055847060E+03  0.68430642025E+03  0.12500000000E+03 0.  0.
         21    1    1    2  502  503 -0.18874608436E+03 -0.97434939664E+02 -0.19237869782E+03  0.28658020728E+03  0.00000000000E+00 0. -1.
         21    1    1    2  503  501  0.19274753588E+02 -0.19246638084E+02 -0.19968731734E+03  0.20153653244E+03  0.00000000000E+00 0. -1.
<mgrwt>
<rscale>  4 0.49883516E+03</rscale>
<asrwt>0</asrwt>
<pdfrwt beam="1">  1        2 0.16961904E+00 0.49883516E+03</pdfrwt>
<pdfrwt beam="2">  1       -2 0.10753745E-01 0.49883516E+03</pdfrwt>
<totfact> 0.13379883E+03</totfact>
</mgrwt>
</event>
<event>
 5    0  0.2754780E-002  0.6452042E+03  0.7546771E-02  0.9815820E-01
         -2   -1    0    0    0  501 -0.00000000000E+00  0.00000000000E+00  0.22437160767E+03  0.22437160767E+03  0.00000000000E+00 0.  1.
          2   -1    0    0  502    0  0.00000000000E+00 -0.00000000000E+00 -0.67042917276E+03  0.67042917276E+03  0.00000000000E+00 0. -1.
         25    1    1    2    0    0  0.91639174839E+01 -0.33427819547E+03 -0.55070794993E+02  0.36122525079E+03  0.12500000000E+03 0.  0.
         21    1    1    2  502  503 -0.73716722591E+01  0.26436074144E+03 -0.20419914945E+03  0.33412308481E+03  0.00000000000E+00 0. -1.
         21    1    1    2  503  501 -0.17922452247E+01  0.69917454024E+02 -0.18678762065E+03  0.19945244483E+03  0.00000000000E+00 0. -1.
<mgrwt>
<rscale>  4 0.64520416E+03</rscale>
<asrwt>0</asrwt>
<pdfrwt beam="1">  1        2 0.10314295E+00 0.64520416E+03</pdfrwt>
<pdfrwt beam="2">  1       -2 0.34518709E-01 0.64520416E+03</pdfrwt>
<totfact> 0.34393914E+02</totfact>
</mgrwt>
</event>
<event>
 5    0  0.2754780E-002  0.4375507E+03  0.7546771E-02  0.1031501E+00
         -2   -1    0    0    0  501 -0.00000000000E+00  0.00000000000E+00  0.27357729185E+02  0.27357729185E+02  0.00000000000E+00 0. -1.
          2   -1    0    0  502    0  0.00000000000E+00 -0.00000000000E+00 -0.31375502477E+04  0.31375502477E+04  0.00000000000E+00 0.  1.
         25    1    1    2    0    0 -0.85032579404E+02  0.19626117394E+03 -0.98423127276E+03  0.10149311239E+04  0.12500000000E+03 0.  0.
         21    1    1    2  502  503  0.10154200036E+03 -0.16036827723E+03 -0.75661876547E+03  0.78006456043E+03  0.00000000000E+00 0.  1.
         21    1    1    2  503  501 -0.16509420956E+02 -0.35892896713E+02 -0.13693424803E+04  0.13699122925E+04  0.00000000000E+00 0.  1.
<mgrwt>
<rscale>  4 0.43755074E+03</rscale>
<asrwt>0</asrwt>
<pdfrwt beam="1">  1        2 0.48270000E+00 0.43755074E+03</pdfrwt>
<pdfrwt beam="2">  1       -2 0.42088817E-02 0.43755074E+03</pdfrwt>
<totfact> 0.42366457E+02</totfact>
</mgrwt>
</event>
<event>
 5    0  0.2754780E-002  0.7654411E+03  0.7546771E-02  0.9611432E-01
         -2   -1    0    0    0  501 -0.00000000000E+00  0.00000000000E+00  0.14870053465E+03  0.14870053465E+03  0.00000000000E+00 0. -1.
          2   -1    0    0  502    0  0.00000000000E+00 -0.00000000000E+00 -0.12661705476E+04  0.12661705476E+04  0.00000000000E+00 0.  1.
         25    1    1    2    0    0  0.29591321586E+03 -0.15200663987E+03 -0.66426524359E+03  0.75335513785E+03  0.12500000000E+03 0.  0.
         21    1    1    2  502  503 -0.29340464505E+03  0.17204299074E+03 -0.17486238125E+03  0.38244205937E+03  0.00000000000E+00 0. -1.
         21    1    1    2  503  501 -0.25085708035E+01 -0.20036350868E+02 -0.27834238813E+03  0.27907388504E+03  0.00000000000E+00 0.  1.
<mgrwt>
<rscale>  4 0.76544112E+03</rscale>
<asrwt>0</asrwt>
<pdfrwt beam="1">  1        2 0.19479547E+00 0.76544112E+03</pdfrwt>
<pdfrwt beam="2">  1       -2 0.22877005E-01 0.76544112E+03</pdfrwt>
<totfact> 0.29371130E+02</totfact>
</mgrwt>
</event>
<event>
 5    0  0.2754780E-002  0.1166551E+04  0.7546771E-02  0.9142649E-01
          2   -1    0    0  502    0  0.00000000000E+00  0.00000000000E+00  0.95128185736E+03  0.95128185736E+03  0.00000000000E+00 0. -1.
         -2   -1    0    0    0  501 -0.00000000000E+00 -0.00000000000E+00 -0.59315722109E+03  0.59315722109E+03  0.00000000000E+00 0.  1.
         25    1    1    2    0    0 -0.24895674620E+03  0.17479264371E+03 -0.27021489509E+03  0.42564424031E+03  0.12500000000E+03 0.  0.
         21    1    1    2  502  503 -0.40120068332E+02 -0.18127176428E+03 -0.18104072327E+03  0.25931605405E+03  0.00000000000E+00 0. -1.
         21    1    1    2  503  501  0.28907681454E+03  0.64791205727E+01  0.80938025463E+03  0.85947878409E+03  0.00000000000E+00 0. -1.
<mgrwt>
<rscale>  4 0.11665513E+04</rscale>
<asrwt>0</asrwt>
<pdfrwt beam="1">  1        2 0.14635106E+00 0.11665513E+04</pdfrwt>
<pdfrwt beam="2">  1       -2 0.91254957E-01 0.11665513E+04</pdfrwt>
<totfact> 0.27287900E+01</totfact>
</mgrwt>
</event>
<event>
 5    0  0.2754780E-002  0.7838209E+03  0.7546771E-02  0.9583735E-01
          2   -1    0    0  503    0  0.00000000000E+00  0.00000000000E+00  0.98246924213E+03  0.98246924213E+03  0.00000000000E+00 0.  1.
         -2   -1    0    0    0  501 -0.00000000000E+00 -0.00000000000E+00 -0.17545615620E+03  0.17545615620E+03  0.00000000000E+00 0. -1.
         25    1    1    2    0    0  0.37912011028E+03 -0.69561391476E+02  0.36464298699E+03  0.54512416307E+03  0.12500000000E+03 0.  0.
         21    1    1    2  502  501 -0.14815475846E+02 -0.33114341219E+02  0.84277397868E+02  0.91753679547E+02  0.00000000000E+00 0. -1.
         21    1    1    2  503  502 -0.36430463443E+03  0.10267573269E+03  0.35809270108E+03  0.52104755572E+03  0.00000000000E+00 0. -1.
<mgrwt>
<rscale>  4 0.78382094E+03</rscale>
<asrwt>0</asrwt>
<pdfrwt beam="1">  1        2 0.15114911E+00 0.78382094E+03</pdfrwt>
<pdfrwt beam="2">  1       -2 0.26993255E-01 0.78382094E+03</pdfrwt>
<totfact> 0.32411486E+02</totfact>
</mgrwt>
</event>
<event>
 5    0  0.2754780E-002  0.4347671E+03  0.7546771E-02  0.1032365E+00
         -3   -1    0    0    0  501 -0.00000000000E+00  0.00000000000E+00  0.14585140980E+03  0.14585140980E+03  0.00000000000E+00 0. -1.
          3   -1    0    0  503    0  0.00000000000E+00 -0.00000000000E+00 -0.38449228880E+03  0.38449228880E+03  0.00000000000E+00 0.  1.
         25    1    1    2    0    0 -0.64642946821E+01 -0.20706869816E+03 -0.14772021400E+03  0.28348808526E+03  0.12500000000E+03 0.  0.
         21    1    1    2  502  501  0.16222508460E+02  0.21226845034E+02 -0.49431213875E+02  0.56188910258E+02  0.00000000000E+00 0.  1.
         21    1    1    2  503  502 -0.97582137782E+01  0.18584185312E+03 -0.41489451125E+02  0.19066670308E+03  0.00000000000E+00 0. -1.
<mgrwt>
<rscale>  4 0.43476714E+03</rscale>
<asrwt>0</asrwt>
<pdfrwt beam="1">  1        3 0.59152660E-01 0.43476714E+03</pdfrwt>
<pdfrwt beam="2">  1       -3 0.22438679E-01 0.43476714E+03</pdfrwt>
<totfact> 0.13462435E+02</totfact>
</mgrwt>
</event>
<event>
 5    0  0.2754780E-002  0.5947402E+03  0.7546771E-02  0.9916379E-01
          2   -1    0    0  502    0  0.00000000000E+00  0.00000000000E+00  0.51963731388E+03  0.51963731388E+03  0.00000000000E+00 0. -1.
         -2   -1    0    0    0  501 -0.00000000000E+00 -0.00000000000E+00 -0.24858318573E+03  0.24858318573E+03  0.00000000000E+00 0.  1.
         25    1    1    2    0    0  0.94010379403E+02  0.26026940974E+03  0.33065627873E+03  0.44892838153E+03  0.12500000000E+03 0.  0.
         21    1    1    2  502  503 -0.36171176397E+02 -0.31865026274E+02 -0.68205899571E+02  0.83521126894E+02  0.00000000000E+00 0.  1.
         21    1    1    2  503  501 -0.57839203006E+02 -0.22840438346E+03  0.86037489930E+01  0.23577099119E+03  0.00000000000E+00 0. -1.
<mgrwt>
<rscale>  4 0.59474017E+03</rscale>
<asrwt>0</asrwt>
<pdfrwt beam="1">  1        2 0.79944202E-01 0.59474017E+03</pdfrwt>
<pdfrwt beam="2">  1       -2 0.38243567E-01 0.59474017E+03</pdfrwt>
<totfact> 0.38435009E+02</totfact>
</mgrwt>
</event>
<event>
 5    0  0.2754780E-002  0.7017380E+03  0.7546771E-02  0.9714265E-01
          1   -1    0    0  502    0  0.00000000000E+00  0.00000000000E+00  0.11921070924E+04  0.11921070924E+04  0.00000000000E+00 0.  1.
         -1   -1    0    0    0  501 -0.00000000000E+00 -0.00000000000E+00 -0.15856709353E+03  0.15856709353E+03  0.00000000000E+00 0. -1.
         25    1    1    2    0    0  0.18960085788E+03  0.18967024232E+03  0.65683990873E+02  0.30308855602E+03  0.12500000000E+03 0.  0.
         21    1    1    2  502  503 -0.25233772076E+03 -0.16085982852E+03  0.56993573525E+03  0.64372117572E+03  0.00000000000E+00 0.  1.
         21    1    1    2  503  501  0.62736862883E+02 -0.28810413805E+02  0.39792027277E+03  0.40386445422E+03  0.00000000000E+00 0.  1.
<mgrwt>
<rscale>  4 0.70173801E+03</rscale>
<asrwt>0</asrwt>
<pdfrwt beam="1">  1        1 0.18340109E+00 0.70173801E+03</pdfrwt>
<pdfrwt beam="2">  1       -1 0.24394938E-01 0.70173801E+03</pdfrwt>
<totfact> 0.16134496E+02</totfact>
</mgrwt>
</event>
<event>
 5    0  0.2754780E-002  0.5301753E+03  0.7546771E-02  0.1006190E+00
         -2   -1    0    0    0  501 -0.00000000000E+00  0.00000000000E+00  0.51561748321E+02  0.51561748321E+02  0.00000000000E+00 0.  1.
          2   -1    0    0  503    0  0.00000000000E+00 -0.00000000000E+00 -0.22241307625E+04  0.22241307625E+04  0.00000000000E+00 0. -1.
         25    1    1    2    0    0  0.13044471124E+03  0.18773190145E+03 -0.49328051626E+03  0.55786177252E+03  0.12500000000E+03 0.  0.
         21    1    1    2  502  501 -0.37634629258E+02  0.45666738522E+02 -0.83185966470E+03  0.83396182051E+03  0.00000000000E+00 0. -1.
         21    1    1    2  503  502 -0.92810081979E+02 -0.23339863997E+03 -0.84742883320E+03  0.88386891776E+03  0.00000000000E+00 0. -1.
<mgrwt>
<rscale>  4 0.53017528E+03</rscale>
<asrwt>0</asrwt>
<pdfrwt beam="1">  1        2 0.34217391E+00 0.53017528E+03</pdfrwt>
<pdfrwt beam="2">  1       -2 0.79325779E-02 0.53017528E+03</pdfrwt>
<totfact> 0.52366737E+02</totfact>
</mgrwt>
</event>
<event>
 5    0  0.2754780E-002  0.7491610E+03  0.7546771E-02  0.9636667E-01
          2   -1    0    0  503    0  0.00000000000E+00  0.00000000000E+00  0.81662414063E+03  0.81662414063E+03  0.00000000000E+00 0.  1.
         -2   -1    0    0    0  501 -0.00000000000E+00 -0.00000000000E+00 -0.44878927901E+03  0.44878927901E+03  0.00000000000E+00 0. -1.
         25    1    1    2    0    0  0.41717752106E+03  0.10601556733E+02  0.23410089276E+02  0.43625968111E+03  0.12500000000E+03 0.  0.
         21    1    1    2  502  501 -0.13203251053E+03 -0.60354683213E+02  0.48579476850E+03  0.50702251304E+03  0.00000000000E+00 0.  1.
         21    1    1    2  503  502 -0.28514501053E+03  0.49753126480E+02 -0.14136999616E+03  0.32213122549E+03  0.00000000000E+00 0.  1.
<mgrwt>
<rscale>  4 0.74916102E+03</rscale>
<asrwt>0</asrwt>
<pdfrwt beam="1">  1        2 0.12563448E+00 0.74916102E+03</pdfrwt>
<pdfrwt beam="2">  1       -2 0.69044505E-01 0.74916102E+03</pdfrwt>
<totfact> 0.65056000E+01</totfact>
</mgrwt>
</event>
<event>
 5    0  0.2754780E-002  0.5633760E+03  0.7546771E-02  0.9984445E-01
          1   -1    0    0  502    0  0.00000000000E+00  0.00000000000E+00  0.95749947566E+03  0.95749947566E+03  0.00000000000E+00 0.  1.
         -1   -1    0    0    0  501 -0.00000000000E+00 -0.00000000000E+00 -0.14343376396E+03  0.14343376396E+03  0.00000000000E+00 0. -1.
         25    1    1    2    0    0  0.84103782274E+02 -0.22115785817E+03  0.43021391086E+03  0.50664904374E+03  0.12500000000E+03 0.  0.
         21    1    1    2  502  503 -0.13349757534E+03  0.15359368299E+03  0.21476591459E+01  0.20351224660E+03  0.00000000000E+00 0. -1.
         21    1    1    2  503  501  0.49393793064E+02  0.67564175188E+02  0.38170414169E+03  0.39077194928E+03  0.00000000000E+00 0. -1.
<mgrwt>
<rscale>  4 0.56337601E+03</rscale>
<asrwt>0</asrwt>
<pdfrwt beam="1">  1        1 0.14730761E+00 0.56337601E+03</pdfrwt>
<pdfrwt beam="2">  1       -1 0.22066733E-01 0.56337601E+03</pdfrwt>
<totfact> 0.28958146E+02</totfact>
</mgrwt>
</event>
<event>
 5    0  0.2754780E-002  0.5007359E+03  0.7546771E-02  0.1013587E+00
          2   -1    0    0  502    0  0.00000000000E+00  0.00000000000E+00  0.33522394014E+03  0.33522394014E+03  0.00000000000E+00 0. -1.
         -2   -1    0    0    0  501 -0.00000000000E+00 -0.00000000000E+00 -0.34848708869E+03  0.34848708869E+03  0.00000000000E+00 0.  1.
         25    1    1    2    0    0  0.10398359018E+03  0.21571457840E+03  0.57305304914E+02  0.27614174681E+03  0.12500000000E+03 0.  0.
         21    1    1    2  502  503 -0.53084812658E+02 -0.13040689825E+03 -0.19988929600E+03  0.24449884888E+03  0.00000000000E+00 0.  1.
         21    1    1    2  503  501 -0.50898777518E+02 -0.85307680151E+02  0.12932084254E+03  0.16307043313E+03  0.00000000000E+00 0.  1.
<mgrwt>
<rscale>  4 0.50073589E+03</rscale>
<asrwt>0</asrwt>
<pdfrwt beam="1">  1        2 0.51572914E-01 0.50073589E+03</pdfrwt>
<pdfrwt beam="2">  1       -2 0.53613398E-01 0.50073589E+03</pdfrwt>
<totfact> 0.32259168E+02</totfact>
</mgrwt>
</event>
<event>
 5    0  0.2754780E-002  0.4460128E+03  0.7546771E-02  0.1028918E+00
          1   -1    0    0  503    0  0.00000000000E+00  0.00000000000E+00  0.77559279499E+03  0.77559279499E+03  0.00000000000E+00 0.  1.
         -1   -1    0    0    0  501 -0.00000000000E+00 -0.00000000000E+00 -0.11849693533E+03  0.11849693533E+03  0.00000000000E+00 0. -1.
         25    1    1    2    0    0  0.97461355193E+02  0.21950967859E+03  0.16887053176E+03  0.31910103611E+03  0.12500000000E+03 0.  0.
         21    1    1    2  502  501 -0.79368744321E+01 -0.71136962714E+02  0.33847216405E+03  0.34595789813E+03  0.00000000000E+00 0. -1.
         21    1    1    2  503  502 -0.89524480761E+02 -0.14837271587E+03  0.14975316385E+03  0.22903079608E+03  0.00000000000E+00 0. -1.
<mgrwt>
<rscale>  4 0.44601283E+03</rscale>
<asrwt>0</asrwt>
<pdfrwt beam="1">  1        1 0.11932197E+00 0.44601283E+03</pdfrwt>
<pdfrwt beam="2">  1       -1 0.18230298E-01 0.44601283E+03</pdfrwt>
<totfact> 0.56429986E+02</totfact>
</mgrwt>
</event>
<event>
 5    0  0.2754780E-002  0.2092083E+04  0.7546771E-02  0.8564739E-01
          2   -1    0    0  502    0  0.00000000000E+00  0.00000000000E+00  0.35343510719E+04  0.35343510719E+04  0.00000000000E+00 0.  1.
         -2   -1    0    0    0  501 -0.00000000000E+00 -0.00000000000E+00 -0.52558360265E+03  0.52558360265E+03  0.00000000000E+00 0. -1.
         25    1    1    2    0    0 -0.98168639045E+03 -0.12715935037E+03  0.11387826359E+04  0.15140437779E+04  0.12500000000E+03 0.  0.
         21    1    1    2  502  503  0.10066193578E+04  0.93176750053E+02  0.41903408932E+03  0.10943281072E+04  0.00000000000E+00 0. -1.
         21    1    1    2  503  501 -0.24932967357E+02  0.33982600320E+02  0.14509507440E+04  0.14515627894E+04  0.00000000000E+00 0.  1.
<mgrwt>
<rscale>  4 0.20920829E+04</rscale>
<asrwt>0</asrwt>
<pdfrwt beam="1">  1        2 0.54374630E+00 0.20920829E+04</pdfrwt>
<pdfrwt beam="2">  1       -2 0.80859018E-01 0.20920829E+04</pdfrwt>
<totfact> 0.94887627E-01</totfact>
</mgrwt>
</event>
<event>
 5    0  0.2754780E-002  0.7351966E+03  0.7546771E-02  0.9658865E-01
          1   -1    0    0  503    0  0.00000000000E+00  0.00000000000E+00  0.11165429787E+04  0.11165429787E+04  0.00000000000E+00 0.  1.
         -1   -1    0    0    0  501 -0.00000000000E+00 -0.00000000000E+00 -0.18689970857E+03  0.18689970857E+03  0.00000000000E+00 0. -1.
         25    1    1    2    0    0  0.22945392863E+03  0.20525905278E+03  0.54182080114E+03  0.63559040636E+03  0.12500000000E+03 0.  0.
         21    1    1    2  502  501  0.17175070934E+00 -0.47600198206E+02  0.38638806627E+03  0.38930906247E+03  0.00000000000E+00 0.  1.
         21    1    1    2  503  502 -0.22962567934E+03 -0.15765885458E+03  0.14344027492E+01  0.27854321846E+03  0.00000000000E+00 0. -1.
<mgrwt>
<rscale>  4 0.73519662E+03</rscale>
<asrwt>0</asrwt>
<pdfrwt beam="1">  1        1 0.17177584E+00 0.73519662E+03</pdfrwt>
<pdfrwt beam="2">  1       -1 0.28753802E-01 0.73519662E+03</pdfrwt>
<totfact> 0.13788457E+02</totfact>
</mgrwt>
</event>
<event>
 5    0  0.2754780E-002  0.4347159E+03  0.7546771E-02  0.1032381E+00
          2   -1    0    0  502    0  0.00000000000E+00  0.00000000000E+00  0.46846472924E+03  0.46846472924E+03  0.00000000000E+00 0. -1.
         -2   -1    0    0    0  501 -0.00000000000E+00 -0.00000000000E+00 -0.12908881132E+03  0.12908881132E+03  0.00000000000E+00 0.  1.
         25    1    1    2    0    0  0.11123341194E+03  0.18073717180E+03  0.12147434862E+03  0.27462668220E+03  0.12500000000E+03 0.  0.
         21    1    1    2  502  503 -0.99036794672E+02 -0.15915410268E+03  0.12148978734E+03  0.22337878934E+03  0.00000000000E+00 0. -1.
         21    1    1    2  503  501 -0.12196617272E+02 -0.21583069122E+02  0.96411781965E+02  0.99548069028E+02  0.00000000000E+00 0. -1.
<mgrwt>
<rscale>  4 0.43471586E+03</rscale>
<asrwt>0</asrwt>
<pdfrwt beam="1">  1        2 0.72071496E-01 0.43471586E+03</pdfrwt>
<pdfrwt beam="2">  1       -2 0.19859817E-01 0.43471586E+03</pdfrwt>
<totfact> 0.14317362E+03</totfact>
</mgrwt>
</event>
<event>
 5    0  0.2754780E-002  0.4883229E+03  0.7546771E-02  0.1016873E+00
         -2   -1    0    0    0  501 -0.00000000000E+00  0.00000000000E+00  0.23919271188E+03  0.23919271188E+03  0.00000000000E+00 0. -1.
          2   -1    0    0  503    0  0.00000000000E+00 -0.00000000000E+00 -0.96922084938E+03  0.96922084938E+03  0.00000000000E+00 0.  1.
         25    1    1    2    0    0 -0.18146379103E+03 -0.11922462417E+03 -0.11149525260E+03  0.27422583725E+03  0.12500000000E+03 0.  0.
         21    1    1    2  502  501  0.20021952343E+02  0.20982844761E+02 -0.71939044120E+03  0.71997483653E+03  0.00000000000E+00 0.  1.
         21    1    1    2  503  502  0.16144183869E+03  0.98241779414E+02  0.10085755629E+03  0.21421288748E+03  0.00000000000E+00 0.  1.
<mgrwt>
<rscale>  4 0.48832287E+03</rscale>
<asrwt>0</asrwt>
<pdfrwt beam="1">  1        2 0.14911090E+00 0.48832287E+03</pdfrwt>
<pdfrwt beam="2">  1       -2 0.36798879E-01 0.48832287E+03</pdfrwt>
<totfact> 0.18891125E+02</totfact>
</mgrwt>
</event>
<event>
 5    0  0.2754780E-002  0.5393811E+03  0.7546771E-02  0.1003982E+00
          2   -1    0    0  502    0  0.00000000000E+00  0.00000000000E+00  0.17490987464E+04  0.17490987464E+04  0.00000000000E+00 0. -1.
         -2   -1    0    0    0  501 -0.00000000000E+00 -0.00000000000E+00 -0.79889424872E+02  0.79889424872E+02  0.00000000000E+00 0.  1.
         25    1    1    2    0    0  0.80630750024E+02 -0.23479593928E+03  0.52789715953E+03  0.59659941501E+03  0.12500000000E+03 0.  0.
         21    1    1    2  502  503 -0.10172579247E+03  0.23057888641E+03  0.30435012590E+03  0.39515029906E+03  0.00000000000E+00 0.  1.
         21    1    1    2  503  501  0.21095042442E+02  0.42170528651E+01  0.83696203606E+03  0.83723845716E+03  0.00000000000E+00 0. -1.
<mgrwt>
<rscale>  4 0.53938108E+03</rscale>
<asrwt>0</asrwt>
<pdfrwt beam="1">  1        2 0.26909209E+00 0.53938108E+03</pdfrwt>
<pdfrwt beam="2">  1       -2 0.12290682E-01 0.53938108E+03</pdfrwt>
<totfact> 0.46550937E+02</totfact>
</mgrwt>
</event>
<event>
 5    0  0.2754780E-002  0.4694482E+03  0.7546771E-02  0.1022076E+00
          1   -1    0    0  503    0  0.00000000000E+00  0.00000000000E+00  0.37853844145E+03  0.37853844145E+03  0.00000000000E+00 0. -1.
         -1   -1    0    0    0  501 -0.00000000000E+00 -0.00000000000E+00 -0.18614018446E+03  0.18614018446E+03  0.00000000000E+00 0.  1.
         25    1    1    2    0    0  0.59383448527E+02  0.19779095674E+03  0.16902365272E+02  0.24198831889E+03  0.12500000000E+03 0.  0.
         21    1    1    2  502  501  0.24372076008E+02  0.61787286721E+01  0.77356456109E+02  0.81340002943E+02  0.00000000000E+00 0. -1.
         21    1    1    2  503  502 -0.83755524535E+02 -0.20396968542E+03  0.98139435610E+02  0.24135030408E+03  0.00000000000E+00 0. -1.
<mgrwt>
<rscale>  4 0.46944820E+03</rscale>
<asrwt>0</asrwt>
<pdfrwt beam="1">  1        1 0.58236683E-01 0.46944820E+03</pdfrwt>
<pdfrwt beam="2">  1       -1 0.28636952E-01 0.46944820E+03</pdfrwt>
<totfact> 0.72047311E+02</totfact>
</mgrwt>
</event>
<event>
 5    0  0.2754780E-002  0.5436970E+03  0.7546771E-02  0.1002963E+00
         -2   -1    0    0    0  501 -0.00000000000E+00  0.00000000000E+00  0.23630790832E+03  0.23630790832E+03  0.00000000000E+00 0.  1.
          2   -1    0    0  502    0  0.00000000000E+00 -0.00000000000E+00 -0.31273440221E+03  0.31273440221E+03  0.00000000000E+00 0. -1.
         25    1    1    2    0    0 -0.24124028597E+03  0.64711450554E+02 -0.31932031798E+02  0.28112115193E+03  0.12500000000E+03 0.  0.
         21    1    1    2  502  503  0.18671319062E+03 -0.78411739476E+02 -0.56890101420E+02  0.21034899590E+03  0.00000000000E+00 0. -1.
         21    1    1    2  503  501  0.54527095348E+02  0.13700288922E+02  0.12395639335E+02  0.57572162702E+02  0.00000000000E+00 0. -1.
<mgrwt>
<rscale>  4 0.54369702E+03</rscale>
<asrwt>0</asrwt>
<pdfrwt beam="1">  1        2 0.48112985E-01 0.54369702E+03</pdfrwt>
<pdfrwt beam="2">  1       -2 0.36355063E-01 0.54369702E+03</pdfrwt>
<totfact> 0.75012736E+02</totfact>
</mgrwt>
</event>
<event>
 5    0  0.2754780E-002  0.5385696E+03  0.7546771E-02  0.1004175E+00
          2   -1    0    0  503    0  0.00000000000E+00  0.00000000000E+00  0.13220295213E+04  0.13220295213E+04  0.00000000000E+00 0. -1.
         -2   -1    0    0    0  501 -0.00000000000E+00 -0.00000000000E+00 -0.60327252444E+02  0.60327252444E+02  0.00000000000E+00 0.  1.
         25    1    1    2    0    0 -0.22180875861E+03  0.96399585149E+02  0.53789124546E+03  0.60286316636E+03  0.12500000000E+03 0.  0.
         21    1    1    2  502  501 -0.14803475342E+02  0.20143787843E+02  0.77621807946E+02  0.81547900891E+02  0.00000000000E+00 0. -1.
         21    1    1    2  503  502  0.23661223395E+03 -0.11654337299E+03  0.64618921543E+03  0.69794570647E+03  0.00000000000E+00 0.  1.
<mgrwt>
<rscale>  4 0.53856957E+03</rscale>
<asrwt>0</asrwt>
<pdfrwt beam="1">  1        2 0.20338914E+00 0.53856957E+03</pdfrwt>
<pdfrwt beam="2">  1       -2 0.92811168E-02 0.53856957E+03</pdfrwt>
<totfact> 0.12630161E+03</totfact>
</mgrwt>
</event>
<event>
 5    0  0.2754780E-002  0.5402060E+03  0.7546771E-02  0.1003787E+00
          1   -1    0    0  502    0  0.00000000000E+00  0.00000000000E+00  0.33007615302E+03  0.33007615302E+03  0.00000000000E+00 0. -1.
         -1   -1    0    0    0  501 -0.00000000000E+00 -0.00000000000E+00 -0.34161411999E+03  0.34161411999E+03  0.00000000000E+00 0.  1.
         25    1    1    2    0    0  0.19067227782E+03 -0.14806744273E+03  0.48495480974E+02  0.27614615116E+03  0.12500000000E+03 0.  0.
         21    1    1    2  502  503 -0.16689803166E+03  0.13907198253E+03 -0.17427433849E+03  0.27850945110E+03  0.00000000000E+00 0.  1.
         21    1    1    2  503  501 -0.23774246154E+02  0.89954601957E+01  0.11424089054E+03  0.11703467075E+03  0.00000000000E+00 0. -1.
<mgrwt>
<rscale>  4 0.54020599E+03</rscale>
<asrwt>0</asrwt>
<pdfrwt beam="1">  1        1 0.50780946E-01 0.54020599E+03</pdfrwt>
<pdfrwt beam="2">  1       -1 0.52556019E-01 0.54020599E+03</pdfrwt>
<totfact> 0.28777282E+02</totfact>
</mgrwt>
</event>
<event>
 5    0  0.2754780E-002  0.5455685E+03  0.7546771E-02  0.1002525E+00
          2   -1    0    0  502    0  0.00000000000E+00  0.00000000000E+00  0.21681021822E+04  0.21681021822E+04  0.00000000000E+00 0. -1.
         -2   -1    0    0    0  501 -0.00000000000E+00 -0.00000000000E+00 -0.49563817562E+02  0.49563817562E+02  0.00000000000E+00 0.  1.
         25    1    1    2    0    0  0.77804059909E+02 -0.21275615768E+03  0.37448549682E+03  0.45517363906E+03  0.12500000000E+03 0.  0.
         21    1    1    2  502  503 -0.82782369250E+02  0.17794012236E+03  0.10922458530E+04  0.11097371811E+04  0.00000000000E+00 0. -1.
         21    1    1    2  503  501  0.49783093411E+01  0.34816035315E+02  0.65180701477E+03  0.65275517952E+03  0.00000000000E+00 0. -1.
<mgrwt>
<rscale>  4 0.54556853E+03</rscale>
<asrwt>0</asrwt>
<pdfrwt beam="1">  1        2 0.33355411E+00 0.54556853E+03</pdfrwt>
<pdfrwt beam="2">  1       -2 0.76252044E-02 0.54556853E+03</pdfrwt>
<totfact> 0.59733868E+02</totfact>
</mgrwt>
</event>
<event>
 5    0  0.2754780E-002  0.5073178E+03  0.7546771E-02  0.1011886E+00
          2   -1    0    0  502    0  0.00000000000E+00  0.00000000000E+00  0.63205118936E+03  0.63205118936E+03  0.00000000000E+00 0.  1.
         -2   -1    0    0    0  501 -0.00000000000E+00 -0.00000000000E+00 -0.22942810629E+03  0.22942810629E+03  0.00000000000E+00 0. -1.
         25    1    1    2    0    0  0.12002353323E+02 -0.22206394138E+03  0.11856407532E+03  0.28131635307E+03  0.12500000000E+03 0.  0.
         21    1    1    2  502  503  0.50996204063E+02  0.21499465679E+03 -0.61082772562E+02  0.22924750899E+03  0.00000000000E+00 0.  1.
         21    1    1    2  503  501 -0.62998557385E+02  0.70692845953E+01  0.34514178031E+03  0.35091543360E+03  0.00000000000E+00 0.  1.
<mgrwt>
<rscale>  4 0.50731781E+03</rscale>
<asrwt>0</asrwt>
<pdfrwt beam="1">  1        2 0.97238644E-01 0.50731781E+03</pdfrwt>
<pdfrwt beam="2">  1       -2 0.35296632E-01 0.50731781E+03</pdfrwt>
<totfact> 0.35650802E+02</totfact>
</mgrwt>
</event>
<event>
 5    0  0.2754780E-002  0.6898969E+03  0.7546771E-02  0.9734668E-01
         -1   -1    0    0    0  501 -0.00000000000E+00  0.00000000000E+00  0.22760563171E+03  0.22760563171E+03  0.00000000000E+00 0.  1.
          1   -1    0    0  503    0  0.00000000000E+00 -0.00000000000E+00 -0.63842478702E+03  0.63842478702E+03  0.00000000000E+00 0. -1.
         25    1    1    2    0    0 -0.18971703720E+03  0.14117188407E+03  0.99130732389E+02  0.28526120865E+03  0.12500000000E+03 0.  0.
         21    1    1    2  502  501  0.15774856109E+03 -0.76614104031E+02 -0.46217457595E+03  0.49432749076E+03  0.00000000000E+00 0. -1.
         21    1    1    2  503  502  0.31968476101E+02 -0.64557780042E+02 -0.47775311742E+02  0.86441719327E+02  0.00000000000E+00 0. -1.
<mgrwt>
<rscale>  4 0.68989688E+03</rscale>
<asrwt>0</asrwt>
<pdfrwt beam="1">  1        1 0.98219197E-01 0.68989688E+03</pdfrwt>
<pdfrwt beam="2">  1       -1 0.35016251E-01 0.68989688E+03</pdfrwt>
<totfact> 0.24607415E+02</totfact>
</mgrwt>
</event>
<event>
 5    0  0.2754780E-002  0.5107043E+03  0.7546771E-02  0.1011022E+00
          1   -1    0    0  502    0  0.00000000000E+00  0.00000000000E+00  0.51463794705E+03  0.51463794705E+03  0.00000000000E+00 0.  1.
         -1   -1    0    0    0  501 -0.00000000000E+00 -0.00000000000E+00 -0.12670019936E+03  0.12670019936E+03  0.00000000000E+00 0. -1.
         25    1    1    2    0    0  0.36664590542E+02  0.21432177068E+03  0.91960605222E+02  0.26713267584E+03  0.12500000000E+03 0.  0.
         21    1    1    2  502  503 -0.43732089822E+02 -0.17426469484E+03  0.19401132082E+03  0.26442592943E+03  0.00000000000E+00 0.  1.
         21    1    1    2  503  501  0.70674992802E+01 -0.40057075847E+02  0.10196582164E+03  0.10977954115E+03  0.00000000000E+00 0.  1.
<mgrwt>
<rscale>  4 0.51070434E+03</rscale>
<asrwt>0</asrwt>
<pdfrwt beam="1">  1        1 0.79175068E-01 0.51070434E+03</pdfrwt>
<pdfrwt beam="2">  1       -1 0.19492339E-01 0.51070434E+03</pdfrwt>
<totfact> 0.91374651E+02</totfact>
</mgrwt>
</event>
<event>
 5    0  0.2754780E-002  0.3978250E+03  0.7546771E-02  0.1044535E+00
         -2   -1    0    0    0  501 -0.00000000000E+00  0.00000000000E+00  0.46262124814E+02  0.46262124814E+02  0.00000000000E+00 0.  1.
          2   -1    0    0  502    0  0.00000000000E+00 -0.00000000000E+00 -0.13997694964E+04  0.13997694964E+04  0.00000000000E+00 0. -1.
         25    1    1    2    0    0 -0.20173253884E+03  0.20591136580E+02 -0.61874792345E+03  0.66301885713E+03  0.12500000000E+03 0.  0.
         21    1    1    2  502  503  0.77587210641E+02  0.78530294422E+02 -0.26322676009E+03  0.28543845155E+03  0.00000000000E+00 0.  1.
         21    1    1    2  503  501  0.12414532820E+03 -0.99121431002E+02 -0.47153268807E+03  0.49757431256E+03  0.00000000000E+00 0.  1.
<mgrwt>
<rscale>  4 0.39782495E+03</rscale>
<asrwt>0</asrwt>
<pdfrwt beam="1">  1        2 0.21534915E+00 0.39782495E+03</pdfrwt>
<pdfrwt beam="2">  1       -2 0.71172501E-02 0.39782495E+03</pdfrwt>
<totfact> 0.17498786E+03</totfact>
</mgrwt>
</event>
<event>
 5    0  0.2754780E-002  0.7139599E+03  0.7546771E-02  0.9693652E-01
          2   -1    0    0  502    0  0.00000000000E+00  0.00000000000E+00  0.18334948678E+04  0.18334948678E+04  0.00000000000E+00 0. -1.
         -2   -1    0    0    0  501 -0.00000000000E+00 -0.00000000000E+00 -0.69503711578E+02  0.69503711578E+02  0.00000000000E+00 0.  1.
         25    1    1    2    0    0 -0.26710752205E+03  0.43851521345E+02  0.34810617919E+03  0.45833644439E+03  0.12500000000E+03 0.  0.
         21    1    1    2  502  503  0.21294351311E+03 -0.33465204733E+02  0.88296628773E+03  0.90889731267E+03  0.00000000000E+00 0. -1.
         21    1    1    2  503  501  0.54164008940E+02 -0.10386316612E+02  0.53291868930E+03  0.53576482233E+03  0.00000000000E+00 0. -1.
<mgrwt>
<rscale>  4 0.71395994E+03</rscale>
<asrwt>0</asrwt>
<pdfrwt beam="1">  1        2 0.28207610E+00 0.71395994E+03</pdfrwt>
<pdfrwt beam="2">  1       -2 0.10692880E-01 0.71395994E+03</pdfrwt>
<totfact> 0.51977770E+02</totfact>
</mgrwt>
</event>
<event>
 5    0  0.2754780E-002  0.4897242E+03  0.7546771E-02  0.1016496E+00
          3   -1    0    0  502    0  0.00000000000E+00  0.00000000000E+00  0.19296609313E+03  0.19296609313E+03  0.00000000000E+00 0.  1.
         -3   -1    0    0    0  501 -0.00000000000E+00 -0.00000000000E+00 -0.41417752159E+03  0.41417752159E+03  0.00000000000E+00 0. -1.
         25    1    1    2    0    0 -0.19758264404E+03  0.52743328903E+02  0.14442140744E+02  0.24011317207E+03  0.12500000000E+03 0.  0.
         21    1    1    2  502  503  0.14884841178E+03 -0.62230390278E+02 -0.26434442431E+03  0.30968765850E+03  0.00000000000E+00 0. -1.
         21    1    1    2  503  501  0.48734232262E+02  0.94870613757E+01  0.28690855105E+02  0.57342784152E+02  0.00000000000E+00 0.  1.
<mgrwt>
<rscale>  4 0.48972421E+03</rscale>
<asrwt>0</asrwt>
<pdfrwt beam="1">  1        3 0.29687092E-01 0.48972421E+03</pdfrwt>
<pdfrwt beam="2">  1       -3 0.63719618E-01 0.48972421E+03</pdfrwt>
<totfact> 0.68799205E+01</totfact>
</mgrwt>
</event>
<event>
 5    0  0.2754780E-002  0.4493860E+03  0.7546771E-02  0.1027905E+00
          4   -1    0    0  503    0  0.00000000000E+00  0.00000000000E+00  0.44185476343E+03  0.44185476343E+03  0.00000000000E+00 0.  1.
         -4   -1    0    0    0  501 -0.00000000000E+00 -0.00000000000E+00 -0.21661529725E+03  0.21661529725E+03  0.00000000000E+00 0. -1.
         25    1    1    2    0    0  0.34227456477E+02 -0.21227317325E+03 -0.72972000610E+02  0.25919361823E+03  0.12500000000E+03 0.  0.
         21    1    1    2  502  501  0.56127812407E+02  0.95176135865E+02  0.17407356750E+03  0.20618058848E+03  0.00000000000E+00 0.  1.
         21    1    1    2  503  502 -0.90355268883E+02  0.11709703739E+03  0.12413789929E+03  0.19309585397E+03  0.00000000000E+00 0.  1.
<mgrwt>
<rscale>  4 0.44938605E+03</rscale>
<asrwt>0</asrwt>
<pdfrwt beam="1">  1        4 0.67977655E-01 0.44938605E+03</pdfrwt>
<pdfrwt beam="2">  1       -4 0.33325431E-01 0.44938605E+03</pdfrwt>
<totfact> 0.33797058E+01</totfact>
</mgrwt>
</event>
<event>
 5    0  0.2754780E-002  0.5913023E+03  0.7546771E-02  0.9923617E-01
         -2   -1    0    0    0  501 -0.00000000000E+00  0.00000000000E+00  0.29841887187E+03  0.29841887187E+03  0.00000000000E+00 0. -1.
          2   -1    0    0  503    0  0.00000000000E+00 -0.00000000000E+00 -0.36212544502E+03  0.36212544502E+03  0.00000000000E+00 0.  1.
         25    1    1    2    0    0  0.22455728001E+03 -0.61095350250E+01 -0.15441828228E+03  0.29988881994E+03  0.12500000000E+03 0.  0.
         21    1    1    2  502  501  0.21899307071E+02 -0.19884156542E+02 -0.62604701542E+02  0.69240941550E+02  0.00000000000E+00 0.  1.
         21    1    1    2  503  502 -0.24645658708E+03  0.25993691567E+02  0.15331641066E+03  0.29141455540E+03  0.00000000000E+00 0. -1.
<mgrwt>
<rscale>  4 0.59130235E+03</rscale>
<asrwt>0</asrwt>
<pdfrwt beam="1">  1        2 0.55711607E-01 0.59130235E+03</pdfrwt>
<pdfrwt beam="2">  1       -2 0.45910596E-01 0.59130235E+03</pdfrwt>
<totfact> 0.40432269E+02</totfact>
</mgrwt>
</event>
<event>
 5    0  0.2754780E-002  0.9329077E+03  0.7546771E-02  0.9385355E-01
         -1   -1    0    0    0  501 -0.00000000000E+00  0.00000000000E+00  0.45942301280E+03  0.45942301280E+03  0.00000000000E+00 0. -1.
          1   -1    0    0  502    0  0.00000000000E+00 -0.00000000000E+00 -0.77932504226E+03  0.77932504226E+03  0.00000000000E+00 0.  1.
         25    1    1    2    0    0  0.34098265432E+03 -0.32802470276E+03  0.58423905496E+02  0.49285670220E+03  0.12500000000E+03 0.  0.
         21    1    1    2  502  503 -0.39454987034E+03  0.14103365283E+03 -0.14788306207E+03  0.44433038548E+03  0.00000000000E+00 0.  1.
         21    1    1    2  503  501  0.53567216017E+02  0.18699104993E+03 -0.23044287288E+03  0.30156096738E+03  0.00000000000E+00 0.  1.
<mgrwt>
<rscale>  4 0.93290766E+03</rscale>
<asrwt>0</asrwt>
<pdfrwt beam="1">  1        1 0.11989616E+00 0.93290766E+03</pdfrwt>
<pdfrwt beam="2">  1       -1 0.70680464E-01 0.93290766E+03</pdfrwt>
<totfact> 0.46981734E+01</totfact>
</mgrwt>
</event>
<event>
 5    0  0.2754780E-002  0.4816836E+03  0.7546771E-02  0.1018673E+00
         -1   -1    0    0    0  501 -0.00000000000E+00  0.00000000000E+00  0.24477458976E+02  0.24477458976E+02  0.00000000000E+00 0.  1.
          1   -1    0    0  503    0  0.00000000000E+00 -0.00000000000E+00 -0.27660940960E+04  0.27660940960E+04  0.00000000000E+00 0. -1.
         25    1    1    2    0    0 -0.20571517385E+03  0.10858610900E+03 -0.16762910209E+04  0.16969638366E+04  0.12500000000E+03 0.  0.
         21    1    1    2  502  501  0.22332948910E+02 -0.23629806215E+02 -0.31035125343E+03  0.31204972177E+03  0.00000000000E+00 0.  1.
         21    1    1    2  503  502  0.18338222494E+03 -0.84956302788E+02 -0.75497436261E+03  0.78155799657E+03  0.00000000000E+00 0.  1.
<mgrwt>
<rscale>  4 0.48168362E+03</rscale>
<asrwt>0</asrwt>
<pdfrwt beam="1">  1        1 0.42555296E+00 0.48168362E+03</pdfrwt>
<pdfrwt beam="2">  1       -1 0.37657628E-02 0.48168362E+03</pdfrwt>
<totfact> 0.27263641E+02</totfact>
</mgrwt>
</event>
<event>
 5    0  0.2754780E-002  0.7138069E+03  0.7546771E-02  0.9693908E-01
         -1   -1    0    0    0  501 -0.00000000000E+00  0.00000000000E+00  0.32636238168E+03  0.32636238168E+03  0.00000000000E+00 0. -1.
          1   -1    0    0  503    0  0.00000000000E+00 -0.00000000000E+00 -0.92939610335E+03  0.92939610335E+03  0.00000000000E+00 0.  1.
         25    1    1    2    0    0 -0.32023777215E+03 -0.18787468026E+03 -0.16729045288E+03  0.42598148060E+03  0.12500000000E+03 0.  0.
         21    1    1    2  502  501  0.63391260497E+02  0.84182684758E+02 -0.52754915101E+03  0.53797145189E+03  0.00000000000E+00 0.  1.
         21    1    1    2  503  502  0.25684651165E+03  0.10369199550E+03  0.91805882220E+02  0.29180555253E+03  0.00000000000E+00 0. -1.
<mgrwt>
<rscale>  4 0.71380691E+03</rscale>
<asrwt>0</asrwt>
<pdfrwt beam="1">  1        1 0.14298401E+00 0.71380691E+03</pdfrwt>
<pdfrwt beam="2">  1       -1 0.50209598E-01 0.71380691E+03</pdfrwt>
<totfact> 0.70268899E+01</totfact>
</mgrwt>
</event>
<event>
 5    0  0.2754780E-002  0.5996545E+03  0.7546771E-02  0.9906123E-01
          1   -1    0    0  502    0  0.00000000000E+00  0.00000000000E+00  0.18570597163E+04  0.18570597163E+04  0.00000000000E+00 0.  1.
         -1   -1    0    0    0  501 -0.00000000000E+00 -0.00000000000E+00 -0.72103487737E+02  0.72103487737E+02  0.00000000000E+00 0. -1.
         25    1    1    2    0    0  0.21641340718E+03 -0.60845563791E+02  0.10027191076E+04  0.10351847922E+04  0.12500000000E+03 0.  0.
         21    1    1    2  502  503 -0.22993005034E+03  0.19481125678E+02  0.18661880857E+03  0.29677250886E+03  0.00000000000E+00 0. -1.
         21    1    1    2  503  501  0.13516643159E+02  0.41364438113E+02  0.59561831243E+03  0.59720590292E+03  0.00000000000E+00 0.  1.
<mgrwt>
<rscale>  4 0.59965454E+03</rscale>
<asrwt>0</asrwt>
<pdfrwt beam="1">  1        1 0.28570146E+00 0.59965454E+03</pdfrwt>
<pdfrwt beam="2">  1       -1 0.11092846E-01 0.59965454E+03</pdfrwt>
<totfact> 0.20727933E+02</totfact>
</mgrwt>
</event>
<event>
 5    0  0.2754780E-002  0.4521096E+03  0.7546771E-02  0.1027095E+00
          1   -1    0    0  502    0  0.00000000000E+00  0.00000000000E+00  0.48458024908E+03  0.48458024908E+03  0.00000000000E+00 0. -1.
         -1   -1    0    0    0  501 -0.00000000000E+00 -0.00000000000E+00 -0.20213909864E+03  0.20213909864E+03  0.00000000000E+00 0.  1.
         25    1    1    2    0    0 -0.21133500373E+03  0.95832893170E+02 -0.32804093133E+02  0.26560786084E+03  0.12500000000E+03 0.  0.
         21    1    1    2  502  503  0.12978462480E+03  0.23523839509E+02  0.17999287986E+03  0.22314761182E+03  0.00000000000E+00 0. -1.
         21    1    1    2  503  501  0.81550378934E+02 -0.11935673268E+03  0.13525236371E+03  0.19796387506E+03  0.00000000000E+00 0. -1.
<mgrwt>
<rscale>  4 0.45210962E+03</rscale>
<asrwt>0</asrwt>
<pdfrwt beam="1">  1        1 0.74550807E-01 0.45210962E+03</pdfrwt>
<pdfrwt beam="2">  1       -1 0.31098323E-01 0.45210962E+03</pdfrwt>
<totfact> 0.45105081E+02</totfact>
</mgrwt>
</event>
<event>
 5    0  0.2754780E-002  0.5075211E+03  0.7546771E-02  0.1011834E+00
          2   -1    0    0  503    0  0.00000000000E+00  0.00000000000E+00  0.12487120615E+04  0.12487120615E+04  0.00000000000E+00 0. -1.
         -2   -1    0    0    0  501 -0.00000000000E+00 -0.00000000000E+00 -0.51568669246E+02  0.51568669246E+02  0.00000000000E+00 0.  1.
         25    1    1    2    0    0  0.17302263033E+02 -0.22946988482E+03  0.68132890974E+03  0.72992457117E+03  0.12500000000E+03 0.  0.
         21    1    1    2  502  501  0.26660692482E+02  0.40427505110E+02  0.84690564433E+02  0.97558533184E+02  0.00000000000E+00 0.  1.
         21    1    1    2  503  502 -0.43962955515E+02  0.18904237971E+03  0.43112391810E+03  0.47279762642E+03  0.00000000000E+00 0.  1.
<mgrwt>
<rscale>  4 0.50752111E+03</rscale>
<asrwt>0</asrwt>
<pdfrwt beam="1">  1        2 0.19210953E+00 0.50752111E+03</pdfrwt>
<pdfrwt beam="2">  1       -2 0.79336424E-02 0.50752111E+03</pdfrwt>
<totfact> 0.17888481E+03</totfact>
</mgrwt>
</event>
<event>
 5    0  0.2754780E-002  0.5396330E+03  0.7546771E-02  0.1003922E+00
          2   -1    0    0  502    0  0.00000000000E+00  0.00000000000E+00  0.63539590105E+03  0.63539590105E+03  0.00000000000E+00 0. -1.
         -2   -1    0    0    0  501 -0.00000000000E+00 -0.00000000000E+00 -0.16330385991E+03  0.16330385991E+03  0.00000000000E+00 0.  1.
         25    1    1    2    0    0 -0.65504414377E+02 -0.23435479946E+03  0.21557184238E+03  0.34829473088E+03  0.12500000000E+03 0.  0.
         21    1    1    2  502  503  0.15944747631E+03  0.20884344327E+03  0.13721107595E+03  0.29642193047E+03  0.00000000000E+00 0. -1.
         21    1    1    2  503  501 -0.93943061938E+02  0.25511356194E+02  0.11930912281E+03  0.15398309962E+03  0.00000000000E+00 0.  1.
<mgrwt>
<rscale>  4 0.53963301E+03</rscale>
<asrwt>0</asrwt>
<pdfrwt beam="1">  1        2 0.97753214E-01 0.53963301E+03</pdfrwt>
<pdfrwt beam="2">  1       -2 0.25123671E-01 0.53963301E+03</pdfrwt>
<totfact> 0.66223819E+02</totfact>
</mgrwt>
</event>
<event>
 5    0  0.2754780E-002  0.5629462E+03  0.7546771E-02  0.9985410E-01
          1   -1    0    0  502    0  0.00000000000E+00  0.00000000000E+00  0.56498252009E+03  0.56498252009E+03  0.00000000000E+00 0. -1.
         -1   -1    0    0    0  501 -0.00000000000E+00 -0.00000000000E+00 -0.19128676575E+03  0.19128676575E+03  0.00000000000E+00 0.  1.
         25    1    1    2    0    0 -0.19784767550E+03 -0.96718600758E+02  0.27476233637E+03  0.37365429466E+03  0.12500000000E+03 0.  0.
         21    1    1    2  502  503  0.19225098355E+03  0.12307142670E+03 -0.47975187919E+02  0.23325658705E+03  0.00000000000E+00 0.  1.
         21    1    1    2  503  501  0.55966919526E+01 -0.26352825943E+02  0.14690860590E+03  0.14935840413E+03  0.00000000000E+00 0. -1.
<mgrwt>
<rscale>  4 0.56294619E+03</rscale>
<asrwt>0</asrwt>
<pdfrwt beam="1">  1        1 0.86920387E-01 0.56294619E+03</pdfrwt>
<pdfrwt beam="2">  1       -1 0.29428734E-01 0.56294619E+03</pdfrwt>
<totfact> 0.40003885E+02</totfact>
</mgrwt>
</event>
<event>
 5    0  0.2754780E-002  0.8760293E+03  0.7546771E-02  0.9456052E-01
          2   -1    0    0  502    0  0.00000000000E+00  0.00000000000E+00  0.21530293839E+04  0.21530293839E+04  0.00000000000E+00 0. -1.
         -2   -1    0    0    0  501 -0.00000000000E+00 -0.00000000000E+00 -0.99956674396E+02  0.99956674396E+02  0.00000000000E+00 0.  1.
         25    1    1    2    0    0 -0.40169615889E+03  0.49893151572E+02  0.99300908601E+03  0.10796023229E+04  0.12500000000E+03 0.  0.
         21    1    1    2  502  503  0.44822550460E+03 -0.58528815215E+02  0.99561622631E+03  0.10934273617E+04  0.00000000000E+00 0. -1.
         21    1    1    2  503  501 -0.46529345704E+02  0.86356636426E+01  0.64447397158E+02  0.79956373721E+02  0.00000000000E+00 0. -1.
<mgrwt>
<rscale>  4 0.87602932E+03</rscale>
<asrwt>0</asrwt>
<pdfrwt beam="1">  1        2 0.33123525E+00 0.87602932E+03</pdfrwt>
<pdfrwt beam="2">  1       -2 0.15377952E-01 0.87602932E+03</pdfrwt>
<totfact> 0.18735841E+02</totfact>
</mgrwt>
</event>
<event>
 5    0  0.2754780E-002  0.5834587E+03  0.7546771E-02  0.9940331E-01
          1   -1    0    0  502    0  0.00000000000E+00  0.00000000000E+00  0.63760149163E+03  0.63760149163E+03  0.00000000000E+00 0.  1.
         -1   -1    0    0    0  501 -0.00000000000E+00 -0.00000000000E+00 -0.19934962839E+03  0.19934962839E+03  0.00000000000E+00 0. -1.
         25    1    1    2    0    0  0.24747448543E+03  0.66592067967E+02  0.10140648001E+03  0.30263244810E+03  0.12500000000E+03 0.  0.
         21    1    1    2  502  503 -0.28327527135E+03 -0.91809292513E+02  0.13354535724E+03  0.32635592226E+03  0.00000000000E+00 0.  1.
         21    1    1    2  503  501  0.35800785923E+02  0.25217224546E+02  0.20330002598E+03  0.20796274967E+03  0.00000000000E+00 0.  1.
<mgrwt>
<rscale>  4 0.58345866E+03</rscale>
<asrwt>0</asrwt>
<pdfrwt beam="1">  1        1 0.98092536E-01 0.58345866E+03</pdfrwt>
<pdfrwt beam="2">  1       -1 0.30669174E-01 0.58345866E+03</pdfrwt>
<totfact> 0.31302139E+02</totfact>
</mgrwt>
</event>
<event>
 5    0  0.2754780E-002  0.4972967E+03  0.7546771E-02  0.1014487E+00
         -2   -1    0    0    0  501 -0.00000000000E+00  0.00000000000E+00  0.26537939073E+03  0.26537939073E+03  0.00000000000E+00 0.  1.
          2   -1    0    0  503    0  0.00000000000E+00 -0.00000000000E+00 -0.49657837389E+03  0.49657837389E+03  0.00000000000E+00 0. -1.
         25    1    1    2    0    0  0.16594679633E+03  0.16213393710E+03 -0.44055804173E+02  0.26719219048E+03  0.12500000000E+03 0.  0.
         21    1    1    2  502  501 -0.26156645818E+02  0.58051049381E+01 -0.26232324690E+03  0.26368798840E+03  0.00000000000E+00 0. -1.
         21    1    1    2  503  502 -0.13979015051E+03 -0.16793904204E+03  0.75180067906E+02  0.23107758574E+03  0.00000000000E+00 0.  1.
<mgrwt>
<rscale>  4 0.49729674E+03</rscale>
<asrwt>0</asrwt>
<pdfrwt beam="1">  1        2 0.76396673E-01 0.49729674E+03</pdfrwt>
<pdfrwt beam="2">  1       -2 0.40827599E-01 0.49729674E+03</pdfrwt>
<totfact> 0.35808448E+02</totfact>
</mgrwt>
</event>
<event>
 5    0  0.2754780E-002  0.5832634E+03  0.7546771E-02  0.9940751E-01
         -1   -1    0    0    0  501 -0.00000000000E+00  0.00000000000E+00  0.12057472044E+03  0.12057472044E+03  0.00000000000E+00 0. -1.
          1   -1    0    0  503    0  0.00000000000E+00 -0.00000000000E+00 -0.81212686901E+03  0.81212686901E+03  0.00000000000E+00 0.  1.
         25    1    1    2    0    0  0.36954140007E+01 -0.21607837650E+03 -0.60544140127E+03  0.65489526739E+03  0.12500000000E+03 0.  0.
         21    1    1    2  502  501 -0.24321638371E+02  0.26585461119E+02 -0.79265868827E+02  0.87071274235E+02  0.00000000000E+00 0.  1.
         21    1    1    2  503  502  0.20626224370E+02  0.18949291538E+03 -0.68448784725E+01  0.19073504783E+03  0.00000000000E+00 0. -1.
<mgrwt>
<rscale>  4 0.58326336E+03</rscale>
<asrwt>0</asrwt>
<pdfrwt beam="1">  1        1 0.12494259E+00 0.58326336E+03</pdfrwt>
<pdfrwt beam="2">  1       -1 0.18549957E-01 0.58326336E+03</pdfrwt>
<totfact> 0.50702678E+02</totfact>
</mgrwt>
</event>
<event>
 5    0  0.2754780E-002  0.6322718E+03  0.7546771E-02  0.9840626E-01
         -1   -1    0    0    0  501 -0.00000000000E+00  0.00000000000E+00  0.11823357770E+04  0.11823357770E+04  0.00000000000E+00 0.  1.
          1   -1    0    0  502    0  0.00000000000E+00 -0.00000000000E+00 -0.10040857836E+03  0.10040857836E+03  0.00000000000E+00 0. -1.
         25    1    1    2    0    0  0.24017947046E+03 -0.19874464261E+03  0.47755216030E+03  0.58383788573E+03  0.12500000000E+03 0.  0.
         21    1    1    2  502  503 -0.24006914929E+03  0.16030145464E+03  0.59181402441E+03  0.65846305309E+03  0.00000000000E+00 0.  1.
         21    1    1    2  503  501 -0.11032117304E+00  0.38443187973E+02  0.12561013952E+02  0.40443416569E+02  0.00000000000E+00 0. -1.
<mgrwt>
<rscale>  4 0.63227177E+03</rscale>
<asrwt>0</asrwt>
<pdfrwt beam="1">  1        1 0.15447474E-01 0.63227177E+03</pdfrwt>
<pdfrwt beam="2">  1       -1 0.18189780E+00 0.63227177E+03</pdfrwt>
<totfact> 0.76877058E+01</totfact>
</mgrwt>
</event>
<event>
 5    0  0.2754780E-002  0.5804968E+03  0.7546771E-02  0.9946716E-01
          2   -1    0    0  502    0  0.00000000000E+00  0.00000000000E+00  0.89260719977E+03  0.89260719977E+03  0.00000000000E+00 0. -1.
         -2   -1    0    0    0  501 -0.00000000000E+00 -0.00000000000E+00 -0.56176929279E+03  0.56176929279E+03  0.00000000000E+00 0.  1.
         25    1    1    2    0    0  0.16414866941E+03  0.15966418761E+03 -0.36944425698E+03  0.45227369755E+03  0.12500000000E+03 0.  0.
         21    1    1    2  502  503 -0.23904123605E+03 -0.85749139112E+02 -0.37627517612E+02  0.25672837294E+03  0.00000000000E+00 0. -1.
         21    1    1    2  503  501  0.74892566640E+02 -0.73915048502E+02  0.73790968157E+03  0.74537442207E+03  0.00000000000E+00 0. -1.
<mgrwt>
<rscale>  4 0.58049678E+03</rscale>
<asrwt>0</asrwt>
<pdfrwt beam="1">  1        2 0.13732418E+00 0.58049678E+03</pdfrwt>
<pdfrwt beam="2">  1       -2 0.86426045E-01 0.58049678E+03</pdfrwt>
<totfact> 0.35526049E+01</totfact>
</mgrwt>
</event>
<event>
 5    0  0.2754780E-002  0.5179677E+03  0.7546771E-02  0.1009193E+00
         -2   -1    0    0    0  501 -0.00000000000E+00  0.00000000000E+00  0.14962282180E+03  0.14962282180E+03  0.00000000000E+00 0. -1.
          2   -1    0    0  502    0  0.00000000000E+00 -0.00000000000E+00 -0.13323383205E+04  0.13323383205E+04  0.00000000000E+00 0.  1.
         25    1    1    2    0    0 -0.60902608443E+02 -0.22055337765E+03 -0.18603206448E+03  0.32029025761E+03  0.12500000000E+03 0.  0.
         21    1    1    2  502  503  0.92939834055E+02  0.23626307586E+03 -0.11406639402E+03  0.27833288705E+03  0.00000000000E+00 0. -1.
         21    1    1    2  503  501 -0.32037225612E+02 -0.15709698210E+02 -0.88261704017E+03  0.88333799762E+03  0.00000000000E+00 0.  1.
<mgrwt>
<rscale>  4 0.51796774E+03</rscale>
<asrwt>0</asrwt>
<pdfrwt beam="1">  1        2 0.20497513E+00 0.51796774E+03</pdfrwt>
<pdfrwt beam="2">  1       -2 0.23018896E-01 0.51796774E+03</pdfrwt>
<totfact> 0.27100202E+02</totfact>
</mgrwt>
</event>
<event>
 5    0  0.2754780E-002  0.9185185E+03  0.7546771E-02  0.9402724E-01
         -1   -1    0    0    0  501 -0.00000000000E+00  0.00000000000E+00  0.44979103262E+03  0.44979103262E+03  0.00000000000E+00 0.  1.
          1   -1    0    0  503    0  0.00000000000E+00 -0.00000000000E+00 -0.14460314437E+04  0.14460314437E+04  0.00000000000E+00 0. -1.
         25    1    1    2    0    0 -0.15620293430E+03  0.17697154151E+03 -0.67484390045E+03  0.72578066464E+03  0.12500000000E+03 0.  0.
         21    1    1    2  502  501  0.32461979895E+03  0.35547774937E+03  0.72261896025E+02  0.48678971413E+03  0.00000000000E+00 0.  1.
         21    1    1    2  503  502 -0.16841686465E+03 -0.53244929088E+03 -0.39365840662E+03  0.68325209751E+03  0.00000000000E+00 0. -1.
<mgrwt>
<rscale>  4 0.91851845E+03</rscale>
<asrwt>0</asrwt>
<pdfrwt beam="1">  1        1 0.22246638E+00 0.91851845E+03</pdfrwt>
<pdfrwt beam="2">  1       -1 0.69198620E-01 0.91851845E+03</pdfrwt>
<totfact> 0.15282007E+01</totfact>
</mgrwt>
</event>
<event>
 5    0  0.2754780E-002  0.9752113E+03  0.7546771E-02  0.9336158E-01
          1   -1    0    0  503    0  0.00000000000E+00  0.00000000000E+00  0.95329227278E+03  0.95329227278E+03  0.00000000000E+00 0. -1.
         -1   -1    0    0    0  501 -0.00000000000E+00 -0.00000000000E+00 -0.34087178687E+03  0.34087178687E+03  0.00000000000E+00 0.  1.
         25    1    1    2    0    0 -0.46685633812E+03 -0.46258469968E+02  0.27574344782E+02  0.48629212515E+03  0.12500000000E+03 0.  0.
         21    1    1    2  502  501  0.35512606497E+03 -0.73768768428E+02  0.51435949980E+03  0.62938227513E+03  0.00000000000E+00 0. -1.
         21    1    1    2  503  502  0.11173027315E+03  0.12002723840E+03  0.70486641327E+02  0.17848965937E+03  0.00000000000E+00 0. -1.
<mgrwt>
<rscale>  4 0.97521130E+03</rscale>
<asrwt>0</asrwt>
<pdfrwt beam="1">  1        1 0.14666035E+00 0.97521130E+03</pdfrwt>
<pdfrwt beam="2">  1       -1 0.52441814E-01 0.97521130E+03</pdfrwt>
<totfact> 0.60610227E+01</totfact>
</mgrwt>
</event>
<event>
 5    0  0.2754780E-002  0.5275127E+03  0.7546771E-02  0.1006837E+00
          1   -1    0    0  503    0  0.00000000000E+00  0.00000000000E+00  0.33275927566E+03  0.33275927566E+03  0.00000000000E+00 0. -1.
         -1   -1    0    0    0  501 -0.00000000000E+00 -0.00000000000E+00 -0.25399204894E+03  0.25399204894E+03  0.00000000000E+00 0.  1.
         25    1    1    2    0    0 -0.25308941057E+03 -0.54174296407E+02  0.24908454606E+02  0.28850396054E+03  0.12500000000E+03 0.  0.
         21    1    1    2  502  501  0.20134304461E+02 -0.15830249336E+01  0.55125907378E+02  0.58709129174E+02  0.00000000000E+00 0. -1.
         21    1    1    2  503  502  0.23295510611E+03  0.55757321340E+02 -0.12671352643E+01  0.23953823490E+03  0.00000000000E+00 0. -1.
<mgrwt>
<rscale>  4 0.52751270E+03</rscale>
<asrwt>0</asrwt>
<pdfrwt beam="1">  1        1 0.51193735E-01 0.52751270E+03</pdfrwt>
<pdfrwt beam="2">  1       -1 0.39075700E-01 0.52751270E+03</pdfrwt>
<totfact> 0.49274682E+02</totfact>
</mgrwt>
</event>
<event>
 5    0  0.2754780E-002  0.4008339E+03  0.7546771E-02  0.1043491E+00
          1   -1    0    0  503    0  0.00000000000E+00  0.00000000000E+00  0.15557169355E+03  0.15557169355E+03  0.00000000000E+00 0.  1.
         -1   -1    0    0    0  501 -0.00000000000E+00 -0.00000000000E+00 -0.37953729051E+03  0.37953729051E+03  0.00000000000E+00 0. -1.
         25    1    1    2    0    0 -0.14404376511E+03  0.15190022251E+03 -0.11429162631E+03  0.26927654876E+03  0.12500000000E+03 0.  0.
         21    1    1    2  502  501  0.71563072418E+02 -0.15566620038E+02  0.51449237707E+01  0.73417050022E+02  0.00000000000E+00 0. -1.
         21    1    1    2  503  502  0.72480692697E+02 -0.13633360247E+03 -0.11481889442E+03  0.19241538528E+03  0.00000000000E+00 0. -1.
<mgrwt>
<rscale>  4 0.40083389E+03</rscale>
<asrwt>0</asrwt>
<pdfrwt beam="1">  1        1 0.23934107E-01 0.40083389E+03</pdfrwt>
<pdfrwt beam="2">  1       -1 0.58390352E-01 0.40083389E+03</pdfrwt>
<totfact> 0.62093143E+02</totfact>
</mgrwt>
</event>
<event>
 5    0  0.2754780E-002  0.5966146E+03  0.7546771E-02  0.9912455E-01
         -2   -1    0    0    0  501 -0.00000000000E+00  0.00000000000E+00  0.24836102561E+03  0.24836102561E+03  0.00000000000E+00 0.  1.
          2   -1    0    0  503    0  0.00000000000E+00 -0.00000000000E+00 -0.61311102864E+03  0.61311102864E+03  0.00000000000E+00 0. -1.
         25    1    1    2    0    0  0.24098213310E+03  0.14598782952E+03 -0.18555233481E+03  0.35977701954E+03  0.12500000000E+03 0.  0.
         21    1    1    2  502  501 -0.58495502303E+02  0.88238316006E+01 -0.24618174991E+03  0.25318972685E+03  0.00000000000E+00 0.  1.
         21    1    1    2  503  502 -0.18248663079E+03 -0.15481166112E+03  0.66984081688E+02  0.24850530786E+03  0.00000000000E+00 0.  1.
<mgrwt>
<rscale>  4 0.59661458E+03</rscale>
<asrwt>0</asrwt>
<pdfrwt beam="1">  1        2 0.94324772E-01 0.59661458E+03</pdfrwt>
<pdfrwt beam="2">  1       -2 0.38209389E-01 0.59661458E+03</pdfrwt>
<totfact> 0.31659639E+02</totfact>
</mgrwt>
</event>
<event>
 5    0  0.2754780E-002  0.7017905E+03  0.7546771E-02  0.9714175E-01
         -2   -1    0    0    0  501 -0.00000000000E+00  0.00000000000E+00  0.11998956985E+03  0.11998956985E+03  0.00000000000E+00 0. -1.
          2   -1    0    0  502    0  0.00000000000E+00 -0.00000000000E+00 -0.31293949045E+04  0.31293949045E+04  0.00000000000E+00 0.  1.
         25    1    1    2    0    0  0.99337228042E+02  0.20859277791E+03 -0.61299257398E+03  0.66690608606E+03  0.12500000000E+03 0.  0.
         21    1    1    2  502  503 -0.16681782511E+02  0.13949675393E+03  0.18056759630E+02  0.14164629466E+03  0.00000000000E+00 0. -1.
         21    1    1    2  503  501 -0.82655445531E+02 -0.34808953183E+03 -0.24144695203E+04  0.24408320936E+04  0.00000000000E+00 0.  1.
<mgrwt>
<rscale>  4 0.70179047E+03</rscale>
<asrwt>0</asrwt>
<pdfrwt beam="1">  1        2 0.48144534E+00 0.70179047E+03</pdfrwt>
<pdfrwt beam="2">  1       -2 0.18459935E-01 0.70179047E+03</pdfrwt>
<totfact> 0.37808179E+01</totfact>
</mgrwt>
</event>
<event>
 5    0  0.2754780E-002  0.1604393E+04  0.7546771E-02  0.8817854E-01
          2   -1    0    0  502    0  0.00000000000E+00  0.00000000000E+00  0.19589890504E+04  0.19589890504E+04  0.00000000000E+00 0. -1.
         -2   -1    0    0    0  501 -0.00000000000E+00 -0.00000000000E+00 -0.41796607603E+03  0.41796607603E+03  0.00000000000E+00 0.  1.
         25    1    1    2    0    0  0.19648401339E+03 -0.10785433448E+03 -0.36890802008E+03  0.44939587477E+03  0.12500000000E+03 0.  0.
         21    1    1    2  502  503 -0.17860804298E+03  0.13282539900E+03  0.14932357475E+04  0.15097338895E+04  0.00000000000E+00 0. -1.
         21    1    1    2  503  501 -0.17875970407E+02 -0.24971064526E+02  0.41669524701E+03  0.41782536215E+03  0.00000000000E+00 0.  1.
<mgrwt>
<rscale>  4 0.16043929E+04</rscale>
<asrwt>0</asrwt>
<pdfrwt beam="1">  1        2 0.30138293E+00 0.16043929E+04</pdfrwt>
<pdfrwt beam="2">  1       -2 0.64302474E-01 0.16043929E+04</pdfrwt>
<totfact> 0.15025208E+01</totfact>
</mgrwt>
</event>
<event>
 5    0  0.2754780E-002  0.5042202E+03  0.7546771E-02  0.1012683E+00
         -1   -1    0    0    0  501 -0.00000000000E+00  0.00000000000E+00  0.73149347915E+03  0.73149347915E+03  0.00000000000E+00 0. -1.
          1   -1    0    0  503    0  0.00000000000E+00 -0.00000000000E+00 -0.20323348226E+03  0.20323348226E+03  0.00000000000E+00 0.  1.
         25    1    1    2    0    0  0.49560502623E+02 -0.20986250679E+03  0.25071732311E+03  0.35352891152E+03  0.12500000000E+03 0.  0.
         21    1    1    2  502  501  0.19990977980E+02 -0.27325596464E+02 -0.11357963435E+03  0.11851860935E+03  0.00000000000E+00 0.  1.
         21    1    1    2  503  502 -0.69551480603E+02  0.23718810325E+03  0.39112230813E+03  0.46267944054E+03  0.00000000000E+00 0. -1.
<mgrwt>
<rscale>  4 0.50422015E+03</rscale>
<asrwt>0</asrwt>
<pdfrwt beam="1">  1        1 0.31266690E-01 0.50422015E+03</pdfrwt>
<pdfrwt beam="2">  1       -1 0.11253746E+00 0.50422015E+03</pdfrwt>
<totfact> 0.10871174E+02</totfact>
</mgrwt>
</event>
<event>
 5    0  0.2754780E-002  0.4673453E+03  0.7546771E-02  0.1022672E+00
         -2   -1    0    0    0  501 -0.00000000000E+00  0.00000000000E+00  0.41404276661E+02  0.41404276661E+02  0.00000000000E+00 0. -1.
          2   -1    0    0  503    0  0.00000000000E+00 -0.00000000000E+00 -0.14995134888E+04  0.14995134888E+04  0.00000000000E+00 0.  1.
         25    1    1    2    0    0  0.15449228873E+03  0.15160218503E+03 -0.81868244338E+03  0.85598892101E+03  0.12500000000E+03 0.  0.
         21    1    1    2  502  501 -0.19854478403E+02  0.17229856631E+02 -0.40716151164E+02  0.48465175516E+02  0.00000000000E+00 0.  1.
         21    1    1    2  503  502 -0.13463781032E+03 -0.16883204166E+03 -0.59871061756E+03  0.63646366891E+03  0.00000000000E+00 0. -1.
<mgrwt>
<rscale>  4 0.46734532E+03</rscale>
<asrwt>0</asrwt>
<pdfrwt beam="1">  1        2 0.23069435E+00 0.46734532E+03</pdfrwt>
<pdfrwt beam="2">  1       -2 0.63698895E-02 0.46734532E+03</pdfrwt>
<totfact> 0.18313607E+03</totfact>
</mgrwt>
</event>
<event>
 5    0  0.2754780E-002  0.7288966E+03  0.7546771E-02  0.9669053E-01
          2   -1    0    0  502    0  0.00000000000E+00  0.00000000000E+00  0.26859734909E+03  0.26859734909E+03  0.00000000000E+00 0.  1.
         -2   -1    0    0    0  501 -0.00000000000E+00 -0.00000000000E+00 -0.60670294339E+03  0.60670294339E+03  0.00000000000E+00 0. -1.
         25    1    1    2    0    0  0.33568263210E+03  0.68561045220E+02 -0.11184606648E+03  0.38146820182E+03  0.12500000000E+03 0.  0.
         21    1    1    2  502  503 -0.35945697519E+03  0.59929083363E+01 -0.19936883161E+03  0.41108778014E+03  0.00000000000E+00 0.  1.
         21    1    1    2  503  501  0.23774343086E+02 -0.74553953556E+02 -0.26890696208E+02  0.82744310515E+02  0.00000000000E+00 0.  1.
<mgrwt>
<rscale>  4 0.72889661E+03</rscale>
<asrwt>0</asrwt>
<pdfrwt beam="1">  1        2 0.41322669E-01 0.72889661E+03</pdfrwt>
<pdfrwt beam="2">  1       -2 0.93338914E-01 0.72889661E+03</pdfrwt>
<totfact> 0.12184639E+02</totfact>
</mgrwt>
</event>
<event>
 5    0  0.2754780E-002  0.5935238E+03  0.7546771E-02  0.9918934E-01
          2   -1    0    0  502    0  0.00000000000E+00  0.00000000000E+00  0.46230706535E+03  0.46230706535E+03  0.00000000000E+00 0. -1.
         -2   -1    0    0    0  501 -0.00000000000E+00 -0.00000000000E+00 -0.23852555665E+03  0.23852555665E+03  0.00000000000E+00 0.  1.
         25    1    1    2    0    0  0.22657181500E+03 -0.18225055939E+02  0.24913147948E+03  0.35966433530E+03  0.12500000000E+03 0.  0.
         21    1    1    2  502  503 -0.22516211661E+03 -0.19422454396E+02 -0.10789475751E+03  0.25043260409E+03  0.00000000000E+00 0.  1.
         21    1    1    2  503  501 -0.14096983894E+01  0.37647510335E+02  0.82544786733E+02  0.90735682622E+02  0.00000000000E+00 0.  1.
<mgrwt>
<rscale>  4 0.59352377E+03</rscale>
<asrwt>0</asrwt>
<pdfrwt beam="1">  1        2 0.71124164E-01 0.59352377E+03</pdfrwt>
<pdfrwt beam="2">  1       -2 0.36696240E-01 0.59352377E+03</pdfrwt>
<totfact> 0.47595063E+02</totfact>
</mgrwt>
</event>
<event>
 5    0  0.2754780E-002  0.4028269E+03  0.7546771E-02  0.1042805E+00
         -1   -1    0    0    0  501 -0.00000000000E+00  0.00000000000E+00  0.31930066370E+03  0.31930066370E+03  0.00000000000E+00 0. -1.
          1   -1    0    0  503    0  0.00000000000E+00 -0.00000000000E+00 -0.49988426840E+03  0.49988426840E+03  0.00000000000E+00 0.  1.
         25    1    1    2    0    0 -0.13964168696E+03  0.14415292575E+03  0.92163249813E+02  0.25376944527E+03  0.12500000000E+03 0.  0.
         21    1    1    2  502  501  0.87211472033E+01 -0.44183239082E+02 -0.37092727441E+03  0.37365125441E+03  0.00000000000E+00 0.  1.
         21    1    1    2  503  502  0.13092053975E+03 -0.99969686666E+02  0.98180419890E+02  0.19176423241E+03  0.00000000000E+00 0.  1.
<mgrwt>
<rscale>  4 0.40282694E+03</rscale>
<asrwt>0</asrwt>
<pdfrwt beam="1">  1        1 0.76905272E-01 0.40282694E+03</pdfrwt>
<pdfrwt beam="2">  1       -1 0.49123179E-01 0.40282694E+03</pdfrwt>
<totfact> 0.19100542E+02</totfact>
</mgrwt>
</event>
<event>
 5    0  0.2754780E-002  0.5461248E+03  0.7546771E-02  0.1002395E+00
         -3   -1    0    0    0  501 -0.00000000000E+00  0.00000000000E+00  0.75953969520E+02  0.75953969520E+02  0.00000000000E+00 0.  1.
          3   -1    0    0  503    0  0.00000000000E+00 -0.00000000000E+00 -0.11523124034E+04  0.11523124034E+04  0.00000000000E+00 0. -1.
         25    1    1    2    0    0  0.45782881331E+02 -0.25374092765E+03 -0.34972831738E+03  0.45212324267E+03  0.12500000000E+03 0.  0.
         21    1    1    2  502  501  0.43927736665E+01  0.20839720595E+02 -0.16076044890E+03  0.16216507745E+03  0.00000000000E+00 0. -1.
         21    1    1    2  503  502 -0.50175654997E+02  0.23290120705E+03 -0.56586966756E+03  0.61397805275E+03  0.00000000000E+00 0.  1.
<mgrwt>
<rscale>  4 0.54612480E+03</rscale>
<asrwt>0</asrwt>
<pdfrwt beam="1">  1        3 0.17727884E+00 0.54612480E+03</pdfrwt>
<pdfrwt beam="2">  1       -3 0.11685225E-01 0.54612480E+03</pdfrwt>
<totfact> 0.32363913E+01</totfact>
</mgrwt>
</event>
<event>
 5    0  0.2754780E-002  0.7969345E+03  0.7546771E-02  0.9564465E-01
         -2   -1    0    0    0  501 -0.00000000000E+00  0.00000000000E+00  0.15494558326E+03  0.15494558326E+03  0.00000000000E+00 0. -1.
          2   -1    0    0  503    0  0.00000000000E+00 -0.00000000000E+00 -0.13207203997E+04  0.13207203997E+04  0.00000000000E+00 0.  1.
         25    1    1    2    0    0  0.31012808837E+03  0.84442990466E+02 -0.24989716300E+03  0.42589158470E+03  0.12500000000E+03 0.  0.
         21    1    1    2  502  501  0.87107689988E+02  0.37333161484E+02 -0.21573627768E+03  0.23563458173E+03  0.00000000000E+00 0. -1.
         21    1    1    2  503  502 -0.39723577836E+03 -0.12177615195E+03 -0.70014137571E+03  0.81413981648E+03  0.00000000000E+00 0. -1.
<mgrwt>
<rscale>  4 0.79693453E+03</rscale>
<asrwt>0</asrwt>
<pdfrwt beam="1">  1        2 0.20318776E+00 0.79693453E+03</pdfrwt>
<pdfrwt beam="2">  1       -2 0.23837781E-01 0.79693453E+03</pdfrwt>
<totfact> 0.25328220E+02</totfact>
</mgrwt>
</event>
<event>
 5    0  0.2754780E-002  0.1443315E+04  0.7546771E-02  0.8923048E-01
          2   -1    0    0  502    0  0.00000000000E+00  0.00000000000E+00  0.17432201553E+04  0.17432201553E+04  0.00000000000E+00 0.  1.
         -2   -1    0    0    0  501 -0.00000000000E+00 -0.00000000000E+00 -0.43360769278E+03  0.43360769278E+03  0.00000000000E+00 0. -1.
         25    1    1    2    0    0 -0.14087464333E+03  0.21454991481E+03  0.11903141356E+04  0.12240711060E+04  0.12500000000E+03 0.  0.
         21    1    1    2  502  503 -0.24184150581E+02 -0.22896694640E+03 -0.37021119473E+03  0.43596681569E+03  0.00000000000E+00 0. -1.
         21    1    1    2  503  501  0.16505879392E+03  0.14417031587E+02  0.48950952160E+03  0.51678992636E+03  0.00000000000E+00 0. -1.
<mgrwt>
<rscale>  4 0.14433146E+04</rscale>
<asrwt>0</asrwt>
<pdfrwt beam="1">  1        2 0.26818771E+00 0.14433146E+04</pdfrwt>
<pdfrwt beam="2">  1       -2 0.66708877E-01 0.14433146E+04</pdfrwt>
<totfact> 0.18493031E+01</totfact>
</mgrwt>
</event>
<event>
 5    0  0.2754780E-002  0.4257918E+03  0.7546771E-02  0.1035198E+00
         -2   -1    0    0    0  501 -0.00000000000E+00  0.00000000000E+00  0.30881935836E+02  0.30881935836E+02  0.00000000000E+00 0. -1.
          2   -1    0    0  503    0  0.00000000000E+00 -0.00000000000E+00 -0.19945312141E+04  0.19945312141E+04  0.00000000000E+00 0.  1.
         25    1    1    2    0    0  0.15676913395E+03  0.13806421956E+03 -0.78256070299E+03  0.81955142849E+03  0.12500000000E+03 0.  0.
         21    1    1    2  502  501 -0.14726125064E+03 -0.71762733324E+02 -0.98793063450E+03  0.10014203435E+04  0.00000000000E+00 0.  1.
         21    1    1    2  503  502 -0.95078833129E+01 -0.66301486239E+02 -0.19315794081E+03  0.20444137795E+03  0.00000000000E+00 0.  1.
<mgrwt>
<rscale>  4 0.42579175E+03</rscale>
<asrwt>0</asrwt>
<pdfrwt beam="1">  1        2 0.30685093E+00 0.42579175E+03</pdfrwt>
<pdfrwt beam="2">  1       -2 0.47510675E-02 0.42579175E+03</pdfrwt>
<totfact> 0.15653201E+03</totfact>
</mgrwt>
</event>
<event>
 5    0  0.2754780E-002  0.4393164E+03  0.7546771E-02  0.1030957E+00
          2   -1    0    0  502    0  0.00000000000E+00  0.00000000000E+00  0.72951583775E+02  0.72951583775E+02  0.00000000000E+00 0. -1.
         -2   -1    0    0    0  501 -0.00000000000E+00 -0.00000000000E+00 -0.25523174478E+04  0.25523174478E+04  0.00000000000E+00 0.  1.
         25    1    1    2    0    0  0.16948122387E+03  0.15083850919E+03 -0.12960386488E+04  0.13216721682E+04  0.12500000000E+03 0.  0.
         21    1    1    2  502  503 -0.11913444354E+03 -0.12751664413E+03 -0.12229993784E+04  0.12353869798E+04  0.00000000000E+00 0.  1.
         21    1    1    2  503  501 -0.50346780335E+02 -0.23321865061E+02  0.39672163215E+02  0.68209883552E+02  0.00000000000E+00 0. -1.
<mgrwt>
<rscale>  4 0.43931641E+03</rscale>
<asrwt>0</asrwt>
<pdfrwt beam="1">  1        2 0.11223319E-01 0.43931641E+03</pdfrwt>
<pdfrwt beam="2">  1       -2 0.39266429E+00 0.43931641E+03</pdfrwt>
<totfact> 0.53170803E+00</totfact>
</mgrwt>
</event>
<event>
 5    0  0.2754780E-002  0.4723696E+03  0.7546771E-02  0.1021254E+00
          2   -1    0    0  503    0  0.00000000000E+00  0.00000000000E+00  0.18940634402E+04  0.18940634402E+04  0.00000000000E+00 0.  1.
         -2   -1    0    0    0  501 -0.00000000000E+00 -0.00000000000E+00 -0.10538590124E+03  0.10538590124E+03  0.00000000000E+00 0. -1.
         25    1    1    2    0    0 -0.12062407989E+03  0.18617505629E+03  0.13075380180E+03  0.28623919529E+03  0.12500000000E+03 0.  0.
         21    1    1    2  502  501 -0.14654595443E+02 -0.56920687210E+02  0.13608999413E+04  0.13621686284E+04  0.00000000000E+00 0.  1.
         21    1    1    2  503  502  0.13527867533E+03 -0.12925436908E+03  0.29702379588E+03  0.35104151784E+03  0.00000000000E+00 0.  1.
<mgrwt>
<rscale>  4 0.47236959E+03</rscale>
<asrwt>0</asrwt>
<pdfrwt beam="1">  1        2 0.29139435E+00 0.47236959E+03</pdfrwt>
<pdfrwt beam="2">  1       -2 0.16213217E-01 0.47236959E+03</pdfrwt>
<totfact> 0.24673464E+02</totfact>
</mgrwt>
</event>
<event>
 5    0  0.2754780E-002  0.3828723E+03  0.7546771E-02  0.1049877E+00
          2   -1    0    0  502    0  0.00000000000E+00  0.00000000000E+00  0.21483713867E+04  0.21483713867E+04  0.00000000000E+00 0. -1.
         -2   -1    0    0    0  501 -0.00000000000E+00 -0.00000000000E+00 -0.47412243883E+02  0.47412243883E+02  0.00000000000E+00 0.  1.
         25    1    1    2    0    0  0.19848759000E+03  0.47119502720E+02  0.36969364106E+03  0.44035889813E+03  0.12500000000E+03 0.  0.
         21    1    1    2  502  503 -0.12895300368E+03 -0.19863789703E+02  0.37398907911E+03  0.39609503733E+03  0.00000000000E+00 0. -1.
         21    1    1    2  503  501 -0.69534586321E+02 -0.27255713017E+02  0.13572764227E+04  0.13593296951E+04  0.00000000000E+00 0. -1.
<mgrwt>
<rscale>  4 0.38287230E+03</rscale>
<asrwt>0</asrwt>
<pdfrwt beam="1">  1        2 0.33051860E+00 0.38287230E+03</pdfrwt>
<pdfrwt beam="2">  1       -2 0.72941930E-02 0.38287230E+03</pdfrwt>
<totfact> 0.66784007E+02</totfact>
</mgrwt>
</event>
<event>
 5    0  0.2754780E-002  0.5414334E+03  0.7546771E-02  0.1003496E+00
         -2   -1    0    0    0  501 -0.00000000000E+00  0.00000000000E+00  0.19393052848E+03  0.19393052848E+03  0.00000000000E+00 0. -1.
          2   -1    0    0  503    0  0.00000000000E+00 -0.00000000000E+00 -0.71901741081E+03  0.71901741081E+03  0.00000000000E+00 0.  1.
         25    1    1    2    0    0 -0.10593415601E+03 -0.21733944074E+03 -0.17653315606E+03  0.32441860782E+03  0.12500000000E+03 0.  0.
         21    1    1    2  502  501  0.22860489730E+03  0.10844160734E+03 -0.34060836177E+03  0.42430394457E+03  0.00000000000E+00 0.  1.
         21    1    1    2  503  502 -0.12267074129E+03  0.10889783340E+03 -0.79453644985E+01  0.16422538690E+03  0.00000000000E+00 0. -1.
<mgrwt>
<rscale>  4 0.54143339E+03</rscale>
<asrwt>0</asrwt>
<pdfrwt beam="1">  1        2 0.11061806E+00 0.54143339E+03</pdfrwt>
<pdfrwt beam="2">  1       -2 0.29835466E-01 0.54143339E+03</pdfrwt>
<totfact> 0.41569989E+02</totfact>
</mgrwt>
</event>
<event>
 5    0  0.2754780E-002  0.6771102E+03  0.7546771E-02  0.9757198E-01
         -2   -1    0    0    0  501 -0.00000000000E+00  0.00000000000E+00  0.14198320696E+03  0.14198320696E+03  0.00000000000E+00 0. -1.
          2   -1    0    0  503    0  0.00000000000E+00 -0.00000000000E+00 -0.98165895304E+03  0.98165895304E+03  0.00000000000E+00 0.  1.
         25    1    1    2    0    0 -0.29733875369E+03  0.94714037613E+02 -0.33190967910E+03  0.47240884670E+03  0.12500000000E+03 0.  0.
         21    1    1    2  502  501 -0.24515523495E+02  0.17736884515E+02 -0.16511514153E+03  0.16786487997E+03  0.00000000000E+00 0. -1.
         21    1    1    2  503  502  0.32185427718E+03 -0.11245092213E+03 -0.34265092545E+03  0.48336843333E+03  0.00000000000E+00 0.  1.
<mgrwt>
<rscale>  4 0.67711018E+03</rscale>
<asrwt>0</asrwt>
<pdfrwt beam="1">  1        2 0.15102445E+00 0.67711018E+03</pdfrwt>
<pdfrwt beam="2">  1       -2 0.21843571E-01 0.67711018E+03</pdfrwt>
<totfact> 0.47690341E+02</totfact>
</mgrwt>
</event>
<event>
 5    0  0.2754780E-002  0.4789871E+03  0.7546771E-02  0.1019414E+00
          2   -1    0    0  503    0  0.00000000000E+00  0.00000000000E+00  0.56876751129E+03  0.56876751129E+03  0.00000000000E+00 0.  1.
         -2   -1    0    0    0  501 -0.00000000000E+00 -0.00000000000E+00 -0.15716756058E+03  0.15716756058E+03  0.00000000000E+00 0. -1.
         25    1    1    2    0    0  0.11751861262E+03  0.22281871822E+03  0.12763521341E+03  0.30882770796E+03  0.12500000000E+03 0.  0.
         21    1    1    2  502  501 -0.15085006858E+02 -0.17162074135E+03  0.23776993613E+03  0.29362523533E+03  0.00000000000E+00 0.  1.
         21    1    1    2  503  502 -0.10243360576E+03 -0.51197976869E+02  0.46194801164E+02  0.12348212858E+03  0.00000000000E+00 0. -1.
<mgrwt>
<rscale>  4 0.47898708E+03</rscale>
<asrwt>0</asrwt>
<pdfrwt beam="1">  1        2 0.87502693E-01 0.47898708E+03</pdfrwt>
<pdfrwt beam="2">  1       -2 0.24179625E-01 0.47898708E+03</pdfrwt>
<totfact> 0.81044860E+02</totfact>
</mgrwt>
</event>
