<event>
 5    0  0.1911311E+001  0.2439689E+03  0.7546771E-02  0.1117177E+00
         21   -1    0    0  504  501  0.00000000000E+00  0.00000000000E+00  0.51646538959E+03  0.51646538959E+03  0.00000000000E+00 0. -1.
         21   -1    0    0  503  502 -0.00000000000E+00 -0.00000000000E+00 -0.71246749211E+03  0.71246749211E+03  0.00000000000E+00 0. -1.
         25    1    1    2    0    0  0.12104537195E+03 -0.18817094515E+03  0.39879968919E+03  0.47405324465E+03  0.12500000000E+03 0.  0.
         21    1    1    2  503  501 -0.48595607137E+01  0.57951105120E+02 -0.57647684268E+03  0.57940270629E+03  0.00000000000E+00 0. -1.
         21    1    1    2  504  502 -0.11618581123E+03  0.13021984003E+03 -0.18324949030E+02  0.17547693075E+03  0.00000000000E+00 0. -1.
<mgrwt>
<rscale>  4 0.24396887E+03</rscale>
<asrwt>0</asrwt>
<pdfrwt beam="1">  1       21 0.79456214E-01 0.24396887E+03</pdfrwt>
<pdfrwt beam="2">  1       21 0.10961038E+00 0.24396887E+03</pdfrwt>
<totfact> 0.87713542E+02</totfact>
</mgrwt>
</event>
<event>
 5    0  0.1911311E+001  0.2489200E+03  0.7546771E-02  0.1113989E+00
         21   -1    0    0  503  501  0.00000000000E+00  0.00000000000E+00  0.18269628663E+03  0.18269628663E+03  0.00000000000E+00 0. -1.
         21   -1    0    0  501  502 -0.00000000000E+00 -0.00000000000E+00 -0.30389833848E+03  0.30389833848E+03  0.00000000000E+00 0. -1.
         25    1    1    2    0    0  0.48943054956E+02  0.20962045200E+03 -0.80814431578E+02  0.26171000913E+03  0.12500000000E+03 0.  0.
         21    1    1    2  503  504 -0.53636374107E+02 -0.14969660339E+03 -0.15293358045E+02  0.15974924255E+03  0.00000000000E+00 0. -1.
         21    1    1    2  504  502  0.46933191508E+01 -0.59923848605E+02 -0.25094262225E+02  0.65135373438E+02  0.00000000000E+00 0.  1.
<mgrwt>
<rscale>  4 0.24891998E+03</rscale>
<asrwt>0</asrwt>
<pdfrwt beam="1">  1       21 0.28107121E-01 0.24891998E+03</pdfrwt>
<pdfrwt beam="2">  1       21 0.46753590E-01 0.24891998E+03</pdfrwt>
<totfact> 0.51669536E+04</totfact>
</mgrwt>
</event>
<event>
 5    0  0.1911311E+001  0.2190215E+03  0.7546771E-02  0.1134615E+00
         21   -1    0    0  502  501  0.00000000000E+00  0.00000000000E+00  0.97246027267E+02  0.97246027267E+02  0.00000000000E+00 0.  1.
         21   -1    0    0  504  502 -0.00000000000E+00 -0.00000000000E+00 -0.66884019192E+03  0.66884019192E+03  0.00000000000E+00 0.  1.
         25    1    1    2    0    0  0.15830146664E+03  0.12379008605E+03 -0.16645640497E+03  0.28933730229E+03  0.12500000000E+03 0.  0.
         21    1    1    2  503  501 -0.19111377119E+02 -0.19657534838E+02  0.79751039096E+01  0.28552857890E+02  0.00000000000E+00 0.  1.
         21    1    1    2  504  503 -0.13919008952E+03 -0.10413255121E+03 -0.41311286360E+03  0.44819605901E+03  0.00000000000E+00 0.  1.
<mgrwt>
<rscale>  4 0.21902147E+03</rscale>
<asrwt>0</asrwt>
<pdfrwt beam="1">  1       21 0.14960927E-01 0.21902147E+03</pdfrwt>
<pdfrwt beam="2">  1       21 0.10289849E+00 0.21902147E+03</pdfrwt>
<totfact> 0.29783445E+04</totfact>
</mgrwt>
</event>
<event>
 5    0  0.1911311E+001  0.2305676E+03  0.7546771E-02  0.1126241E+00
         21   -1    0    0  504  501  0.00000000000E+00  0.00000000000E+00  0.64462976335E+03  0.64462976335E+03  0.00000000000E+00 0. -1.
         21   -1    0    0  503  502 -0.00000000000E+00 -0.00000000000E+00 -0.16908203892E+03  0.16908203892E+03  0.00000000000E+00 0. -1.
         25    1    1    2    0    0 -0.81381667291E+02  0.20845066416E+03  0.17059782733E+02  0.25688653399E+03  0.12500000000E+03 0.  0.
         21    1    1    2  503  501  0.30693700048E+02 -0.26009438051E+02 -0.18013223913E+02  0.44080271393E+02  0.00000000000E+00 0.  1.
         21    1    1    2  504  502  0.50687967243E+02 -0.18244122611E+03  0.47650116561E+03  0.51274499689E+03  0.00000000000E+00 0. -1.
<mgrwt>
<rscale>  4 0.23056760E+03</rscale>
<asrwt>0</asrwt>
<pdfrwt beam="1">  1       21 0.99173808E-01 0.23056760E+03</pdfrwt>
<pdfrwt beam="2">  1       21 0.26012622E-01 0.23056760E+03</pdfrwt>
<totfact> 0.11467133E+04</totfact>
</mgrwt>
</event>
<event>
 5    0  0.1911311E+001  0.1940421E+03  0.7546771E-02  0.1154865E+00
         21   -1    0    0  502  501  0.00000000000E+00  0.00000000000E+00  0.21806289063E+04  0.21806289063E+04  0.00000000000E+00 0. -1.
         21   -1    0    0  504  502 -0.00000000000E+00 -0.00000000000E+00 -0.61779354054E+03  0.61779354054E+03  0.00000000000E+00 0.  1.
         25    1    1    2    0    0  0.92206452235E+02 -0.21562084272E+03  0.18175347987E+04  0.18368593093E+04  0.12500000000E+03 0.  0.
         21    1    1    2  503  501 -0.74818527249E+02  0.68611969240E+02  0.33682826351E+03  0.35179353809E+03  0.00000000000E+00 0. -1.
         21    1    1    2  504  503 -0.17387924986E+02  0.14700887348E+03 -0.59152769643E+03  0.60976959949E+03  0.00000000000E+00 0.  1.
<mgrwt>
<rscale>  4 0.19404207E+03</rscale>
<asrwt>0</asrwt>
<pdfrwt beam="1">  1       21 0.33548137E+00 0.19404207E+03</pdfrwt>
<pdfrwt beam="2">  1       21 0.95045161E-01 0.19404207E+03</pdfrwt>
<totfact> 0.19633957E+01</totfact>
</mgrwt>
</event>
