<event>
 5    0  0.2465569E-003  0.5482658E+03  0.7546771E-02  0.1001896E+00
         -2   -1    0    0    0  501 -0.00000000000E+00  0.00000000000E+00  0.17052131461E+03  0.17052131461E+03  0.00000000000E+00 0. -1.
          2   -1    0    0  502    0  0.00000000000E+00 -0.00000000000E+00 -0.67129959464E+03  0.67129959464E+03  0.00000000000E+00 0.  1.
         25    1    1    2    0    0 -0.45122732358E+02 -0.20921497092E+03 -0.93203944355E+02  0.26479981170E+03  0.12500000000E+03 0.  0.
         21    1    1    2  502  503  0.88657059125E+02  0.21327825307E+03 -0.45637772308E+03  0.51149615198E+03  0.00000000000E+00 0.  1.
         21    1    1    2  503  501 -0.43534326767E+02 -0.40632821507E+01  0.48803387406E+02  0.65524945564E+02  0.00000000000E+00 0. -1.
<mgrwt>
<rscale>  4 0.54826582E+03</rscale>
<asrwt>0</asrwt>
<pdfrwt beam="1">  1        2 0.10327686E+00 0.54826582E+03</pdfrwt>
<pdfrwt beam="2">  1       -2 0.26234048E-01 0.54826582E+03</pdfrwt>
<totfact> 0.57262214E+02</totfact>
</mgrwt>
</event>
<event>
 5    0  0.2465569E-003  0.1056337E+04  0.7546771E-02  0.9248826E-01
          1   -1    0    0  503    0  0.00000000000E+00  0.00000000000E+00  0.12375638949E+04  0.12375638949E+04  0.00000000000E+00 0.  1.
         -1   -1    0    0    0  501 -0.00000000000E+00 -0.00000000000E+00 -0.39090183603E+03  0.39090183603E+03  0.00000000000E+00 0. -1.
         25    1    1    2    0    0 -0.39218958978E+03  0.21197525367E+03  0.52504837108E+03  0.70003355239E+03  0.12500000000E+03 0.  0.
         21    1    1    2  502  501  0.28487413286E+03 -0.22773859878E+03 -0.18596659003E+03  0.40939188262E+03  0.00000000000E+00 0. -1.
         21    1    1    2  503  502  0.10731545692E+03  0.15763345108E+02  0.50758027785E+03  0.51904029593E+03  0.00000000000E+00 0. -1.
<mgrwt>
<rscale>  4 0.10563372E+04</rscale>
<asrwt>0</asrwt>
<pdfrwt beam="1">  1        1 0.19039444E+00 0.10563372E+04</pdfrwt>
<pdfrwt beam="2">  1       -1 0.60138745E-01 0.10563372E+04</pdfrwt>
<totfact> 0.28103011E+01</totfact>
</mgrwt>
</event>
<event>
 5    0  0.2465569E-003  0.6151154E+03  0.7546771E-02  0.9874533E-01
         -1   -1    0    0    0  501 -0.00000000000E+00  0.00000000000E+00  0.89338654154E+02  0.89338654154E+02  0.00000000000E+00 0.  1.
          1   -1    0    0  503    0  0.00000000000E+00 -0.00000000000E+00 -0.18690042990E+04  0.18690042990E+04  0.00000000000E+00 0. -1.
         25    1    1    2    0    0 -0.21016827107E+02  0.28332370961E+03 -0.62742543607E+03  0.70000122091E+03  0.12500000000E+03 0.  0.
         21    1    1    2  502  501 -0.10550038692E+02 -0.21911585289E+02  0.34795959284E+02  0.42452086742E+02  0.00000000000E+00 0.  1.
         21    1    1    2  503  502  0.31566865799E+02 -0.26141212432E+03 -0.11870361680E+04  0.12158896455E+04  0.00000000000E+00 0. -1.
<mgrwt>
<rscale>  4 0.61511535E+03</rscale>
<asrwt>0</asrwt>
<pdfrwt beam="1">  1        1 0.28753913E+00 0.61511535E+03</pdfrwt>
<pdfrwt beam="2">  1       -1 0.13744408E-01 0.61511535E+03</pdfrwt>
<totfact> 0.14425534E+02</totfact>
</mgrwt>
</event>
<event>
 5    0  0.2465569E-003  0.4989650E+03  0.7546771E-02  0.1014049E+00
         -2   -1    0    0    0  501 -0.00000000000E+00  0.00000000000E+00  0.83862260288E+02  0.83862260288E+02  0.00000000000E+00 0. -1.
          2   -1    0    0  502    0  0.00000000000E+00 -0.00000000000E+00 -0.97195540076E+03  0.97195540076E+03  0.00000000000E+00 0.  1.
         25    1    1    2    0    0 -0.18140855395E+01  0.20790969054E+03 -0.66612958647E+03  0.70893113650E+03  0.12500000000E+03 0.  0.
         21    1    1    2  502  503  0.63660636743E+02 -0.33610020844E+02 -0.10752159002E+03  0.12939552733E+03  0.00000000000E+00 0. -1.
         21    1    1    2  503  501 -0.61846551203E+02 -0.17429966969E+03 -0.11444196397E+03  0.21749099721E+03  0.00000000000E+00 0. -1.
<mgrwt>
<rscale>  4 0.49896495E+03</rscale>
<asrwt>0</asrwt>
<pdfrwt beam="1">  1        2 0.14953159E+00 0.49896495E+03</pdfrwt>
<pdfrwt beam="2">  1       -2 0.12901887E-01 0.49896495E+03</pdfrwt>
<totfact> 0.11957754E+03</totfact>
</mgrwt>
</event>
<event>
 5    0  0.2465569E-003  0.4425452E+03  0.7546771E-02  0.1029969E+00
          2   -1    0    0  503    0  0.00000000000E+00  0.00000000000E+00  0.14351028370E+04  0.14351028370E+04  0.00000000000E+00 0.  1.
         -2   -1    0    0    0  501 -0.00000000000E+00 -0.00000000000E+00 -0.42118034853E+02  0.42118034853E+02  0.00000000000E+00 0. -1.
         25    1    1    2    0    0  0.10648785950E+03 -0.17569542762E+03  0.96484621627E+03  0.99436500771E+03  0.12500000000E+03 0.  0.
         21    1    1    2  502  501 -0.20901480567E+01  0.21273976940E+02  0.73072517087E+01  0.22590855257E+02  0.00000000000E+00 0. -1.
         21    1    1    2  503  502 -0.10439771144E+03  0.15442145068E+03  0.42083133413E+03  0.46026500885E+03  0.00000000000E+00 0.  1.
<mgrwt>
<rscale>  4 0.44254515E+03</rscale>
<asrwt>0</asrwt>
<pdfrwt beam="1">  1        2 0.22078501E+00 0.44254515E+03</pdfrwt>
<pdfrwt beam="2">  1       -2 0.64796988E-02 0.44254515E+03</pdfrwt>
<totfact> 0.19357733E+03</totfact>
</mgrwt>
</event>
<event>
 5    0  0.2465569E-003  0.4483651E+03  0.7546771E-02  0.1028211E+00
          2   -1    0    0  502    0  0.00000000000E+00  0.00000000000E+00  0.88607552164E+03  0.88607552164E+03  0.00000000000E+00 0. -1.
         -2   -1    0    0    0  501 -0.00000000000E+00 -0.00000000000E+00 -0.69362401124E+02  0.69362401124E+02  0.00000000000E+00 0.  1.
         25    1    1    2    0    0  0.19266857020E+03 -0.54680790959E+02  0.34096987590E+03  0.41472475585E+03  0.12500000000E+03 0.  0.
         21    1    1    2  502  503  0.17827854894E+02  0.39931196112E+02  0.11140333478E+03  0.11967888633E+03  0.00000000000E+00 0. -1.
         21    1    1    2  503  501 -0.21049642510E+03  0.14749594847E+02  0.36433990983E+03  0.42103428057E+03  0.00000000000E+00 0. -1.
<mgrwt>
<rscale>  4 0.44836511E+03</rscale>
<asrwt>0</asrwt>
<pdfrwt beam="1">  1        2 0.13631930E+00 0.44836511E+03</pdfrwt>
<pdfrwt beam="2">  1       -2 0.10671139E-01 0.44836511E+03</pdfrwt>
<totfact> 0.18568843E+03</totfact>
</mgrwt>
</event>
<event>
 5    0  0.2465569E-003  0.1129210E+04  0.7546771E-02  0.9177180E-01
          2   -1    0    0  502    0  0.00000000000E+00  0.00000000000E+00  0.18201354265E+04  0.18201354265E+04  0.00000000000E+00 0.  1.
         -2   -1    0    0    0  501 -0.00000000000E+00 -0.00000000000E+00 -0.68091469115E+03  0.68091469115E+03  0.00000000000E+00 0. -1.
         25    1    1    2    0    0  0.24270022956E+03 -0.78133570199E+02  0.35423674131E+03  0.45400101885E+03  0.12500000000E+03 0.  0.
         21    1    1    2  502  503 -0.12799341101E+03 -0.35538272419E+03  0.13060567734E+04  0.13595821010E+04  0.00000000000E+00 0. -1.
         21    1    1    2  503  501 -0.11470681855E+03  0.43351629439E+03 -0.52107277937E+03  0.68746699784E+03  0.00000000000E+00 0. -1.
<mgrwt>
<rscale>  4 0.11292099E+04</rscale>
<asrwt>0</asrwt>
<pdfrwt beam="1">  1        2 0.28002083E+00 0.11292099E+04</pdfrwt>
<pdfrwt beam="2">  1       -2 0.10475611E+00 0.11292099E+04</pdfrwt>
<totfact> 0.61182169E+00</totfact>
</mgrwt>
</event>
<event>
 5    0  0.2465569E-003  0.4639656E+03  0.7546771E-02  0.1023637E+00
          1   -1    0    0  502    0  0.00000000000E+00  0.00000000000E+00  0.10381662332E+03  0.10381662332E+03  0.00000000000E+00 0. -1.
         -1   -1    0    0    0  501 -0.00000000000E+00 -0.00000000000E+00 -0.17630403974E+04  0.17630403974E+04  0.00000000000E+00 0.  1.
         25    1    1    2    0    0 -0.18712974305E+03 -0.11705964821E+03 -0.11218873972E+04  0.11502073005E+04  0.12500000000E+03 0.  0.
         21    1    1    2  502  503 -0.72517632410E+01  0.62760610065E+02  0.59394331398E+02  0.86713141150E+02  0.00000000000E+00 0. -1.
         21    1    1    2  503  501  0.19438150629E+03  0.54299038147E+02 -0.59673070820E+03  0.62993657907E+03  0.00000000000E+00 0. -1.
<mgrwt>
<rscale>  4 0.46396556E+03</rscale>
<asrwt>0</asrwt>
<pdfrwt beam="1">  1        1 0.15971789E-01 0.46396556E+03</pdfrwt>
<pdfrwt beam="2">  1       -1 0.27123698E+00 0.46396556E+03</pdfrwt>
<totfact> 0.19307590E+01</totfact>
</mgrwt>
</event>
<event>
 5    0  0.2465569E-003  0.6984738E+03  0.7546771E-02  0.9719846E-01
         -2   -1    0    0    0  501 -0.00000000000E+00  0.00000000000E+00  0.22648801183E+03  0.22648801183E+03  0.00000000000E+00 0.  1.
          2   -1    0    0  503    0  0.00000000000E+00 -0.00000000000E+00 -0.11144080457E+04  0.11144080457E+04  0.00000000000E+00 0. -1.
         25    1    1    2    0    0  0.26986226604E+03 -0.15955653452E+03 -0.29918809605E+03  0.45102377671E+03  0.12500000000E+03 0.  0.
         21    1    1    2  502  501  0.45810993637E+02  0.10005867133E+03  0.87910596171E+02  0.14084977020E+03  0.00000000000E+00 0. -1.
         21    1    1    2  503  502 -0.31567325968E+03  0.59497863194E+02 -0.67664253401E+03  0.74902251063E+03  0.00000000000E+00 0. -1.
<mgrwt>
<rscale>  4 0.69847382E+03</rscale>
<asrwt>0</asrwt>
<pdfrwt beam="1">  1        2 0.17144739E+00 0.69847382E+03</pdfrwt>
<pdfrwt beam="2">  1       -2 0.34844309E-01 0.69847382E+03</pdfrwt>
<totfact> 0.16744534E+02</totfact>
</mgrwt>
</event>
<event>
 5    0  0.2465569E-003  0.1124520E+04  0.7546771E-02  0.9181618E-01
          2   -1    0    0  502    0  0.00000000000E+00  0.00000000000E+00  0.10839185354E+04  0.10839185354E+04  0.00000000000E+00 0. -1.
         -2   -1    0    0    0  501 -0.00000000000E+00 -0.00000000000E+00 -0.31880430992E+03  0.31880430992E+03  0.00000000000E+00 0.  1.
         25    1    1    2    0    0  0.33221983761E+03  0.39060651376E+03  0.67782070407E+03  0.85907472082E+03  0.12500000000E+03 0.  0.
         21    1    1    2  502  503 -0.47332076667E+02 -0.13739324698E+02  0.49271797737E+02  0.69690778277E+02  0.00000000000E+00 0.  1.
         21    1    1    2  503  501 -0.28488776095E+03 -0.37686718906E+03  0.38021723622E+02  0.47395734618E+03  0.00000000000E+00 0.  1.
<mgrwt>
<rscale>  4 0.11245195E+04</rscale>
<asrwt>0</asrwt>
<pdfrwt beam="1">  1        2 0.16675670E+00 0.11245195E+04</pdfrwt>
<pdfrwt beam="2">  1       -2 0.49046817E-01 0.11245195E+04</pdfrwt>
<totfact> 0.86912324E+01</totfact>
</mgrwt>
</event>
<event>
 5    0  0.2465569E-003  0.6297744E+03  0.7546771E-02  0.9845489E-01
          2   -1    0    0  503    0  0.00000000000E+00  0.00000000000E+00  0.18993205798E+04  0.18993205798E+04  0.00000000000E+00 0. -1.
         -2   -1    0    0    0  501 -0.00000000000E+00 -0.00000000000E+00 -0.69737264138E+02  0.69737264138E+02  0.00000000000E+00 0.  1.
         25    1    1    2    0    0 -0.17231245849E+03  0.19771550151E+03  0.14101219299E+04  0.14397402057E+04  0.12500000000E+03 0.  0.
         21    1    1    2  502  501  0.11891838118E+03 -0.12076233643E+03  0.10084088919E+03  0.19721563887E+03  0.00000000000E+00 0.  1.
         21    1    1    2  503  502  0.53394077312E+02 -0.76953165080E+02  0.31862049653E+03  0.33210199927E+03  0.00000000000E+00 0.  1.
<mgrwt>
<rscale>  4 0.62977440E+03</rscale>
<asrwt>0</asrwt>
<pdfrwt beam="1">  1        2 0.29220313E+00 0.62977440E+03</pdfrwt>
<pdfrwt beam="2">  1       -2 0.10728811E-01 0.62977440E+03</pdfrwt>
<totfact> 0.47897733E+02</totfact>
</mgrwt>
</event>
<event>
 5    0  0.2465569E-003  0.8448238E+03  0.7546771E-02  0.9497311E-01
          2   -1    0    0  502    0  0.00000000000E+00  0.00000000000E+00  0.30848946968E+04  0.30848946968E+04  0.00000000000E+00 0. -1.
         -2   -1    0    0    0  501 -0.00000000000E+00 -0.00000000000E+00 -0.68680551487E+02  0.68680551487E+02  0.00000000000E+00 0.  1.
         25    1    1    2    0    0 -0.37800092653E+03 -0.32523618376E+02  0.20262646383E+04  0.20652641164E+04  0.12500000000E+03 0.  0.
         21    1    1    2  502  503  0.41501110337E+02  0.83198142815E+01  0.44757329280E+03  0.44957025468E+03  0.00000000000E+00 0. -1.
         21    1    1    2  503  501  0.33649981619E+03  0.24203804095E+02  0.54237621426E+03  0.63874087722E+03  0.00000000000E+00 0.  1.
<mgrwt>
<rscale>  4 0.84482375E+03</rscale>
<asrwt>0</asrwt>
<pdfrwt beam="1">  1        2 0.47459908E+00 0.84482375E+03</pdfrwt>
<pdfrwt beam="2">  1       -2 0.10566241E-01 0.84482375E+03</pdfrwt>
<totfact> 0.10098856E+02</totfact>
</mgrwt>
</event>
<event>
 5    0  0.2465569E-003  0.8716294E+03  0.7546771E-02  0.9461758E-01
         -1   -1    0    0    0  501 -0.00000000000E+00  0.00000000000E+00  0.67286869735E+02  0.67286869735E+02  0.00000000000E+00 0.  1.
          1   -1    0    0  503    0  0.00000000000E+00 -0.00000000000E+00 -0.33986707085E+04  0.33986707085E+04  0.00000000000E+00 0. -1.
         25    1    1    2    0    0  0.39405016707E+02  0.36667190870E+03 -0.18908435180E+04  0.19305220158E+04  0.12500000000E+03 0.  0.
         21    1    1    2  502  501  0.36787660675E+02  0.74744732547E+02 -0.24022138042E+03  0.25425659997E+03  0.00000000000E+00 0. -1.
         21    1    1    2  503  502 -0.76192677382E+02 -0.44141664125E+03 -0.12003189403E+04  0.12811789624E+04  0.00000000000E+00 0.  1.
<mgrwt>
<rscale>  4 0.87162941E+03</rscale>
<asrwt>0</asrwt>
<pdfrwt beam="1">  1        1 0.52287228E+00 0.87162941E+03</pdfrwt>
<pdfrwt beam="2">  1       -1 0.10351829E-01 0.87162941E+03</pdfrwt>
<totfact> 0.18861024E+01</totfact>
</mgrwt>
</event>
<event>
 5    0  0.2465569E-003  0.3824193E+03  0.7546771E-02  0.1050043E+00
         -1   -1    0    0    0  501 -0.00000000000E+00  0.00000000000E+00  0.12819020501E+03  0.12819020501E+03  0.00000000000E+00 0.  1.
          1   -1    0    0  502    0  0.00000000000E+00 -0.00000000000E+00 -0.10242813778E+04  0.10242813778E+04  0.00000000000E+00 0. -1.
         25    1    1    2    0    0  0.67684433875E+02 -0.19005133232E+03 -0.51339278227E+03  0.56559512055E+03  0.12500000000E+03 0.  0.
         21    1    1    2  502  503 -0.99401180355E+02  0.97151366339E+02 -0.44793991460E+03  0.46900868833E+03  0.00000000000E+00 0.  1.
         21    1    1    2  503  501  0.31716746480E+02  0.92899965980E+02  0.65241524022E+02  0.11786777398E+03  0.00000000000E+00 0.  1.
<mgrwt>
<rscale>  4 0.38241926E+03</rscale>
<asrwt>0</asrwt>
<pdfrwt beam="1">  1        1 0.15758175E+00 0.38241926E+03</pdfrwt>
<pdfrwt beam="2">  1       -1 0.19721570E-01 0.38241926E+03</pdfrwt>
<totfact> 0.31465798E+02</totfact>
</mgrwt>
</event>
<event>
 5    0  0.2465569E-003  0.8254950E+03  0.7546771E-02  0.9523830E-01
          3   -1    0    0  502    0  0.00000000000E+00  0.00000000000E+00  0.70502287593E+03  0.70502287593E+03  0.00000000000E+00 0.  1.
         -3   -1    0    0    0  501 -0.00000000000E+00 -0.00000000000E+00 -0.41664268832E+03  0.41664268832E+03  0.00000000000E+00 0. -1.
         25    1    1    2    0    0  0.34974602242E+03 -0.79687970846E+02  0.32328139706E+03  0.49880689107E+03  0.12500000000E+03 0.  0.
         21    1    1    2  502  503 -0.15559210558E+03 -0.20609700353E+03  0.58874536552E+02  0.26486050902E+03  0.00000000000E+00 0.  1.
         21    1    1    2  503  501 -0.19415391685E+03  0.28578497438E+03 -0.93775745998E+02  0.35799816416E+03  0.00000000000E+00 0. -1.
<mgrwt>
<rscale>  4 0.82549504E+03</rscale>
<asrwt>0</asrwt>
<pdfrwt beam="1">  1        3 0.10846506E+00 0.82549504E+03</pdfrwt>
<pdfrwt beam="2">  1       -3 0.64098875E-01 0.82549504E+03</pdfrwt>
<totfact> 0.44490058E+00</totfact>
</mgrwt>
</event>
<event>
 5    0  0.2465569E-003  0.1304094E+04  0.7546771E-02  0.9026325E-01
          2   -1    0    0  503    0  0.00000000000E+00  0.00000000000E+00  0.30760773630E+03  0.30760773630E+03  0.00000000000E+00 0. -1.
         -2   -1    0    0    0  501 -0.00000000000E+00 -0.00000000000E+00 -0.15837016460E+04  0.15837016460E+04  0.00000000000E+00 0.  1.
         25    1    1    2    0    0  0.56304810239E+03 -0.27629663388E+03 -0.60476635338E+03  0.88018767185E+03  0.12500000000E+03 0.  0.
         21    1    1    2  502  501  0.46739736532E+02  0.22195912082E+02 -0.18147763248E+03  0.18870981049E+03  0.00000000000E+00 0. -1.
         21    1    1    2  503  502 -0.60978783892E+03  0.25410072180E+03 -0.48984992388E+03  0.82241189999E+03  0.00000000000E+00 0. -1.
<mgrwt>
<rscale>  4 0.13040937E+04</rscale>
<asrwt>0</asrwt>
<pdfrwt beam="1">  1        2 0.47324267E-01 0.13040937E+04</pdfrwt>
<pdfrwt beam="2">  1       -2 0.24364641E+00 0.13040937E+04</pdfrwt>
<totfact> 0.73567848E+00</totfact>
</mgrwt>
</event>
<event>
 5    0  0.2465569E-003  0.8657683E+03  0.7546771E-02  0.9469414E-01
          2   -1    0    0  503    0  0.00000000000E+00  0.00000000000E+00  0.26968977175E+04  0.26968977175E+04  0.00000000000E+00 0. -1.
         -2   -1    0    0    0  501 -0.00000000000E+00 -0.00000000000E+00 -0.12135869077E+03  0.12135869077E+03  0.00000000000E+00 0.  1.
         25    1    1    2    0    0  0.20815979040E+02  0.22245739298E+03  0.15791181528E+04  0.15997373963E+04  0.12500000000E+03 0.  0.
         21    1    1    2  502  501 -0.22285955253E+03 -0.10874765266E+03  0.61786098387E+02  0.25555812268E+03  0.00000000000E+00 0.  1.
         21    1    1    2  503  502  0.20204357349E+03 -0.11370974032E+03  0.93463477549E+03  0.96296088923E+03  0.00000000000E+00 0.  1.
<mgrwt>
<rscale>  4 0.86576827E+03</rscale>
<asrwt>0</asrwt>
<pdfrwt beam="1">  1        2 0.41490730E+00 0.86576827E+03</pdfrwt>
<pdfrwt beam="2">  1       -2 0.18670570E-01 0.86576827E+03</pdfrwt>
<totfact> 0.66132811E+01</totfact>
</mgrwt>
</event>
<event>
 5    0  0.2465569E-003  0.7552940E+03  0.7546771E-02  0.9627081E-01
         -2   -1    0    0    0  501 -0.00000000000E+00  0.00000000000E+00  0.46977896031E+03  0.46977896031E+03  0.00000000000E+00 0.  1.
          2   -1    0    0  503    0  0.00000000000E+00 -0.00000000000E+00 -0.43471752214E+03  0.43471752214E+03  0.00000000000E+00 0. -1.
         25    1    1    2    0    0 -0.10572093439E+03  0.20044803727E+03 -0.24915135168E+03  0.35924605448E+03  0.12500000000E+03 0.  0.
         21    1    1    2  502  501  0.17801144003E+03 -0.95316212428E+02  0.34820285711E+03  0.40251519578E+03  0.00000000000E+00 0.  1.
         21    1    1    2  503  502 -0.72290505640E+02 -0.10513182485E+03 -0.63990067263E+02  0.14273523219E+03  0.00000000000E+00 0. -1.
<mgrwt>
<rscale>  4 0.75529398E+03</rscale>
<asrwt>0</asrwt>
<pdfrwt beam="1">  1        2 0.66879619E-01 0.75529398E+03</pdfrwt>
<pdfrwt beam="2">  1       -2 0.72273686E-01 0.75529398E+03</pdfrwt>
<totfact> 0.12665632E+02</totfact>
</mgrwt>
</event>
<event>
 5    0  0.2465569E-003  0.5532680E+03  0.7546771E-02  0.1000740E+00
         -2   -1    0    0    0  501 -0.00000000000E+00  0.00000000000E+00  0.33102736608E+03  0.33102736608E+03  0.00000000000E+00 0.  1.
          2   -1    0    0  502    0  0.00000000000E+00 -0.00000000000E+00 -0.33824373293E+03  0.33824373293E+03  0.00000000000E+00 0. -1.
         25    1    1    2    0    0  0.11427701410E+03 -0.28314899289E+03  0.13521886276E+02  0.33021270347E+03  0.12500000000E+03 0.  0.
         21    1    1    2  502  503 -0.79034634851E+02  0.19665029745E+03 -0.82120149594E+02  0.22729173316E+03  0.00000000000E+00 0. -1.
         21    1    1    2  503  501 -0.35242379245E+02  0.86498695440E+02  0.61381896466E+02  0.11176666239E+03  0.00000000000E+00 0. -1.
<mgrwt>
<rscale>  4 0.55326800E+03</rscale>
<asrwt>0</asrwt>
<pdfrwt beam="1">  1        2 0.52037498E-01 0.55326800E+03</pdfrwt>
<pdfrwt beam="2">  1       -2 0.50927287E-01 0.55326800E+03</pdfrwt>
<totfact> 0.35424370E+02</totfact>
</mgrwt>
</event>
<event>
 5    0  0.2465569E-003  0.1010903E+04  0.7546771E-02  0.9296666E-01
          1   -1    0    0  502    0  0.00000000000E+00  0.00000000000E+00  0.13069262851E+04  0.13069262851E+04  0.00000000000E+00 0. -1.
         -1   -1    0    0    0  501 -0.00000000000E+00 -0.00000000000E+00 -0.28770534315E+03  0.28770534315E+03  0.00000000000E+00 0.  1.
         25    1    1    2    0    0  0.44817112962E+03 -0.48433500646E+01  0.62868792833E+03  0.78214725640E+03  0.12500000000E+03 0.  0.
         21    1    1    2  502  503 -0.46771495921E+03 -0.19799625043E+03  0.29586817656E+03  0.58779058869E+03  0.00000000000E+00 0.  1.
         21    1    1    2  503  501  0.19543829592E+02  0.20283960049E+03  0.94664837028E+02  0.22469378312E+03  0.00000000000E+00 0.  1.
<mgrwt>
<rscale>  4 0.10109034E+04</rscale>
<asrwt>0</asrwt>
<pdfrwt beam="1">  1        1 0.20106558E+00 0.10109034E+04</pdfrwt>
<pdfrwt beam="2">  1       -1 0.44262361E-01 0.10109034E+04</pdfrwt>
<totfact> 0.45294157E+01</totfact>
</mgrwt>
</event>
<event>
 5    0  0.2465569E-003  0.5752368E+03  0.7546771E-02  0.9958157E-01
          1   -1    0    0  502    0  0.00000000000E+00  0.00000000000E+00  0.50202948243E+03  0.50202948243E+03  0.00000000000E+00 0. -1.
         -1   -1    0    0    0  501 -0.00000000000E+00 -0.00000000000E+00 -0.28602843186E+03  0.28602843186E+03  0.00000000000E+00 0.  1.
         25    1    1    2    0    0 -0.19804263208E+03 -0.30796520390E+02  0.20660724100E+03  0.31381660540E+03  0.12500000000E+03 0.  0.
         21    1    1    2  502  503  0.27465748942E+02  0.38533234475E+02  0.20742817560E+03  0.21275719860E+03  0.00000000000E+00 0. -1.
         21    1    1    2  503  501  0.17057688314E+03 -0.77367140850E+01 -0.19803436603E+03  0.26148411029E+03  0.00000000000E+00 0.  1.
<mgrwt>
<rscale>  4 0.57523684E+03</rscale>
<asrwt>0</asrwt>
<pdfrwt beam="1">  1        1 0.77235305E-01 0.57523684E+03</pdfrwt>
<pdfrwt beam="2">  1       -1 0.44004374E-01 0.57523684E+03</pdfrwt>
<totfact> 0.22994981E+02</totfact>
</mgrwt>
</event>
<event>
 5    0  0.2465569E-003  0.6925247E+03  0.7546771E-02  0.9730102E-01
          1   -1    0    0  502    0  0.00000000000E+00  0.00000000000E+00  0.71591777582E+03  0.71591777582E+03  0.00000000000E+00 0.  1.
         -1   -1    0    0    0  501 -0.00000000000E+00 -0.00000000000E+00 -0.23580978130E+03  0.23580978130E+03  0.00000000000E+00 0. -1.
         25    1    1    2    0    0  0.23852401413E+03  0.61763762795E+01  0.43593201429E+03  0.51243884906E+03  0.12500000000E+03 0.  0.
         21    1    1    2  502  503 -0.30616415653E+01 -0.12454855967E+03  0.11159701816E+03  0.16725911583E+03  0.00000000000E+00 0. -1.
         21    1    1    2  503  501 -0.23546237256E+03  0.11837218339E+03 -0.67421037926E+02  0.27202959223E+03  0.00000000000E+00 0.  1.
<mgrwt>
<rscale>  4 0.69252465E+03</rscale>
<asrwt>0</asrwt>
<pdfrwt beam="1">  1        1 0.11014120E+00 0.69252465E+03</pdfrwt>
<pdfrwt beam="2">  1       -1 0.36278428E-01 0.69252465E+03</pdfrwt>
<totfact> 0.19471592E+02</totfact>
</mgrwt>
</event>
<event>
 5    0  0.2465569E-003  0.4489975E+03  0.7546771E-02  0.1028021E+00
          2   -1    0    0  503    0  0.00000000000E+00  0.00000000000E+00  0.10335209268E+04  0.10335209268E+04  0.00000000000E+00 0.  1.
         -2   -1    0    0    0  501 -0.00000000000E+00 -0.00000000000E+00 -0.10184774709E+03  0.10184774709E+03  0.00000000000E+00 0. -1.
         25    1    1    2    0    0  0.15097943835E+03  0.14275613112E+03  0.38062117734E+03  0.45129988303E+03  0.12500000000E+03 0.  0.
         21    1    1    2  502  501  0.46369083076E+02 -0.13580299539E+03  0.61376792942E+02  0.15607580252E+03  0.00000000000E+00 0. -1.
         21    1    1    2  503  502 -0.19734852143E+03 -0.69531357310E+01  0.48967520945E+03  0.52799298836E+03  0.00000000000E+00 0.  1.
<mgrwt>
<rscale>  4 0.44899747E+03</rscale>
<asrwt>0</asrwt>
<pdfrwt beam="1">  1        2 0.15900321E+00 0.44899747E+03</pdfrwt>
<pdfrwt beam="2">  1       -2 0.15668885E-01 0.44899747E+03</pdfrwt>
<totfact> 0.79234273E+02</totfact>
</mgrwt>
</event>
