<LesHouchesEvents version="3.0">
  <!--
  <scalesfunctionalform>
    muR  H_T/2 := sum_i mT(i)/2, i=final state
    muF1 H_T/2 := sum_i mT(i)/2, i=final state
    muF2 H_T/2 := sum_i mT(i)/2, i=final state
    QES  H_T/2 := sum_i mT(i)/2, i=final state
  </scalesfunctionalform>
HERWIG6   
  -->
  <header>
       98
  </header>
  <init>
   2212   2212 0.65000000D+04 0.65000000D+04 -1 -1   244800   244800 -4   1
 0.83718515D-04 0.47397874D-05 0.16453327D-05     66
  </init>
  <event>
  5     66 0.16453327E-05 0.11160600E+03 0.75467711E-02 0.87379041E-01
       -3 -1    0    0    0  501 0.00000000E+00 0.00000000E+00 0.85918204E+03 0.85918219E+03 0.50000000E+00 0.0000E+00 0.9000E+01
        1 -1    0    0  502    0 -.00000000E+00 -.00000000E+00 -.19706677E+04 0.19706678E+04 0.32000000E+00 0.0000E+00 0.9000E+01
       25  1    1    2    0    0 -.24913509E+03 0.45237461E+03 -.48442432E+02 0.53355670E+03 0.12500000E+03 0.0000E+00 0.9000E+01
        2  1    1    2  502    0 0.68909576E+02 -.87704833E+02 -.16104428E+04 0.16143007E+04 0.32000000E+00 0.0000E+00 0.9000E+01
       -4  1    1    2    0  501 0.18022551E+03 -.36466978E+03 0.54739950E+03 0.68199259E+03 0.15500000E+01 0.0000E+00 0.9000E+01
#aMCatNLO 1  0  0  4  2 0.80098683D+01 0.00000000D+00  -5  6  0 0.00000000D+00 0.00000000D+00 0.00000000D+00 0.00000000D+00 0.00000000D+00
  <mgrwgt>
 0.1374846540D-02    3    2    0
 0.130121581076381D+04 0.000000000000000D+00 0.000000000000000D+00 0.130121581076381D+04
 0.130121581076381D+04 -.000000000000000D+00 -.000000000000000D+00 -.130121581076381D+04
 0.559600259715536D+03 -.249107752357867D+03 0.452289053348378D+03 0.175804978911676D+03
 0.106782463477641D+04 0.689512473216132D+02 -.877588995840899D+02 -.106197624816752D+04
 0.975006727035666D+03 0.180156505036254D+03 -.364530153764288D+03 0.886171269255841D+03
 0.000000000000000D+00 -.000000000000000D+00 0.000000000000000D+00 0.000000000000000D+00
 0.130121581076381D+04 0.000000000000000D+00 0.000000000000000D+00 0.130121581076381D+04
 0.130121581076381D+04 -.000000000000000D+00 -.000000000000000D+00 -.130121581076381D+04
 0.520389350804059D+03 -.228025482515758D+03 0.425456227635326D+03 -.148900819742686D+03
 0.645228585265388D+03 0.427446849511698D+03 0.301314354903901D+03 0.377913717156367D+03
 0.612361806722269D+03 0.211143221428329D+03 -.403969036132996D+03 0.408918745257304D+03
 0.824451878735895D+03 -.410564588424270D+03 -.322801546406231D+03 -.637931642670985D+03
0.409240677160D-01 0.000000000000D+00 0.000000000000D+00 0.126946872650D-03 0.000000000000D+00  6 -3 1 25 2 -4 21 0 0.13218187D+00 0.30317967D+00 0.27535831D+06 0.27535831D+06 0.27535831D+06 0.10873166D+01  1  2  2  3  6  4        2 0.355608041153D-02 0.100000000000D+01
0.100151346112D-01 0.000000000000D+00 -.157159195584D-03 0.126946872650D-03 0.000000000000D+00  6 -3 1 25 2 -4 21 2 0.13218187D+00 0.30317967D+00 0.27535831D+06 0.27535831D+06 0.27535831D+06 0.10873166D+01  1  2  3  3  6  4        2 0.102887257239D-02 0.100000000000D+01
-.312474537822D-01 0.000000000000D+00 0.000000000000D+00 0.126946872650D-03 0.000000000000D+00  6 -3 1 25 2 -4 21 2 0.13218187D+00 0.30317967D+00 0.27535831D+06 0.27535831D+06 0.27535831D+06 0.10873166D+01  1  2 15  3  6  4        2 -.321010644407D-02 0.100000000000D+01
  </mgrwgt>
  </event>
  <event>
  5     66 0.16453327E-05 0.52993557E+02 0.75467711E-02 0.95194056E-01
       -3 -1    0    0    0  501 0.00000000E+00 0.00000000E+00 0.26793791E+03 0.26793838E+03 0.50000000E+00 0.0000E+00 0.9000E+01
        1 -1    0    0  502    0 0.00000000E+00 0.00000000E+00 -.11991741E+04 0.11991741E+04 0.32000000E+00 0.0000E+00 0.9000E+01
       25  1    1    2    0    0 0.38337252E+03 0.26466961E+03 -.13457174E+03 0.50075846E+03 0.12500000E+03 0.0000E+00 0.9000E+01
        2  1    1    2  502    0 -.33483687E+03 -.24140845E+03 -.81154289E+03 0.91049203E+03 0.32000000E+00 0.0000E+00 0.9000E+01
       -4  1    1    2    0  501 -.48535642E+02 -.23261158E+02 0.14878478E+02 0.55861988E+02 0.15500000E+01 0.0000E+00 0.9000E+01
#aMCatNLO 1  0  0  1  5 0.27444218D+01 0.00000000D+00  -5  6  0 0.00000000D+00 0.00000000D+00 0.00000000D+00 0.00000000D+00 0.00000000D+00
  <mgrwgt>
 0.9868111437D-04   11    4    0
 0.566837336989038D+03 0.000000000000000D+00 0.000000000000000D+00 0.566837336989038D+03
 0.566837336989038D+03 0.000000000000000D+00 0.000000000000000D+00 -.566837336989038D+03
 0.538027091893301D+03 0.383267407037902D+03 0.264732563255804D+03 0.238476238366881D+03
 0.512448347693399D+03 -.335478693132458D+03 -.241829377210986D+03 -.302615114998540D+03
 0.831992343913757D+02 -.477887139054441D+02 -.229031860448176D+02 0.641388766316589D+02
 0.000000000000000D+00 -.000000000000000D+00 -.000000000000000D+00 0.000000000000000D+00
 0.586109999160194D+03 0.000000000000000D+00 0.000000000000000D+00 0.586109999160194D+03
 0.566936707573681D+03 0.000000000000000D+00 0.000000000000000D+00 -.566936707573681D+03
 0.539151713552337D+03 0.384269019858967D+03 0.265567268949757D+03 0.238476238366881D+03
 0.511451172152299D+03 -.334526621961567D+03 -.241035957627413D+03 -.302615114998540D+03
 0.830751101435715D+02 -.476341039981025D+02 -.227743400803037D+02 0.641388766316589D+02
 0.193687108856679D+02 -.210829389929693D+01 -.175697124204061D+01 0.191732915865122D+02
 0.566837336989038D+03 0.000000000000000D+00 0.000000000000000D+00 0.566837336989038D+03
 0.566837336989038D+03 0.000000000000000D+00 0.000000000000000D+00 -.566837336989038D+03
 0.538027091893301D+03 0.383267407037902D+03 0.264732563255804D+03 0.238476238366881D+03
 0.512448347693399D+03 -.335478693132458D+03 -.241829377210986D+03 -.302615114998540D+03
 0.000000000000000D+00 -.000000000000000D+00 -.000000000000000D+00 0.000000000000000D+00
 0.831992343913757D+02 -.477887139054441D+02 -.229031860448176D+02 0.641388766316589D+02
 0.586109999160194D+03 0.000000000000000D+00 0.000000000000000D+00 0.586109999160194D+03
 0.566936707573681D+03 0.000000000000000D+00 0.000000000000000D+00 -.566936707573681D+03
 0.539151713552337D+03 0.384269019858967D+03 0.265567268949757D+03 0.238476238366881D+03
 0.511451172152299D+03 -.334526621961567D+03 -.241035957627413D+03 -.302615114998540D+03
 0.193687108856679D+02 -.210829389929693D+01 -.175697124204061D+01 0.191732915865122D+02
 0.830751101435715D+02 -.476341039981025D+02 -.227743400803037D+02 0.641388766316589D+02
0.998827060325D-06 0.000000000000D+00 0.000000000000D+00 0.411961064026D-06 0.000000000000D+00  6 -3 1 25 2 -4 21 0 0.41221256D-01 0.18448836D+00 0.22507277D+06 0.22507277D+06 0.22507277D+06 0.10939075D+01  1  2  2  1  6  1       -3 0.467543456537D-05 0.100000000000D+01
0.164543034473D-06 0.000000000000D+00 -.383575890885D-08 0.411961064026D-06 0.000000000000D+00  6 -3 1 25 2 -4 21 2 0.41221256D-01 0.18448836D+00 0.22507277D+06 0.22507277D+06 0.22507277D+06 0.10939075D+01  1  2  3  1  6  1       -3 0.921663571918D-06 0.100000000000D+01
-.839127819050D-06 0.000000000000D+00 0.000000000000D+00 0.411961064026D-06 0.000000000000D+00  6 -3 1 25 2 -4 21 2 0.41221256D-01 0.18448836D+00 0.22507277D+06 0.22507277D+06 0.22507277D+06 0.10939075D+01  1  2 15  1  6  1       -3 -.470025088255D-05 0.100000000000D+01
0.102303763411D-05 0.000000000000D+00 0.000000000000D+00 0.411961064026D-06 0.000000000000D+00  6 -3 1 25 2 -4 21 2 0.42840058D-01 0.18448836D+00 0.22629240D+06 0.22629240D+06 0.22629240D+06 0.10937293D+01  1  2 12  1  6  1       -3 0.529921010312D-05 0.100000000000D+01
-.765141008845D-03 0.000000000000D+00 0.000000000000D+00 0.411961064026D-06 0.000000000000D+00  6 -3 1 25 2 -4 21 2 0.41221256D-01 0.18448836D+00 0.22507277D+06 0.22507277D+06 0.22507277D+06 0.10939075D+01  1  2  4  1  6  1       -3 -.428582466277D-02 0.100000000000D+01
-.699369416255D-03 0.000000000000D+00 -.692863829689D-05 0.411961064026D-06 0.000000000000D+00  6 -3 1 25 2 -4 21 2 0.42626425D-01 0.18448836D+00 0.22507277D+06 0.22507277D+06 0.22507277D+06 0.10939075D+01  1  2  5  1  6  1       -3 -.366128235052D-02 0.100000000000D+01
0.699212698582D-03 0.000000000000D+00 0.692474756904D-05 0.411961064026D-06 0.000000000000D+00  6 -3 1 25 2 -4 21 2 0.41221256D-01 0.18448836D+00 0.22507277D+06 0.22507277D+06 0.22507277D+06 0.10939075D+01  1  2  6  1  6  1       -3 0.391653694347D-02 0.100000000000D+01
0.791481143294D-03 0.000000000000D+00 0.000000000000D+00 0.411961064026D-06 0.556677318585D-06  6 -3 1 25 2 -4 21 2 0.42622793D-01 0.18452070D+00 0.22629240D+06 0.22629240D+06 0.22629240D+06 0.10937293D+01  1  2 11  1  6  1       -3 0.414079249644D-02 0.100000000000D+01
0.356178561594D-07 0.000000000000D+00 0.000000000000D+00 0.411961064026D-06 0.000000000000D+00  6 21 1 25 2 3 -4 2 0.42840058D-01 0.18448836D+00 0.22629240D+06 0.22629240D+06 0.22629240D+06 0.10937293D+01  3  4 12  5  5  1       -3 0.283615491498D-05 0.100000000000D+01
-.420853509895D-05 0.000000000000D+00 -.414382593267D-07 0.411961064026D-06 0.000000000000D+00  6 21 1 25 2 3 -4 2 0.42626425D-01 0.18448836D+00 0.22507277D+06 0.22507277D+06 0.22507277D+06 0.10939075D+01  3  4  5  5  5  1       -3 -.338874410148D-03 0.100000000000D+01
0.395634512880D-05 0.000000000000D+00 0.000000000000D+00 0.411961064026D-06 0.208951245942D-08  6 21 1 25 2 3 -4 2 0.42622793D-01 0.18452070D+00 0.22629240D+06 0.22629240D+06 0.22629240D+06 0.10937293D+01  3  4 11  5  5  1       -3 0.318300885620D-03 0.100000000000D+01
  </mgrwgt>
  </event>
  <event>
  5     66 0.16453327E-05 0.17629082E+03 0.75467711E-02 0.93894663E-01
       -3 -1    0    0    0  501 0.00000000E+00 0.00000000E+00 0.70272641E+03 0.70272659E+03 0.50000000E+00 0.0000E+00 0.9000E+01
        1 -1    0    0  502    0 0.00000000E+00 0.00000000E+00 -.40189131E+04 0.40189131E+04 0.32000000E+00 0.0000E+00 0.9000E+01
       25  1    1    2    0    0 -.20652684E+03 -.46119934E+03 -.59471770E+03 0.79036214E+03 0.12500000E+03 0.0000E+00 0.9000E+01
        2  1    1    2  502    0 0.15931737E+03 0.29131959E+03 -.33050263E+04 0.33216635E+04 0.32000000E+00 0.0000E+00 0.9000E+01
       -4  1    1    2    0  501 0.47209466E+02 0.16987975E+03 0.58355730E+03 0.60961413E+03 0.15500000E+01 0.0000E+00 0.9000E+01
#aMCatNLO 1  0  0  2  5 0.29694040D+02 0.00000000D+00  -5  6  0 0.00000000D+00 0.00000000D+00 0.00000000D+00 0.00000000D+00 0.00000000D+00
  <mgrwgt>
 0.2631835898D-02    7    2    0
 0.168053468929412D+04 0.000000000000000D+00 0.000000000000000D+00 0.168053468929412D+04
 0.168053468929412D+04 0.000000000000000D+00 0.000000000000000D+00 -.168053468929412D+04
 0.523619107331400D+03 -.206592853433871D+03 -.461311265195197D+03 -.553468976238943D+02
 0.140551556919181D+04 0.159390532646220D+03 0.291457229727124D+03 -.136569445945392D+04
 0.143193470206503D+04 0.472023207876508D+02 0.169854035468072D+03 0.142104135707781D+04
 0.000000000000000D+00 -.000000000000000D+00 -.000000000000000D+00 -.000000000000000D+00
 0.168307393379667D+04 0.000000000000000D+00 0.000000000000000D+00 0.168307393379667D+04
 0.176971271308590D+04 0.000000000000000D+00 0.000000000000000D+00 -.176971271308590D+04
 0.521783627540693D+03 -.201975165489096D+03 -.461276389400744D+03 -.553468976238943D+02
 0.140699799414218D+04 0.171813792642294D+03 0.291551058298314D+03 -.136569445945392D+04
 0.143241892331084D+04 0.598545654817381D+02 0.169949593481215D+03 0.142104135707781D+04
 0.915861018888638D+02 -.296931926349357D+02 -.224262378784610D+00 -.866387792892271D+02
0.438417164481D-01 0.000000000000D+00 0.000000000000D+00 0.307079227088D-03 0.000000000000D+00  6 -3 1 25 2 -4 21 0 0.10811177D+00 0.61829434D+00 0.26479788D+06 0.26479788D+06 0.26479788D+06 0.10885852D+01  1  2  2  2  6  2        1 0.187022504807D-03 0.100000000000D+01
0.734650320138D-02 0.000000000000D+00 -.168363734950D-03 0.307079227088D-03 0.000000000000D+00  6 -3 1 25 2 -4 21 2 0.10811177D+00 0.61829434D+00 0.26479788D+06 0.26479788D+06 0.26479788D+06 0.10885852D+01  1  2  3  2  6  2        1 0.371374328565D-04 0.100000000000D+01
-.252780960877D-01 0.000000000000D+00 0.000000000000D+00 0.307079227088D-03 0.000000000000D+00  6 -3 1 25 2 -4 21 2 0.10811177D+00 0.61829434D+00 0.26479788D+06 0.26479788D+06 0.26479788D+06 0.10885852D+01  1  2 15  2  6  2        1 -.127783731997D-03 0.100000000000D+01
-.147032834209D+00 0.000000000000D+00 0.000000000000D+00 0.307079227088D-03 0.000000000000D+00  6 -3 1 25 2 -4 21 2 0.10811177D+00 0.61829434D+00 0.26479788D+06 0.26479788D+06 0.26479788D+06 0.10885852D+01  1  2  4  2  6  2        1 -.743268172416D-03 0.100000000000D+01
-.157062373144D+01 0.000000000000D+00 -.898751467017D-01 0.307079227088D-03 0.000000000000D+00  6 -3 1 25 2 -4 21 2 0.10811177D+00 0.65127266D+00 0.26479788D+06 0.26479788D+06 0.26479788D+06 0.10885852D+01  1  2  5  2  6  2        1 -.493458525782D-02 0.100000000000D+01
0.162544763831D+01 0.000000000000D+00 0.929682477724D-01 0.307079227088D-03 0.000000000000D+00  6 -3 1 25 2 -4 21 2 0.10811177D+00 0.61829434D+00 0.26479788D+06 0.26479788D+06 0.26479788D+06 0.10885852D+01  1  2  6  2  6  2        1 0.821682790777D-02 0.100000000000D+01
-.165329502591D-01 0.000000000000D+00 -.811309675610D-03 0.307079227088D-03 0.000000000000D+00  6 -3 21 25 2 -4 -1 2 0.10811177D+00 0.65127266D+00 0.26479788D+06 0.26479788D+06 0.26479788D+06 0.10885852D+01  1  2  5  6  6  2        1 -.351478534860D-05 0.100000000000D+01
  </mgrwgt>
  </event>
  <event>
  6     66 -.16453327E-05 0.30724182E+02 0.75467711E-02 0.94341584E-01
       -3 -1    0    0    0  501 0.00000000E+00 0.00000000E+00 0.56418478E+03 0.56418500E+03 0.50000000E+00 0.0000E+00 0.9000E+01
        1 -1    0    0  502    0 -.00000000E+00 -.00000000E+00 -.65066812E+03 0.65066820E+03 0.32000000E+00 0.0000E+00 0.9000E+01
       25  1    1    2    0    0 -.45009780E+03 0.25671421E+01 -.11455171E+03 0.48097995E+03 0.12500000E+03 0.0000E+00 0.9000E+01
        2  1    1    2  502    0 -.31537621E+02 -.47932013E+02 -.17897532E+03 0.18794778E+03 0.32000000E+00 0.0000E+00 0.9000E+01
       -4  1    1    2    0  503 0.41245112E+03 0.63730318E+02 0.22211217E+03 0.47277236E+03 0.15500000E+01 0.0000E+00 0.9000E+01
       21  1    1    2  503  501 0.69184296E+02 -.18365447E+02 -.15068484E+02 0.73153115E+02 0.75000000E+00 0.0000E+00 0.9000E+01
#aMCatNLO 2  0  0  5  1 0.46537648D+02 0.00000000D+00  -5  6  0 0.00000000D+00 0.00000000D+00 0.00000000D+00 0.00000000D+00 0.00000000D+00
  <mgrwgt>
 -.9295560445D-02    1    2    0
 0.605885492873570D+03 0.000000000000000D+00 0.000000000000000D+00 0.605885492873570D+03
 0.605885492873570D+03 -.000000000000000D+00 -.000000000000000D+00 -.605885492873570D+03
 0.480781110238757D+03 -.456667520922377D+03 0.202867931747142D+01 -.835232647664639D+02
 0.177767370245625D+03 -.340684340071690D+02 -.482507231013635D+02 -.167667669657986D+03
 0.553222505262758D+03 0.490735954929547D+03 0.462220437838921D+02 0.251190934424450D+03
 0.000000000000000D+00 0.000000000000000D+00 0.000000000000000D+00 0.000000000000000D+00
 0.605885492873570D+03 0.000000000000000D+00 0.000000000000000D+00 0.605885492873570D+03
 0.605885492873570D+03 -.000000000000000D+00 -.000000000000000D+00 -.605885492873570D+03
 0.473785882427631D+03 -.449921877806401D+03 0.266404627667853D+01 -.800704010001656D+02
 0.176031112622939D+03 -.315682445822877D+02 -.480152321741061D+02 -.166387908288220D+03
 0.489551966124234D+03 0.412166463425269D+03 0.637468746062820D+02 0.256351847938611D+03
 0.724020245723355D+02 0.693236589634196D+02 -.183956887088544D+02 -.989353865022527D+01
-.310687862276D-02 0.000000000000D+00 0.000000000000D+00 0.105586663671D-05 0.000000000000D+00  6 -3 1 25 2 -4 21 2 0.86797681D-01 0.10010281D+00 0.25665566D+06 0.25665566D+06 0.25665566D+06 0.10896017D+01  1  2 13  4  6  5       -4 -.929556044526D-02 0.100000000000D+01
  </mgrwgt>
  </event>
  <event>
  6     66 0.16453327E-05 0.10870948E+02 0.75467711E-02 0.92842053E-01
       -3 -1    0    0    0  503 0.00000000E+00 0.00000000E+00 0.20548849E+03 0.20548910E+03 0.50000000E+00 0.0000E+00 0.9000E+01
        1 -1    0    0  502    0 0.00000000E+00 0.00000000E+00 -.26564080E+04 0.26564080E+04 0.32000000E+00 0.0000E+00 0.9000E+01
       25  1    1    2    0    0 -.34292678E+03 0.44270665E+03 -.11242571E+04 0.12622072E+04 0.12500000E+03 0.0000E+00 0.9000E+01
        2  1    1    2  502    0 -.56675344E+01 -.19283068E+02 -.75436470E+03 0.75463247E+03 0.32000000E+00 0.0000E+00 0.9000E+01
       -4  1    1    2    0  501 0.34696710E+03 -.44185316E+03 -.59328192E+03 0.81707174E+03 0.15500000E+01 0.0000E+00 0.9000E+01
       21  1    1    2  501  503 0.16272146E+01 0.18429578E+02 0.20984252E+02 0.27985684E+02 0.75000000E+00 0.0000E+00 0.9000E+01
#aMCatNLO 2  0  0  1  5 0.14181113D+03 0.00000000D+00  -5  6  0 0.00000000D+00 0.00000000D+00 0.00000000D+00 0.00000000D+00 0.00000000D+00
  <mgrwgt>
 0.3646683366D-02    1    2    0
 0.692893120217397D+03 0.000000000000000D+00 0.000000000000000D+00 0.692893120217397D+03
 0.692893120217397D+03 0.000000000000000D+00 0.000000000000000D+00 -.692893120217397D+03
 0.581122548081697D+03 -.342154312692301D+03 0.450307888785690D+03 -.472403163875723D+02
 0.197659504825894D+03 -.544054283711932D+01 -.166751926259969D+02 -.196879705131182D+03
 0.607004187527204D+03 0.347594855529421D+03 -.433632696159693D+03 0.244120021518754D+03
 0.000000000000000D+00 0.000000000000000D+00 0.000000000000000D+00 0.000000000000000D+00
 0.786691408369856D+03 0.000000000000000D+00 0.000000000000000D+00 0.786691408369856D+03
 0.693867792463013D+03 0.000000000000000D+00 0.000000000000000D+00 -.693867792463013D+03
 0.575587452817038D+03 -.342833397050874D+03 0.442616685422687D+03 -.472403163875723D+02
 0.197905271537668D+03 -.567277204947328D+01 -.193053844077650D+02 -.196879705131182D+03
 0.612417013456077D+03 0.346878954514079D+03 -.441740879226004D+03 0.244120021518754D+03
 0.946494630220864D+02 0.162721458626796D+01 0.184295782110815D+02 0.928236159068433D+02
0.392141058754D-02 0.000000000000D+00 0.000000000000D+00 0.547848290832D-05 0.734201314717D-07  6 -3 1 25 2 -4 21 2 0.31613594D-01 0.40867733D+00 0.34452599D+06 0.34452599D+06 0.34452599D+06 0.10801332D+01  1  2  1  1  6  1       -3 0.364668336590D-02 0.100000000000D+01
  </mgrwgt>
  </event>
  <event>
  5     66 0.16453327E-05 0.64764441E+02 0.75467711E-02 0.92257716E-01
       -1 -1    0    0    0  501 0.00000000E+00 0.00000000E+00 0.64652751E+03 0.64652759E+03 0.32000000E+00 0.0000E+00 0.9000E+01
        3 -1    0    0  502    0 0.00000000E+00 0.00000000E+00 -.63035174E+03 0.63035194E+03 0.50000000E+00 0.0000E+00 0.9000E+01
       25  1    1    2    0    0 -.42949967E+03 0.38402591E+03 -.71604233E+02 0.59388385E+03 0.12500000E+03 0.0000E+00 0.9000E+01
        4  1    1    2  502    0 0.41036910E+02 0.50269296E+02 -.52711740E+02 0.83617942E+02 0.15500000E+01 0.0000E+00 0.9000E+01
       -2  1    1    2    0  501 0.38846276E+03 -.43429520E+03 0.14049174E+03 0.59937773E+03 0.32000000E+00 0.0000E+00 0.9000E+01
#aMCatNLO 1  0  0  4  2 0.98924956D+01 0.00000000D+00  -5  6  0 0.00000000D+00 0.00000000D+00 0.00000000D+00 0.00000000D+00 0.00000000D+00
  <mgrwgt>
 0.8635675006D-04    8    2    0
 0.638388531364925D+03 0.000000000000000D+00 0.000000000000000D+00 0.638388531364925D+03
 0.638388531364925D+03 -.000000000000000D+00 -.000000000000000D+00 -.638388531364925D+03
 0.594954291328859D+03 -.429469242338003D+03 0.384191221599555D+03 -.793655082645336D+02
 0.840499948946775D+02 0.409239693346355D+02 0.501962298609140D+02 -.535720905270964D+02
 0.597772776506314D+03 0.388545273003367D+03 -.434387451460469D+03 0.132937598791630D+03
 0.000000000000000D+00 0.000000000000000D+00 0.000000000000000D+00 0.000000000000000D+00
 0.638388531364925D+03 0.000000000000000D+00 0.000000000000000D+00 0.638388531364925D+03
 0.638388531364925D+03 -.000000000000000D+00 -.000000000000000D+00 -.638388531364925D+03
 0.595159596679883D+03 -.428640486053535D+03 0.385207751560607D+03 -.804504031908627D+02
 0.659678423010327D+02 0.240098479638827D+02 0.451020098696478D+02 -.417263960140743D+02
 0.597331932662541D+03 0.389377504732028D+03 -.433366658613916D+03 0.131848154286803D+03
 0.183176910863924D+02 0.152531333576248D+02 0.305689718366084D+01 -.967135508186617D+01
0.652358684314D-04 0.000000000000D+00 0.000000000000D+00 0.277804488455D-07 0.000000000000D+00  6 -1 3 25 4 -2 21 0 0.99465792D-01 0.96977212D-01 0.38266896D+06 0.38266896D+06 0.38266896D+06 0.10768171D+01  1  2  2  3  6  4        4 0.436188714843D-04 0.100000000000D+01
0.106963493129D-04 0.000000000000D+00 -.250522911775D-06 0.277804488455D-07 0.000000000000D+00  6 -1 3 25 4 -2 21 2 0.99465792D-01 0.96977212D-01 0.38266896D+06 0.38266896D+06 0.38266896D+06 0.10768171D+01  1  2  3  3  6  4        4 0.829291984471D-05 0.100000000000D+01
-.364488784764D-04 0.000000000000D+00 0.000000000000D+00 0.277804488455D-07 0.000000000000D+00  6 -1 3 25 4 -2 21 2 0.99465792D-01 0.96977212D-01 0.38266896D+06 0.38266896D+06 0.38266896D+06 0.10768171D+01  1  2 15  3  6  4        4 -.282589525447D-04 0.100000000000D+01
0.437615113673D-04 0.000000000000D+00 0.000000000000D+00 0.277804488455D-07 0.000000000000D+00  6 -1 3 25 4 -2 21 2 0.99465792D-01 0.96977212D-01 0.38374749D+06 0.38374749D+06 0.38374749D+06 0.10767287D+01  1  2 12  3  6  4        4 0.339191352593D-04 0.100000000000D+01
-.137514769005D-03 0.000000000000D+00 0.000000000000D+00 0.277804488455D-07 0.000000000000D+00  6 -1 3 25 4 -2 21 2 0.99465792D-01 0.96977212D-01 0.38266896D+06 0.38266896D+06 0.38266896D+06 0.10768171D+01  1  2  4  3  6  4        4 -.106615717518D-03 0.100000000000D+01
-.290159235039D-03 0.000000000000D+00 0.000000000000D+00 0.277804488455D-07 0.000000000000D+00  6 -1 3 25 4 -2 21 2 0.99465792D-01 0.96977212D-01 0.38266896D+06 0.38266896D+06 0.38266896D+06 0.10768171D+01  1  2  5  3  6  4        4 -.224961546037D-03 0.100000000000D+01
0.464801094419D-03 0.000000000000D+00 -.000000000000D+00 0.277804488455D-07 0.000000000000D+00  6 -1 3 25 4 -2 21 2 0.99465792D-01 0.96977212D-01 0.38266896D+06 0.38266896D+06 0.38266896D+06 0.10768171D+01  1  2  6  3  6  4        4 0.360362036336D-03 0.100000000000D+01
0.417742013722D-11 0.000000000000D+00 0.000000000000D+00 0.277804488455D-07 0.902731126493D-09  6 -1 3 25 4 -2 21 2 0.99465792D-01 0.96977212D-01 0.38374749D+06 0.38374749D+06 0.38374749D+06 0.10767287D+01  1  2 11  3  6  4        4 0.323787900011D-11 0.100000000000D+01
  </mgrwgt>
  </event>
  <event>
  5     66 -.16453327E-05 0.49575376E+02 0.75467711E-02 0.94462385E-01
       -3 -1    0    0    0  501 0.00000000E+00 0.00000000E+00 0.45539375E+03 0.45539402E+03 0.50000000E+00 0.0000E+00 0.9000E+01
        1 -1    0    0  502    0 0.00000000E+00 0.00000000E+00 -.14266604E+04 0.14266604E+04 0.32000000E+00 0.0000E+00 0.9000E+01
       25  1    1    2    0    0 0.29059884E+03 -.36907321E+03 -.32142068E+03 0.58275121E+03 0.12500000E+03 0.0000E+00 0.9000E+01
        2  1    1    2  502    0 -.31711225E+03 0.32710992E+03 -.91893399E+03 0.10256709E+04 0.32000000E+00 0.0000E+00 0.9000E+01
       -4  1    1    2    0  501 0.26513415E+02 0.41963295E+02 0.26908802E+03 0.27363232E+03 0.15500000E+01 0.0000E+00 0.9000E+01
#aMCatNLO 1  0  0  1  5 0.22637757D+02 0.00000000D+00  -5  6  0 0.00000000D+00 0.00000000D+00 0.00000000D+00 0.00000000D+00 0.00000000D+00
  <mgrwgt>
 -.2368125795D-03    7    4    0
 0.806035061950798D+03 0.000000000000000D+00 0.000000000000000D+00 0.806035061950798D+03
 0.806035061950798D+03 0.000000000000000D+00 0.000000000000000D+00 -.806035061950798D+03
 0.487080591955522D+03 0.290919374085425D+03 -.369361001256737D+03 -.236827277167629D+02
 0.644010573228476D+03 -.317399617136157D+03 0.327450208039315D+03 -.454734496961578D+03
 0.480978958717599D+03 0.264802430507320D+02 0.419107932174221D+02 0.478417224678341D+03
 0.000000000000000D+00 -.000000000000000D+00 0.000000000000000D+00 0.000000000000000D+00
 0.886966047612798D+03 0.000000000000000D+00 0.000000000000000D+00 0.886966047612798D+03
 0.807699127931093D+03 0.000000000000000D+00 0.000000000000000D+00 -.807699127931093D+03
 0.492569212486799D+03 0.297487576609605D+03 -.371402341485219D+03 -.236827277167629D+02
 0.638453043475909D+03 -.308801156006263D+03 0.324777881090980D+03 -.454734496961578D+03
 0.481206807299815D+03 0.329313554262229D+02 0.399058435889554D+02 0.478417224678341D+03
 0.824361122813690D+02 -.216177760295649D+02 0.671861680528446D+01 0.792669196817045D+02
 0.806035061950798D+03 0.000000000000000D+00 0.000000000000000D+00 0.806035061950798D+03
 0.806035061950798D+03 0.000000000000000D+00 0.000000000000000D+00 -.806035061950798D+03
 0.487080591955522D+03 0.290919374085425D+03 -.369361001256737D+03 -.236827277167629D+02
 0.644010573228476D+03 -.317399617136157D+03 0.327450208039315D+03 -.454734496961578D+03
 0.000000000000000D+00 -.000000000000000D+00 0.000000000000000D+00 0.000000000000000D+00
 0.480978958717599D+03 0.264802430507320D+02 0.419107932174221D+02 0.478417224678341D+03
 0.886966047612798D+03 0.000000000000000D+00 0.000000000000000D+00 0.886966047612798D+03
 0.807699127931093D+03 0.000000000000000D+00 0.000000000000000D+00 -.807699127931093D+03
 0.492569212486799D+03 0.297487576609605D+03 -.371402341485219D+03 -.236827277167629D+02
 0.638453043475909D+03 -.308801156006263D+03 0.324777881090980D+03 -.454734496961578D+03
 0.824361122813690D+02 -.216177760295649D+02 0.671861680528446D+01 0.792669196817045D+02
 0.481206807299815D+03 0.329313554262229D+02 0.399058435889554D+02 0.478417224678341D+03
0.245205271787D-03 0.000000000000D+00 0.000000000000D+00 0.315564539317D-04 0.000000000000D+00  6 -3 1 25 2 -4 21 0 0.70060601D-01 0.21948624D+00 0.24607202D+06 0.24607202D+06 0.24607202D+06 0.10909769D+01  1  2  2  1  6  1       -3 0.256300195361D-03 0.100000000000D+01
0.929660009122D-04 0.000000000000D+00 -.941652807692D-06 0.315564539317D-04 0.000000000000D+00  6 -3 1 25 2 -4 21 2 0.70060601D-01 0.21948624D+00 0.24607202D+06 0.24607202D+06 0.24607202D+06 0.10909769D+01  1  2  3  1  6  1       -3 0.115657657315D-03 0.100000000000D+01
-.151916024238D-03 0.000000000000D+00 0.000000000000D+00 0.315564539317D-04 0.000000000000D+00  6 -3 1 25 2 -4 21 2 0.70060601D-01 0.21948624D+00 0.24607202D+06 0.24607202D+06 0.24607202D+06 0.10909769D+01  1  2 15  1  6  1       -3 -.188996528833D-03 0.100000000000D+01
-.571023924817D-03 0.000000000000D+00 0.000000000000D+00 0.315564539317D-04 0.000000000000D+00  6 -3 1 25 2 -4 21 2 0.70060601D-01 0.21948624D+00 0.24607202D+06 0.24607202D+06 0.24607202D+06 0.10909769D+01  1  2  4  1  6  1       -3 -.710402607048D-03 0.100000000000D+01
-.157956698839D-01 0.000000000000D+00 -.592683167685D-03 0.315564539317D-04 0.000000000000D+00  6 -3 1 25 2 -4 21 2 0.77170866D-01 0.21948624D+00 0.24607202D+06 0.24607202D+06 0.24607202D+06 0.10909769D+01  1  2  5  1  6  1       -3 -.156972167263D-01 0.100000000000D+01
0.157819314793D-01 0.000000000000D+00 0.589925059511D-03 0.315564539317D-04 0.000000000000D+00  6 -3 1 25 2 -4 21 2 0.70060601D-01 0.21948624D+00 0.24607202D+06 0.24607202D+06 0.24607202D+06 0.10909769D+01  1  2  6  1  6  1       -3 0.196340727243D-01 0.100000000000D+01
-.248077906482D-03 0.000000000000D+00 -.934762491333D-05 0.315564539317D-04 0.000000000000D+00  6 21 1 25 2 3 -4 2 0.77170866D-01 0.21948624D+00 0.24607202D+06 0.24607202D+06 0.24607202D+06 0.10909769D+01  3  4  5  5  5  1       -3 -.364622729424D-02 0.100000000000D+01
  </mgrwgt>
  </event>
  <event>
  5     66 0.16453327E-05 0.10000809E+02 0.75467711E-02 0.92101553E-01
       -3 -1    0    0    0  501 0.00000000E+00 0.00000000E+00 0.55297391E+03 0.55297414E+03 0.50000000E+00 0.0000E+00 0.9000E+01
        1 -1    0    0  502    0 0.00000000E+00 0.00000000E+00 -.32964103E+04 0.32964103E+04 0.32000000E+00 0.0000E+00 0.9000E+01
       25  1    1    2    0    0 0.15993065E+03 -.56506983E+03 -.50355003E+03 0.78362578E+03 0.12500000E+03 0.0000E+00 0.9000E+01
        2  1    1    2  502    0 -.16993138E+03 0.56474847E+03 -.26199762E+04 0.26855340E+04 0.32000000E+00 0.0000E+00 0.9000E+01
       -4  1    1    2    0  501 0.10000729E+02 0.32136461E+00 0.38008983E+03 0.38022467E+03 0.15500000E+01 0.0000E+00 0.9000E+01
#aMCatNLO 1  0  0  1  1 0.52130094D+02 0.00000000D+00  -5  6  0 0.00000000D+00 0.00000000D+00 0.00000000D+00 0.00000000D+00 0.00000000D+00
  <mgrwgt>
 0.8995609242D-02    4    2    0
 0.135012198082882D+04 0.000000000000000D+00 0.000000000000000D+00 0.135012198082882D+04
 0.135012198082882D+04 0.000000000000000D+00 0.000000000000000D+00 -.135012198082882D+04
 0.605883529370134D+03 0.160030106459091D+03 -.565390117531364D+03 0.787034382131605D+02
 0.116662694330972D+04 -.170025755884470D+03 0.565068916138124D+03 -.100638302211761D+04
 0.927733488977791D+03 0.999564942537903D+01 0.321201393240117D+00 0.927679583904451D+03
 0.000000000000000D+00 0.000000000000000D+00 -.000000000000000D+00 -.000000000000000D+00
 0.137197083479650D+04 0.000000000000000D+00 0.000000000000000D+00 0.137197083479650D+04
 0.138183061464612D+04 0.000000000000000D+00 0.000000000000000D+00 -.138183061464612D+04
 0.600990726935701D+03 0.148572076090675D+03 -.563291186583135D+03 0.787034382131605D+02
 0.117203872831715D+04 -.192228982233083D+03 0.569136197986328D+03 -.100638302211761D+04
 0.927717663456970D+03 -.761995181943077D+01 0.354810247794211D+01 0.927679583904451D+03
 0.530543307328025D+02 0.512768579618390D+02 -.939311388113537D+01 -.985977984962145D+01
0.166095525243D+00 0.000000000000D+00 0.000000000000D+00 0.437605143412D-03 0.000000000000D+00  6 -3 1 25 2 -4 21 0 0.85072928D-01 0.50714007D+00 0.36050745D+06 0.36050745D+06 0.36050745D+06 0.10786973D+01  1  2  2  1  6  1       -3 0.527870207564D-02 0.100000000000D+01
0.211372296068D+00 0.000000000000D+00 -.637850550890D-03 0.437605143412D-03 0.000000000000D+00  6 -3 1 25 2 -4 21 2 0.85072928D-01 0.50714007D+00 0.36050745D+06 0.36050745D+06 0.36050745D+06 0.10786973D+01  1  2  3  1  6  1       -3 0.781657496642D-02 0.100000000000D+01
-.105610266833D+00 0.000000000000D+00 0.000000000000D+00 0.437605143412D-03 0.000000000000D+00  6 -3 1 25 2 -4 21 2 0.85072928D-01 0.50714007D+00 0.36050745D+06 0.36050745D+06 0.36050745D+06 0.10786973D+01  1  2 15  1  6  1       -3 -.390548138653D-02 0.100000000000D+01
-.525110145367D-02 0.000000000000D+00 0.000000000000D+00 0.437605143412D-03 0.000000000000D+00  6 -3 1 25 2 -4 21 2 0.85072928D-01 0.50714007D+00 0.36050745D+06 0.36050745D+06 0.36050745D+06 0.10786973D+01  1  2  4  1  6  1       -3 -.194186413889D-03 0.100000000000D+01
  </mgrwgt>
  </event>
  <event>
  5     66 0.16453327E-05 0.83610159E+02 0.75467711E-02 0.93295128E-01
       -3 -1    0    0    0  501 0.00000000E+00 0.00000000E+00 0.44849011E+03 0.44849039E+03 0.50000000E+00 0.0000E+00 0.9000E+01
        1 -1    0    0  502    0 -.00000000E+00 -.00000000E+00 -.11602931E+04 0.11602931E+04 0.32000000E+00 0.0000E+00 0.9000E+01
       25  1    1    2    0    0 -.21573668E+03 0.47517102E+03 -.27351828E+03 0.60230147E+03 0.12500000E+03 0.0000E+00 0.9000E+01
        2  1    1    2  502    0 0.13279426E+03 -.48735596E+03 -.62393622E+03 0.80277434E+03 0.32000000E+00 0.0000E+00 0.9000E+01
       -4  1    1    2    0  501 0.82942426E+02 0.12184931E+02 0.18565154E+03 0.20370768E+03 0.15500000E+01 0.0000E+00 0.9000E+01
#aMCatNLO 1  0  0  5  1 0.84685052D+01 0.00000000D+00  -5  6  0 0.00000000D+00 0.00000000D+00 0.00000000D+00 0.00000000D+00 0.00000000D+00
  <mgrwgt>
 0.6713504759D-04    1    2    0
 0.721373843805964D+03 0.000000000000000D+00 0.000000000000000D+00 0.721373843805964D+03
 0.721373843805964D+03 -.000000000000000D+00 -.000000000000000D+00 -.721373843805964D+03
 0.537157849200162D+03 -.215768646209096D+03 0.475715039372069D+03 -.725586560441087D+01
 0.587694487388377D+03 0.133046379639152D+03 -.487867626917509D+03 -.299447240724439D+03
 0.317895351023389D+03 0.827222665699444D+02 0.121525875454405D+02 0.306703106328849D+03
 0.000000000000000D+00 0.000000000000000D+00 -.000000000000000D+00 0.000000000000000D+00
 0.721373843805964D+03 0.000000000000000D+00 0.000000000000000D+00 0.721373843805964D+03
 0.721373843805964D+03 -.000000000000000D+00 -.000000000000000D+00 -.721373843805964D+03
 0.535595068001613D+03 -.208902639225059D+03 0.476723712785176D+03 0.182007104469631D+02
 0.574971653072757D+03 0.140487863798741D+03 -.486774411130911D+03 -.271857011369286D+03
 0.290140087039973D+03 0.103482109605801D+03 0.267604249298859D+02 0.269734318833677D+03
 0.420408794975852D+02 -.350673341794832D+02 -.167097265841510D+02 -.160780179113548D+02
0.348958423616D-04 0.000000000000D+00 0.000000000000D+00 0.158824374032D-05 0.000000000000D+00  6 -3 1 25 2 -4 21 2 0.68998503D-01 0.17850665D+00 0.31719585D+06 0.31719585D+06 0.31719585D+06 0.10827655D+01  1  2 14  4  6  5       -4 0.671350475923D-04 0.100000000000D+01
  </mgrwgt>
  </event>
  <event>
  6     66 0.16453327E-05 0.63259397E+02 0.75467711E-02 0.92185039E-01
       -3 -1    0    0    0  501 0.00000000E+00 0.00000000E+00 0.69709112E+03 0.69709130E+03 0.50000000E+00 0.0000E+00 0.9000E+01
        1 -1    0    0  502    0 -.00000000E+00 -.00000000E+00 -.38878072E+04 0.38878072E+04 0.32000000E+00 0.0000E+00 0.9000E+01
       25  1    1    2    0    0 -.38361021E+03 -.36025144E+03 0.26166594E+01 0.54089716E+03 0.12500000E+03 0.0000E+00 0.9000E+01
        2  1    1    2  502    0 0.47469801E+03 0.37068743E+03 -.35861188E+04 0.36363437E+04 0.32000000E+00 0.0000E+00 0.9000E+01
       -4  1    1    2    0  503 -.75840136E+02 0.11448858E+02 0.33955292E+03 0.34811118E+03 0.15500000E+01 0.0000E+00 0.9000E+01
       21  1    1    2  503  501 -.15247659E+02 -.21884846E+02 0.53233201E+02 0.59546400E+02 0.75000000E+00 0.0000E+00 0.9000E+01
#aMCatNLO 2  0  0  5  2 0.20580770D+02 0.00000000D+00  -5  6  0 0.00000000D+00 0.00000000D+00 0.00000000D+00 0.00000000D+00 0.00000000D+00
  <mgrwgt>
 0.1490451185D-02    4    2    0
 0.164625523156045D+04 0.000000000000000D+00 0.000000000000000D+00 0.164625523156045D+04
 0.164625523156045D+04 -.000000000000000D+00 -.000000000000000D+00 -.164625523156045D+04
 0.756355070848555D+03 -.383980354366444D+03 -.360514434918603D+03 0.528238982728710D+03
 0.158933934699200D+04 0.475101538325874D+03 0.370954247742026D+03 -.147060226922832D+04
 0.946816045280339D+03 -.911211839594301D+02 -.104398128234232D+02 0.942363286499610D+03
 0.000000000000000D+00 0.000000000000000D+00 -.000000000000000D+00 0.000000000000000D+00
 0.164625523156045D+04 0.000000000000000D+00 0.000000000000000D+00 0.164625523156045D+04
 0.164625523156045D+04 -.000000000000000D+00 -.000000000000000D+00 -.164625523156045D+04
 0.756672582678743D+03 -.384021132492961D+03 -.360519106894862D+03 0.528660704743859D+03
 0.158849190226470D+04 0.475015891507436D+03 0.370944435130792D+03 -.146971652110923D+04
 0.812765188101809D+03 -.757387587433254D+02 0.114695317320090D+02 0.809147292682882D+03
 0.134580790075638D+03 -.152560002711498D+02 -.218948599679390D+02 0.131908523682490D+03
-.135523640567D-01 0.000000000000D+00 0.000000000000D+00 0.111657064285D-03 0.000000000000D+00  6 -3 1 25 2 -4 21 2 0.10724480D+00 0.59812419D+00 0.38180856D+06 0.38180856D+06 0.38180856D+06 0.10768879D+01  1  2  8  4  6  5       -4 -.869224669001D-04 0.100000000000D+01
-.728149999950D-01 0.000000000000D+00 0.000000000000D+00 0.111657064285D-03 0.000000000000D+00  6 -3 1 25 2 -4 21 2 0.10724480D+00 0.59812419D+00 0.38180856D+06 0.38180856D+06 0.38180856D+06 0.10768879D+01  1  2  9  4  6  5       -4 -.467022535730D-03 0.100000000000D+01
0.838919634798D-01 0.000000000000D+00 0.000000000000D+00 0.111657064285D-03 0.000000000000D+00  6 -3 1 25 2 -4 21 2 0.10724480D+00 0.59812419D+00 0.38180856D+06 0.38180856D+06 0.38180856D+06 0.10768879D+01  1  2 10  4  6  5       -4 0.538068221032D-03 0.100000000000D+01
0.235574625848D+00 0.000000000000D+00 0.000000000000D+00 0.111657064285D-03 0.223602673343D-06  6 -3 1 25 2 -4 21 2 0.10724480D+00 0.59812419D+00 0.38896580D+06 0.38896580D+06 0.38896580D+06 0.10763045D+01  1  2  1  4  6  5       -4 0.150632796652D-02 0.100000000000D+01
  </mgrwgt>
  </event>
  <event>
  5     66 0.16453327E-05 0.75452761E+02 0.75467711E-02 0.93546528E-01
       -3 -1    0    0    0  501 0.00000000E+00 0.00000000E+00 0.11324805E+04 0.11324807E+04 0.50000000E+00 0.0000E+00 0.9000E+01
        1 -1    0    0  502    0 0.00000000E+00 0.00000000E+00 -.99681349E+03 0.99681354E+03 0.32000000E+00 0.0000E+00 0.9000E+01
       25  1    1    2    0    0 -.43190883E+03 0.28617580E+03 0.25338309E+03 0.59014389E+03 0.12500000E+03 0.0000E+00 0.9000E+01
        2  1    1    2  502    0 0.75376584E+02 0.17301846E+01 -.75248119E+03 0.75624908E+03 0.32000000E+00 0.0000E+00 0.9000E+01
       -4  1    1    2    0  501 0.35653225E+03 -.28790598E+03 0.63476516E+03 0.78290122E+03 0.15500000E+01 0.0000E+00 0.9000E+01
#aMCatNLO 1  0  0  2  4 0.24392986D+02 0.00000000D+00  -5  6  0 0.00000000D+00 0.00000000D+00 0.00000000D+00 0.00000000D+00 0.00000000D+00
  <mgrwgt>
 0.1667340251D-02    9    2    0
 0.106248390543445D+04 0.000000000000000D+00 0.000000000000000D+00 0.106248390543445D+04
 0.106248390543445D+04 0.000000000000000D+00 0.000000000000000D+00 -.106248390543445D+04
 0.575237979259449D+03 -.431750916360393D+03 0.286003222236102D+03 0.216949385514277D+03
 0.806209492770476D+03 0.754329314948554D+02 0.172973806883908D+01 -.802670933250690D+03
 0.743520338838973D+03 0.356317984865537D+03 -.287732960304941D+03 0.585721547736413D+03
 0.000000000000000D+00 -.000000000000000D+00 -.000000000000000D+00 -.000000000000000D+00
 0.106283514494522D+04 0.000000000000000D+00 0.000000000000000D+00 0.106283514494522D+04
 0.159147988193023D+04 0.000000000000000D+00 0.000000000000000D+00 -.159147988193023D+04
 0.570609054610909D+03 -.425197068583031D+03 0.286548617510764D+03 0.216949385514277D+03
 0.807127184731255D+03 0.846606579587147D+02 0.249764702556548D+01 -.802670933250690D+03
 0.747371573211614D+03 0.364845369721677D+03 -.287023332073748D+03 0.585721547736413D+03
 0.529207214321670D+03 -.243089590973604D+02 -.202293246258098D+01 -.528644736985016D+03
0.434960528946D-04 0.000000000000D+00 0.000000000000D+00 0.530777433255D-04 0.000000000000D+00  6 -3 1 25 2 -4 21 0 0.17422779D+00 0.15335593D+00 0.28419511D+06 0.28419511D+06 0.28419511D+06 0.10862951D+01  1  2  2  2  6  2        1 0.691489158924D-05 0.100000000000D+01
0.144070435787D-04 0.000000000000D+00 -.167036295889D-06 0.530777433255D-04 0.000000000000D+00  6 -3 1 25 2 -4 21 2 0.17422779D+00 0.15335593D+00 0.28419511D+06 0.28419511D+06 0.28419511D+06 0.10862951D+01  1  2  3  2  6  2        1 0.270275119811D-05 0.100000000000D+01
-.298997024665D-04 0.000000000000D+00 0.000000000000D+00 0.530777433255D-04 0.000000000000D+00  6 -3 1 25 2 -4 21 2 0.17422779D+00 0.15335593D+00 0.28419511D+06 0.28419511D+06 0.28419511D+06 0.10862951D+01  1  2 15  2  6  2        1 -.560916306132D-05 0.100000000000D+01
0.161449518751D-01 0.000000000000D+00 0.000000000000D+00 0.530777433255D-04 0.000000000000D+00  6 -3 1 25 2 -4 21 2 0.17422779D+00 0.24669350D+00 0.30308414D+06 0.30308414D+06 0.30308414D+06 0.10842234D+01  1  2 12  2  6  2        1 0.112684655694D-02 0.100000000000D+01
-.683295691894D-02 0.000000000000D+00 0.000000000000D+00 0.530777433255D-04 0.000000000000D+00  6 -3 1 25 2 -4 21 2 0.17422779D+00 0.15335593D+00 0.28419511D+06 0.28419511D+06 0.28419511D+06 0.10862951D+01  1  2  4  2  6  2        1 -.128185789113D-02 0.100000000000D+01
-.204604564868D-01 0.000000000000D+00 -.325729728556D-04 0.530777433255D-04 0.000000000000D+00  6 -3 1 25 2 -4 21 2 0.17422779D+00 0.22973318D+00 0.28419511D+06 0.28419511D+06 0.28419511D+06 0.10862951D+01  1  2  5  2  6  2        1 -.170830772344D-02 0.100000000000D+01
0.189105243264D-01 0.000000000000D+00 0.300824691751D-04 0.530777433255D-04 0.000000000000D+00  6 -3 1 25 2 -4 21 2 0.17422779D+00 0.15335593D+00 0.28419511D+06 0.28419511D+06 0.28419511D+06 0.10862951D+01  1  2  6  2  6  2        1 0.354760100508D-02 0.100000000000D+01
0.875001510957D-03 0.000000000000D+00 0.000000000000D+00 0.530777433255D-04 0.000000000000D+00  6 -3 21 25 2 -4 -1 2 0.17422779D+00 0.24669350D+00 0.30308414D+06 0.30308414D+06 0.30308414D+06 0.10842234D+01  1  2 12  6  6  2        1 0.430224800174D-04 0.100000000000D+01
-.980212190212D-03 0.000000000000D+00 -.156228913306D-05 0.530777433255D-04 0.000000000000D+00  6 -3 21 25 2 -4 -1 2 0.17422779D+00 0.22973318D+00 0.28419511D+06 0.28419511D+06 0.28419511D+06 0.10862951D+01  1  2  5  6  6  2        1 -.639726558055D-04 0.100000000000D+01
  </mgrwgt>
  </event>
  <event>
  5     66 0.16453327E-05 0.48928380E+02 0.75467711E-02 0.93108508E-01
       -3 -1    0    0    0  501 0.00000000E+00 0.00000000E+00 0.64838428E+03 0.64838447E+03 0.50000000E+00 0.0000E+00 0.9000E+01
        1 -1    0    0  502    0 0.00000000E+00 0.00000000E+00 -.11193107E+04 0.11193107E+04 0.32000000E+00 0.0000E+00 0.9000E+01
       25  1    1    2    0    0 0.52015359E+03 -.72163239E+02 0.20816665E+03 0.57855479E+03 0.12500000E+03 0.0000E+00 0.9000E+01
        2  1    1    2  502    0 -.54656554E+03 0.30695074E+02 -.85014891E+03 0.10111525E+04 0.32000000E+00 0.0000E+00 0.9000E+01
       -4  1    1    2    0  501 0.26411950E+02 0.41468165E+02 0.17105585E+03 0.17798793E+03 0.15500000E+01 0.0000E+00 0.9000E+01
#aMCatNLO 1  0  0  1  5 0.77759018D+01 0.00000000D+00  -5  6  0 0.00000000D+00 0.00000000D+00 0.00000000D+00 0.00000000D+00 0.00000000D+00
  <mgrwgt>
 0.4435474242D-02   11    4    0
 0.851905905322121D+03 0.000000000000000D+00 0.000000000000000D+00 0.851905905322121D+03
 0.851905905322121D+03 0.000000000000000D+00 0.000000000000000D+00 -.851905905322121D+03
 0.658744854582765D+03 0.520756301652659D+03 -.720320664618174D+02 0.376754613945940D+03
 0.814247907315951D+03 -.547041122820800D+03 0.307635000625598D+02 -.602328209181061D+03
 0.230819048745526D+03 0.262848211681415D+02 0.412685663992575D+02 0.225573595235122D+03
 0.000000000000000D+00 -.000000000000000D+00 -.000000000000000D+00 0.000000000000000D+00
 0.934941081640508D+03 0.000000000000000D+00 0.000000000000000D+00 0.934941081640508D+03
 0.852096841978421D+03 0.000000000000000D+00 0.000000000000000D+00 -.852096841978421D+03
 0.658578623814372D+03 0.520952285834183D+03 -.690324597549457D+02 0.376754613945940D+03
 0.814233715203854D+03 -.546798846232588D+03 0.344716283067108D+02 -.602328209181061D+03
 0.231017215467612D+03 0.263535306413456D+02 0.423201890100501D+02 0.225573595235122D+03
 0.832083691330905D+02 -.506970242939983D+00 -.775935756181512D+01 0.828442396620871D+02
 0.851905905322121D+03 0.000000000000000D+00 0.000000000000000D+00 0.851905905322121D+03
 0.851905905322121D+03 0.000000000000000D+00 0.000000000000000D+00 -.851905905322121D+03
 0.658744854582765D+03 0.520756301652659D+03 -.720320664618174D+02 0.376754613945940D+03
 0.814247907315951D+03 -.547041122820800D+03 0.307635000625598D+02 -.602328209181061D+03
 0.000000000000000D+00 -.000000000000000D+00 -.000000000000000D+00 0.000000000000000D+00
 0.230819048745526D+03 0.262848211681415D+02 0.412685663992575D+02 0.225573595235122D+03
 0.934941081640508D+03 0.000000000000000D+00 0.000000000000000D+00 0.934941081640508D+03
 0.852096841978421D+03 0.000000000000000D+00 0.000000000000000D+00 -.852096841978421D+03
 0.658578623814372D+03 0.520952285834183D+03 -.690324597549457D+02 0.376754613945940D+03
 0.814233715203854D+03 -.546798846232588D+03 0.344716283067108D+02 -.602328209181061D+03
 0.832083691330905D+02 -.506970242939983D+00 -.775935756181512D+01 0.828442396620871D+02
 0.231017215467612D+03 0.263535306413456D+02 0.423201890100501D+02 0.225573595235122D+03
0.366231428193D-04 0.000000000000D+00 0.000000000000D+00 0.735424390128D-05 0.000000000000D+00  6 -3 1 25 2 -4 21 0 0.99751446D-01 0.17220166D+00 0.32330867D+06 0.32330867D+06 0.32330867D+06 0.10821558D+01  1  2  2  1  6  1       -3 0.262243688917D-04 0.100000000000D+01
0.927601016823D-05 0.000000000000D+00 -.140642511521D-06 0.735424390128D-05 0.000000000000D+00  6 -3 1 25 2 -4 21 2 0.99751446D-01 0.17220166D+00 0.32330867D+06 0.32330867D+06 0.32330867D+06 0.10821558D+01  1  2  3  1  6  1       -3 0.777839958534D-05 0.100000000000D+01
-.256953990830D-04 0.000000000000D+00 0.000000000000D+00 0.735424390128D-05 0.000000000000D+00  6 -3 1 25 2 -4 21 2 0.99751446D-01 0.17220166D+00 0.32330867D+06 0.32330867D+06 0.32330867D+06 0.10821558D+01  1  2 15  1  6  1       -3 -.215468803880D-04 0.100000000000D+01
0.127681982334D-01 0.000000000000D+00 0.000000000000D+00 0.735424390128D-05 0.000000000000D+00  6 -3 1 25 2 -4 21 2 0.11314936D+00 0.17220166D+00 0.32814761D+06 0.32814761D+06 0.32814761D+06 0.10816820D+01  1  2 12  1  6  1       -3 0.761792652679D-02 0.100000000000D+01
-.728131014007D-02 0.000000000000D+00 0.000000000000D+00 0.735424390128D-05 0.000000000000D+00  6 -3 1 25 2 -4 21 2 0.99751446D-01 0.17220166D+00 0.32330867D+06 0.32330867D+06 0.32330867D+06 0.10821558D+01  1  2  4  1  6  1       -3 -.610574360604D-02 0.100000000000D+01
-.185075452939D-01 0.000000000000D+00 -.887846931642D-04 0.735424390128D-05 0.000000000000D+00  6 -3 1 25 2 -4 21 2 0.10948469D+00 0.17220166D+00 0.32330867D+06 0.32330867D+06 0.32330867D+06 0.10821558D+01  1  2  5  1  6  1       -3 -.121042733092D-01 0.100000000000D+01
0.184362325791D-01 0.000000000000D+00 0.884012760650D-04 0.735424390128D-05 0.000000000000D+00  6 -3 1 25 2 -4 21 2 0.99751446D-01 0.17220166D+00 0.32330867D+06 0.32330867D+06 0.32330867D+06 0.10821558D+01  1  2  6  1  6  1       -3 0.154597053311D-01 0.100000000000D+01
0.541743677803D-04 0.000000000000D+00 0.000000000000D+00 0.735424390128D-05 0.319681043601D-06  6 -3 1 25 2 -4 21 2 0.10947421D+00 0.17224026D+00 0.32814761D+06 0.32814761D+06 0.32814761D+06 0.10816820D+01  1  2 11  1  6  1       -3 0.353681560863D-04 0.100000000000D+01
0.256252928327D-03 0.000000000000D+00 0.000000000000D+00 0.735424390128D-05 0.000000000000D+00  6 21 1 25 2 3 -4 2 0.11314936D+00 0.17220166D+00 0.32814761D+06 0.32814761D+06 0.32814761D+06 0.10816820D+01  3  4 12  5  5  1       -3 0.223935958792D-02 0.100000000000D+01
-.286464642977D-03 0.000000000000D+00 -.135533068406D-05 0.735424390128D-05 0.000000000000D+00  6 21 1 25 2 3 -4 2 0.10948469D+00 0.17220166D+00 0.32330867D+06 0.32330867D+06 0.32330867D+06 0.10821558D+01  3  4  5  5  5  1       -3 -.274009349819D-02 0.100000000000D+01
0.217637203148D-05 0.000000000000D+00 0.000000000000D+00 0.735424390128D-05 0.105175572429D-07  6 21 1 25 2 3 -4 2 0.10947421D+00 0.17224026D+00 0.32814761D+06 0.32814761D+06 0.32814761D+06 0.10816820D+01  3  4 11  5  5  1       -3 0.207691659205D-04 0.100000000000D+01
  </mgrwgt>
  </event>
  <event>
  5     66 0.16453327E-05 0.24183146E+03 0.75467711E-02 0.94449188E-01
       -3 -1    0    0    0  501 0.00000000E+00 0.00000000E+00 0.13487474E+04 0.13487474E+04 0.50000000E+00 0.0000E+00 0.9000E+01
        1 -1    0    0  502    0 0.00000000E+00 0.00000000E+00 -.51178674E+03 0.51178684E+03 0.32000000E+00 0.0000E+00 0.9000E+01
       25  1    1    2    0    0 -.28731037E+03 -.36711171E+03 0.80333532E+03 0.93717175E+03 0.12500000E+03 0.0000E+00 0.9000E+01
        2  1    1    2  502    0 0.83866167E+02 0.23509775E+03 -.37364464E+03 0.44934942E+03 0.32000000E+00 0.0000E+00 0.9000E+01
       -4  1    1    2    0  501 0.20344420E+03 0.13201396E+03 0.40726993E+03 0.47401311E+03 0.15500000E+01 0.0000E+00 0.9000E+01
#aMCatNLO 1  0  0  2  2 0.45459926D+02 0.00000000D+00  -5  6  0 0.00000000D+00 0.00000000D+00 0.00000000D+00 0.00000000D+00 0.00000000D+00
  <mgrwgt>
 0.1738959945D-03    7    2    0
 0.830825605637578D+03 0.000000000000000D+00 0.000000000000000D+00 0.830825605637578D+03
 0.830825605637578D+03 0.000000000000000D+00 0.000000000000000D+00 -.830825605637578D+03
 0.645129054520106D+03 -.286841240976568D+03 -.366976818462189D+03 0.428505092352936D+03
 0.691844702944343D+03 0.839768432616769D+02 0.235339086506637D+03 -.645145330255262D+03
 0.324677453810707D+03 0.202864397714891D+03 0.131637731955551D+03 0.216640237902326D+03
 0.000000000000000D+00 -.000000000000000D+00 0.000000000000000D+00 -.000000000000000D+00
 0.840291683549208D+03 0.000000000000000D+00 0.000000000000000D+00 0.840291683549208D+03
 0.887568957852860D+03 0.000000000000000D+00 0.000000000000000D+00 -.887568957852860D+03
 0.647775564201072D+03 -.275215271582994D+03 -.380300041665944D+03 0.428505092352936D+03
 0.688762925173866D+03 0.963914497195868D+02 0.221112094569351D+03 -.645145330255262D+03
 0.325734458376142D+03 0.208712987684181D+03 0.124935317133166D+03 0.216640237902326D+03
 0.655876936509881D+02 -.298891658207734D+02 0.342526299634262D+02 -.472772743036523D+02
0.612799236137D-03 0.000000000000D+00 0.000000000000D+00 0.102688910941D-05 0.000000000000D+00  6 -3 1 25 2 -4 21 0 0.20749961D+00 0.78736436D-01 0.23715186D+06 0.23715186D+06 0.23715186D+06 0.10921871D+01  1  2  2  2  6  2        1 0.129506261908D-03 0.100000000000D+01
0.348982216373D-04 0.000000000000D+00 -.235331042051D-05 0.102688910941D-05 0.000000000000D+00  6 -3 1 25 2 -4 21 2 0.20749961D+00 0.78736436D-01 0.23715186D+06 0.23715186D+06 0.23715186D+06 0.10921871D+01  1  2  3  2  6  2        1 0.879771556219D-05 0.100000000000D+01
-.359379951386D-03 0.000000000000D+00 0.000000000000D+00 0.102688910941D-05 0.000000000000D+00  6 -3 1 25 2 -4 21 2 0.20749961D+00 0.78736436D-01 0.23715186D+06 0.23715186D+06 0.23715186D+06 0.10921871D+01  1  2 15  2  6  2        1 -.905983870443D-04 0.100000000000D+01
-.664550784386D-03 0.000000000000D+00 0.000000000000D+00 0.102688910941D-05 0.000000000000D+00  6 -3 1 25 2 -4 21 2 0.20749961D+00 0.78736436D-01 0.23715186D+06 0.23715186D+06 0.23715186D+06 0.10921871D+01  1  2  4  2  6  2        1 -.167530851240D-03 0.100000000000D+01
-.149320578609D-01 0.000000000000D+00 -.217157980965D-02 0.102688910941D-05 0.000000000000D+00  6 -3 1 25 2 -4 21 2 0.20749961D+00 0.84735216D-01 0.23715186D+06 0.23715186D+06 0.23715186D+06 0.10921871D+01  1  2  5  2  6  2        1 -.339309529300D-02 0.100000000000D+01
0.150567416398D-01 0.000000000000D+00 0.216573914388D-02 0.102688910941D-05 0.000000000000D+00  6 -3 1 25 2 -4 21 2 0.20749961D+00 0.78736436D-01 0.23715186D+06 0.23715186D+06 0.23715186D+06 0.10921871D+01  1  2  6  2  6  2        1 0.379575015648D-02 0.100000000000D+01
-.180748172777D-03 0.000000000000D+00 -.268677850878D-04 0.102688910941D-05 0.000000000000D+00  6 -3 21 25 2 -4 -1 2 0.20749961D+00 0.84735216D-01 0.23715186D+06 0.23715186D+06 0.23715186D+06 0.10921871D+01  1  2  5  6  6  2        1 -.108933608144D-03 0.100000000000D+01
  </mgrwgt>
  </event>
  <event>
  6     66 0.16453327E-05 0.42485491E+02 0.75467711E-02 0.95029107E-01
       -3 -1    0    0    0  503 0.00000000E+00 0.00000000E+00 0.28191760E+03 0.28191804E+03 0.50000000E+00 0.0000E+00 0.9000E+01
        1 -1    0    0  502    0 0.00000000E+00 0.00000000E+00 -.18515063E+04 0.18515063E+04 0.32000000E+00 0.0000E+00 0.9000E+01
       25  1    1    2    0    0 -.35184460E+03 0.30526253E+03 -.62459765E+03 0.78913057E+03 0.12500000E+03 0.0000E+00 0.9000E+01
        2  1    1    2  502    0 0.29627935E+02 -.82997829E+01 -.85155410E+03 0.85210984E+03 0.32000000E+00 0.0000E+00 0.9000E+01
       -4  1    1    2    0  501 0.31339753E+03 -.23974982E+03 -.13916375E+03 0.41841002E+03 0.15500000E+01 0.0000E+00 0.9000E+01
       21  1    1    2  501  503 0.88191381E+01 -.57212922E+02 0.45726781E+02 0.73773956E+02 0.75000000E+00 0.0000E+00 0.9000E+01
#aMCatNLO 2  0  0  1  5 0.11623594D+02 0.00000000D+00  -5  6  0 0.00000000D+00 0.00000000D+00 0.00000000D+00 0.00000000D+00 0.00000000D+00
  <mgrwgt>
 0.8218660427D-02    1    2    0
 0.638272007805092D+03 0.000000000000000D+00 0.000000000000000D+00 0.638272007805092D+03
 0.638272007805092D+03 0.000000000000000D+00 0.000000000000000D+00 -.638272007805092D+03
 0.466590041866174D+03 -.348441529493251D+03 0.283893989495831D+03 -.860060586372509D+01
 0.298322658695416D+03 0.317218607079465D+02 -.216514862651476D+02 -.295840067243836D+03
 0.511631315048593D+03 0.316719668785304D+03 -.262242503230683D+03 0.304440673107562D+03
 0.000000000000000D+00 0.000000000000000D+00 -.000000000000000D+00 0.000000000000000D+00
 0.810762113928322D+03 0.000000000000000D+00 0.000000000000000D+00 0.810762113928322D+03
 0.643803432929941D+03 0.000000000000000D+00 0.000000000000000D+00 -.643803432929941D+03
 0.482200529131419D+03 -.351717255827702D+03 0.305144804685296D+03 -.860060586372509D+01
 0.297439698704450D+03 0.296649742855216D+02 -.830772406836137D+01 -.295840067243836D+03
 0.498215679299393D+03 0.313233143418938D+03 -.239624158885247D+03 0.304440673107562D+03
 0.176709639722999D+03 0.881913812324292D+01 -.572129217316877D+02 0.166958680998381D+03
0.449294097832D-02 0.000000000000D+00 0.000000000000D+00 0.145553927731D-04 0.584741820444D-07  6 -3 1 25 2 -4 21 2 0.43371921D-01 0.28484681D+00 0.23290166D+06 0.23290166D+06 0.23290166D+06 0.10927813D+01  1  2  1  1  6  1       -3 0.821866042664D-02 0.100000000000D+01
  </mgrwgt>
  </event>
  <event>
  5     66 -.16453327E-05 0.22685561E+02 0.75467711E-02 0.93241298E-01
       -3 -1    0    0    0  501 0.00000000E+00 0.00000000E+00 0.96496342E+03 0.96496355E+03 0.50000000E+00 0.0000E+00 0.9000E+01
        1 -1    0    0  502    0 -.00000000E+00 -.00000000E+00 -.20463799E+04 0.20463799E+04 0.32000000E+00 0.0000E+00 0.9000E+01
       25  1    1    2    0    0 0.52937561E+03 -.67932627E+02 -.25254250E+03 0.60353632E+03 0.12500000E+03 0.0000E+00 0.9000E+01
        2  1    1    2  502    0 -.22637892E+02 -.12676497E+01 -.15354155E+04 0.15355829E+04 0.32000000E+00 0.0000E+00 0.9000E+01
       -4  1    1    2    0  501 -.50673772E+03 0.69200277E+02 0.70654151E+03 0.87222422E+03 0.15500000E+01 0.0000E+00 0.9000E+01
#aMCatNLO 1  0  0  4  2 0.48411255D+03 0.00000000D+00  -5  6  0 0.00000000D+00 0.00000000D+00 0.00000000D+00 0.00000000D+00 0.00000000D+00
  <mgrwgt>
 -.4544371743D-02    4    2    0
 0.140523377914730D+04 0.000000000000000D+00 0.000000000000000D+00 0.140523377914730D+04
 0.140523377914730D+04 -.000000000000000D+00 -.000000000000000D+00 -.140523377914730D+04
 0.549393102743674D+03 0.529302116655711D+03 -.679202850229049D+02 -.378666809809476D+02
 0.105484944714680D+04 -.226500800858201D+02 -.126829137329956D+01 -.105460548142659D+04
 0.120622500840413D+04 -.506652036569891D+03 0.691885763962044D+02 0.109247216240754D+04
 0.000000000000000D+00 0.000000000000000D+00 0.000000000000000D+00 -.000000000000000D+00
 0.140523377914730D+04 0.000000000000000D+00 0.000000000000000D+00 0.140523377914730D+04
 0.140523377914730D+04 -.000000000000000D+00 -.000000000000000D+00 -.140523377914730D+04
 0.549424258480022D+03 0.529288449384231D+03 -.679210503218552D+02 -.385030398531702D+02
 0.235883462395674D+03 -.102062088679258D+02 0.337811621439134D+02 -.233228802287629D+03
 0.120497295639707D+04 -.506682027447666D+03 0.691868970568195D+02 0.109107576363215D+04
 0.820186881021835D+03 -.124002130686391D+02 -.350470088788777D+02 -.819343921491349D+03
0.687590873768D-02 0.000000000000D+00 0.000000000000D+00 0.883499944420D-03 0.000000000000D+00  6 -3 1 25 2 -4 21 0 0.14845592D+00 0.31482769D+00 0.29274947D+06 0.29274947D+06 0.29274947D+06 0.10853388D+01  1  2  2  3  6  4        2 0.366982972417D-03 0.100000000000D+01
0.565465953685D-02 0.000000000000D+00 -.264053000210D-04 0.883499944420D-03 0.000000000000D+00  6 -3 1 25 2 -4 21 2 0.14845592D+00 0.31482769D+00 0.29274947D+06 0.29274947D+06 0.29274947D+06 0.10853388D+01  1  2  3  3  6  4        2 0.355510930751D-03 0.100000000000D+01
-.544252005890D-02 0.000000000000D+00 0.000000000000D+00 0.883499944420D-03 0.000000000000D+00  6 -3 1 25 2 -4 21 2 0.14845592D+00 0.31482769D+00 0.29274947D+06 0.29274947D+06 0.29274947D+06 0.10853388D+01  1  2 15  3  6  4        2 -.342173628520D-03 0.100000000000D+01
-.783308030020D-01 0.000000000000D+00 0.000000000000D+00 0.883499944420D-03 0.000000000000D+00  6 -3 1 25 2 -4 21 2 0.14845592D+00 0.31482769D+00 0.29274947D+06 0.29274947D+06 0.29274947D+06 0.10853388D+01  1  2  5  3  6  4        2 -.492469201731D-02 0.100000000000D+01
  </mgrwgt>
  </event>
  <event>
  6     66 -.16453327E-05 0.25720790E+03 0.75467711E-02 0.92484070E-01
       -1 -1    0    0    0  501 0.00000000E+00 0.00000000E+00 0.54864616E+03 0.54864625E+03 0.32000000E+00 0.0000E+00 0.9000E+01
        3 -1    0    0  503    0 0.00000000E+00 0.00000000E+00 -.14275392E+04 0.14275393E+04 0.50000000E+00 0.0000E+00 0.9000E+01
       25  1    1    2    0    0 -.58010759E+03 -.81237405E+02 0.16376059E+03 0.62094031E+03 0.12500000E+03 0.0000E+00 0.9000E+01
        4  1    1    2  502    0 0.26400853E+03 0.27934954E+01 -.88591968E+03 0.92442652E+03 0.15500000E+01 0.0000E+00 0.9000E+01
       -2  1    1    2    0  501 0.32871039E+03 0.73026741E+02 -.71177851E+02 0.34416539E+03 0.32000000E+00 0.0000E+00 0.9000E+01
       21  1    1    2  503  502 -.12611323E+02 0.54171685E+01 -.85556085E+02 0.86653317E+02 0.75000000E+00 0.0000E+00 0.9000E+01
#aMCatNLO 2  0  0  2  4 0.13725567D+02 0.00000000D+00  -5  6  0 0.00000000D+00 0.00000000D+00 0.00000000D+00 0.00000000D+00 0.00000000D+00
  <mgrwgt>
 -.5330328591D-05    5    2    0
 0.857432227250715D+03 0.000000000000000D+00 0.000000000000000D+00 0.857432227250715D+03
 0.857432227250715D+03 0.000000000000000D+00 0.000000000000000D+00 -.857432227250715D+03
 0.763975821128712D+03 -.585619926632494D+03 -.788019677141829D+02 0.467839295789287D+03
 0.606928589333559D+03 0.259585492452061D+03 0.471602091067555D+01 -.548594061037498D+03
 0.343960044039160D+03 0.326034434180433D+03 0.740859468035073D+02 0.807547652482115D+02
 0.000000000000000D+00 -.000000000000000D+00 0.000000000000000D+00 -.000000000000000D+00
 0.858315448558094D+03 0.000000000000000D+00 0.000000000000000D+00 0.858315448558094D+03
 0.912496087748103D+03 0.000000000000000D+00 0.000000000000000D+00 -.912496087748103D+03
 0.759942502299359D+03 -.580016475287714D+03 -.812089189141939D+02 0.467839295789287D+03
 0.608842155442028D+03 0.264055884408128D+03 0.279577308105877D+01 -.548594061037498D+03
 0.346134724767752D+03 0.328571914307056D+03 0.729959773436187D+02 0.807547652482115D+02
 0.558921537970583D+02 -.126113234274706D+02 0.541716848951640D+01 -.541806391900090D+02
-.133730104446D-03 0.000000000000D+00 0.000000000000D+00 0.762553732172D-07 0.000000000000D+00  6 -1 3 25 4 -2 21 2 0.84320012D-01 0.22278962D+00 0.36799008D+06 0.36799008D+06 0.36799008D+06 0.10780487D+01  1  2 13  2  6  2        3 -.118725699060D-04 0.100000000000D+01
-.259320113194D-04 0.000000000000D+00 0.000000000000D+00 0.762553732172D-07 0.000000000000D+00  6 -1 3 25 4 -2 21 2 0.84320012D-01 0.20636794D+00 0.35877041D+06 0.35877041D+06 0.35877041D+06 0.10788500D+01  1  2  8  2  6  2        3 -.315057524023D-05 0.100000000000D+01
-.534005248276D-04 0.000000000000D+00 0.000000000000D+00 0.762553732172D-07 0.000000000000D+00  6 -1 3 25 4 -2 21 2 0.84320012D-01 0.21970803D+00 0.35877041D+06 0.35877041D+06 0.35877041D+06 0.10788500D+01  1  2  9  2  6  2        3 -.504333238580D-05 0.100000000000D+01
0.532959341063D-04 0.000000000000D+00 0.000000000000D+00 0.762553732172D-07 0.000000000000D+00  6 -1 3 25 4 -2 21 2 0.84320012D-01 0.20636794D+00 0.35877041D+06 0.35877041D+06 0.35877041D+06 0.10788500D+01  1  2 10  2  6  2        3 0.647511866057D-05 0.100000000000D+01
0.877913365427D-04 0.000000000000D+00 0.000000000000D+00 0.762553732172D-07 0.104145474215D-08  6 -1 3 25 4 -2 21 2 0.84406868D-01 0.21962079D+00 0.36799008D+06 0.36799008D+06 0.36799008D+06 0.10780487D+01  1  2  1  2  6  2        3 0.826103028061D-05 0.100000000000D+01
  </mgrwgt>
  </event>
  <event>
  5     66 0.16453327E-05 0.23835592E+02 0.75467711E-02 0.94718097E-01
       -3 -1    0    0    0  501 0.00000000E+00 0.00000000E+00 0.83560168E+03 0.83560183E+03 0.50000000E+00 0.0000E+00 0.9000E+01
        1 -1    0    0  502    0 0.00000000E+00 0.00000000E+00 -.11325013E+04 0.11325014E+04 0.32000000E+00 0.0000E+00 0.9000E+01
       25  1    1    2    0    0 0.32395511E+03 -.33709985E+03 -.29448507E+01 0.48395960E+03 0.12500000E+03 0.0000E+00 0.9000E+01
        2  1    1    2  502    0 -.75491963E+00 -.23805550E+02 -.79023653E+03 0.79059544E+03 0.32000000E+00 0.0000E+00 0.9000E+01
       -4  1    1    2    0  501 -.32320019E+03 0.36090540E+03 0.49628174E+03 0.69354815E+03 0.15500000E+01 0.0000E+00 0.9000E+01
#aMCatNLO 1  0  0  2  4 0.93210689D+01 0.00000000D+00  -5  6  0 0.00000000D+00 0.00000000D+00 0.00000000D+00 0.00000000D+00 0.00000000D+00
  <mgrwgt>
 0.9361631397D-02    7    2    0
 0.972789904614275D+03 0.000000000000000D+00 0.000000000000000D+00 0.972789904614275D+03
 0.972789904614275D+03 0.000000000000000D+00 0.000000000000000D+00 -.972789904614275D+03
 0.489017847733338D+03 0.323835744612538D+03 -.336947501391814D+03 0.714859931651152D+02
 0.679541939255805D+03 -.755816179472106D+00 -.238236060537058D+02 -.679123782343131D+03
 0.777020022239407D+03 -.323079928433066D+03 0.360771107445520D+03 0.607637789178016D+03
 0.000000000000000D+00 0.000000000000000D+00 -.000000000000000D+00 -.000000000000000D+00
 0.103952943199082D+04 0.000000000000000D+00 0.000000000000000D+00 0.103952943199082D+04
 0.140946541645730D+04 0.000000000000000D+00 0.000000000000000D+00 -.140946541645730D+04
 0.441818495649392D+03 0.323382224431241D+03 -.264371467448722D+03 0.714859931651152D+02
 0.684117845620799D+03 -.142021571356923D+01 0.824990784198851D+02 -.679123782343131D+03
 0.843443858796894D+03 -.323869447534180D+03 0.487116455335839D+03 0.607637789178016D+03
 0.479614648381027D+03 0.190743881650822D+01 -.305244066307002D+03 -.369935984466481D+03
0.975073553895D-02 0.000000000000D+00 0.000000000000D+00 0.149391992598D-03 0.000000000000D+00  6 -3 1 25 2 -4 21 0 0.12855412D+00 0.17423099D+00 0.24596136D+06 0.24596136D+06 0.24596136D+06 0.10909916D+01  1  2  2  2  6  2        1 0.342797653880D-02 0.100000000000D+01
0.701630308618D-02 0.000000000000D+00 -.374453918972D-04 0.149391992598D-03 0.000000000000D+00  6 -3 1 25 2 -4 21 2 0.12855412D+00 0.17423099D+00 0.24596136D+06 0.24596136D+06 0.24596136D+06 0.10909916D+01  1  2  3  2  6  2        1 0.293597011229D-02 0.100000000000D+01
-.681505713172D-02 0.000000000000D+00 0.000000000000D+00 0.149391992598D-03 0.000000000000D+00  6 -3 1 25 2 -4 21 2 0.12855412D+00 0.17423099D+00 0.24596136D+06 0.24596136D+06 0.24596136D+06 0.10909916D+01  1  2 15  2  6  2        1 -.285175879755D-02 0.100000000000D+01
-.162034595573D-03 0.000000000000D+00 0.000000000000D+00 0.149391992598D-03 0.000000000000D+00  6 -3 1 25 2 -4 21 2 0.12855412D+00 0.17423099D+00 0.24596136D+06 0.24596136D+06 0.24596136D+06 0.10909916D+01  1  2  4  2  6  2        1 -.678033323128D-04 0.100000000000D+01
-.221125090324D-01 0.000000000000D+00 -.719741731072D-02 0.149391992598D-03 0.000000000000D+00  6 -3 1 25 2 -4 21 2 0.12855412D+00 0.25934072D+00 0.24596136D+06 0.24596136D+06 0.24596136D+06 0.10909916D+01  1  2  5  2  6  2        1 -.387190685270D-02 0.100000000000D+01
0.236164737165D-01 0.000000000000D+00 0.666331696533D-02 0.149391992598D-03 0.000000000000D+00  6 -3 1 25 2 -4 21 2 0.12855412D+00 0.17423099D+00 0.24596136D+06 0.24596136D+06 0.24596136D+06 0.10909916D+01  1  2  6  2  6  2        1 0.988230698383D-02 0.100000000000D+01
-.804428106570D-03 0.000000000000D+00 -.341187574735D-03 0.149391992598D-03 0.000000000000D+00  6 -3 21 25 2 -4 -1 2 0.12855412D+00 0.25934072D+00 0.24596136D+06 0.24596136D+06 0.24596136D+06 0.10909916D+01  1  2  5  6  6  2        1 -.931532550178D-04 0.100000000000D+01
  </mgrwgt>
  </event>
  <event>
  6     66 0.16453327E-05 0.33360232E+02 0.75467711E-02 0.94482954E-01
       -3 -1    0    0    0  501 0.00000000E+00 0.00000000E+00 0.27551495E+03 0.27551540E+03 0.50000000E+00 0.0000E+00 0.9000E+01
        1 -1    0    0  502    0 -.00000000E+00 -.00000000E+00 -.31813393E+04 0.31813394E+04 0.32000000E+00 0.0000E+00 0.9000E+01
       25  1    1    2    0    0 -.12159011E+03 0.43934764E+03 -.32418416E+03 0.57317613E+03 0.12500000E+03 0.0000E+00 0.9000E+01
        2  1    1    2  502    0 0.93702364E+01 -.57240601E+02 -.23012285E+04 0.23019594E+04 0.32000000E+00 0.0000E+00 0.9000E+01
       -4  1    1    2    0  503 0.15633194E+03 -.40446157E+03 -.30130322E+03 0.52802923E+03 0.15500000E+01 0.0000E+00 0.9000E+01
       21  1    1    2  503  501 -.44112058E+02 0.22354528E+02 0.20891504E+02 0.53689999E+02 0.75000000E+00 0.0000E+00 0.9000E+01
#aMCatNLO 2  0  0  5  1 0.32400789D+01 0.00000000D+00  -5  6  0 0.00000000D+00 0.00000000D+00 0.00000000D+00 0.00000000D+00 0.00000000D+00
  <mgrwgt>
 0.1036129996D-03    1    2    0
 0.936219717356204D+03 0.000000000000000D+00 0.000000000000000D+00 0.936219717356204D+03
 0.936219717356204D+03 -.000000000000000D+00 -.000000000000000D+00 -.936219717356204D+03
 0.561636583054206D+03 -.126678527137879D+03 0.456704755051488D+03 0.274196952755390D+03
 0.699807559465877D+03 0.290677188635902D+01 -.352637393155548D+02 -.698912469235077D+03
 0.610995292192325D+03 0.123771755251520D+03 -.421441015735933D+03 0.424715516479687D+03
 0.000000000000000D+00 0.000000000000000D+00 0.000000000000000D+00 0.000000000000000D+00
 0.936219717356204D+03 0.000000000000000D+00 0.000000000000000D+00 0.936219717356204D+03
 0.936219717356204D+03 -.000000000000000D+00 -.000000000000000D+00 -.936219717356204D+03
 0.555276460298442D+03 -.121431521957365D+03 0.438838779180385D+03 0.292201743191505D+03
 0.679171497102055D+03 0.938490399941418D+01 -.573216843794308D+02 -.676683138959937D+03
 0.506284521001613D+03 0.156178941554869D+03 -.403823338356200D+03 0.262409728896410D+03
 0.131706956310299D+03 -.441323235969187D+02 0.223062435552457D+02 0.122071666872022D+03
0.466136760658D-03 0.000000000000D+00 0.000000000000D+00 0.762037732929D-04 0.311451921328D-07  6 -3 1 25 2 -4 21 2 0.42386951D-01 0.48943686D+00 0.25638147D+06 0.25638147D+06 0.25638147D+06 0.10896366D+01  1  2  1  4  6  5       -4 0.103612999632D-03 0.100000000000D+01
  </mgrwgt>
  </event>
  <event>
  5     66 0.16453327E-05 0.34092462E+02 0.75467711E-02 0.95214295E-01
       -3 -1    0    0    0  501 0.00000000E+00 0.00000000E+00 0.14246435E+03 0.14246523E+03 0.50000000E+00 0.0000E+00 0.9000E+01
        1 -1    0    0  502    0 0.00000000E+00 0.00000000E+00 -.22421122E+04 0.22421122E+04 0.32000000E+00 0.0000E+00 0.9000E+01
       25  1    1    2    0    0 -.33528716E+03 -.32153381E+03 -.89648107E+03 0.10174010E+04 0.12500000E+03 0.0000E+00 0.9000E+01
        2  1    1    2  502    0 0.10375406E+02 0.32424068E+02 -.70520221E+03 0.70602353E+03 0.32000000E+00 0.0000E+00 0.9000E+01
       -4  1    1    2    0  501 0.32491175E+03 0.28910974E+03 -.49796459E+03 0.66115295E+03 0.15500000E+01 0.0000E+00 0.9000E+01
#aMCatNLO 1  0  0  2  2 0.80995121D+02 0.00000000D+00  -5  6  0 0.00000000D+00 0.00000000D+00 0.00000000D+00 0.00000000D+00 0.00000000D+00
  <mgrwgt>
 0.4754826197D-02    7    2    0
 0.565174437209474D+03 0.000000000000000D+00 0.000000000000000D+00 0.565174437209474D+03
 0.565174437209474D+03 0.000000000000000D+00 0.000000000000000D+00 -.565174437209474D+03
 0.480919643149725D+03 -.335155853550337D+03 -.321447368195063D+03 -.920042755482484D+00
 0.179862285204623D+03 0.103926560244763D+02 0.324698118363063D+02 -.176601658143690D+03
 0.469566946064600D+03 0.324763197525861D+03 0.288977556358757D+03 0.177521700899173D+03
 0.000000000000000D+00 -.000000000000000D+00 -.000000000000000D+00 -.000000000000000D+00
 0.583309221398021D+03 0.000000000000000D+00 0.000000000000000D+00 0.583309221398021D+03
 0.800091852391496D+03 0.000000000000000D+00 0.000000000000000D+00 -.800091852391496D+03
 0.442587320408328D+03 -.287956226829974D+03 -.311991828638823D+03 -.920042755482484D+00
 0.182574233982660D+03 0.289164669869390D+02 0.361807019313822D+02 -.176601658143690D+03
 0.511346309936486D+03 0.374896809242148D+03 0.299020863512201D+03 0.177521700899173D+03
 0.246893209462043D+03 -.115857049399113D+03 -.232097368047601D+02 -.216782630993476D+03
0.320822384886D-03 0.000000000000D+00 0.000000000000D+00 0.316957975356D-05 0.000000000000D+00  6 -3 1 25 2 -4 21 0 0.21917662D-01 0.34494041D+00 0.22549609D+06 0.22549609D+06 0.22549609D+06 0.10938456D+01  1  2  2  2  6  2        1 0.995082693494D-03 0.100000000000D+01
0.106079199388D-03 0.000000000000D+00 -.123204243244D-05 0.316957975356D-05 0.000000000000D+00  6 -3 1 25 2 -4 21 2 0.21917662D-01 0.34494041D+00 0.22549609D+06 0.22549609D+06 0.22549609D+06 0.10938456D+01  1  2  3  2  6  2        1 0.393674025812D-03 0.100000000000D+01
-.193397910535D-03 0.000000000000D+00 0.000000000000D+00 0.316957975356D-05 0.000000000000D+00  6 -3 1 25 2 -4 21 2 0.21917662D-01 0.34494041D+00 0.22549609D+06 0.22549609D+06 0.22549609D+06 0.10938456D+01  1  2 15  2  6  2        1 -.717725383143D-03 0.100000000000D+01
-.292352244283D-04 0.000000000000D+00 0.000000000000D+00 0.316957975356D-05 0.000000000000D+00  6 -3 1 25 2 -4 21 2 0.21917662D-01 0.34494041D+00 0.22549609D+06 0.22549609D+06 0.22549609D+06 0.10938456D+01  1  2  4  2  6  2        1 -.108495808440D-03 0.100000000000D+01
-.143770023551D-02 0.000000000000D+00 -.203235763355D-03 0.316957975356D-05 0.000000000000D+00  6 -3 1 25 2 -4 21 2 0.21917662D-01 0.49185644D+00 0.22549609D+06 0.22549609D+06 0.22549609D+06 0.10938456D+01  1  2  5  2  6  2        1 -.110999894350D-02 0.100000000000D+01
0.143094362014D-02 0.000000000000D+00 0.191081080492D-03 0.316957975356D-05 0.000000000000D+00  6 -3 1 25 2 -4 21 2 0.21917662D-01 0.34494041D+00 0.22549609D+06 0.22549609D+06 0.22549609D+06 0.10938456D+01  1  2  6  2  6  2        1 0.531042220250D-02 0.100000000000D+01
-.568595834563D-04 0.000000000000D+00 -.886654559625D-05 0.316957975356D-05 0.000000000000D+00  6 -3 21 25 2 -4 -1 2 0.21917662D-01 0.49185644D+00 0.22549609D+06 0.22549609D+06 0.22549609D+06 0.10938456D+01  1  2  5  6  6  2        1 -.813259021580D-05 0.100000000000D+01
  </mgrwgt>
  </event>
  <event>
  5     66 0.16453327E-05 0.65065670E+02 0.75467711E-02 0.87732880E-01
       -3 -1    0    0    0  501 0.00000000E+00 0.00000000E+00 0.24554546E+03 0.24554596E+03 0.50000000E+00 0.0000E+00 0.9000E+01
        1 -1    0    0  502    0 0.00000000E+00 0.00000000E+00 -.32850538E+04 0.32850538E+04 0.32000000E+00 0.0000E+00 0.9000E+01
       25  1    1    2    0    0 -.55799246E+03 -.55906437E+03 -.98545046E+03 0.12691124E+04 0.12500000E+03 0.0000E+00 0.9000E+01
        2  1    1    2  502    0 0.34087669E+01 0.64916949E+02 -.80958738E+03 0.81219311E+03 0.32000000E+00 0.0000E+00 0.9000E+01
       -4  1    1    2    0  501 0.55458369E+03 0.49414742E+03 -.12444705E+04 0.14492943E+04 0.15500000E+01 0.0000E+00 0.9000E+01
#aMCatNLO 1  0  0  2  1 0.29484092D+03 0.00000000D+00  -5  6  0 0.00000000D+00 0.00000000D+00 0.00000000D+00 0.00000000D+00 0.00000000D+00
  <mgrwgt>
 0.2303299595D-03    7    2    0
 0.898126355365656D+03 0.000000000000000D+00 0.000000000000000D+00 0.898126355365656D+03
 0.898126355365656D+03 0.000000000000000D+00 0.000000000000000D+00 -.898126355365656D+03
 0.826869168620508D+03 -.557819858422431D+03 -.558961892037541D+03 0.210917592472897D+03
 0.226803754510449D+03 0.341730428720859D+01 0.649758684583837D+02 -.217270342222595D+03
 0.742579787600355D+03 0.554402554135222D+03 0.493986023579157D+03 0.635274974969747D+01
 0.000000000000000D+00 0.000000000000000D+00 0.000000000000000D+00 -.000000000000000D+00
 0.954377435306365D+03 0.000000000000000D+00 0.000000000000000D+00 0.954377435306365D+03
 0.140147538127178D+04 0.000000000000000D+00 0.000000000000000D+00 -.140147538127178D+04
 0.952810831658042D+03 -.696221015081046D+03 -.602506056625031D+03 0.210917592472897D+03
 0.226102873462586D+03 -.318040844793169D+02 0.538944151925513D+02 -.217270342222595D+03
 0.641376098331483D+03 0.446775848577209D+03 0.460124204111944D+03 0.635274974969747D+01
 0.535563013126029D+03 0.281249250983154D+03 0.884874373205364D+02 -.447097945965411D+03
0.452455388339D-03 0.000000000000D+00 0.000000000000D+00 0.137140547192D-06 0.000000000000D+00  6 -3 1 25 2 -4 21 0 0.37776264D-01 0.50539293D+00 0.64572043D+06 0.64572043D+06 0.64572043D+06 0.10607477D+01  1  2  2  2  6  2        1 0.831025892178D-04 0.100000000000D+01
0.111249527966D-03 0.000000000000D+00 -.173754782546D-05 0.137140547192D-06 0.000000000000D+00  6 -3 1 25 2 -4 21 2 0.37776264D-01 0.50539293D+00 0.64572043D+06 0.64572043D+06 0.64572043D+06 0.10607477D+01  1  2  3  2  6  2        1 0.229911741088D-04 0.100000000000D+01
-.267541544408D-03 0.000000000000D+00 0.000000000000D+00 0.137140547192D-06 0.000000000000D+00  6 -3 1 25 2 -4 21 2 0.37776264D-01 0.50539293D+00 0.64572043D+06 0.64572043D+06 0.64572043D+06 0.10607477D+01  1  2 15  2  6  2        1 -.552909692408D-04 0.100000000000D+01
-.326249138671D-04 0.000000000000D+00 0.000000000000D+00 0.137140547192D-06 0.000000000000D+00  6 -3 1 25 2 -4 21 2 0.37776264D-01 0.50539293D+00 0.64572043D+06 0.64572043D+06 0.64572043D+06 0.10607477D+01  1  2  4  2  6  2        1 -.674236636070D-05 0.100000000000D+01
-.897059843211D-03 0.000000000000D+00 -.184901827472D-03 0.137140547192D-06 0.000000000000D+00  6 -3 1 25 2 -4 21 2 0.37776264D-01 0.79289690D+00 0.64572043D+06 0.64572043D+06 0.64572043D+06 0.10607477D+01  1  2  5  2  6  2        1 -.193494699037D-05 0.100000000000D+01
0.910695510838D-03 0.000000000000D+00 0.168947218696D-03 0.137140547192D-06 0.000000000000D+00  6 -3 1 25 2 -4 21 2 0.37776264D-01 0.50539293D+00 0.64572043D+06 0.64572043D+06 0.64572043D+06 0.10607477D+01  1  2  6  2  6  2        1 0.188207172045D-03 0.100000000000D+01
-.392786398635D-04 0.000000000000D+00 -.961423429928D-05 0.137140547192D-06 0.000000000000D+00  6 -3 21 25 2 -4 -1 2 0.37776264D-01 0.79289690D+00 0.64572043D+06 0.64572043D+06 0.64572043D+06 0.10607477D+01  1  2  5  6  6  2        1 -.269329879273D-08 0.100000000000D+01
  </mgrwgt>
  </event>
  <event>
  5     66 0.16453327E-05 0.21191675E+03 0.75467711E-02 0.93758158E-01
       -3 -1    0    0    0  501 0.00000000E+00 0.00000000E+00 0.32044910E+03 0.32044949E+03 0.50000000E+00 0.0000E+00 0.9000E+01
        1 -1    0    0  502    0 -.00000000E+00 -.00000000E+00 -.11677853E+04 0.11677854E+04 0.32000000E+00 0.0000E+00 0.9000E+01
       25  1    1    2    0    0 -.32334098E+03 -.33907410E+03 -.33454613E+03 0.58912371E+03 0.12500000E+03 0.0000E+00 0.9000E+01
        2  1    1    2  502    0 0.37984457E+03 0.13422704E+03 -.55164109E+03 0.68308622E+03 0.32000000E+00 0.0000E+00 0.9000E+01
       -4  1    1    2    0  501 -.56503595E+02 0.20484706E+03 0.38850981E+02 0.21602494E+03 0.15500000E+01 0.0000E+00 0.9000E+01
#aMCatNLO 1  0  0  4  2 0.46369966D+02 0.00000000D+00  -5  6  0 0.00000000D+00 0.00000000D+00 0.00000000D+00 0.00000000D+00 0.00000000D+00
  <mgrwgt>
 0.4190120529D-03    7    2    0
 0.611732039411160D+03 0.000000000000000D+00 0.000000000000000D+00 0.611732039411160D+03
 0.611732039411160D+03 -.000000000000000D+00 -.000000000000000D+00 -.611732039411160D+03
 0.485220468247124D+03 -.323906039625355D+03 -.338963306533051D+03 0.163006881970785D+01
 0.449356613736332D+03 0.380255344811302D+03 0.134675605236880D+03 -.197963937132754D+03
 0.288886996838863D+03 -.563493051859474D+02 0.204287701296171D+03 0.196333868313047D+03
 0.000000000000000D+00 0.000000000000000D+00 0.000000000000000D+00 0.000000000000000D+00
 0.611732039411160D+03 0.000000000000000D+00 0.000000000000000D+00 0.611732039411160D+03
 0.611732039411160D+03 -.000000000000000D+00 -.000000000000000D+00 -.611732039411160D+03
 0.477880119714951D+03 -.315857636593527D+03 -.336112791571744D+03 -.255999339388840D+01
 0.396787474733847D+03 0.312524645323287D+03 0.116478751275289D+03 -.214944985223118D+03
 0.287502345373554D+03 -.515325562530121D+02 0.205993656483045D+03 0.193826230758558D+03
 0.612941389999679D+02 0.548655475232523D+02 0.136403838134096D+02 0.236787478584491D+02
0.295548396322D-04 0.000000000000D+00 0.000000000000D+00 0.417961890935D-07 0.000000000000D+00  6 -3 1 25 2 -4 21 0 0.49299896D-01 0.17965932D+00 0.30279409D+06 0.30279409D+06 0.30279409D+06 0.10842541D+01  1  2  2  3  6  4        2 0.100002191403D-03 0.100000000000D+01
0.811707382859D-06 0.000000000000D+00 -.113498366156D-06 0.417961890935D-07 0.000000000000D+00  6 -3 1 25 2 -4 21 2 0.49299896D-01 0.17965932D+00 0.30279409D+06 0.30279409D+06 0.30279409D+06 0.10842541D+01  1  2  3  3  6  4        2 0.322881058297D-05 0.100000000000D+01
-.170982242666D-04 0.000000000000D+00 0.000000000000D+00 0.417961890935D-07 0.000000000000D+00  6 -3 1 25 2 -4 21 2 0.49299896D-01 0.17965932D+00 0.30279409D+06 0.30279409D+06 0.30279409D+06 0.10842541D+01  1  2 15  3  6  4        2 -.680133366135D-04 0.100000000000D+01
0.121572062617D-03 0.000000000000D+00 0.000000000000D+00 0.417961890935D-07 0.000000000000D+00  6 -3 1 25 2 -4 21 2 0.49299896D-01 0.17965932D+00 0.29174891D+06 0.29174891D+06 0.29174891D+06 0.10854491D+01  1  2 12  3  6  4        2 0.485224062350D-03 0.100000000000D+01
-.442832131063D-04 0.000000000000D+00 0.000000000000D+00 0.417961890935D-07 0.000000000000D+00  6 -3 1 25 2 -4 21 2 0.49299896D-01 0.17965932D+00 0.30279409D+06 0.30279409D+06 0.30279409D+06 0.10842541D+01  1  2  4  3  6  4        2 -.176149817219D-03 0.100000000000D+01
-.129005729626D-03 0.000000000000D+00 0.000000000000D+00 0.417961890935D-07 0.000000000000D+00  6 -3 1 25 2 -4 21 2 0.49299896D-01 0.17965932D+00 0.30279409D+06 0.30279409D+06 0.30279409D+06 0.10842541D+01  1  2  5  3  6  4        2 -.513159143155D-03 0.100000000000D+01
0.147790012465D-03 0.000000000000D+00 -.000000000000D+00 0.417961890935D-07 0.000000000000D+00  6 -3 1 25 2 -4 21 2 0.49299896D-01 0.17965932D+00 0.30279409D+06 0.30279409D+06 0.30279409D+06 0.10842541D+01  1  2  6  3  6  4        2 0.587879285544D-03 0.100000000000D+01
  </mgrwgt>
  </event>
  <event>
  5     66 0.16453327E-05 0.14830075E+02 0.75467711E-02 0.92051588E-01
       -1 -1    0    0    0  501 0.00000000E+00 0.00000000E+00 0.17023114E+04 0.17023115E+04 0.32000000E+00 0.0000E+00 0.9000E+01
        3 -1    0    0  502    0 0.00000000E+00 0.00000000E+00 -.68332221E+03 0.68332239E+03 0.50000000E+00 0.0000E+00 0.9000E+01
       25  1    1    2    0    0 -.40215276E+03 0.42204458E+03 0.12686709E+04 0.14017844E+04 0.12500000E+03 0.0000E+00 0.9000E+01
        4  1    1    2  502    0 0.38888327E+03 -.41536438E+03 -.48524860E+03 0.74781440E+03 0.15500000E+01 0.0000E+00 0.9000E+01
       -2  1    1    2    0  501 0.13269488E+02 -.66802002E+01 0.23556689E+03 0.23603509E+03 0.32000000E+00 0.0000E+00 0.9000E+01
#aMCatNLO 1  0  0  5  1 0.11059734D+03 0.00000000D+00  -5  6  0 0.00000000D+00 0.00000000D+00 0.00000000D+00 0.00000000D+00 0.00000000D+00
  <mgrwgt>
 0.7132031452D-04    4    2    0
 0.107853023010514D+04 0.000000000000000D+00 0.000000000000000D+00 0.107853023010514D+04
 0.107853023010514D+04 -.000000000000000D+00 -.000000000000000D+00 -.107853023010514D+04
 0.951238043825912D+03 -.402187456928499D+03 0.422093500413275D+03 0.741155275512496D+03
 0.105631986576020D+04 0.388941234847358D+03 -.415425012654351D+03 -.889920464702431D+03
 0.149502550624164D+03 0.132462220811402D+02 -.666848775892440D+01 0.148765189189935D+03
 0.000000000000000D+00 -.000000000000000D+00 0.000000000000000D+00 0.000000000000000D+00
 0.107853023010514D+04 0.000000000000000D+00 0.000000000000000D+00 0.107853023010514D+04
 0.107853023010514D+04 -.000000000000000D+00 -.000000000000000D+00 -.107853023010514D+04
 0.964586185791918D+03 -.400550970063652D+03 0.421269650974618D+03 0.759534272675955D+03
 0.104046202542267D+04 0.390732294784028D+03 -.416326678139802D+03 -.869805493905695D+03
 0.103446494087596D+03 0.503411640459516D+02 -.199906509850416D+02 0.881323902700248D+02
 0.485657549080919D+02 -.405224887663283D+02 0.150476781502251D+02 0.221388309597160D+02
0.444501164956D-02 0.000000000000D+00 0.000000000000D+00 0.391241866625D-04 0.000000000000D+00  6 -1 3 25 4 -2 21 0 0.26189408D+00 0.10512651D+00 0.34820922D+06 0.34820922D+06 0.34820922D+06 0.10797959D+01  1  2  2  4  6  5       -2 0.105352738807D-03 0.100000000000D+01
0.209446900217D-02 0.000000000000D+00 -.170700151328D-04 0.391241866625D-04 0.000000000000D+00  6 -1 3 25 4 -2 21 2 0.26189408D+00 0.10512651D+00 0.34820922D+06 0.34820922D+06 0.34820922D+06 0.10797959D+01  1  2  3  4  6  5       -2 0.578802252769D-04 0.100000000000D+01
-.303378362204D-02 0.000000000000D+00 0.000000000000D+00 0.391241866625D-04 0.000000000000D+00  6 -1 3 25 4 -2 21 2 0.26189408D+00 0.10512651D+00 0.34820922D+06 0.34820922D+06 0.34820922D+06 0.10797959D+01  1  2 15  4  6  5       -2 -.838379939273D-04 0.100000000000D+01
-.292191605173D-03 0.000000000000D+00 0.000000000000D+00 0.391241866625D-04 0.000000000000D+00  6 -1 3 25 4 -2 21 2 0.26189408D+00 0.10512651D+00 0.34820922D+06 0.34820922D+06 0.34820922D+06 0.10797959D+01  1  2  4  4  6  5       -2 -.807465563535D-05 0.100000000000D+01
  </mgrwgt>
  </event>
  <event>
  5     66 0.16453327E-05 0.19727071E+03 0.75467711E-02 0.94301449E-01
       -1 -1    0    0    0  501 0.00000000E+00 0.00000000E+00 0.11732047E+04 0.11732047E+04 0.32000000E+00 0.0000E+00 0.9000E+01
        3 -1    0    0  502    0 0.00000000E+00 0.00000000E+00 -.41619581E+03 0.41619611E+03 0.50000000E+00 0.0000E+00 0.9000E+01
       25  1    1    2    0    0 -.45994553E+03 -.10095120E+03 0.27167317E+03 0.55782824E+03 0.12500000E+03 0.0000E+00 0.9000E+01
        4  1    1    2  502    0 0.26746416E+03 0.57677187E+02 -.18665567E+03 0.33121968E+03 0.15500000E+01 0.0000E+00 0.9000E+01
       -2  1    1    2    0  501 0.19248136E+03 0.43274010E+02 0.67199138E+03 0.70035293E+03 0.32000000E+00 0.0000E+00 0.9000E+01
#aMCatNLO 1  0  0  1  5 0.60537468D+02 0.00000000D+00  -5  6  0 0.00000000D+00 0.00000000D+00 0.00000000D+00 0.00000000D+00 0.00000000D+00
  <mgrwgt>
 0.4226700443D-03    7    4    0
 0.698772605787232D+03 0.000000000000000D+00 0.000000000000000D+00 0.698772605787232D+03
 0.698772605787232D+03 0.000000000000000D+00 0.000000000000000D+00 -.698772605787232D+03
 0.487258565504900D+03 -.459953721478447D+03 -.100952870610004D+03 0.685577651475111D+01
 0.477820138670521D+03 0.267487149327897D+03 0.576821854666944D+02 -.391708406015671D+03
 0.432466507399043D+03 0.192466572150550D+03 0.432706851433100D+02 0.384852629500920D+03
 0.000000000000000D+00 -.000000000000000D+00 0.000000000000000D+00 0.000000000000000D+00
 0.785239283208565D+03 0.000000000000000D+00 0.000000000000000D+00 0.785239283208565D+03
 0.710104732178894D+03 0.000000000000000D+00 0.000000000000000D+00 -.710104732178894D+03
 0.478467215134091D+03 -.446700558879199D+03 -.117121667438452D+03 0.685577651475111D+01
 0.483680976892263D+03 0.280682334627268D+03 0.415841206748716D+02 -.391708406015671D+03
 0.436707555862327D+03 0.204394704772037D+03 0.287184187347956D+02 0.384852629500920D+03
 0.964882674987792D+02 -.383764805201059D+02 0.468191280287846D+02 0.751345510296706D+02
 0.698772605787232D+03 0.000000000000000D+00 0.000000000000000D+00 0.698772605787232D+03
 0.698772605787232D+03 0.000000000000000D+00 0.000000000000000D+00 -.698772605787232D+03
 0.487258565504900D+03 -.459953721478447D+03 -.100952870610004D+03 0.685577651475111D+01
 0.477820138670521D+03 0.267487149327897D+03 0.576821854666944D+02 -.391708406015671D+03
 0.000000000000000D+00 -.000000000000000D+00 0.000000000000000D+00 0.000000000000000D+00
 0.432466507399043D+03 0.192466572150550D+03 0.432706851433100D+02 0.384852629500920D+03
 0.785239283208565D+03 0.000000000000000D+00 0.000000000000000D+00 0.785239283208565D+03
 0.710104732178894D+03 0.000000000000000D+00 0.000000000000000D+00 -.710104732178894D+03
 0.478467215134091D+03 -.446700558879199D+03 -.117121667438452D+03 0.685577651475111D+01
 0.483680976892263D+03 0.280682334627268D+03 0.415841206748716D+02 -.391708406015671D+03
 0.964882674987792D+02 -.383764805201059D+02 0.468191280287846D+02 0.751345510296706D+02
 0.436707555862327D+03 0.204394704772037D+03 0.287184187347956D+02 0.384852629500920D+03
0.360679097599D-03 0.000000000000D+00 0.000000000000D+00 0.203416305570D-05 0.000000000000D+00  6 -1 3 25 4 -2 21 0 0.18049306D+00 0.64030151D-01 0.22949702D+06 0.22949702D+06 0.22949702D+06 0.10932659D+01  1  2  2  1  6  1       -1 0.125999098582D-03 0.100000000000D+01
0.284811809958D-04 0.000000000000D+00 -.138510270377D-05 0.203416305570D-05 0.000000000000D+00  6 -1 3 25 4 -2 21 2 0.18049306D+00 0.64030151D-01 0.22949702D+06 0.22949702D+06 0.22949702D+06 0.10932659D+01  1  2  3  1  6  1       -1 0.118920323385D-04 0.100000000000D+01
-.203445386788D-03 0.000000000000D+00 0.000000000000D+00 0.203416305570D-05 0.000000000000D+00  6 -1 3 25 4 -2 21 2 0.18049306D+00 0.64030151D-01 0.22949702D+06 0.22949702D+06 0.22949702D+06 0.10932659D+01  1  2 15  1  6  1       -1 -.849465869820D-04 0.100000000000D+01
-.329503634557D-03 0.000000000000D+00 0.000000000000D+00 0.203416305570D-05 0.000000000000D+00  6 -1 3 25 4 -2 21 2 0.18049306D+00 0.64030151D-01 0.22949702D+06 0.22949702D+06 0.22949702D+06 0.10932659D+01  1  2  4  1  6  1       -1 -.137580947868D-03 0.100000000000D+01
-.417513178526D-02 0.000000000000D+00 -.609206840724D-03 0.203416305570D-05 0.000000000000D+00  6 -1 3 25 4 -2 21 2 0.20430273D+00 0.64030151D-01 0.22949702D+06 0.22949702D+06 0.22949702D+06 0.10932659D+01  1  2  5  1  6  1       -1 -.111936731572D-02 0.100000000000D+01
0.422280641900D-02 0.000000000000D+00 0.604559747547D-03 0.203416305570D-05 0.000000000000D+00  6 -1 3 25 4 -2 21 2 0.18049306D+00 0.64030151D-01 0.22949702D+06 0.22949702D+06 0.22949702D+06 0.10932659D+01  1  2  6  1  6  1       -1 0.176319059597D-02 0.100000000000D+01
-.783888470640D-04 0.000000000000D+00 -.118740379534D-04 0.203416305570D-05 0.000000000000D+00  6 21 3 25 4 1 -2 2 0.20430273D+00 0.64030151D-01 0.22949702D+06 0.22949702D+06 0.22949702D+06 0.10932659D+01  3  4  5  5  5  1       -1 -.136516832028D-03 0.100000000000D+01
  </mgrwgt>
  </event>
  <event>
  6     66 0.16453327E-05 0.95022768E+02 0.75467711E-02 0.94558983E-01
       -1 -1    0    0    0  501 0.00000000E+00 0.00000000E+00 0.11138534E+04 0.11138535E+04 0.32000000E+00 0.0000E+00 0.9000E+01
       21 -1    0    0  502  503 0.00000000E+00 0.00000000E+00 -.78446081E+03 0.78446117E+03 0.75000000E+00 0.0000E+00 0.9000E+01
       25  1    1    2    0    0 0.44062998E+03 0.13190094E+03 0.46777826E+03 0.66782793E+03 0.12500000E+03 0.0000E+00 0.9000E+01
        4  1    1    2  502    0 -.22868575E+03 -.10069352E+03 -.49694497E+03 0.55623113E+03 0.15500000E+01 0.0000E+00 0.9000E+01
       -2  1    1    2    0  501 -.12918904E+03 0.71367829E+02 0.47561076E+03 0.49798481E+03 0.32000000E+00 0.0000E+00 0.9000E+01
       -3  1    1    2    0  503 -.82755196E+02 -.10257524E+03 -.11705143E+03 0.17627079E+03 0.50000000E+00 0.0000E+00 0.9000E+01
#aMCatNLO 2  0  0  2  4 0.17526592D+03 0.00000000D+00  -5  6  0 0.00000000D+00 0.00000000D+00 0.00000000D+00 0.00000000D+00 0.00000000D+00
  <mgrwgt>
 0.9211363777D-04    1    2    0
 0.828968137005003D+03 0.000000000000000D+00 0.000000000000000D+00 0.828968137005003D+03
 0.828968137005003D+03 0.000000000000000D+00 0.000000000000000D+00 -.828968137005003D+03
 0.537609580635669D+03 0.413131704266526D+03 0.978516109800086D+02 0.305198817739703D+03
 0.729236718886539D+03 -.264570512594192D+03 -.145141180638859D+03 -.663869470393698D+03
 0.391089974487798D+03 -.148561191672335D+03 0.472895696588500D+02 0.358670652653996D+03
 0.000000000000000D+00 -.000000000000000D+00 -.000000000000000D+00 -.000000000000000D+00
 0.854292715381033D+03 0.000000000000000D+00 0.000000000000000D+00 0.854292715381033D+03
 0.102280419211930D+04 0.000000000000000D+00 0.000000000000000D+00 -.102280419211930D+04
 0.565980855340924D+03 0.440630956640629D+03 0.131936993723127D+03 0.305198817739703D+03
 0.709351511150639D+03 -.228723789470683D+03 -.100709089863108D+03 -.663869470393698D+03
 0.387834129091158D+03 -.129151970818011D+03 0.713473408507815D+02 0.358670652653996D+03
 0.213930411917616D+03 -.827551963519348D+02 -.102575244710800D+03 -.168511476738272D+03
0.643851292737D-04 0.000000000000D+00 0.000000000000D+00 0.754177720074D-05 0.863522369900D-10  6 -1 21 25 4 -2 -3 2 0.17136204D+00 0.12068627D+00 0.25295910D+06 0.25295910D+06 0.25295910D+06 0.10900749D+01  1  2  1  6  6  2        3 0.921136377708D-04 0.100000000000D+01
  </mgrwgt>
  </event>
  <event>
  6     66 0.16453327E-05 0.31853304E+03 0.75467711E-02 0.91996937E-01
       -3 -1    0    0    0  501 0.00000000E+00 0.00000000E+00 0.37640714E+03 0.37640747E+03 0.50000000E+00 0.0000E+00 0.9000E+01
       21 -1    0    0  502  503 0.00000000E+00 0.00000000E+00 -.15272389E+04 0.15272391E+04 0.75000000E+00 0.0000E+00 0.9000E+01
       25  1    1    2    0    0 -.54545253E+03 0.19729607E+02 -.10183723E+04 0.11621596E+04 0.12500000E+03 0.0000E+00 0.9000E+01
        2  1    1    2  502    0 0.31550636E+03 0.20734286E+03 -.19041579E+02 0.37801854E+03 0.32000000E+00 0.0000E+00 0.9000E+01
       -4  1    1    2    0  501 0.22423062E+03 -.23314898E+03 -.12700583E+03 0.34752080E+03 0.15500000E+01 0.0000E+00 0.9000E+01
       -1  1    1    2    0  503 0.57155370E+01 0.60765102E+01 0.13587974E+02 0.15947626E+02 0.32000000E+00 0.0000E+00 0.9000E+01
#aMCatNLO 2  0  0  2  2 0.83421424D+01 0.00000000D+00  -5  6  0 0.00000000D+00 0.00000000D+00 0.00000000D+00 0.00000000D+00 0.00000000D+00
  <mgrwgt>
 0.1346476017D-02    1    2    0
 0.742876889317596D+03 0.000000000000000D+00 0.000000000000000D+00 0.742876889317596D+03
 0.742876889317596D+03 0.000000000000000D+00 0.000000000000000D+00 -.742876889317596D+03
 0.676668115141929D+03 -.543191568699966D+03 0.222927749394082D+02 -.383015260699234D+03
 0.467998625650997D+03 0.318184888372150D+03 0.208903469015415D+03 0.272287405247012D+03
 0.341087037842264D+03 0.225006680327816D+03 -.231196243954823D+03 0.110727855452222D+03
 0.000000000000000D+00 0.000000000000000D+00 0.000000000000000D+00 0.000000000000000D+00
 0.773224102128117D+03 0.000000000000000D+00 0.000000000000000D+00 0.773224102128117D+03
 0.743462112972898D+03 0.000000000000000D+00 0.000000000000000D+00 -.743462112972898D+03
 0.678677207374981D+03 -.545798482923597D+03 0.195212171777283D+02 -.383015260699234D+03
 0.465927595176159D+03 0.316388545028170D+03 0.206993674940674D+03 0.272287405247012D+03
 0.341172395439528D+03 0.223694400873067D+03 -.232591402366762D+03 0.110727855452222D+03
 0.309090171103475D+02 0.571553702235963D+01 0.607651024835918D+01 0.297619891552191D+02
0.116640090918D-02 0.000000000000D+00 0.000000000000D+00 0.164735157481D-09 0.126186101437D-09  6 -3 21 25 2 -4 -1 2 0.57908765D-01 0.23495961D+00 0.40284451D+06 0.40284451D+06 0.40284451D+06 0.10752058D+01  1  2  1  6  6  2        1 0.134647601742D-02 0.100000000000D+01
  </mgrwgt>
  </event>
  <event>
  6     66 0.16453327E-05 0.86118848E+02 0.75467711E-02 0.93138073E-01
       -3 -1    0    0    0  501 0.00000000E+00 0.00000000E+00 0.51041153E+03 0.51041178E+03 0.50000000E+00 0.0000E+00 0.9000E+01
        1 -1    0    0  503    0 0.00000000E+00 0.00000000E+00 -.19621971E+04 0.19621972E+04 0.32000000E+00 0.0000E+00 0.9000E+01
       25  1    1    2    0    0 -.27963810E+03 0.47556138E+03 -.77865510E+03 0.96243694E+03 0.12500000E+03 0.0000E+00 0.9000E+01
        2  1    1    2  502    0 0.28109294E+03 -.35226112E+03 -.65646630E+03 0.79627209E+03 0.32000000E+00 0.0000E+00 0.9000E+01
       -4  1    1    2    0  501 0.82975740E+01 -.98957125E+02 0.34105425E+03 0.35522073E+03 0.15500000E+01 0.0000E+00 0.9000E+01
       21  1    1    2  503  502 -.97524158E+01 -.24343135E+02 -.35771845E+03 0.35867918E+03 0.75000000E+00 0.0000E+00 0.9000E+01
#aMCatNLO 2  0  0  2  4 0.26223994D+02 0.00000000D+00  -5  6  0 0.00000000D+00 0.00000000D+00 0.00000000D+00 0.00000000D+00 0.00000000D+00
  <mgrwgt>
 0.3279575475D-03    2    2    0
 0.904299232347187D+03 0.000000000000000D+00 0.000000000000000D+00 0.904299232347187D+03
 0.904299232347187D+03 0.000000000000000D+00 0.000000000000000D+00 -.904299232347187D+03
 0.649119077343421D+03 -.283385873791215D+03 0.467092708863996D+03 -.327486525574501D+03
 0.537153332178810D+03 0.278446375603322D+03 -.359842106564429D+03 -.285508277511261D+03
 0.622326055172142D+03 0.493949818789346D+01 -.107250602299567D+03 0.612994803085762D+03
 0.000000000000000D+00 -.000000000000000D+00 -.000000000000000D+00 -.000000000000000D+00
 0.905245545379285D+03 0.000000000000000D+00 0.000000000000000D+00 0.905245545379285D+03
 0.110635932216939D+04 0.000000000000000D+00 0.000000000000000D+00 -.110635932216939D+04
 0.653946134082588D+03 -.279872831480740D+03 0.475861660619615D+03 -.327486525574501D+03
 0.533867891764953D+03 0.281333831152084D+03 -.352634690266569D+03 -.285508277511261D+03
 0.620974547848208D+03 0.829141610017486D+01 -.988838353027826D+02 0.612994803085762D+03
 0.202816293852928D+03 -.975241577151878D+01 -.243431350502630D+02 -.201113776790108D+03
-.191377591035D-02 0.000000000000D+00 0.000000000000D+00 0.359644330735D-05 0.000000000000D+00  6 -3 1 25 2 -4 21 2 0.78442725D-01 0.30286229D+00 0.32638468D+06 0.32638468D+06 0.32638468D+06 0.10818538D+01  1  2 13  2  6  2        1 -.770856757083D-03 0.100000000000D+01
0.270803503830D-02 0.000000000000D+00 0.000000000000D+00 0.359644330735D-05 0.465985819788D-07  6 -3 1 25 2 -4 21 2 0.78524812D-01 0.30187627D+00 0.32638468D+06 0.32638468D+06 0.32638468D+06 0.10818538D+01  1  2  1  2  6  2        1 0.109881430461D-02 0.100000000000D+01
  </mgrwgt>
  </event>
  <event>
  6     66 -.16453327E-05 0.44863429E+02 0.75467711E-02 0.94058062E-01
       -3 -1    0    0    0  501 0.00000000E+00 0.00000000E+00 0.42159081E+03 0.42159111E+03 0.50000000E+00 0.0000E+00 0.9000E+01
        1 -1    0    0  502    0 -.00000000E+00 -.00000000E+00 -.95064564E+03 0.95064569E+03 0.32000000E+00 0.0000E+00 0.9000E+01
       25  1    1    2    0    0 0.38804806E+03 0.30752352E+03 -.74256801E+02 0.51603399E+03 0.12500000E+03 0.0000E+00 0.9000E+01
        2  1    1    2  503    0 0.19919045E+02 -.56545318E+02 -.31733550E+03 0.32294901E+03 0.32000000E+00 0.0000E+00 0.9000E+01
       -4  1    1    2    0  501 -.39033822E+03 -.22659387E+03 -.66557349E+02 0.45622472E+03 0.15500000E+01 0.0000E+00 0.9000E+01
       21  1    1    2  502  503 -.17628885E+02 -.24384327E+02 -.70905176E+02 0.77029082E+02 0.75000000E+00 0.0000E+00 0.9000E+01
#aMCatNLO 2  0  0  4  2 0.20559917D+02 0.00000000D+00  -5  6  0 0.00000000D+00 0.00000000D+00 0.00000000D+00 0.00000000D+00 0.00000000D+00
  <mgrwgt>
 -.2478871852D-02    3    2    0
 0.633074804961354D+03 0.000000000000000D+00 0.000000000000000D+00 0.633074804961354D+03
 0.633074804961354D+03 -.000000000000000D+00 -.000000000000000D+00 -.633074804961354D+03
 0.529021588050849D+03 0.387776691335047D+03 0.308100634145009D+03 0.137630220229896D+03
 0.270614832349021D+03 0.231343887637939D+01 -.822226848240255D+02 -.257810910529759D+03
 0.466513189522838D+03 -.390090130211426D+03 -.225877949320984D+03 0.120180690299862D+03
 0.000000000000000D+00 0.000000000000000D+00 -.000000000000000D+00 0.000000000000000D+00
 0.633074804961354D+03 0.000000000000000D+00 0.000000000000000D+00 0.633074804961354D+03
 0.633074804961354D+03 -.000000000000000D+00 -.000000000000000D+00 -.633074804961354D+03
 0.528143695466522D+03 0.387794693415160D+03 0.307460816350614D+03 0.135624058444992D+03
 0.217605409994568D+03 0.199837864037407D+02 -.565404459751102D+02 -.209179207161729D+03
 0.466320888123106D+03 -.390074245321844D+03 -.226442519356911D+03 0.118410469401194D+03
 0.540796163385128D+02 -.177042344970567D+02 -.244778510185933D+02 -.448553206844575D+02
-.120614757849D-02 0.000000000000D+00 0.000000000000D+00 0.613043717494D-06 0.000000000000D+00  6 -3 1 25 2 -4 21 2 0.64860152D-01 0.14625320D+00 0.27649047D+06 0.27649047D+06 0.27649047D+06 0.10871837D+01  1  2 13  3  6  4        2 -.388212659868D-02 0.100000000000D+01
-.171521273573D-04 0.000000000000D+00 0.000000000000D+00 0.613043717494D-06 0.000000000000D+00  6 -3 1 25 2 -4 21 2 0.64860152D-01 0.14625320D+00 0.27239398D+06 0.27239398D+06 0.27239398D+06 0.10876673D+01  1  2  8  3  6  4        2 -.552815380802D-04 0.100000000000D+01
0.453156269573D-03 0.000000000000D+00 0.000000000000D+00 0.613043717494D-06 0.153087299928D-08  6 -3 1 25 2 -4 21 2 0.64860152D-01 0.14625320D+00 0.27649047D+06 0.27649047D+06 0.27649047D+06 0.10871837D+01  1  2  1  3  6  4        2 0.145853628432D-02 0.100000000000D+01
  </mgrwgt>
  </event>
  <event>
  5     66 0.16453327E-05 0.51761326E+02 0.75467711E-02 0.92144977E-01
       -1 -1    0    0    0  501 0.00000000E+00 0.00000000E+00 0.15939574E+04 0.15939575E+04 0.32000000E+00 0.0000E+00 0.9000E+01
        3 -1    0    0  502    0 0.00000000E+00 0.00000000E+00 -.12795656E+04 0.12795657E+04 0.50000000E+00 0.0000E+00 0.9000E+01
       25  1    1    2    0    0 -.49728542E+03 0.28568084E+03 -.12172883E+03 0.59945746E+03 0.12500000E+03 0.0000E+00 0.9000E+01
        4  1    1    2  502    0 -.27736926E+02 0.43711513E+02 -.84726927E+03 0.84885078E+03 0.15500000E+01 0.0000E+00 0.9000E+01
       -2  1    1    2    0  501 0.52502235E+03 -.32939235E+03 0.12833899E+04 0.14252149E+04 0.32000000E+00 0.0000E+00 0.9000E+01
#aMCatNLO 1  0  0  5  2 0.35530843D+02 0.00000000D+00  -5  6  0 0.00000000D+00 0.00000000D+00 0.00000000D+00 0.00000000D+00 0.00000000D+00
  <mgrwgt>
 0.7158119638D-03    6    2    0
 0.142813629322068D+04 0.000000000000000D+00 0.000000000000000D+00 0.142813629322068D+04
 0.142813629322068D+04 -.000000000000000D+00 -.000000000000000D+00 -.142813629322068D+04
 0.616532723613750D+03 -.497303202787397D+03 0.285695145871469D+03 -.188561415484362D+03
 0.947148824124297D+03 -.277321858614973D+02 0.437053853655274D+02 -.945733398055410D+03
 0.129259103870332D+04 0.525035388648894D+03 -.329400531236996D+03 0.113429481353977D+04
 0.000000000000000D+00 0.000000000000000D+00 0.000000000000000D+00 0.000000000000000D+00
 0.142813629322068D+04 0.000000000000000D+00 0.000000000000000D+00 0.142813629322068D+04
 0.142813629322068D+04 -.000000000000000D+00 -.000000000000000D+00 -.142813629322068D+04
 0.613430698015623D+03 -.495534458545939D+03 0.284585458209733D+03 -.184740192262197D+03
 0.941137501285618D+03 -.250167428608699D+02 0.420017509319471D+02 -.939866911760075D+03
 0.125975832106421D+04 0.479334058848329D+03 -.320217533545558D+03 0.112012973299011D+04
 0.419460660759214D+02 0.412171425584804D+02 -.636967559612215D+01 0.447737103216106D+01
0.116046833302D+00 0.000000000000D+00 0.000000000000D+00 0.202602456138D-03 0.000000000000D+00  6 -1 3 25 4 -2 21 0 0.24522423D+00 0.19685626D+00 0.39599535D+06 0.39599535D+06 0.39599535D+06 0.10757428D+01  1  2  2  4  6  5       -2 0.593462412958D-03 0.100000000000D+01
0.561494430778D-01 0.000000000000D+00 -.445650395713D-03 0.202602456138D-03 0.000000000000D+00  6 -1 3 25 4 -2 21 2 0.24522423D+00 0.19685626D+00 0.39599535D+06 0.39599535D+06 0.39599535D+06 0.10757428D+01  1  2  3  4  6  5       -2 0.332293818241D-03 0.100000000000D+01
-.808311555149D-01 0.000000000000D+00 0.000000000000D+00 0.202602456138D-03 0.000000000000D+00  6 -1 3 25 4 -2 21 2 0.24522423D+00 0.19685626D+00 0.39599535D+06 0.39599535D+06 0.39599535D+06 0.10757428D+01  1  2 15  4  6  5       -2 -.478360814045D-03 0.100000000000D+01
-.192568272376D-01 0.000000000000D+00 0.000000000000D+00 0.202602456138D-03 0.000000000000D+00  6 -1 3 25 4 -2 21 2 0.24522423D+00 0.19685626D+00 0.39599535D+06 0.39599535D+06 0.39599535D+06 0.10757428D+01  1  2  4  4  6  5       -2 -.113962388569D-03 0.100000000000D+01
-.195929894928D+01 0.000000000000D+00 0.000000000000D+00 0.202602456138D-03 0.000000000000D+00  6 -1 3 25 4 -2 21 2 0.24522423D+00 0.19685626D+00 0.39599535D+06 0.39599535D+06 0.39599535D+06 0.10757428D+01  1  2  5  4  6  5       -2 -.115951805262D-01 0.100000000000D+01
0.202391153933D+01 0.000000000000D+00 -.000000000000D+00 0.202602456138D-03 0.000000000000D+00  6 -1 3 25 4 -2 21 2 0.24522423D+00 0.19685626D+00 0.39599535D+06 0.39599535D+06 0.39599535D+06 0.10757428D+01  1  2  6  4  6  5       -2 0.119775594614D-01 0.100000000000D+01
  </mgrwgt>
  </event>
  <event>
  5     66 -.16453327E-05 0.43392572E+02 0.75467711E-02 0.90964184E-01
       -3 -1    0    0    0  501 0.00000000E+00 0.00000000E+00 0.30643064E+03 0.30643105E+03 0.50000000E+00 0.0000E+00 0.9000E+01
        1 -1    0    0  502    0 0.00000000E+00 0.00000000E+00 -.33710886E+04 0.33710886E+04 0.32000000E+00 0.0000E+00 0.9000E+01
       25  1    1    2    0    0 -.31284780E+03 -.60116338E+03 -.12569941E+04 0.14335028E+04 0.12500000E+03 0.0000E+00 0.9000E+01
        2  1    1    2  502    0 0.27006452E+03 0.60874148E+03 -.19681389E+04 0.20777565E+04 0.32000000E+00 0.0000E+00 0.9000E+01
       -4  1    1    2    0  501 0.42783276E+02 -.75780964E+01 0.16047510E+03 0.16626033E+03 0.15500000E+01 0.0000E+00 0.9000E+01
#aMCatNLO 1  0  0  2  2 0.81902547D+03 0.00000000D+00  -5  6  0 0.00000000D+00 0.00000000D+00 0.00000000D+00 0.00000000D+00 0.00000000D+00
  <mgrwgt>
 -.1219807795D-03    1    2    0
 0.101636882961828D+04 0.000000000000000D+00 0.000000000000000D+00 0.101636882961828D+04
 0.101636882961828D+04 0.000000000000000D+00 0.000000000000000D+00 -.101636882961828D+04
 0.698718832330457D+03 -.313031154162821D+03 -.601630523005639D+03 -.112406480972808D+03
 0.791999240652578D+03 0.270303675434019D+03 0.609198736126583D+03 -.427873369284528D+03
 0.542019586253535D+03 0.427274787288016D+02 -.756821312094386D+01 0.540279850257336D+03
 0.000000000000000D+00 -.000000000000000D+00 0.000000000000000D+00 -.000000000000000D+00
 0.105001867199435D+04 0.000000000000000D+00 0.000000000000000D+00 0.105001867199435D+04
 0.128040296386212D+04 0.000000000000000D+00 0.000000000000000D+00 -.128040296386212D+04
 0.674508276999970D+03 -.253616768465240D+03 -.601979844787205D+03 -.112406480972808D+03
 0.818093503314717D+03 0.339966348599271D+03 0.608789160418393D+03 -.427873369284528D+03
 0.547760857048161D+03 0.898781904676476D+02 -.784543168397925D+01 0.540279850257336D+03
 0.290058998493624D+03 -.176227770601679D+03 0.103611605279078D+01 -.230384291867765D+03
-.104759670028D-02 0.000000000000D+00 0.000000000000D+00 0.122810164301D-04 0.000000000000D+00  6 -3 1 25 2 -4 21 2 0.47143208D-01 0.51862904D+00 0.48963895D+06 0.48963895D+06 0.48963895D+06 0.10691537D+01  1  2 14  2  6  2        1 -.121980779491D-03 0.100000000000D+01
  </mgrwgt>
  </event>
  <event>
  5     66 0.16453327E-05 0.58168750E+02 0.75467711E-02 0.93911089E-01
       -3 -1    0    0    0  501 0.00000000E+00 0.00000000E+00 0.16523767E+03 0.16523843E+03 0.50000000E+00 0.0000E+00 0.9000E+01
        1 -1    0    0  502    0 0.00000000E+00 0.00000000E+00 -.24712252E+04 0.24712253E+04 0.32000000E+00 0.0000E+00 0.9000E+01
       25  1    1    2    0    0 0.15370648E+03 0.47756401E+03 -.95240908E+03 0.10836979E+04 0.12500000E+03 0.0000E+00 0.9000E+01
        2  1    1    2  502    0 -.56012378E+02 -.15421481E+02 -.88674277E+03 0.88864394E+03 0.32000000E+00 0.0000E+00 0.9000E+01
       -4  1    1    2    0  501 -.97694101E+02 -.46214253E+03 -.46683572E+03 0.66412187E+03 0.15500000E+01 0.0000E+00 0.9000E+01
#aMCatNLO 1  0  0  1  5 0.16578699D+02 0.00000000D+00  -5  6  0 0.00000000D+00 0.00000000D+00 0.00000000D+00 0.00000000D+00 0.00000000D+00
  <mgrwgt>
 0.5613861446D-02    9    4    0
 0.639015287779662D+03 0.000000000000000D+00 0.000000000000000D+00 0.639015287779662D+03
 0.639015287779662D+03 0.000000000000000D+00 0.000000000000000D+00 -.639015287779662D+03
 0.516951142695632D+03 0.153731007556886D+03 0.477389914312520D+03 -.889555858554004D+01
 0.233613032968267D+03 -.560795991766561D+02 -.154493392448935D+02 -.226255266559067D+03
 0.527466399895426D+03 -.976514083802301D+02 -.461940575067626D+03 0.235150825144607D+03
 0.000000000000000D+00 0.000000000000000D+00 -.000000000000000D+00 0.000000000000000D+00
 0.656731351675979D+03 0.000000000000000D+00 0.000000000000000D+00 0.656731351675979D+03
 0.642959444778777D+03 0.000000000000000D+00 0.000000000000000D+00 -.642959444778777D+03
 0.517529367323791D+03 0.147535224484359D+03 0.479964449325536D+03 -.889555858554004D+01
 0.234227566209101D+03 -.588816228367924D+02 -.142850137777371D+02 -.226255266559067D+03
 0.526381167504960D+03 -.103963185988298D+03 -.459317840821427D+03 0.235150825144607D+03
 0.215526954169034D+02 0.153095843407323D+02 -.636159472637221D+01 0.137719068972023D+02
 0.639015287779662D+03 0.000000000000000D+00 0.000000000000000D+00 0.639015287779662D+03
 0.639015287779662D+03 0.000000000000000D+00 0.000000000000000D+00 -.639015287779662D+03
 0.516951142695632D+03 0.153731007556886D+03 0.477389914312520D+03 -.889555858554004D+01
 0.233613032968267D+03 -.560795991766561D+02 -.154493392448935D+02 -.226255266559067D+03
 0.000000000000000D+00 0.000000000000000D+00 -.000000000000000D+00 0.000000000000000D+00
 0.527466399895426D+03 -.976514083802301D+02 -.461940575067626D+03 0.235150825144607D+03
 0.656731351675979D+03 0.000000000000000D+00 0.000000000000000D+00 0.656731351675979D+03
 0.642959444778777D+03 0.000000000000000D+00 0.000000000000000D+00 -.642959444778777D+03
 0.517529367323791D+03 0.147535224484359D+03 0.479964449325536D+03 -.889555858554004D+01
 0.234227566209101D+03 -.588816228367924D+02 -.142850137777371D+02 -.226255266559067D+03
 0.215526954169034D+02 0.153095843407323D+02 -.636159472637221D+01 0.137719068972023D+02
 0.526381167504960D+03 -.103963185988298D+03 -.459317840821427D+03 0.235150825144607D+03
0.159978870896D-02 0.000000000000D+00 0.000000000000D+00 0.197768563221D-05 0.000000000000D+00  6 -3 1 25 2 -4 21 0 0.25421241D-01 0.38018856D+00 0.27415307D+06 0.27415307D+06 0.27415307D+06 0.10874587D+01  1  2  2  1  6  1       -3 0.262005858759D-02 0.100000000000D+01
0.378728222513D-03 0.000000000000D+00 -.614360987645D-05 0.197768563221D-05 0.000000000000D+00  6 -3 1 25 2 -4 21 2 0.25421241D-01 0.38018856D+00 0.27415307D+06 0.27415307D+06 0.27415307D+06 0.10874587D+01  1  2  3  1  6  1       -3 0.733502431807D-03 0.100000000000D+01
-.971056131564D-03 0.000000000000D+00 0.000000000000D+00 0.197768563221D-05 0.000000000000D+00  6 -3 1 25 2 -4 21 2 0.25421241D-01 0.38018856D+00 0.27415307D+06 0.27415307D+06 0.27415307D+06 0.10874587D+01  1  2 15  1  6  1       -3 -.188069436494D-02 0.100000000000D+01
0.479465303915D-02 0.000000000000D+00 0.000000000000D+00 0.197768563221D-05 0.000000000000D+00  6 -3 1 25 2 -4 21 2 0.26467021D-01 0.38018856D+00 0.28385336D+06 0.28385336D+06 0.28385336D+06 0.10863340D+01  1  2 12  1  6  1       -3 0.858520066517D-02 0.100000000000D+01
-.253815588767D-02 0.000000000000D+00 0.000000000000D+00 0.197768563221D-05 0.000000000000D+00  6 -3 1 25 2 -4 21 2 0.25421241D-01 0.38018856D+00 0.27415307D+06 0.27415307D+06 0.27415307D+06 0.10874587D+01  1  2  4  1  6  1       -3 -.491577708036D-02 0.100000000000D+01
-.935887909143D-01 0.000000000000D+00 -.111456242195D-01 0.197768563221D-05 0.000000000000D+00  6 -3 1 25 2 -4 21 2 0.26298652D-01 0.38018856D+00 0.27415307D+06 0.27415307D+06 0.27415307D+06 0.10874587D+01  1  2  5  1  6  1       -3 -.170213200929D+00 0.100000000000D+01
0.939193292218D-01 0.000000000000D+00 0.111392106294D-01 0.197768563221D-05 0.000000000000D+00  6 -3 1 25 2 -4 21 2 0.25421241D-01 0.38018856D+00 0.27415307D+06 0.27415307D+06 0.27415307D+06 0.10874587D+01  1  2  6  1  6  1       -3 0.181898396483D+00 0.100000000000D+01
0.175613340525D-03 0.000000000000D+00 0.000000000000D+00 0.197768563221D-05 0.000000000000D+00  6 21 1 25 2 3 -4 2 0.26467021D-01 0.38018856D+00 0.28385336D+06 0.28385336D+06 0.28385336D+06 0.10863340D+01  3  4 12  5  5  1       -3 0.497517557415D-02 0.100000000000D+01
-.561661558547D-03 0.000000000000D+00 -.674382048139D-04 0.197768563221D-05 0.000000000000D+00  6 21 1 25 2 3 -4 2 0.26298652D-01 0.38018856D+00 0.27415307D+06 0.27415307D+06 0.27415307D+06 0.10874587D+01  3  4  5  5  5  1       -3 -.161887999212D-01 0.100000000000D+01
  </mgrwgt>
  </event>
  <event>
  5     66 0.16453327E-05 0.67836884E+02 0.75467711E-02 0.92987554E-01
       -3 -1    0    0    0  501 0.00000000E+00 0.00000000E+00 0.44377709E+03 0.44377737E+03 0.50000000E+00 0.0000E+00 0.9000E+01
        1 -1    0    0  502    0 -.00000000E+00 -.00000000E+00 -.16021602E+04 0.16021602E+04 0.32000000E+00 0.0000E+00 0.9000E+01
       25  1    1    2    0    0 0.41296305E+02 0.49449508E+03 -.48362908E+03 0.70409719E+03 0.12500000E+03 0.0000E+00 0.9000E+01
        2  1    1    2  502    0 -.48912381E+02 -.46912729E+02 -.85615432E+03 0.85883267E+03 0.32000000E+00 0.0000E+00 0.9000E+01
       -4  1    1    2    0  501 0.76160757E+01 -.44758235E+03 0.18140033E+03 0.48300771E+03 0.15500000E+01 0.0000E+00 0.9000E+01
#aMCatNLO 1  0  0  4  2 0.22893775D+01 0.00000000D+00  -5  6  0 0.00000000D+00 0.00000000D+00 0.00000000D+00 0.00000000D+00 0.00000000D+00
  <mgrwgt>
 0.1065650878D-02    4    2    0
 0.843209517552235D+03 0.000000000000000D+00 0.000000000000000D+00 0.843209517552235D+03
 0.843209517552235D+03 -.000000000000000D+00 -.000000000000000D+00 -.843209517552235D+03
 0.521806778236521D+03 0.413413700402579D+02 0.494406388347224D+03 -.102520866647851D+03
 0.454250300613199D+03 -.489551329674885D+02 -.469599591433036D+02 -.449156423532578D+03
 0.710361956254749D+03 0.761376292723037D+01 -.447446429203920D+03 0.551677290180430D+03
 0.000000000000000D+00 0.000000000000000D+00 0.000000000000000D+00 0.000000000000000D+00
 0.843209517552235D+03 0.000000000000000D+00 0.000000000000000D+00 0.843209517552235D+03
 0.843209517552235D+03 -.000000000000000D+00 -.000000000000000D+00 -.843209517552235D+03
 0.542283738161016D+03 0.296211440314419D+02 0.483163821916247D+03 -.210052283233102D+03
 0.358494361233222D+03 0.168489757520051D+02 -.104112115932607D+03 -.342629517654506D+03
 0.622067153426660D+03 -.706202833821633D+01 -.461524106383936D+03 0.417028980233518D+03
 0.163573782283571D+03 -.394080914452309D+02 0.824724004002956D+02 0.135652820654090D+03
0.356352398959D-02 0.000000000000D+00 0.000000000000D+00 0.239136347764D-04 0.000000000000D+00  6 -3 1 25 2 -4 21 0 0.68273422D-01 0.24648620D+00 0.26367427D+06 0.26367427D+06 0.26367427D+06 0.10887235D+01  1  2  2  3  6  4        2 0.300228042065D-02 0.100000000000D+01
0.978449914338D-03 0.000000000000D+00 -.136848704175D-04 0.239136347764D-04 0.000000000000D+00  6 -3 1 25 2 -4 21 2 0.68273422D-01 0.24648620D+00 0.26367427D+06 0.26367427D+06 0.26367427D+06 0.10887235D+01  1  2  3  3  6  4        2 0.977114228385D-03 0.100000000000D+01
-.262316612322D-02 0.000000000000D+00 0.000000000000D+00 0.239136347764D-04 0.000000000000D+00  6 -3 1 25 2 -4 21 2 0.68273422D-01 0.24648620D+00 0.26367427D+06 0.26367427D+06 0.26367427D+06 0.10887235D+01  1  2 15  3  6  4        2 -.261958522849D-02 0.100000000000D+01
-.294560648734D-03 0.000000000000D+00 0.000000000000D+00 0.239136347764D-04 0.000000000000D+00  6 -3 1 25 2 -4 21 2 0.68273422D-01 0.24648620D+00 0.26367427D+06 0.26367427D+06 0.26367427D+06 0.10887235D+01  1  2  4  3  6  4        2 -.294158542795D-03 0.100000000000D+01
  </mgrwgt>
  </event>
  <event>
  5     66 0.16453327E-05 0.15615688E+03 0.75467711E-02 0.94661416E-01
       -3 -1    0    0    0  501 0.00000000E+00 0.00000000E+00 0.89056379E+03 0.89056393E+03 0.50000000E+00 0.0000E+00 0.9000E+01
        1 -1    0    0  502    0 0.00000000E+00 0.00000000E+00 -.13556808E+04 0.13556808E+04 0.32000000E+00 0.0000E+00 0.9000E+01
       25  1    1    2    0    0 -.35583189E+03 0.27656288E+03 -.37012454E+03 0.59642311E+03 0.12500000E+03 0.0000E+00 0.9000E+01
        2  1    1    2  502    0 0.35252423E+03 -.12040056E+03 -.82398615E+03 0.90428032E+03 0.32000000E+00 0.0000E+00 0.9000E+01
       -4  1    1    2    0  501 0.33076517E+01 -.15616232E+03 0.72899371E+03 0.74554130E+03 0.15500000E+01 0.0000E+00 0.9000E+01
#aMCatNLO 1  0  0  2  4 0.67709649D+01 0.00000000D+00  -5  6  0 0.00000000D+00 0.00000000D+00 0.00000000D+00 0.00000000D+00 0.00000000D+00
  <mgrwgt>
 0.8914113274D-02    9    2    0
 0.109878132840095D+04 0.000000000000000D+00 0.000000000000000D+00 0.109878132840095D+04
 0.109878132840095D+04 0.000000000000000D+00 0.000000000000000D+00 -.109878132840095D+04
 0.531368343268024D+03 -.356071033220440D+03 0.276641428175516D+03 -.251813930801582D+03
 0.750083452116841D+03 0.352764238422685D+03 -.120519560535960D+03 -.650889862233081D+03
 0.916110861417037D+03 0.330679479775501D+01 -.156121867639556D+03 0.902703793034663D+03
 0.000000000000000D+00 -.000000000000000D+00 0.000000000000000D+00 -.000000000000000D+00
 0.109892670805264D+04 0.000000000000000D+00 0.000000000000000D+00 0.109892670805264D+04
 0.118055848064201D+04 0.000000000000000D+00 0.000000000000000D+00 -.118055848064201D+04
 0.530054866251052D+03 -.355169455489142D+03 0.275277248203014D+03 -.251813930801582D+03
 0.750996086081599D+03 0.354039262251456D+03 -.122448802919938D+03 -.650889862233081D+03
 0.916522135538483D+03 0.486344165160201D+01 -.158477234668440D+03 0.902703793034663D+03
 0.819121008235142D+02 -.373324841391679D+01 0.564878938536410D+01 -.816317725893622D+02
0.374258414180D-03 0.000000000000D+00 0.000000000000D+00 0.237681988851D-04 0.000000000000D+00  6 -3 1 25 2 -4 21 0 0.13700983D+00 0.20856629D+00 0.24842892D+06 0.24842892D+06 0.24842892D+06 0.10906651D+01  1  2  2  2  6  2        1 0.756053593955D-04 0.100000000000D+01
0.550765736604D-04 0.000000000000D+00 -.143725085495D-05 0.237681988851D-04 0.000000000000D+00  6 -3 1 25 2 -4 21 2 0.13700983D+00 0.20856629D+00 0.24842892D+06 0.24842892D+06 0.24842892D+06 0.10906651D+01  1  2  3  2  6  2        1 0.132352084362D-04 0.100000000000D+01
-.232414394083D-03 0.000000000000D+00 0.000000000000D+00 0.237681988851D-04 0.000000000000D+00  6 -3 1 25 2 -4 21 2 0.13700983D+00 0.20856629D+00 0.24842892D+06 0.24842892D+06 0.24842892D+06 0.10906651D+01  1  2 15  2  6  2        1 -.558504777044D-04 0.100000000000D+01
0.242749358382D+00 0.000000000000D+00 0.000000000000D+00 0.237681988851D-04 0.000000000000D+00  6 -3 1 25 2 -4 21 2 0.13700983D+00 0.22440403D+00 0.25318991D+06 0.25318991D+06 0.25318991D+06 0.10900451D+01  1  2 12  2  6  2        1 0.495355056867D-01 0.100000000000D+01
-.208069270521D+00 0.000000000000D+00 0.000000000000D+00 0.237681988851D-04 0.000000000000D+00  6 -3 1 25 2 -4 21 2 0.13700983D+00 0.20856629D+00 0.24842892D+06 0.24842892D+06 0.24842892D+06 0.10906651D+01  1  2  4  2  6  2        1 -.500002084642D-01 0.100000000000D+01
-.271831184170D+00 0.000000000000D+00 -.116352297367D-02 0.237681988851D-04 0.000000000000D+00  6 -3 1 25 2 -4 21 2 0.13700983D+00 0.22410001D+00 0.24842892D+06 0.24842892D+06 0.24842892D+06 0.10906651D+01  1  2  5  2  6  2        1 -.557739166137D-01 0.100000000000D+01
0.271217672957D+00 0.000000000000D+00 0.116052732599D-02 0.237681988851D-04 0.000000000000D+00  6 -3 1 25 2 -4 21 2 0.13700983D+00 0.20856629D+00 0.24842892D+06 0.24842892D+06 0.24842892D+06 0.10906651D+01  1  2  6  2  6  2        1 0.651751224629D-01 0.100000000000D+01
0.357743105036D-02 0.000000000000D+00 0.000000000000D+00 0.237681988851D-04 0.000000000000D+00  6 -3 21 25 2 -4 -1 2 0.13700983D+00 0.22440403D+00 0.25318991D+06 0.25318991D+06 0.25318991D+06 0.10900451D+01  1  2 12  6  6  2        1 0.592568124353D-03 0.100000000000D+01
-.387998118698D-02 0.000000000000D+00 -.141154608669D-04 0.237681988851D-04 0.000000000000D+00  6 -3 21 25 2 -4 -1 2 0.13700983D+00 0.22410001D+00 0.24842892D+06 0.24842892D+06 0.24842892D+06 0.10906651D+01  1  2  5  6  6  2        1 -.647948011718D-03 0.100000000000D+01
  </mgrwgt>
  </event>
  <event>
  5     66 -.16453327E-05 0.27610018E+02 0.75467711E-02 0.93277894E-01
       -3 -1    0    0    0  501 0.00000000E+00 0.00000000E+00 0.43700784E+03 0.43700813E+03 0.50000000E+00 0.0000E+00 0.9000E+01
        1 -1    0    0  502    0 0.00000000E+00 0.00000000E+00 -.23706470E+04 0.23706470E+04 0.32000000E+00 0.0000E+00 0.9000E+01
       25  1    1    2    0    0 0.34077638E+03 0.41643161E+03 0.21209956E+02 0.55282791E+03 0.12500000E+03 0.0000E+00 0.9000E+01
        2  1    1    2  502    0 0.26473627E+02 -.77662964E+01 -.16011464E+04 0.16013841E+04 0.32000000E+00 0.0000E+00 0.9000E+01
       -4  1    1    2    0  501 -.36725001E+03 -.40866532E+03 -.35370270E+03 0.65344312E+03 0.15500000E+01 0.0000E+00 0.9000E+01
#aMCatNLO 1  0  0  1  1 0.11112002D+03 0.00000000D+00  -5  6  0 0.00000000D+00 0.00000000D+00 0.00000000D+00 0.00000000D+00 0.00000000D+00
  <mgrwgt>
 -.1387521612D-03    1    2    0
 0.101783680399128D+04 0.000000000000000D+00 0.000000000000000D+00 0.101783680399128D+04
 0.101783680399128D+04 0.000000000000000D+00 0.000000000000000D+00 -.101783680399128D+04
 0.782701625971311D+03 0.340318577711701D+03 0.415950437948095D+03 0.555126412750472D+03
 0.688376184606691D+03 0.264934082033162D+02 -.777254275843615D+01 -.687822257879539D+03
 0.564595797404564D+03 -.366811985915017D+03 -.408177895189659D+03 0.132695845129066D+03
 0.000000000000000D+00 0.000000000000000D+00 0.000000000000000D+00 0.000000000000000D+00
 0.325938820429381D+04 0.000000000000000D+00 0.000000000000000D+00 0.325938820429381D+04
 0.105959279820189D+04 0.000000000000000D+00 0.000000000000000D+00 -.105959279820189D+04
 0.688424712958651D+03 0.256766351762203D+03 0.290188373098788D+03 0.555126412750472D+03
 0.701334447381948D+03 -.524348345013795D+02 -.126574629293743D+03 -.687822257879539D+03
 0.689257174660095D+03 -.438024229253407D+03 -.515365928339134D+03 0.132695845129066D+03
 0.223996466749501D+04 0.233692711992584D+03 0.351752184534088D+03 0.219979540609191D+04
-.447818695161D-03 0.000000000000D+00 0.000000000000D+00 0.110354244996D-04 0.000000000000D+00  6 -3 1 25 2 -4 21 2 0.67232000D-01 0.36471494D+00 0.31818989D+06 0.31818989D+06 0.31818989D+06 0.10826655D+01  1  2 14  1  6  1       -3 -.138752161240D-03 0.100000000000D+01
  </mgrwgt>
  </event>
  <event>
  5     66 -.16453327E-05 0.53422375E+02 0.75467711E-02 0.89370662E-01
       -1 -1    0    0    0  501 0.00000000E+00 0.00000000E+00 0.80745746E+03 0.80745752E+03 0.32000000E+00 0.0000E+00 0.9000E+01
        3 -1    0    0  502    0 -.00000000E+00 -.00000000E+00 -.12045484E+04 0.12045485E+04 0.50000000E+00 0.0000E+00 0.9000E+01
       25  1    1    2    0    0 -.58639540E+03 -.50818286E+03 -.17760512E+03 0.80577787E+03 0.12500000E+03 0.0000E+00 0.9000E+01
        4  1    1    2  502    0 -.52700139E+02 0.88477367E+01 -.37637885E+03 0.38015659E+03 0.15500000E+01 0.0000E+00 0.9000E+01
       -2  1    1    2    0  501 0.63909554E+03 0.49933513E+03 0.15689305E+03 0.82607155E+03 0.32000000E+00 0.0000E+00 0.9000E+01
#aMCatNLO 1  0  0  5  4 0.79742265D+02 0.00000000D+00  -5  6  0 0.00000000D+00 0.00000000D+00 0.00000000D+00 0.00000000D+00 0.00000000D+00
  <mgrwgt>
 -.2187337747D-04    4    2    0
 0.986215869447678D+03 0.000000000000000D+00 0.000000000000000D+00 0.986215869447678D+03
 0.986215869447678D+03 -.000000000000000D+00 -.000000000000000D+00 -.986215869447678D+03
 0.786252055990309D+03 -.586449514236126D+03 -.508212786940209D+03 -.190794651828968D+02
 0.311895521656263D+03 -.526846489509781D+02 0.884748224540115D+01 -.307286293628698D+03
 0.874284161248782D+03 0.639134163187105D+03 0.499365304694808D+03 0.326365758811594D+03
 0.000000000000000D+00 0.000000000000000D+00 0.000000000000000D+00 0.000000000000000D+00
 0.986215869447678D+03 0.000000000000000D+00 0.000000000000000D+00 0.986215869447678D+03
 0.986215869447678D+03 -.000000000000000D+00 -.000000000000000D+00 -.986215869447678D+03
 0.778717935699283D+03 -.580480654655614D+03 -.503549225586768D+03 -.160315426989543D+02
 0.310366370957125D+03 -.503113166321245D+02 0.107018031138656D+02 -.306074381564269D+03
 0.209903772127021D+03 0.142429446312503D+03 0.154090102064442D+03 0.544856146482216D+01
 0.673443660111926D+03 0.488362524975236D+03 0.338757320408461D+03 0.316657362798401D+03
0.326539002475D-03 0.000000000000D+00 0.000000000000D+00 0.126968643657D-05 0.000000000000D+00  6 -1 3 25 4 -2 21 0 0.12422424D+00 0.18531515D+00 0.68106024D+06 0.68106024D+06 0.68106024D+06 0.10591521D+01  1  2  2  4  6  5       -2 0.199798068437D-04 0.100000000000D+01
0.117028696505D-03 0.000000000000D+00 -.125399574920D-05 0.126968643657D-05 0.000000000000D+00  6 -1 3 25 4 -2 21 2 0.12422424D+00 0.18531515D+00 0.68106024D+06 0.68106024D+06 0.68106024D+06 0.10591521D+01  1  2  3  4  6  5       -2 0.803276848623D-05 0.100000000000D+01
-.234843673198D-03 0.000000000000D+00 0.000000000000D+00 0.126968643657D-05 0.000000000000D+00  6 -1 3 25 4 -2 21 2 0.12422424D+00 0.18531515D+00 0.68106024D+06 0.68106024D+06 0.68106024D+06 0.10591521D+01  1  2 15  4  6  5       -2 -.161195066987D-04 0.100000000000D+01
-.491940378840D-03 0.000000000000D+00 0.000000000000D+00 0.126968643657D-05 0.000000000000D+00  6 -1 3 25 4 -2 21 2 0.12422424D+00 0.18531515D+00 0.68106024D+06 0.68106024D+06 0.68106024D+06 0.10591521D+01  1  2  5  4  6  5       -2 -.337664460963D-04 0.100000000000D+01
  </mgrwgt>
  </event>
  <event>
  5     66 0.16453327E-05 0.63719403E+02 0.75467711E-02 0.94744510E-01
       -3 -1    0    0    0  501 0.00000000E+00 0.00000000E+00 0.64134612E+03 0.64134631E+03 0.50000000E+00 0.0000E+00 0.9000E+01
        1 -1    0    0  502    0 -.00000000E+00 -.00000000E+00 -.13440254E+04 0.13440254E+04 0.32000000E+00 0.0000E+00 0.9000E+01
       25  1    1    2    0    0 -.43360868E+03 0.15340093E+03 -.11888407E+03 0.49122984E+03 0.12500000E+03 0.0000E+00 0.9000E+01
        2  1    1    2  502    0 -.68566275E+01 -.63297153E+02 -.92659047E+03 0.92877529E+03 0.32000000E+00 0.0000E+00 0.9000E+01
       -4  1    1    2    0  501 0.44046531E+03 -.90103780E+02 0.34279529E+03 0.56536659E+03 0.15500000E+01 0.0000E+00 0.9000E+01
#aMCatNLO 1  0  0  5  1 0.42048617D+02 0.00000000D+00  -5  6  0 0.00000000D+00 0.00000000D+00 0.00000000D+00 0.00000000D+00 0.00000000D+00
  <mgrwgt>
 0.9768537666D-03    6    2    0
 0.928431844445168D+03 0.000000000000000D+00 0.000000000000000D+00 0.928431844445168D+03
 0.928431844445168D+03 -.000000000000000D+00 -.000000000000000D+00 -.928431844445168D+03
 0.480154047473921D+03 -.433425702106453D+03 0.153416005659641D+03 0.594020139941252D+02
 0.642796756833902D+03 -.685907811145344D+01 -.633491548900903D+02 -.639630759280974D+03
 0.733912884582513D+03 0.440284780217906D+03 -.900668507695505D+02 0.580228745286849D+03
 0.000000000000000D+00 0.000000000000000D+00 -.000000000000000D+00 0.000000000000000D+00
 0.928431844445168D+03 0.000000000000000D+00 0.000000000000000D+00 0.928431844445168D+03
 0.928431844445168D+03 -.000000000000000D+00 -.000000000000000D+00 -.928431844445168D+03
 0.471755372981671D+03 -.422667908616844D+03 0.151215337763833D+03 0.735791586490942D+02
 0.624331782372500D+03 0.746109443505572D+01 -.662785608148245D+02 -.620758937854760D+03
 0.347930737675472D+03 0.205175722619419D+03 0.117685191934909D+03 0.255164489430330D+03
 0.412845795860693D+03 0.210031091562370D+03 -.202621968883918D+03 0.292015289775336D+03
0.223199798041D-02 0.000000000000D+00 0.000000000000D+00 0.562192611363D-04 0.000000000000D+00  6 -3 1 25 2 -4 21 0 0.98668652D-01 0.20677315D+00 0.24482084D+06 0.24482084D+06 0.24482084D+06 0.10911437D+01  1  2  2  4  6  5       -4 0.115715900151D-02 0.100000000000D+01
0.757581656341D-03 0.000000000000D+00 -.857145994333D-05 0.562192611363D-04 0.000000000000D+00  6 -3 1 25 2 -4 21 2 0.98668652D-01 0.20677315D+00 0.24482084D+06 0.24482084D+06 0.24482084D+06 0.10911437D+01  1  2  3  4  6  5       -4 0.467619498047D-03 0.100000000000D+01
-.155341487216D-02 0.000000000000D+00 0.000000000000D+00 0.562192611363D-04 0.000000000000D+00  6 -3 1 25 2 -4 21 2 0.98668652D-01 0.20677315D+00 0.24482084D+06 0.24482084D+06 0.24482084D+06 0.10911437D+01  1  2 15  4  6  5       -4 -.958849883308D-03 0.100000000000D+01
-.784189234835D-03 0.000000000000D+00 0.000000000000D+00 0.562192611363D-04 0.000000000000D+00  6 -3 1 25 2 -4 21 2 0.98668652D-01 0.20677315D+00 0.24482084D+06 0.24482084D+06 0.24482084D+06 0.10911437D+01  1  2  4  4  6  5       -4 -.484043103866D-03 0.100000000000D+01
-.189755703169D-02 0.000000000000D+00 0.000000000000D+00 0.562192611363D-04 0.000000000000D+00  6 -3 1 25 2 -4 21 2 0.98668652D-01 0.20677315D+00 0.24482084D+06 0.24482084D+06 0.24482084D+06 0.10911437D+01  1  2  5  4  6  5       -4 -.117127264005D-02 0.100000000000D+01
0.318547032287D-02 0.000000000000D+00 -.000000000000D+00 0.562192611363D-04 0.000000000000D+00  6 -3 1 25 2 -4 21 2 0.98668652D-01 0.20677315D+00 0.24482084D+06 0.24482084D+06 0.24482084D+06 0.10911437D+01  1  2  6  4  6  5       -4 0.196624089424D-02 0.100000000000D+01
  </mgrwgt>
  </event>
  <event>
  5     66 -.16453327E-05 0.60232709E+02 0.75467711E-02 0.93598582E-01
       -3 -1    0    0    0  501 0.00000000E+00 0.00000000E+00 0.39693496E+03 0.39693528E+03 0.50000000E+00 0.0000E+00 0.9000E+01
        1 -1    0    0  502    0 -.00000000E+00 -.00000000E+00 -.17053302E+04 0.17053302E+04 0.32000000E+00 0.0000E+00 0.9000E+01
       25  1    1    2    0    0 -.45321604E+03 0.19723417E+03 0.82343872E+02 0.51644129E+03 0.12500000E+03 0.0000E+00 0.9000E+01
        2  1    1    2  502    0 0.50011545E+03 -.15832269E+03 -.14231727E+04 0.15167736E+04 0.32000000E+00 0.0000E+00 0.9000E+01
       -4  1    1    2    0  501 -.46899412E+02 -.38911478E+02 0.32433532E+02 0.69050666E+02 0.15500000E+01 0.0000E+00 0.9000E+01
#aMCatNLO 1  0  0  5  1 0.10427072D+01 0.00000000D+00  -5  6  0 0.00000000D+00 0.00000000D+00 0.00000000D+00 0.00000000D+00 0.00000000D+00
  <mgrwgt>
 -.1387159029D-02    7    2    0
 0.822742697099501D+03 0.000000000000000D+00 0.000000000000000D+00 0.822742697099501D+03
 0.822742697099501D+03 -.000000000000000D+00 -.000000000000000D+00 -.822742697099501D+03
 0.726464895271669D+03 -.454156959022065D+03 0.196999435515672D+03 0.516777440529687D+03
 0.806345611048959D+03 0.500512200353333D+03 -.158539444972228D+03 -.612001655343579D+03
 0.112674887878374D+03 -.463552413312679D+02 -.384599905434435D+02 0.952242148138923D+02
 0.000000000000000D+00 0.000000000000000D+00 0.000000000000000D+00 0.000000000000000D+00
 0.822742697099501D+03 0.000000000000000D+00 0.000000000000000D+00 0.822742697099501D+03
 0.822742697099501D+03 -.000000000000000D+00 -.000000000000000D+00 -.822742697099501D+03
 0.726575336128434D+03 -.454216285914364D+03 0.196950213213052D+03 0.516899311467563D+03
 0.806212835876576D+03 0.500446360413571D+03 -.158594071016401D+03 -.611866405124032D+03
 0.110846400904783D+03 -.463881944506151D+02 -.382427769628970D+02 0.931265269368615D+02
 0.185082128920737D+01 0.158119951408049D+00 -.113365233754083D+00 0.184056671960726D+01
0.123794290245D-03 0.000000000000D+00 0.000000000000D+00 0.761231359156D-06 0.000000000000D+00  6 -3 1 25 2 -4 21 0 0.61066944D-01 0.26235852D+00 0.30021317D+06 0.30021317D+06 0.30021317D+06 0.10845290D+01  1  2  2  4  6  5       -4 0.113586082868D-03 0.100000000000D+01
0.184771607546D-04 0.000000000000D+00 -.475402670328D-06 0.761231359156D-06 0.000000000000D+00  6 -3 1 25 2 -4 21 2 0.61066944D-01 0.26235852D+00 0.30021317D+06 0.30021317D+06 0.30021317D+06 0.10845290D+01  1  2  3  4  6  5       -4 0.199407789519D-04 0.100000000000D+01
-.983190377384D-04 0.000000000000D+00 0.000000000000D+00 0.761231359156D-06 0.000000000000D+00  6 -3 1 25 2 -4 21 2 0.61066944D-01 0.26235852D+00 0.30021317D+06 0.30021317D+06 0.30021317D+06 0.10845290D+01  1  2 15  4  6  5       -4 -.106107113768D-03 0.100000000000D+01
-.333246105959D-01 0.000000000000D+00 0.000000000000D+00 0.761231359156D-06 0.000000000000D+00  6 -3 1 25 2 -4 21 2 0.61066944D-01 0.26235852D+00 0.30021317D+06 0.30021317D+06 0.30021317D+06 0.10845290D+01  1  2  4  4  6  5       -4 -.359643292807D-01 0.100000000000D+01
-.115381627471D-01 0.000000000000D+00 0.000000000000D+00 0.761231359156D-06 0.000000000000D+00  6 -3 1 25 2 -4 21 2 0.61066944D-01 0.26235852D+00 0.30021317D+06 0.30021317D+06 0.30021317D+06 0.10845290D+01  1  2  5  4  6  5       -4 -.124521270289D-01 0.100000000000D+01
0.119787493113D-01 0.000000000000D+00 -.000000000000D+00 0.761231359156D-06 0.000000000000D+00  6 -3 1 25 2 -4 21 2 0.61066944D-01 0.26235852D+00 0.30021317D+06 0.30021317D+06 0.30021317D+06 0.10845290D+01  1  2  6  4  6  5       -4 0.129276134633D-01 0.100000000000D+01
0.315737026634D-01 0.000000000000D+00 0.000000000000D+00 0.761231359156D-06 0.107452363224D-03  6 -3 1 25 2 -4 21 2 0.61066944D-01 0.26235852D+00 0.30025100D+06 0.30025100D+06 0.30025100D+06 0.10845250D+01  1  2 11  4  6  5       -4 0.340742640692D-01 0.100000000000D+01
  </mgrwgt>
  </event>
  <event>
  5     66 0.16453327E-05 0.10124019E+03 0.75467711E-02 0.92777995E-01
       -1 -1    0    0    0  501 0.00000000E+00 0.00000000E+00 0.12214061E+04 0.12214061E+04 0.32000000E+00 0.0000E+00 0.9000E+01
        3 -1    0    0  502    0 0.00000000E+00 0.00000000E+00 -.65951281E+03 0.65951300E+03 0.50000000E+00 0.0000E+00 0.9000E+01
       25  1    1    2    0    0 0.37978471E+03 0.30075511E+03 0.23966426E+03 0.55475582E+03 0.12500000E+03 0.0000E+00 0.9000E+01
        4  1    1    2  502    0 0.49097221E+02 0.88552739E+02 -.39298378E+03 0.40582111E+03 0.15500000E+01 0.0000E+00 0.9000E+01
       -2  1    1    2    0  501 -.42888194E+03 -.38930784E+03 0.71521278E+03 0.92034219E+03 0.32000000E+00 0.0000E+00 0.9000E+01
#aMCatNLO 1  0  0  2  2 0.21734262D+03 0.00000000D+00  -5  6  0 0.00000000D+00 0.00000000D+00 0.00000000D+00 0.00000000D+00 0.00000000D+00
  <mgrwgt>
 0.2216343007D-02    7    2    0
 0.897514997841073D+03 0.000000000000000D+00 0.000000000000000D+00 0.897514997841073D+03
 0.897514997841073D+03 0.000000000000000D+00 0.000000000000000D+00 -.897514997841073D+03
 0.506304043185324D+03 0.379811625569527D+03 0.300784566190752D+03 0.773986948822877D+02
 0.548192700098927D+03 0.490908174584292D+02 0.885418936348267D+02 -.538763084439324D+03
 0.740533252397894D+03 -.428902443027956D+03 -.389326459825578D+03 0.461364389557036D+03
 0.000000000000000D+00 0.000000000000000D+00 0.000000000000000D+00 -.000000000000000D+00
 0.928387278634811D+03 0.000000000000000D+00 0.000000000000000D+00 0.928387278634811D+03
 0.138971109966966D+04 0.000000000000000D+00 0.000000000000000D+00 -.138971109966966D+04
 0.461918603623931D+03 0.363053523707830D+03 0.244837450827541D+03 0.773986948822877D+02
 0.540221047384274D+03 0.302524350800551D+02 0.256497378956274D+02 -.538763084439324D+03
 0.806000414896543D+03 -.455670014324157D+03 -.478690303753779D+03 0.461364389557036D+03
 0.509958312399723D+03 0.623640555362712D+02 0.208203115030611D+03 -.461323821034848D+03
0.607043606295D-02 0.000000000000D+00 0.000000000000D+00 0.375020813653D-05 0.000000000000D+00  6 -1 3 25 4 -2 21 0 0.18790865D+00 0.10146353D+00 0.34859865D+06 0.34859865D+06 0.34859865D+06 0.10797605D+01  1  2  2  2  6  2        3 0.634747508265D-03 0.100000000000D+01
0.132646360613D-02 0.000000000000D+00 -.233120728642D-04 0.375020813653D-05 0.000000000000D+00  6 -1 3 25 4 -2 21 2 0.18790865D+00 0.10146353D+00 0.34859865D+06 0.34859865D+06 0.34859865D+06 0.10797605D+01  1  2  3  2  6  2        3 0.161707923934D-03 0.100000000000D+01
-.367042695669D-02 0.000000000000D+00 0.000000000000D+00 0.375020813653D-05 0.000000000000D+00  6 -1 3 25 4 -2 21 2 0.18790865D+00 0.10146353D+00 0.34859865D+06 0.34859865D+06 0.34859865D+06 0.10797605D+01  1  2 15  2  6  2        3 -.447458279575D-03 0.100000000000D+01
-.105608250865D-02 0.000000000000D+00 0.000000000000D+00 0.375020813653D-05 0.000000000000D+00  6 -1 3 25 4 -2 21 2 0.18790865D+00 0.10146353D+00 0.34859865D+06 0.34859865D+06 0.34859865D+06 0.10797605D+01  1  2  4  2  6  2        3 -.128746020010D-03 0.100000000000D+01
-.320389986701D-01 0.000000000000D+00 -.450006707913D-02 0.375020813653D-05 0.000000000000D+00  6 -1 3 25 4 -2 21 2 0.18790865D+00 0.15935992D+00 0.34859865D+06 0.34859865D+06 0.34859865D+06 0.10797605D+01  1  2  5  2  6  2        3 -.115234977822D-02 0.100000000000D+01
0.312537089410D-01 0.000000000000D+00 0.407742747697D-02 0.375020813653D-05 0.000000000000D+00  6 -1 3 25 4 -2 21 2 0.18790865D+00 0.10146353D+00 0.34859865D+06 0.34859865D+06 0.34859865D+06 0.10797605D+01  1  2  6  2  6  2        3 0.381011010383D-02 0.100000000000D+01
-.148922286403D-02 0.000000000000D+00 -.234424470437D-03 0.375020813653D-05 0.000000000000D+00  6 -1 21 25 4 -2 -3 2 0.18790865D+00 0.15935992D+00 0.34859865D+06 0.34859865D+06 0.34859865D+06 0.10797605D+01  1  2  5  6  6  2        3 -.661668451609D-03 0.100000000000D+01
  </mgrwgt>
  </event>
  <event>
  5     66 -.16453327E-05 0.11229247E+03 0.75467711E-02 0.93533754E-01
       -3 -1    0    0    0  501 0.00000000E+00 0.00000000E+00 0.13992139E+04 0.13992140E+04 0.50000000E+00 0.0000E+00 0.9000E+01
        1 -1    0    0  502    0 0.00000000E+00 0.00000000E+00 -.72278882E+03 0.72278889E+03 0.32000000E+00 0.0000E+00 0.9000E+01
       25  1    1    2    0    0 -.42796972E+03 -.28412953E+03 0.75536669E+03 0.92200407E+03 0.12500000E+03 0.0000E+00 0.9000E+01
        2  1    1    2  502    0 0.66126454E+01 0.11200826E+03 -.54034760E+03 0.55187427E+03 0.32000000E+00 0.0000E+00 0.9000E+01
       -4  1    1    2    0  501 0.42135707E+03 0.17212128E+03 0.46140597E+03 0.64812452E+03 0.15500000E+01 0.0000E+00 0.9000E+01
#aMCatNLO 1  0  0  2  4 0.97008657D+01 0.00000000D+00  -5  6  0 0.00000000D+00 0.00000000D+00 0.00000000D+00 0.00000000D+00 0.00000000D+00
  <mgrwgt>
 -.4619839464D-02   11    2    0
 0.100565218311244D+04 0.000000000000000D+00 0.000000000000000D+00 0.100565218311244D+04
 0.100565218311244D+04 0.000000000000000D+00 0.000000000000000D+00 -.100565218311244D+04
 0.718913930929981D+03 -.427406420699970D+03 -.283983531440332D+03 0.487739013715651D+03
 0.764493560146632D+03 0.662385364026778D+01 0.112096936967335D+03 -.756201563600054D+03
 0.527896875148274D+03 0.420782567059702D+03 0.171886594472997D+03 0.268462549884403D+03
 0.000000000000000D+00 0.000000000000000D+00 0.000000000000000D+00 -.000000000000000D+00
 0.100579658854146D+04 0.000000000000000D+00 0.000000000000000D+00 0.100579658854146D+04
 0.118294522133004D+04 0.000000000000000D+00 0.000000000000000D+00 -.118294522133004D+04
 0.721073754117351D+03 -.428970687495210D+03 -.287083894787676D+03 0.487739013715651D+03
 0.764005358057034D+03 0.496343659008451D+01 0.108806004640857D+03 -.756201563600054D+03
 0.526248648383385D+03 0.419637442794450D+03 0.169616968018645D+03 0.268462549884403D+03
 0.177414049313737D+03 0.436980811067537D+01 0.866092212817354D+01 -.177148632788579D+03
0.491688190358D-04 0.000000000000D+00 0.000000000000D+00 0.411650580995D-05 0.000000000000D+00  6 -3 1 25 2 -4 21 0 0.21526369D+00 0.11119829D+00 0.29974730D+06 0.29974730D+06 0.29974730D+06 0.10845789D+01  1  2  2  2  6  2        1 0.509490253332D-05 0.100000000000D+01
0.102725920408D-04 0.000000000000D+00 -.188821211545D-06 0.411650580995D-05 0.000000000000D+00  6 -3 1 25 2 -4 21 2 0.21526369D+00 0.11119829D+00 0.29974730D+06 0.29974730D+06 0.29974730D+06 0.10845789D+01  1  2  3  2  6  2        1 0.125212729191D-05 0.100000000000D+01
-.289844250515D-04 0.000000000000D+00 0.000000000000D+00 0.411650580995D-05 0.000000000000D+00  6 -3 1 25 2 -4 21 2 0.21526369D+00 0.11119829D+00 0.29974730D+06 0.29974730D+06 0.29974730D+06 0.10845789D+01  1  2 15  2  6  2        1 -.353291452665D-05 0.100000000000D+01
0.407676732964D-01 0.000000000000D+00 0.000000000000D+00 0.411650580995D-05 0.000000000000D+00  6 -3 1 25 2 -4 21 2 0.21526369D+00 0.13286158D+00 0.30378399D+06 0.30378399D+06 0.30378399D+06 0.10841494D+01  1  2 12  2  6  2        1 0.373651898371D-02 0.100000000000D+01
-.782675281174D-01 0.000000000000D+00 0.000000000000D+00 0.411650580995D-05 0.000000000000D+00  6 -3 1 25 2 -4 21 2 0.21526369D+00 0.11119829D+00 0.29974730D+06 0.29974730D+06 0.29974730D+06 0.10845789D+01  1  2  4  2  6  2        1 -.954003698746D-02 0.100000000000D+01
-.457299619970D-01 0.000000000000D+00 -.802108408829D-04 0.411650580995D-05 0.000000000000D+00  6 -3 1 25 2 -4 21 2 0.21526369D+00 0.13080969D+00 0.29974730D+06 0.29974730D+06 0.29974730D+06 0.10845789D+01  1  2  5  2  6  2        1 -.430780252214D-02 0.100000000000D+01
0.451471674107D-01 0.000000000000D+00 0.791642471846D-04 0.411650580995D-05 0.000000000000D+00  6 -3 1 25 2 -4 21 2 0.21526369D+00 0.11119829D+00 0.29974730D+06 0.29974730D+06 0.29974730D+06 0.10845789D+01  1  2  6  2  6  2        1 0.550299284182D-02 0.100000000000D+01
0.882034125855D-07 0.000000000000D+00 0.000000000000D+00 0.411650580995D-05 0.653468391524D-06  6 -3 1 25 2 -4 21 2 0.21529460D+00 0.13080217D+00 0.30378399D+06 0.30378399D+06 0.30378399D+06 0.10841494D+01  1  2 11  2  6  2        1 0.828774171821D-08 0.100000000000D+01
0.106579903888D-02 0.000000000000D+00 0.000000000000D+00 0.411650580995D-05 0.000000000000D+00  6 -3 21 25 2 -4 -1 2 0.21526369D+00 0.13286158D+00 0.30378399D+06 0.30378399D+06 0.30378399D+06 0.10841494D+01  1  2 12  6  6  2        1 0.155080104649D-03 0.100000000000D+01
-.111141649208D-02 0.000000000000D+00 -.195056212278D-05 0.411650580995D-05 0.000000000000D+00  6 -3 21 25 2 -4 -1 2 0.21526369D+00 0.13080969D+00 0.29974730D+06 0.29974730D+06 0.29974730D+06 0.10845789D+01  1  2  5  6  6  2        1 -.169414482959D-03 0.100000000000D+01
0.128386043314D-08 0.000000000000D+00 0.000000000000D+00 0.411650580995D-05 0.704039381394D-08  6 -3 21 25 2 -4 -1 2 0.21529460D+00 0.13080217D+00 0.30378399D+06 0.30378399D+06 0.30378399D+06 0.10841494D+01  1  2 11  6  6  2        1 0.195116677491D-09 0.100000000000D+01
  </mgrwgt>
  </event>
  <event>
  5     66 0.16453327E-05 0.23295154E+03 0.75467711E-02 0.94043005E-01
       -3 -1    0    0    0  501 0.00000000E+00 0.00000000E+00 0.34951691E+03 0.34951727E+03 0.50000000E+00 0.0000E+00 0.9000E+01
        1 -1    0    0  502    0 0.00000000E+00 0.00000000E+00 -.18496854E+04 0.18496854E+04 0.32000000E+00 0.0000E+00 0.9000E+01
       25  1    1    2    0    0 -.18439706E+03 0.41878830E+03 -.41445360E+03 0.62990690E+03 0.12500000E+03 0.0000E+00 0.9000E+01
        2  1    1    2  502    0 0.14523623E+03 -.18180874E+03 -.12543884E+04 0.12757893E+04 0.32000000E+00 0.0000E+00 0.9000E+01
       -4  1    1    2    0  501 0.39160830E+02 -.23697956E+03 0.16867354E+03 0.29350647E+03 0.15500000E+01 0.0000E+00 0.9000E+01
#aMCatNLO 1  0  0  2  1 0.12675072D+03 0.00000000D+00  -5  6  0 0.00000000D+00 0.00000000D+00 0.00000000D+00 0.00000000D+00 0.00000000D+00
  <mgrwgt>
 0.7121396456D-03    7    2    0
 0.804050218471577D+03 0.000000000000000D+00 0.000000000000000D+00 0.804050218471577D+03
 0.804050218471577D+03 0.000000000000000D+00 0.000000000000000D+00 -.804050218471577D+03
 0.474902425941764D+03 -.184510159262367D+03 0.418808316887411D+03 0.215153201296809D+02
 0.574902805326841D+03 0.145380741061116D+03 -.182018843409360D+03 -.525591872411580D+03
 0.558295205674549D+03 0.391294182012505D+02 -.236789473478051D+03 0.504076552281899D+03
 0.000000000000000D+00 -.000000000000000D+00 -.000000000000000D+00 -.000000000000000D+00
 0.839073147632350D+03 0.000000000000000D+00 0.000000000000000D+00 0.839073147632350D+03
 0.930015814161303D+03 0.000000000000000D+00 0.000000000000000D+00 -.930015814161303D+03
 0.497522745512066D+03 -.165186442988763D+03 0.451834496640419D+03 0.215153201296809D+02
 0.570089869017258D+03 0.168133662544320D+03 -.143131806145371D+03 -.525591872411580D+03
 0.545475343369321D+03 0.610631870371551D+02 -.199302450693255D+03 0.504076552281899D+03
 0.156001003895009D+03 -.640104065927115D+02 -.109400239801793D+03 -.909426665289535D+02
0.265404601462D-03 0.000000000000D+00 0.000000000000D+00 0.588665390114D-05 0.000000000000D+00  6 -3 1 25 2 -4 21 0 0.53771862D-01 0.28456701D+00 0.22437611D+06 0.22437611D+06 0.22437611D+06 0.10940098D+01  1  2  2  2  6  2        1 0.261122056424D-03 0.100000000000D+01
0.230258195666D-04 0.000000000000D+00 -.101922355225D-05 0.588665390114D-05 0.000000000000D+00  6 -3 1 25 2 -4 21 2 0.53771862D-01 0.28456701D+00 0.22437611D+06 0.22437611D+06 0.22437611D+06 0.10940098D+01  1  2  3  2  6  2        1 0.271139416846D-04 0.100000000000D+01
-.181035625811D-03 0.000000000000D+00 0.000000000000D+00 0.588665390114D-05 0.000000000000D+00  6 -3 1 25 2 -4 21 2 0.53771862D-01 0.28456701D+00 0.22437611D+06 0.22437611D+06 0.22437611D+06 0.10940098D+01  1  2 15  2  6  2        1 -.213177619450D-03 0.100000000000D+01
-.513639146729D-04 0.000000000000D+00 0.000000000000D+00 0.588665390114D-05 0.000000000000D+00  6 -3 1 25 2 -4 21 2 0.53771862D-01 0.28456701D+00 0.22437611D+06 0.22437611D+06 0.22437611D+06 0.10940098D+01  1  2  4  2  6  2        1 -.604833275578D-04 0.100000000000D+01
-.142483558392D-02 0.000000000000D+00 -.348932060673D-03 0.588665390114D-05 0.000000000000D+00  6 -3 1 25 2 -4 21 2 0.53771862D-01 0.33468105D+00 0.22437611D+06 0.22437611D+06 0.22437611D+06 0.10940098D+01  1  2  5  2  6  2        1 -.101933839402D-02 0.100000000000D+01
0.146663898221D-02 0.000000000000D+00 0.344391335121D-03 0.588665390114D-05 0.000000000000D+00  6 -3 1 25 2 -4 21 2 0.53771862D-01 0.28456701D+00 0.22437611D+06 0.22437611D+06 0.22437611D+06 0.10940098D+01  1  2  6  2  6  2        1 0.172703359032D-02 0.100000000000D+01
-.318264266936D-04 0.000000000000D+00 -.847616647248D-05 0.588665390114D-05 0.000000000000D+00  6 -3 21 25 2 -4 -1 2 0.53771862D-01 0.33468105D+00 0.22437611D+06 0.22437611D+06 0.22437611D+06 0.10940098D+01  1  2  5  6  6  2        1 -.101306018164D-04 0.100000000000D+01
  </mgrwgt>
  </event>
  <event>
  5     66 0.16453327E-05 0.11441632E+03 0.75467711E-02 0.91456861E-01
       -3 -1    0    0    0  501 0.00000000E+00 0.00000000E+00 0.62709171E+03 0.62709191E+03 0.50000000E+00 0.0000E+00 0.9000E+01
        1 -1    0    0  502    0 0.00000000E+00 0.00000000E+00 -.35046663E+04 0.35046663E+04 0.32000000E+00 0.0000E+00 0.9000E+01
       25  1    1    2    0    0 -.52257478E+03 -.20264482E+03 -.72000457E+03 0.92096738E+03 0.12500000E+03 0.0000E+00 0.9000E+01
        2  1    1    2  502    0 0.10745636E+03 -.39122640E+02 -.25730877E+04 0.25756277E+04 0.32000000E+00 0.0000E+00 0.9000E+01
       -4  1    1    2    0  501 0.41511842E+03 0.24176746E+03 0.41551774E+03 0.63516313E+03 0.15500000E+01 0.0000E+00 0.9000E+01
#aMCatNLO 1  0  0  2  1 0.12675072D+03 0.00000000D+00  -5  6  0 0.00000000D+00 0.00000000D+00 0.00000000D+00 0.00000000D+00 0.00000000D+00
  <mgrwgt>
 0.2382803380D-01    7    2    0
 0.148248022600428D+04 0.000000000000000D+00 0.000000000000000D+00 0.148248022600428D+04
 0.148248022600428D+04 0.000000000000000D+00 0.000000000000000D+00 -.148248022600428D+04
 0.584501440045404D+03 -.522571129825749D+03 -.202591836274470D+03 -.109054553149926D+03
 0.109225888942294D+04 0.107513408828384D+03 -.391402712691463D+02 -.108624968934887D+04
 0.128820012254022D+04 0.415057720997365D+03 0.241732107543617D+03 0.119530424249880D+04
 0.000000000000000D+00 -.000000000000000D+00 -.000000000000000D+00 -.000000000000000D+00
 0.153524379664540D+04 0.000000000000000D+00 0.000000000000000D+00 0.153524379664540D+04
 0.155314363820851D+04 0.000000000000000D+00 0.000000000000000D+00 -.155314363820851D+04
 0.566451859025503D+03 -.509660426169364D+03 -.183292288510948D+03 -.109054553149926D+03
 0.109424822097623D+04 0.132040333915380D+03 -.247623073292876D+01 -.108624968934887D+04
 0.130667487084820D+04 0.444165472017364D+03 0.285243789482141D+03 0.119530424249880D+04
 0.121012484003976D+03 -.665453797633796D+02 -.994752702382634D+02 -.178998415631165D+02
0.335239397527D+00 0.000000000000D+00 0.000000000000D+00 0.127487747269D-03 0.000000000000D+00  6 -3 1 25 2 -4 21 0 0.96475664D-01 0.53917944D+00 0.34162513D+06 0.34162513D+06 0.34162513D+06 0.10804016D+01  1  2  2  2  6  2        1 0.530539475614D-02 0.100000000000D+01
0.831045010823D-01 0.000000000000D+00 -.128740755706D-02 0.127487747269D-03 0.000000000000D+00  6 -3 1 25 2 -4 21 2 0.96475664D-01 0.53917944D+00 0.34162513D+06 0.34162513D+06 0.34162513D+06 0.10804016D+01  1  2  3  2  6  2        1 0.153517399287D-02 0.100000000000D+01
-.204596333936D+00 0.000000000000D+00 0.000000000000D+00 0.127487747269D-03 0.000000000000D+00  6 -3 1 25 2 -4 21 2 0.96475664D-01 0.53917944D+00 0.34162513D+06 0.34162513D+06 0.34162513D+06 0.10804016D+01  1  2 15  2  6  2        1 -.377947002635D-02 0.100000000000D+01
-.973264883350D-02 0.000000000000D+00 0.000000000000D+00 0.127487747269D-03 0.000000000000D+00  6 -3 1 25 2 -4 21 2 0.96475664D-01 0.53917944D+00 0.34162513D+06 0.34162513D+06 0.34162513D+06 0.10804016D+01  1  2  4  2  6  2        1 -.179789411841D-03 0.100000000000D+01
-.339305610542D+01 0.000000000000D+00 -.774378489817D+00 0.127487747269D-03 0.000000000000D+00  6 -3 1 25 2 -4 21 2 0.96475664D-01 0.57011626D+00 0.34162513D+06 0.34162513D+06 0.34162513D+06 0.10804016D+01  1  2  5  2  6  2        1 -.424230257144D-01 0.100000000000D+01
0.343270844944D+01 0.000000000000D+00 0.780604083954D+00 0.127487747269D-03 0.000000000000D+00  6 -3 1 25 2 -4 21 2 0.96475664D-01 0.53917944D+00 0.34162513D+06 0.34162513D+06 0.34162513D+06 0.10804016D+01  1  2  6  2  6  2        1 0.634117847775D-01 0.100000000000D+01
-.318637612940D-01 0.000000000000D+00 -.746429056843D-02 0.127487747269D-03 0.000000000000D+00  6 -3 21 25 2 -4 -1 2 0.96475664D-01 0.57011626D+00 0.34162513D+06 0.34162513D+06 0.34162513D+06 0.10804016D+01  1  2  5  6  6  2        1 -.420345707877D-04 0.100000000000D+01
  </mgrwgt>
  </event>
  <event>
  5     66 -.16453327E-05 0.20098030E+03 0.75467711E-02 0.94763041E-01
       -3 -1    0    0    0  501 0.00000000E+00 0.00000000E+00 0.57759894E+03 0.57759915E+03 0.50000000E+00 0.0000E+00 0.9000E+01
        1 -1    0    0  502    0 -.00000000E+00 -.00000000E+00 -.14799479E+04 0.14799479E+04 0.32000000E+00 0.0000E+00 0.9000E+01
       25  1    1    2    0    0 -.42078440E+02 -.46343210E+03 -.97106745E+03 0.10840373E+04 0.12500000E+03 0.0000E+00 0.9000E+01
        2  1    1    2  502    0 0.12242072E+03 0.27913707E+03 -.37684735E+03 0.48468378E+03 0.32000000E+00 0.0000E+00 0.9000E+01
       -4  1    1    2    0  501 -.80342284E+02 0.18429503E+03 0.44556583E+03 0.48882600E+03 0.15500000E+01 0.0000E+00 0.9000E+01
#aMCatNLO 1  0  0  5  1 0.15949941D+02 0.00000000D+00  -5  6  0 0.00000000D+00 0.00000000D+00 0.00000000D+00 0.00000000D+00 0.00000000D+00
  <mgrwgt>
 -.2837885152D-02    7    2    0
 0.924562920820697D+03 0.000000000000000D+00 0.000000000000000D+00 0.924562920820697D+03
 0.924562920820697D+03 -.000000000000000D+00 -.000000000000000D+00 -.924562920820697D+03
 0.732304178363179D+03 -.421606088191774D+02 -.463695468758614D+03 -.551228995032823D+03
 0.355718994528650D+03 0.122476593087899D+03 0.279460768269024D+03 -.182858322787182D+03
 0.761102668749566D+03 -.803159842687218D+02 0.184234700489589D+03 0.734087317820005D+03
 0.000000000000000D+00 0.000000000000000D+00 0.000000000000000D+00 0.000000000000000D+00
 0.924562920820697D+03 0.000000000000000D+00 0.000000000000000D+00 0.924562920820697D+03
 0.924562920820697D+03 -.000000000000000D+00 -.000000000000000D+00 -.924562920820697D+03
 0.731938949729600D+03 -.422047493054467D+02 -.463594216070978D+03 -.550825551416117D+03
 0.355649551766410D+03 0.122455148456917D+03 0.279509959537762D+03 -.182662319067839D+03
 0.611112661220429D+03 -.704560793636996D+02 0.162047143645768D+03 0.585008845079165D+03
 0.150424678924955D+03 -.979431978777078D+01 0.220371128874478D+02 0.148479025404791D+03
0.199213906612D-04 0.000000000000D+00 0.000000000000D+00 0.102168865355D-05 0.000000000000D+00  6 -3 1 25 2 -4 21 0 0.88861394D-01 0.22768431D+00 0.24413321D+06 0.24413321D+06 0.24413321D+06 0.10912358D+01  1  2  2  4  6  5       -4 0.108885373589D-04 0.100000000000D+01
0.155040361392D-05 0.000000000000D+00 -.765033855617D-07 0.102168865355D-05 0.000000000000D+00  6 -3 1 25 2 -4 21 2 0.88861394D-01 0.22768431D+00 0.24413321D+06 0.24413321D+06 0.24413321D+06 0.10912358D+01  1  2  3  4  6  5       -4 0.100909460690D-05 0.100000000000D+01
-.131494220792D-04 0.000000000000D+00 0.000000000000D+00 0.102168865355D-05 0.000000000000D+00  6 -3 1 25 2 -4 21 2 0.88861394D-01 0.22768431D+00 0.24413321D+06 0.24413321D+06 0.24413321D+06 0.10912358D+01  1  2 15  4  6  5       -4 -.855842361620D-05 0.100000000000D+01
0.242090079716D-02 0.000000000000D+00 0.000000000000D+00 0.102168865355D-05 0.000000000000D+00  6 -3 1 25 2 -4 21 2 0.88861394D-01 0.22768431D+00 0.24402427D+06 0.24402427D+06 0.24402427D+06 0.10912504D+01  1  2 12  4  6  5       -4 0.157574498556D-02 0.100000000000D+01
-.735880780742D-02 0.000000000000D+00 0.000000000000D+00 0.102168865355D-05 0.000000000000D+00  6 -3 1 25 2 -4 21 2 0.88861394D-01 0.22768431D+00 0.24413321D+06 0.24413321D+06 0.24413321D+06 0.10912358D+01  1  2  4  4  6  5       -4 -.478954847954D-02 0.100000000000D+01
-.264154521959D-02 0.000000000000D+00 0.000000000000D+00 0.102168865355D-05 0.000000000000D+00  6 -3 1 25 2 -4 21 2 0.88861394D-01 0.22768431D+00 0.24413321D+06 0.24413321D+06 0.24413321D+06 0.10912358D+01  1  2  5  4  6  5       -4 -.171927426578D-02 0.100000000000D+01
0.321398712061D-02 0.000000000000D+00 -.000000000000D+00 0.102168865355D-05 0.000000000000D+00  6 -3 1 25 2 -4 21 2 0.88861394D-01 0.22768431D+00 0.24413321D+06 0.24413321D+06 0.24413321D+06 0.10912358D+01  1  2  6  4  6  5       -4 0.209185339931D-02 0.100000000000D+01
  </mgrwgt>
  </event>
  <event>
  5     66 -.16453327E-05 0.15255918E+03 0.75467711E-02 0.94487255E-01
       -1 -1    0    0    0  501 0.00000000E+00 0.00000000E+00 0.77476569E+03 0.77476576E+03 0.32000000E+00 0.0000E+00 0.9000E+01
        3 -1    0    0  502    0 0.00000000E+00 0.00000000E+00 -.64625628E+03 0.64625647E+03 0.50000000E+00 0.0000E+00 0.9000E+01
       25  1    1    2    0    0 0.39048573E+03 -.28710110E+03 0.38321643E+02 0.50199571E+03 0.12500000E+03 0.0000E+00 0.9000E+01
        4  1    1    2  502    0 -.63273097E+02 0.13882691E+03 -.33158284E+03 0.36500134E+03 0.15500000E+01 0.0000E+00 0.9000E+01
       -2  1    1    2    0  501 -.32721263E+03 0.14827419E+03 0.42177061E+03 0.55402518E+03 0.32000000E+00 0.0000E+00 0.9000E+01
#aMCatNLO 1  0  0  4  2 0.54455712D+01 0.00000000D+00  -5  6  0 0.00000000D+00 0.00000000D+00 0.00000000D+00 0.00000000D+00 0.00000000D+00
  <mgrwgt>
 -.9260380106D-03    8    2    0
 0.707599729253854D+03 0.000000000000000D+00 0.000000000000000D+00 0.707599729253854D+03
 0.707599729253854D+03 -.000000000000000D+00 -.000000000000000D+00 -.707599729253854D+03
 0.500587655777394D+03 0.390494117009377D+03 -.287099973565340D+03 -.713798827083770D+01
 0.396588938529482D+03 -.632702258428328D+02 0.138820682184205D+03 -.366071690907191D+03
 0.518022864200832D+03 -.327223891166545D+03 0.148279291381135D+03 0.373209679178029D+03
 0.000000000000000D+00 0.000000000000000D+00 0.000000000000000D+00 -.000000000000000D+00
 0.707599729253854D+03 0.000000000000000D+00 0.000000000000000D+00 0.707599729253854D+03
 0.707599729253854D+03 -.000000000000000D+00 -.000000000000000D+00 -.707599729253854D+03
 0.500558452842561D+03 0.390479182572332D+03 -.287067206039840D+03 -.722439660191663D+01
 0.329023214437029D+03 -.536760743646485D+02 0.120051069573946D+03 -.301600555989918D+03
 0.517977919229973D+03 -.327239345542630D+03 0.148313199700608D+03 0.373120262560492D+03
 0.676398719981460D+02 -.956376266505284D+01 0.187029367652864D+02 -.642953099686580D+02
0.976061471573D-05 0.000000000000D+00 0.000000000000D+00 0.155185478623D-05 0.000000000000D+00  6 -1 3 25 4 -2 21 0 0.11919474D+00 0.99424062D-01 0.25621225D+06 0.25621225D+06 0.25621225D+06 0.10896581D+01  1  2  2  3  6  4        4 0.409307385627D-05 0.100000000000D+01
0.969550014516D-06 0.000000000000D+00 -.374833305373D-07 0.155185478623D-05 0.000000000000D+00  6 -1 3 25 4 -2 21 2 0.11919474D+00 0.99424062D-01 0.25621225D+06 0.25621225D+06 0.25621225D+06 0.10896581D+01  1  2  3  3  6  4        4 0.482750921018D-06 0.100000000000D+01
-.563127773432D-05 0.000000000000D+00 0.000000000000D+00 0.155185478623D-05 0.000000000000D+00  6 -1 3 25 4 -2 21 2 0.11919474D+00 0.99424062D-01 0.25621225D+06 0.25621225D+06 0.25621225D+06 0.10896581D+01  1  2 15  3  6  4        4 -.280388270027D-05 0.100000000000D+01
0.175632326660D-02 0.000000000000D+00 0.000000000000D+00 0.155185478623D-05 0.000000000000D+00  6 -1 3 25 4 -2 21 2 0.11919474D+00 0.99424062D-01 0.25618646D+06 0.25618646D+06 0.25618646D+06 0.10896614D+01  1  2 12  3  6  4        4 0.874504302622D-03 0.100000000000D+01
-.617895029001D-02 0.000000000000D+00 0.000000000000D+00 0.155185478623D-05 0.000000000000D+00  6 -1 3 25 4 -2 21 2 0.11919474D+00 0.99424062D-01 0.25621225D+06 0.25621225D+06 0.25621225D+06 0.10896581D+01  1  2  4  3  6  4        4 -.307657562660D-02 0.100000000000D+01
-.306303911818D-02 0.000000000000D+00 0.000000000000D+00 0.155185478623D-05 0.000000000000D+00  6 -1 3 25 4 -2 21 2 0.11919474D+00 0.99424062D-01 0.25621225D+06 0.25621225D+06 0.25621225D+06 0.10896581D+01  1  2  5  3  6  4        4 -.152512498920D-02 0.100000000000D+01
0.362923521383D-02 0.000000000000D+00 -.000000000000D+00 0.155185478623D-05 0.000000000000D+00  6 -1 3 25 4 -2 21 2 0.11919474D+00 0.99424062D-01 0.25621225D+06 0.25621225D+06 0.25621225D+06 0.10896581D+01  1  2  6  3  6  4        4 0.180704101473D-02 0.100000000000D+01
0.199299101689D-02 0.000000000000D+00 0.000000000000D+00 0.155185478623D-05 0.363274397790D-06  6 -1 3 25 4 -2 21 2 0.11919474D+00 0.99424062D-01 0.25618646D+06 0.25618646D+06 0.25618646D+06 0.10896614D+01  1  2 11  3  6  4        4 0.992345345812D-03 0.100000000000D+01
  </mgrwgt>
  </event>
  <event>
  5     66 0.16453327E-05 0.29094888E+02 0.75467711E-02 0.93085888E-01
       -3 -1    0    0    0  501 0.00000000E+00 0.00000000E+00 0.96885228E+03 0.96885240E+03 0.50000000E+00 0.0000E+00 0.9000E+01
        1 -1    0    0  502    0 0.00000000E+00 0.00000000E+00 -.16863099E+04 0.16863099E+04 0.32000000E+00 0.0000E+00 0.9000E+01
       25  1    1    2    0    0 0.50979382E+03 0.95671841E+02 -.73886239E+03 0.91136463E+03 0.12500000E+03 0.0000E+00 0.9000E+01
        2  1    1    2  502    0 -.21783731E+01 -.28998547E+02 -.78665841E+03 0.78719580E+03 0.32000000E+00 0.0000E+00 0.9000E+01
       -4  1    1    2    0  501 -.50761545E+03 -.66673294E+02 0.80806316E+03 0.95660193E+03 0.15500000E+01 0.0000E+00 0.9000E+01
#aMCatNLO 1  0  0  2  2 0.71222602D+02 0.00000000D+00  -5  6  0 0.00000000D+00 0.00000000D+00 0.00000000D+00 0.00000000D+00 0.00000000D+00
  <mgrwgt>
 0.6109375318D-02    7    2    0
 0.127819615507790D+04 0.000000000000000D+00 0.000000000000000D+00 0.127819615507790D+04
 0.127819615507790D+04 0.000000000000000D+00 0.000000000000000D+00 -.127819615507790D+04
 0.738954067557186D+03 0.509774587653641D+03 0.956835711443731D+02 -.511275501031421D+03
 0.597143822229756D+03 -.218041000571714D+01 -.290130713320107D+02 -.596434599877684D+03
 0.122029442036886D+04 -.507594177647924D+03 -.666704998123625D+02 0.110771010090911D+04
 0.000000000000000D+00 0.000000000000000D+00 -.000000000000000D+00 -.000000000000000D+00
 0.128222901964667D+04 0.000000000000000D+00 0.000000000000000D+00 0.128222901964667D+04
 0.163724629348359D+04 0.000000000000000D+00 0.000000000000000D+00 -.163724629348359D+04
 0.731708147114251D+03 0.496056192737529D+03 0.110893770091862D+03 -.511275501031421D+03
 0.596815971453536D+03 -.133177138680906D+02 -.166646436536105D+02 -.596434599877684D+03
 0.122886015105078D+04 -.530439987709647D+03 -.413403268380279D+02 0.110771010090911D+04
 0.362091043511689D+03 0.477015088402077D+02 -.528887996002240D+02 -.355017273836920D+03
0.302917043982D-02 0.000000000000D+00 0.000000000000D+00 0.384045544233D-03 0.000000000000D+00  6 -3 1 25 2 -4 21 0 0.14905421D+00 0.25943231D+00 0.28867799D+06 0.28867799D+06 0.28867799D+06 0.10857901D+01  1  2  2  2  6  2        1 0.277082282656D-03 0.100000000000D+01
0.157972972516D-02 0.000000000000D+00 -.116328120878D-04 0.384045544233D-03 0.000000000000D+00  6 -3 1 25 2 -4 21 2 0.14905421D+00 0.25943231D+00 0.28867799D+06 0.28867799D+06 0.28867799D+06 0.10857901D+01  1  2  3  2  6  2        1 0.170356857036D-03 0.100000000000D+01
-.261234599355D-02 0.000000000000D+00 0.000000000000D+00 0.384045544233D-03 0.000000000000D+00  6 -3 1 25 2 -4 21 2 0.14905421D+00 0.25943231D+00 0.28867799D+06 0.28867799D+06 0.28867799D+06 0.10857901D+01  1  2 15  2  6  2        1 -.281713413291D-03 0.100000000000D+01
-.122655351707D-02 0.000000000000D+00 0.000000000000D+00 0.384045544233D-03 0.000000000000D+00  6 -3 1 25 2 -4 21 2 0.14905421D+00 0.25943231D+00 0.28867799D+06 0.28867799D+06 0.28867799D+06 0.10857901D+01  1  2  4  2  6  2        1 -.132270602260D-03 0.100000000000D+01
-.115676936073D+00 0.000000000000D+00 -.285483394569D-02 0.384045544233D-03 0.000000000000D+00  6 -3 1 25 2 -4 21 2 0.14905421D+00 0.33261885D+00 0.28867799D+06 0.28867799D+06 0.28867799D+06 0.10857901D+01  1  2  5  2  6  2        1 -.601733763813D-02 0.100000000000D+01
0.112966312605D+00 0.000000000000D+00 0.276889922243D-02 0.384045544233D-03 0.000000000000D+00  6 -3 1 25 2 -4 21 2 0.14905421D+00 0.25943231D+00 0.28867799D+06 0.28867799D+06 0.28867799D+06 0.10857901D+01  1  2  6  2  6  2        1 0.121822015879D-01 0.100000000000D+01
-.385017398161D-02 0.000000000000D+00 -.961890391242D-04 0.384045544233D-03 0.000000000000D+00  6 -3 21 25 2 -4 -1 2 0.14905421D+00 0.33261885D+00 0.28867799D+06 0.28867799D+06 0.28867799D+06 0.10857901D+01  1  2  5  6  6  2        1 -.889437562306D-04 0.100000000000D+01
  </mgrwgt>
  </event>
  <event>
  6     66 -.16453327E-05 0.91109090E+02 0.75467711E-02 0.94109615E-01
       -3 -1    0    0    0  501 0.00000000E+00 0.00000000E+00 0.37560451E+03 0.37560484E+03 0.50000000E+00 0.0000E+00 0.9000E+01
        1 -1    0    0  502    0 -.00000000E+00 -.00000000E+00 -.85025585E+03 0.85025591E+03 0.32000000E+00 0.0000E+00 0.9000E+01
       25  1    1    2    0    0 -.21823811E+03 0.40737747E+03 -.32200089E+03 0.57696954E+03 0.12500000E+03 0.0000E+00 0.9000E+01
        2  1    1    2  503    0 -.75499709E+02 -.59149232E+02 -.61193236E+02 0.11376973E+03 0.32000000E+00 0.0000E+00 0.9000E+01
       -4  1    1    2    0  501 0.29443737E+03 -.35748942E+03 -.20535734E+02 0.46359052E+03 0.15500000E+01 0.0000E+00 0.9000E+01
       21  1    1    2  502  503 -.69955192E+00 0.92611807E+01 -.70921481E+02 0.71530957E+02 0.75000000E+00 0.0000E+00 0.9000E+01
#aMCatNLO 2  0  0  4  2 0.41706423D+02 0.00000000D+00  -5  6  0 0.00000000D+00 0.00000000D+00 0.00000000D+00 0.00000000D+00 0.00000000D+00
  <mgrwgt>
 -.1409320451D-03    3    2    0
 0.565119609036846D+03 0.000000000000000D+00 0.000000000000000D+00 0.565119609036846D+03
 0.565119609036846D+03 -.000000000000000D+00 -.000000000000000D+00 -.565119609036846D+03
 0.489866870378784D+03 -.208208743656454D+03 0.413924997507917D+03 -.982841095893741D+02
 0.141783936990981D+03 -.962842467172163D+02 -.630829735900209D+02 -.827802335452208D+02
 0.498588410703927D+03 0.304492990373670D+03 -.350842023917896D+03 0.181064343134595D+03
 0.000000000000000D+00 0.000000000000000D+00 0.000000000000000D+00 -.000000000000000D+00
 0.565119609036846D+03 0.000000000000000D+00 0.000000000000000D+00 0.565119609036846D+03
 0.565119609036846D+03 -.000000000000000D+00 -.000000000000000D+00 -.565119609036846D+03
 0.490527546125797D+03 -.218215395813938D+03 0.407368895182797D+03 -.106887313445091D+03
 0.974598676130320D+02 -.753114117331639D+02 -.591139899299009D+02 -.182250720842239D+02
 0.494111427462276D+03 0.294360739709966D+03 -.357480415168992D+03 0.172353156155654D+03
 0.481403768725859D+02 -.833932162863517D+00 0.922550991609549D+01 -.472407706263389D+02
-.442491549595D-04 0.000000000000D+00 0.000000000000D+00 0.342870742901D-07 0.000000000000D+00  6 -3 1 25 2 -4 21 2 0.57785340D-01 0.13080862D+00 0.27395875D+06 0.27395875D+06 0.27395875D+06 0.10874816D+01  1  2 13  3  6  4        2 -.221718064446D-03 0.100000000000D+01
-.144986349020D-05 0.000000000000D+00 0.000000000000D+00 0.342870742901D-07 0.000000000000D+00  6 -3 1 25 2 -4 21 2 0.57785340D-01 0.13080862D+00 0.28066925D+06 0.28066925D+06 0.28066925D+06 0.10866985D+01  1  2  8  3  6  4        2 -.724967188183D-05 0.100000000000D+01
0.175696326388D-04 0.000000000000D+00 0.000000000000D+00 0.342870742901D-07 0.643811186303D-09  6 -3 1 25 2 -4 21 2 0.57785340D-01 0.13080862D+00 0.27395875D+06 0.27395875D+06 0.27395875D+06 0.10874816D+01  1  2  1  3  6  4        2 0.880356911958D-04 0.100000000000D+01
  </mgrwgt>
  </event>
  <event>
  6     66 0.16453327E-05 0.37568502E+02 0.75467711E-02 0.92954258E-01
       -3 -1    0    0    0  501 0.00000000E+00 0.00000000E+00 0.12419863E+04 0.12419864E+04 0.50000000E+00 0.0000E+00 0.9000E+01
        1 -1    0    0  503    0 0.00000000E+00 0.00000000E+00 -.12493907E+04 0.12493907E+04 0.32000000E+00 0.0000E+00 0.9000E+01
       25  1    1    2    0    0 -.55427682E+03 0.34841252E+02 -.37357631E+03 0.68089717E+03 0.12500000E+03 0.0000E+00 0.9000E+01
        2  1    1    2  502    0 0.52686978E+03 -.77417959E+02 -.35627535E+03 0.64071642E+03 0.32000000E+00 0.0000E+00 0.9000E+01
       -4  1    1    2    0  501 -.63928158E+01 0.13094358E+02 0.94379872E+03 0.94391248E+03 0.15500000E+01 0.0000E+00 0.9000E+01
       21  1    1    2  503  502 0.33799859E+02 0.29482348E+02 -.22135151E+03 0.22585105E+03 0.75000000E+00 0.0000E+00 0.9000E+01
#aMCatNLO 2  0  0  2  1 0.44851303D+02 0.00000000D+00  -5  6  0 0.00000000D+00 0.00000000D+00 0.00000000D+00 0.00000000D+00 0.00000000D+00
  <mgrwgt>
 0.2230258625D-01    1    2    0
 0.112747764654581D+04 0.000000000000000D+00 0.000000000000000D+00 0.112747764654581D+04
 0.112747764654581D+04 0.000000000000000D+00 0.000000000000000D+00 -.112747764654581D+04
 0.711843501095074D+03 -.543914828146374D+03 0.442388427865207D+02 -.439654130610304D+03
 0.684598357361569D+03 0.537439730293456D+03 -.685497566300811D+02 -.418490594960283D+03
 0.858513434634969D+03 0.647509785291708D+01 0.243109138435604D+02 0.858144725570587D+03
 0.000000000000000D+00 0.000000000000000D+00 0.000000000000000D+00 -.000000000000000D+00
 0.112974653502467D+04 0.000000000000000D+00 0.000000000000000D+00 0.112974653502467D+04
 0.137351580154110D+04 0.000000000000000D+00 0.000000000000000D+00 -.137351580154110D+04
 0.719558716156895D+03 -.554641517361339D+03 0.348823544757046D+02 -.439654130610304D+03
 0.677574251158839D+03 0.527231836207063D+03 -.774537194263687D+02 -.418490594960283D+03
 0.858268330277344D+03 -.639017804241302D+01 0.130890166562957D+02 0.858144725570587D+03
 0.247861038972697D+03 0.337998591966887D+02 0.294823482943684D+02 -.243769266516430D+03
0.271301183092D+00 0.000000000000D+00 0.000000000000D+00 0.616920379847D-04 0.291519194487D-06  6 -3 1 25 2 -4 21 2 0.19107473D+00 0.19221387D+00 0.33751998D+06 0.33751998D+06 0.33751998D+06 0.10807857D+01  1  2  1  2  6  2        1 0.223025862495D-01 0.100000000000D+01
  </mgrwgt>
  </event>
  <event>
  5     66 0.16453327E-05 0.81515651E+02 0.75467711E-02 0.94052825E-01
       -3 -1    0    0    0  501 0.00000000E+00 0.00000000E+00 0.25467424E+03 0.25467473E+03 0.50000000E+00 0.0000E+00 0.9000E+01
        1 -1    0    0  502    0 0.00000000E+00 0.00000000E+00 -.16472773E+04 0.16472773E+04 0.32000000E+00 0.0000E+00 0.9000E+01
       25  1    1    2    0    0 0.28965851E+02 0.45682208E+03 -.36084118E+03 0.59611810E+03 0.12500000E+03 0.0000E+00 0.9000E+01
        2  1    1    2  502    0 0.69144890E+02 -.42981690E+02 -.83194691E+03 0.83592117E+03 0.32000000E+00 0.0000E+00 0.9000E+01
       -4  1    1    2    0  501 -.98110741E+02 -.41384039E+03 -.19981494E+03 0.46991275E+03 0.15500000E+01 0.0000E+00 0.9000E+01
#aMCatNLO 1  0  0  2  2 0.86263049D+02 0.00000000D+00  -5  6  0 0.00000000D+00 0.00000000D+00 0.00000000D+00 0.00000000D+00 0.00000000D+00
  <mgrwgt>
 0.1835371305D-02    7    2    0
 0.647703306736322D+03 0.000000000000000D+00 0.000000000000000D+00 0.647703306736322D+03
 0.647703306736322D+03 0.000000000000000D+00 0.000000000000000D+00 -.647703306736322D+03
 0.487211637779467D+03 0.288091796181170D+02 0.456556291305535D+03 0.111698540844619D+03
 0.333444394404781D+03 0.692234055916485D+02 -.430455745475574D+02 -.323327021435166D+03
 0.474750581288396D+03 -.980325852097655D+02 -.413510716757978D+03 0.211628480590546D+03
 0.000000000000000D+00 0.000000000000000D+00 -.000000000000000D+00 -.000000000000000D+00
 0.652964888468449D+03 0.000000000000000D+00 0.000000000000000D+00 0.652964888468449D+03
 0.113523458797341D+04 0.000000000000000D+00 0.000000000000000D+00 -.113523458797341D+04
 0.501376892602679D+03 0.664652827099417D-01 0.472522189946110D+03 0.111698540844619D+03
 0.328761236268017D+03 0.499701099193138D+02 -.323508237451656D+02 -.323327021435166D+03
 0.468137499739232D+03 -.125446581964068D+03 -.398282889336924D+03 0.211628480590546D+03
 0.489923847831935D+03 0.754100067620447D+02 -.418884768640208D+02 -.482269699504966D+03
0.414501967603D-04 0.000000000000D+00 0.000000000000D+00 0.205609516975D-05 0.000000000000D+00  6 -3 1 25 2 -4 21 0 0.39180692D-01 0.25342731D+00 0.24045429D+06 0.24045429D+06 0.24045429D+06 0.10917333D+01  1  2  2  2  6  2        1 0.106221317051D-03 0.100000000000D+01
0.792736796298D-05 0.000000000000D+00 -.159179669647D-06 0.205609516975D-05 0.000000000000D+00  6 -3 1 25 2 -4 21 2 0.39180692D-01 0.25342731D+00 0.24045429D+06 0.24045429D+06 0.24045429D+06 0.10917333D+01  1  2  3  2  6  2        1 0.242129243492D-04 0.100000000000D+01
-.299618152127D-04 0.000000000000D+00 0.000000000000D+00 0.205609516975D-05 0.000000000000D+00  6 -3 1 25 2 -4 21 2 0.39180692D-01 0.25342731D+00 0.24045429D+06 0.24045429D+06 0.24045429D+06 0.10917333D+01  1  2 15  2  6  2        1 -.915137493930D-04 0.100000000000D+01
-.235933122454D-04 0.000000000000D+00 0.000000000000D+00 0.205609516975D-05 0.000000000000D+00  6 -3 1 25 2 -4 21 2 0.39180692D-01 0.25342731D+00 0.24045429D+06 0.24045429D+06 0.24045429D+06 0.10917333D+01  1  2  4  2  6  2        1 -.720621380530D-04 0.100000000000D+01
-.834561233352D-03 0.000000000000D+00 -.227017518738D-04 0.205609516975D-05 0.000000000000D+00  6 -3 1 25 2 -4 21 2 0.39180692D-01 0.44492630D+00 0.24045429D+06 0.24045429D+06 0.24045429D+06 0.10917333D+01  1  2  5  2  6  2        1 -.360493066630D-03 0.100000000000D+01
0.731552193869D-03 0.000000000000D+00 0.195264514664D-04 0.205609516975D-05 0.000000000000D+00  6 -3 1 25 2 -4 21 2 0.39180692D-01 0.25342731D+00 0.24045429D+06 0.24045429D+06 0.24045429D+06 0.10917333D+01  1  2  6  2  6  2        1 0.223441349139D-02 0.100000000000D+01
-.506777396356D-04 0.000000000000D+00 -.141007077435D-05 0.205609516975D-05 0.000000000000D+00  6 -3 21 25 2 -4 -1 2 0.39180692D-01 0.44492630D+00 0.24045429D+06 0.24045429D+06 0.24045429D+06 0.10917333D+01  1  2  5  6  6  2        1 -.540747410732D-05 0.100000000000D+01
  </mgrwgt>
  </event>
  <event>
  5     66 -.16453327E-05 0.23756841E+02 0.75467711E-02 0.94553159E-01
       -3 -1    0    0    0  501 0.00000000E+00 0.00000000E+00 0.44926647E+03 0.44926675E+03 0.50000000E+00 0.0000E+00 0.9000E+01
        1 -1    0    0  502    0 0.00000000E+00 0.00000000E+00 -.28080348E+04 0.28080348E+04 0.32000000E+00 0.0000E+00 0.9000E+01
       25  1    1    2    0    0 -.25617601E+03 0.41975085E+03 -.61928966E+03 0.80060078E+03 0.12500000E+03 0.0000E+00 0.9000E+01
        2  1    1    2  502    0 0.11168795E+02 -.20949556E+02 -.19452628E+04 0.19454077E+04 0.32000000E+00 0.0000E+00 0.9000E+01
       -4  1    1    2    0  501 0.24500721E+03 -.39880130E+03 0.20578420E+03 0.51129302E+03 0.15500000E+01 0.0000E+00 0.9000E+01
#aMCatNLO 1  0  0  1  5 0.99131393D+01 0.00000000D+00  -5  6  0 0.00000000D+00 0.00000000D+00 0.00000000D+00 0.00000000D+00 0.00000000D+00
  <mgrwgt>
 -.1354913784D-01   11    4    0
 0.112319025062422D+04 0.000000000000000D+00 0.000000000000000D+00 0.112319025062422D+04
 0.112319025062422D+04 0.000000000000000D+00 0.000000000000000D+00 -.112319025062422D+04
 0.510473109624436D+03 -.256130131440587D+03 0.419678003088860D+03 -.567937068803867D+02
 0.778651572832083D+03 0.111763599058607D+02 -.209636946825657D+02 -.778289075060409D+03
 0.957255818791913D+03 0.244953771534726D+03 -.398714308406295D+03 0.835082781940796D+03
 0.000000000000000D+00 0.000000000000000D+00 -.000000000000000D+00 0.000000000000000D+00
 0.120566058294802D+04 0.000000000000000D+00 0.000000000000000D+00 0.120566058294802D+04
 0.112349912260380D+04 0.000000000000000D+00 0.000000000000000D+00 -.112349912260380D+04
 0.511623312587743D+03 -.258385271043904D+03 0.419696247957506D+03 -.567937068803867D+02
 0.778609087134053D+03 0.774044122866067D+01 -.209358968979628D+02 -.778289075060409D+03
 0.956169974457667D+03 0.240732014965980D+03 -.398680152918121D+03 0.835082781940796D+03
 0.827573313723517D+02 0.991281484926419D+01 -.801981414218947D-01 0.821614603442244D+02
 0.112319025062422D+04 0.000000000000000D+00 0.000000000000000D+00 0.112319025062422D+04
 0.112319025062422D+04 0.000000000000000D+00 0.000000000000000D+00 -.112319025062422D+04
 0.510473109624436D+03 -.256130131440587D+03 0.419678003088860D+03 -.567937068803867D+02
 0.778651572832083D+03 0.111763599058607D+02 -.209636946825657D+02 -.778289075060409D+03
 0.000000000000000D+00 0.000000000000000D+00 -.000000000000000D+00 0.000000000000000D+00
 0.957255818791913D+03 0.244953771534726D+03 -.398714308406295D+03 0.835082781940796D+03
 0.120566058294802D+04 0.000000000000000D+00 0.000000000000000D+00 0.120566058294802D+04
 0.112349912260380D+04 0.000000000000000D+00 0.000000000000000D+00 -.112349912260380D+04
 0.511623312587743D+03 -.258385271043904D+03 0.419696247957506D+03 -.567937068803867D+02
 0.778609087134053D+03 0.774044122866067D+01 -.209358968979628D+02 -.778289075060409D+03
 0.827573313723517D+02 0.991281484926419D+01 -.801981414218947D-01 0.821614603442244D+02
 0.956169974457667D+03 0.240732014965980D+03 -.398680152918121D+03 0.835082781940796D+03
0.106014934524D-02 0.000000000000D+00 0.000000000000D+00 0.422581003402D-03 0.000000000000D+00  6 -3 1 25 2 -4 21 0 0.69117941D-01 0.43200537D+00 0.24950469D+06 0.24950469D+06 0.24950469D+06 0.10905239D+01  1  2  2  1  6  1       -3 0.132113373490D-03 0.100000000000D+01
0.772153587905D-03 0.000000000000D+00 -.407125262945D-05 0.422581003402D-03 0.000000000000D+00  6 -3 1 25 2 -4 21 2 0.69117941D-01 0.43200537D+00 0.24950469D+06 0.24950469D+06 0.24950469D+06 0.10905239D+01  1  2  3  1  6  1       -3 0.114433665462D-03 0.100000000000D+01
-.670441131777D-03 0.000000000000D+00 0.000000000000D+00 0.422581003402D-03 0.000000000000D+00  6 -3 1 25 2 -4 21 2 0.69117941D-01 0.43200537D+00 0.24950469D+06 0.24950469D+06 0.24950469D+06 0.10905239D+01  1  2 15  1  6  1       -3 -.993598131093D-04 0.100000000000D+01
0.356636760093D+00 0.000000000000D+00 0.000000000000D+00 0.422581003402D-03 0.000000000000D+00  6 -3 1 25 2 -4 21 2 0.74372699D-01 0.43200537D+00 0.25321943D+06 0.25321943D+06 0.25321943D+06 0.10900413D+01  1  2 12  1  6  1       -3 0.445470811361D-01 0.100000000000D+01
-.447184152378D+00 0.000000000000D+00 0.000000000000D+00 0.422581003402D-03 0.000000000000D+00  6 -3 1 25 2 -4 21 2 0.69117941D-01 0.43200537D+00 0.24950469D+06 0.24950469D+06 0.24950469D+06 0.10905239D+01  1  2  4  1  6  1       -3 -.662729831149D-01 0.100000000000D+01
-.378963806618D+00 0.000000000000D+00 -.344183929090D-02 0.422581003402D-03 0.000000000000D+00  6 -3 1 25 2 -4 21 2 0.74202177D-01 0.43200537D+00 0.24950469D+06 0.24950469D+06 0.24950469D+06 0.10905239D+01  1  2  5  1  6  1       -3 -.476852481353D-01 0.100000000000D+01
0.378263503846D+00 0.000000000000D+00 0.343318739105D-02 0.422581003402D-03 0.000000000000D+00  6 -3 1 25 2 -4 21 2 0.69117941D-01 0.43200537D+00 0.24950469D+06 0.24950469D+06 0.24950469D+06 0.10905239D+01  1  2  6  1  6  1       -3 0.560588980401D-01 0.100000000000D+01
0.399750167296D-08 0.000000000000D+00 0.000000000000D+00 0.422581003402D-03 0.345869308283D-04  6 -3 1 25 2 -4 21 2 0.74192931D-01 0.43212417D+00 0.25321943D+06 0.25321943D+06 0.25321943D+06 0.10900413D+01  1  2 11  1  6  1       -3 0.501506074764D-09 0.100000000000D+01
0.532209983291D-02 0.000000000000D+00 0.000000000000D+00 0.422581003402D-03 0.000000000000D+00  6 21 1 25 2 3 -4 2 0.74372699D-01 0.43200537D+00 0.25321943D+06 0.25321943D+06 0.25321943D+06 0.10900413D+01  3  4 12  5  5  1       -3 0.983651918111D-02 0.100000000000D+01
-.546429750750D-02 0.000000000000D+00 -.413071825715D-04 0.422581003402D-03 0.000000000000D+00  6 21 1 25 2 3 -4 2 0.74202177D-01 0.43200537D+00 0.24950469D+06 0.24950469D+06 0.24950469D+06 0.10905239D+01  3  4  5  5  5  1       -3 -.101805927477D-01 0.100000000000D+01
0.398093289490D-10 0.000000000000D+00 0.000000000000D+00 0.422581003402D-03 0.335474607814D-06  6 21 1 25 2 3 -4 2 0.74192931D-01 0.43212417D+00 0.25321943D+06 0.25321943D+06 0.25321943D+06 0.10900413D+01  3  4 11  5  5  1       -3 0.739067185207D-10 0.100000000000D+01
  </mgrwgt>
  </event>
  <event>
  5     66 0.16453327E-05 0.61406263E+02 0.75467711E-02 0.92069568E-01
       -3 -1    0    0    0  501 0.00000000E+00 0.00000000E+00 0.37636934E+03 0.37636968E+03 0.50000000E+00 0.0000E+00 0.9000E+01
        1 -1    0    0  502    0 -.00000000E+00 -.00000000E+00 -.31969646E+04 0.31969646E+04 0.32000000E+00 0.0000E+00 0.9000E+01
       25  1    1    2    0    0 -.58458669E+03 -.13885789E+02 -.17330759E+04 0.18333334E+04 0.12500000E+03 0.0000E+00 0.9000E+01
        2  1    1    2  502    0 -.64631771E+01 0.61030554E+02 -.11428491E+04 0.11444958E+04 0.32000000E+00 0.0000E+00 0.9000E+01
       -4  1    1    2    0  501 0.59104986E+03 -.47144765E+02 0.55329666E+02 0.59550512E+03 0.15500000E+01 0.0000E+00 0.9000E+01
#aMCatNLO 1  0  0  5  1 0.29422959D+02 0.00000000D+00  -5  6  0 0.00000000D+00 0.00000000D+00 0.00000000D+00 0.00000000D+00 0.00000000D+00
  <mgrwgt>
 0.4210345509D-02    7    2    0
 0.109692301088515D+04 0.000000000000000D+00 0.000000000000000D+00 0.109692301088515D+04
 0.109692301088515D+04 -.000000000000000D+00 -.000000000000000D+00 -.109692301088515D+04
 0.757721707736628D+03 -.584556700812169D+03 -.139231609826822D+02 -.465421094815388D+03
 0.395086934975516D+03 -.646127882576889D+01 0.610653829658797D+02 -.390285737719832D+03
 0.104103737905816D+04 0.591017979637938D+03 -.471422219831976D+02 0.855706832535220D+03
 0.000000000000000D+00 0.000000000000000D+00 0.000000000000000D+00 0.000000000000000D+00
 0.109692301088515D+04 0.000000000000000D+00 0.000000000000000D+00 0.109692301088515D+04
 0.109692301088515D+04 -.000000000000000D+00 -.000000000000000D+00 -.109692301088515D+04
 0.754366732139614D+03 -.582534239361024D+03 -.140844815007834D+02 -.462492869039002D+03
 0.393549387275091D+03 -.540645523300690D+01 0.609812455459089D+02 -.388758508791875D+03
 0.997173807769665D+03 0.559928466782320D+03 -.738426702251579D+02 0.821816874396402D+03
 0.487560945859331D+02 0.280122278117117D+02 0.269459061800323D+02 0.294345034344750D+02
0.723587161554D-02 0.000000000000D+00 0.000000000000D+00 0.182639630781D-04 0.000000000000D+00  6 -3 1 25 2 -4 21 0 0.57903003D-01 0.49184074D+00 0.39202354D+06 0.39202354D+06 0.39202354D+06 0.10760588D+01  1  2  2  4  6  5       -4 0.663266787212D-03 0.100000000000D+01
0.192493679869D-02 0.000000000000D+00 -.277876522524D-04 0.182639630781D-04 0.000000000000D+00  6 -3 1 25 2 -4 21 2 0.57903003D-01 0.49184074D+00 0.39202354D+06 0.39202354D+06 0.39202354D+06 0.10760588D+01  1  2  3  4  6  5       -4 0.204308244094D-03 0.100000000000D+01
-.501234984808D-02 0.000000000000D+00 0.000000000000D+00 0.182639630781D-04 0.000000000000D+00  6 -3 1 25 2 -4 21 2 0.57903003D-01 0.49184074D+00 0.39202354D+06 0.39202354D+06 0.39202354D+06 0.10760588D+01  1  2 15  4  6  5       -4 -.531998971054D-03 0.100000000000D+01
0.476008945250D-01 0.000000000000D+00 0.000000000000D+00 0.182639630781D-04 0.000000000000D+00  6 -3 1 25 2 -4 21 2 0.57903003D-01 0.49184074D+00 0.39742095D+06 0.39742095D+06 0.39742095D+06 0.10756302D+01  1  2 12  4  6  5       -4 0.504291566809D-02 0.100000000000D+01
-.199297228666D-01 0.000000000000D+00 0.000000000000D+00 0.182639630781D-04 0.000000000000D+00  6 -3 1 25 2 -4 21 2 0.57903003D-01 0.49184074D+00 0.39202354D+06 0.39202354D+06 0.39202354D+06 0.10760588D+01  1  2  4  4  6  5       -4 -.211529370051D-02 0.100000000000D+01
-.186184862419D+00 0.000000000000D+00 0.000000000000D+00 0.182639630781D-04 0.000000000000D+00  6 -3 1 25 2 -4 21 2 0.57903003D-01 0.49184074D+00 0.39202354D+06 0.39202354D+06 0.39202354D+06 0.10760588D+01  1  2  5  4  6  5       -4 -.197612214301D-01 0.100000000000D+01
0.195108628801D+00 0.000000000000D+00 -.000000000000D+00 0.182639630781D-04 0.000000000000D+00  6 -3 1 25 2 -4 21 2 0.57903003D-01 0.49184074D+00 0.39202354D+06 0.39202354D+06 0.39202354D+06 0.10760588D+01  1  2  6  4  6  5       -4 0.207083689112D-01 0.100000000000D+01
  </mgrwgt>
  </event>
  <event>
  5     66 0.16453327E-05 0.48479193E+02 0.75467711E-02 0.91415185E-01
       -3 -1    0    0    0  501 0.00000000E+00 0.00000000E+00 0.14787799E+04 0.14787800E+04 0.50000000E+00 0.0000E+00 0.9000E+01
        1 -1    0    0  502    0 -.00000000E+00 -.00000000E+00 -.21209379E+04 0.21209379E+04 0.32000000E+00 0.0000E+00 0.9000E+01
       25  1    1    2    0    0 0.16598853E+03 0.54660292E+03 -.74645536E+03 0.94823391E+03 0.12500000E+03 0.0000E+00 0.9000E+01
        2  1    1    2  502    0 -.26716420E+02 0.40433017E+02 -.12070389E+04 0.12080114E+04 0.32000000E+00 0.0000E+00 0.9000E+01
       -4  1    1    2    0  501 -.13927211E+03 -.58703594E+03 0.13113363E+04 0.14434726E+04 0.15500000E+01 0.0000E+00 0.9000E+01
#aMCatNLO 1  0  0  5  2 0.23507456D+03 0.00000000D+00  -5  6  0 0.00000000D+00 0.00000000D+00 0.00000000D+00 0.00000000D+00 0.00000000D+00
  <mgrwgt>
 0.2675406809D-02    4    2    0
 0.177098858914185D+04 0.000000000000000D+00 0.000000000000000D+00 0.177098858914185D+04
 0.177098858914185D+04 -.000000000000000D+00 -.000000000000000D+00 -.177098858914185D+04
 0.828087192396530D+03 0.165994895408134D+03 0.546573866553166D+03 -.586349811384581D+03
 0.100918735478509D+04 -.267264546550995D+02 0.404466158611517D+02 -.100802226411180D+04
 0.170470263110208D+04 -.139268440753034D+03 -.587020482414317D+03 0.159437207549638D+04
 0.000000000000000D+00 0.000000000000000D+00 0.000000000000000D+00 -.000000000000000D+00
 0.177098858914185D+04 0.000000000000000D+00 0.000000000000000D+00 0.177098858914185D+04
 0.177098858914185D+04 -.000000000000000D+00 -.000000000000000D+00 -.177098858914185D+04
 0.777053696695094D+03 0.161359113453196D+03 0.527033912311985D+03 -.533278481964379D+03
 0.944140916883767D+03 -.323678310697243D+02 0.166680520566909D+02 -.943438694609563D+03
 0.158545179194131D+04 -.311691324750798D+03 -.397681864390822D+03 0.150278243181760D+04
 0.235330772763534D+03 0.182700042367326D+03 -.146020099977853D+03 -.260652552436618D+02
0.527784726389D+00 0.000000000000D+00 0.000000000000D+00 0.592025683071D-03 0.000000000000D+00  6 -3 1 25 2 -4 21 0 0.22750462D+00 0.32629814D+00 0.38225483D+06 0.38225483D+06 0.38225483D+06 0.10768512D+01  1  2  2  4  6  5       -4 0.387263829708D-02 0.100000000000D+01
0.235882420225D+00 0.000000000000D+00 -.202683231824D-02 0.592025683071D-03 0.000000000000D+00  6 -3 1 25 2 -4 21 2 0.22750462D+00 0.32629814D+00 0.38225483D+06 0.38225483D+06 0.38225483D+06 0.10768512D+01  1  2  3  4  6  5       -4 0.200704477290D-02 0.100000000000D+01
-.369184801473D+00 0.000000000000D+00 0.000000000000D+00 0.592025683071D-03 0.000000000000D+00  6 -3 1 25 2 -4 21 2 0.22750462D+00 0.32629814D+00 0.38225483D+06 0.38225483D+06 0.38225483D+06 0.10768512D+01  1  2 15  4  6  5       -4 -.314127023677D-02 0.100000000000D+01
-.740492368133D-02 0.000000000000D+00 0.000000000000D+00 0.592025683071D-03 0.000000000000D+00  6 -3 1 25 2 -4 21 2 0.22750462D+00 0.32629814D+00 0.38225483D+06 0.38225483D+06 0.38225483D+06 0.10768512D+01  1  2  4  4  6  5       -4 -.630060237392D-04 0.100000000000D+01
  </mgrwgt>
  </event>
  <event>
  5     66 -.16453327E-05 0.29651591E+02 0.75467711E-02 0.92364559E-01
       -3 -1    0    0    0  501 0.00000000E+00 0.00000000E+00 0.84268380E+03 0.84268395E+03 0.50000000E+00 0.0000E+00 0.9000E+01
        1 -1    0    0  502    0 0.00000000E+00 0.00000000E+00 -.55173157E+03 0.55173166E+03 0.32000000E+00 0.0000E+00 0.9000E+01
       25  1    1    2    0    0 0.57334966E+03 0.12466956E+03 -.65550828E+02 0.60348508E+03 0.12500000E+03 0.0000E+00 0.9000E+01
        2  1    1    2  502    0 -.58744632E+03 -.98269386E+02 0.19507019E+03 0.62673960E+03 0.32000000E+00 0.0000E+00 0.9000E+01
       -4  1    1    2    0  501 0.14096661E+02 -.26400171E+02 0.16143287E+03 0.16419093E+03 0.15500000E+01 0.0000E+00 0.9000E+01
#aMCatNLO 1  0  0  5  1 0.69716223D+01 0.00000000D+00  -5  6  0 0.00000000D+00 0.00000000D+00 0.00000000D+00 0.00000000D+00 0.00000000D+00
  <mgrwgt>
 -.1236426682D-01    8    2    0
 0.681861732256329D+03 0.000000000000000D+00 0.000000000000000D+00 0.681861732256329D+03
 0.681861732256329D+03 -.000000000000000D+00 -.000000000000000D+00 -.681861732256329D+03
 0.631583893936118D+03 0.574069587273822D+03 0.124704565305725D+03 -.195361448189460D+03
 0.599936623190835D+03 -.588036056992399D+03 -.985482161950643D+02 0.665266608753627D+02
 0.132202947385705D+03 0.139664697185767D+02 -.261563491106603D+02 0.128834787314098D+03
 0.000000000000000D+00 0.000000000000000D+00 0.000000000000000D+00 0.000000000000000D+00
 0.681861732256329D+03 0.000000000000000D+00 0.000000000000000D+00 0.681861732256329D+03
 0.681861732256329D+03 -.000000000000000D+00 -.000000000000000D+00 -.681861732256329D+03
 0.631493063512369D+03 0.574108881158058D+03 0.124630975875131D+03 -.194998978694999D+03
 0.599949806049772D+03 -.587998728943487D+03 -.986181240170573D+02 0.668709963688202D+02
 0.473157686051567D+02 0.100722270090183D+02 -.137484089806093D+02 0.441397038082204D+02
 0.849648263453600D+02 0.381762077641049D+01 -.122644428774643D+02 0.839882785179582D+02
0.232003449439D-03 0.000000000000D+00 0.000000000000D+00 0.317304927120D-06 0.000000000000D+00  6 -3 1 25 2 -4 21 0 0.12964368D+00 0.84881798D-01 0.37607436D+06 0.37607436D+06 0.37607436D+06 0.10773640D+01  1  2  2  4  6  5       -4 0.248729226350D-03 0.100000000000D+01
0.791038054308D-04 0.000000000000D+00 -.890954333755D-06 0.317304927120D-06 0.000000000000D+00  6 -3 1 25 2 -4 21 2 0.12964368D+00 0.84881798D-01 0.37607436D+06 0.37607436D+06 0.37607436D+06 0.10773640D+01  1  2  3  4  6  5       -4 0.984361543693D-04 0.100000000000D+01
-.149595021318D-03 0.000000000000D+00 0.000000000000D+00 0.317304927120D-06 0.000000000000D+00  6 -3 1 25 2 -4 21 2 0.12964368D+00 0.84881798D-01 0.37607436D+06 0.37607436D+06 0.37607436D+06 0.10773640D+01  1  2 15  4  6  5       -4 -.186154869935D-03 0.100000000000D+01
0.200021424204D-02 0.000000000000D+00 0.000000000000D+00 0.317304927120D-06 0.000000000000D+00  6 -3 1 25 2 -4 21 2 0.12964368D+00 0.84881798D-01 0.37621754D+06 0.37621754D+06 0.37621754D+06 0.10773520D+01  1  2 12  4  6  5       -4 0.248895777667D-02 0.100000000000D+01
-.162582299393D-01 0.000000000000D+00 0.000000000000D+00 0.317304927120D-06 0.000000000000D+00  6 -3 1 25 2 -4 21 2 0.12964368D+00 0.84881798D-01 0.37607436D+06 0.37607436D+06 0.37607436D+06 0.10773640D+01  1  2  4  4  6  5       -4 -.202316136798D-01 0.100000000000D+01
-.215441039611D-02 0.000000000000D+00 0.000000000000D+00 0.317304927120D-06 0.000000000000D+00  6 -3 1 25 2 -4 21 2 0.12964368D+00 0.84881798D-01 0.37607436D+06 0.37607436D+06 0.37607436D+06 0.10773640D+01  1  2  5  4  6  5       -4 -.268093138088D-02 0.100000000000D+01
0.614735370168D-02 0.000000000000D+00 -.000000000000D+00 0.317304927120D-06 0.000000000000D+00  6 -3 1 25 2 -4 21 2 0.12964368D+00 0.84881798D-01 0.37607436D+06 0.37607436D+06 0.37607436D+06 0.10773640D+01  1  2  6  4  6  5       -4 0.764971867845D-02 0.100000000000D+01
0.199776711215D-03 0.000000000000D+00 0.000000000000D+00 0.317304927120D-06 0.175096423599D-07  6 -3 1 25 2 -4 21 2 0.12964368D+00 0.84881798D-01 0.37621754D+06 0.37621754D+06 0.37621754D+06 0.10773520D+01  1  2 11  4  6  5       -4 0.248591270138D-03 0.100000000000D+01
  </mgrwgt>
  </event>
  <event>
  5     66 0.16453327E-05 0.19950060E+02 0.75467711E-02 0.95278112E-01
       -3 -1    0    0    0  501 0.00000000E+00 0.00000000E+00 0.25701999E+03 0.25702048E+03 0.50000000E+00 0.0000E+00 0.9000E+01
        1 -1    0    0  502    0 0.00000000E+00 0.00000000E+00 -.17813605E+04 0.17813606E+04 0.32000000E+00 0.0000E+00 0.9000E+01
       25  1    1    2    0    0 0.33527884E+03 -.31641348E+03 -.90852230E+03 0.10264342E+04 0.12500000E+03 0.0000E+00 0.9000E+01
        2  1    1    2  502    0 -.78676876E+00 0.19913624E+02 -.56129002E+03 0.56164380E+03 0.32000000E+00 0.0000E+00 0.9000E+01
       -4  1    1    2    0  501 -.33449207E+03 0.29649985E+03 -.54528230E+02 0.45030305E+03 0.15500000E+01 0.0000E+00 0.9000E+01
#aMCatNLO 1  0  0  2  1 0.10970938D+03 0.00000000D+00  -5  6  0 0.00000000D+00 0.00000000D+00 0.00000000D+00 0.00000000D+00 0.00000000D+00
  <mgrwgt>
 0.3216895514D-02    7    2    0
 0.676643037916395D+03 0.000000000000000D+00 0.000000000000000D+00 0.676643037916395D+03
 0.676643037916395D+03 0.000000000000000D+00 0.000000000000000D+00 -.676643037916395D+03
 0.522509737149023D+03 0.335228390084325D+03 -.316387831803060D+03 -.211924731411819D+03
 0.214028610567282D+03 -.788758612567449D+00 0.199344616014973D+02 -.213096788436313D+03
 0.616747728116485D+03 -.334439631471758D+03 0.296453370201563D+03 0.425021519848132D+03
 0.000000000000000D+00 0.000000000000000D+00 -.000000000000000D+00 -.000000000000000D+00
 0.683902790591078D+03 0.000000000000000D+00 0.000000000000000D+00 0.683902790591078D+03
 0.758283214256398D+03 0.000000000000000D+00 0.000000000000000D+00 -.758283214256398D+03
 0.507157518659327D+03 0.325229814171278D+03 -.301491666423519D+03 -.211924731411819D+03
 0.214750883385168D+03 -.495241856781771D+01 0.261376017103447D+02 -.213096788436313D+03
 0.632199603118567D+03 -.346567524858975D+03 0.314521853870889D+03 0.425021519848132D+03
 0.880779996844131D+02 0.262901292555145D+02 -.391677891577155D+02 -.743804236653204D+02
0.254208472963D-03 0.000000000000D+00 0.000000000000D+00 0.242262834260D-04 0.000000000000D+00  6 -3 1 25 2 -4 21 0 0.39541577D-01 0.27405551D+00 0.22300560D+06 0.22300560D+06 0.22300560D+06 0.10942121D+01  1  2  2  2  6  2        1 0.522867580763D-03 0.100000000000D+01
0.129113065576D-03 0.000000000000D+00 -.976227470807D-06 0.242262834260D-04 0.000000000000D+00  6 -3 1 25 2 -4 21 2 0.39541577D-01 0.27405551D+00 0.22300560D+06 0.22300560D+06 0.22300560D+06 0.10942121D+01  1  2  3  2  6  2        1 0.317961759962D-03 0.100000000000D+01
-.157404632209D-03 0.000000000000D+00 0.000000000000D+00 0.242262834260D-04 0.000000000000D+00  6 -3 1 25 2 -4 21 2 0.39541577D-01 0.27405551D+00 0.22300560D+06 0.22300560D+06 0.22300560D+06 0.10942121D+01  1  2 15  2  6  2        1 -.387634308426D-03 0.100000000000D+01
-.185459237756D-04 0.000000000000D+00 0.000000000000D+00 0.242262834260D-04 0.000000000000D+00  6 -3 1 25 2 -4 21 2 0.39541577D-01 0.27405551D+00 0.22300560D+06 0.22300560D+06 0.22300560D+06 0.10942121D+01  1  2  4  2  6  2        1 -.456723301976D-04 0.100000000000D+01
-.395715539957D-02 0.000000000000D+00 -.454474331673D-03 0.242262834260D-04 0.000000000000D+00  6 -3 1 25 2 -4 21 2 0.39541577D-01 0.30828860D+00 0.22300560D+06 0.22300560D+06 0.22300560D+06 0.10942121D+01  1  2  5  2  6  2        1 -.694283748077D-02 0.100000000000D+01
0.398613472345D-02 0.000000000000D+00 0.451344117082D-03 0.242262834260D-04 0.000000000000D+00  6 -3 1 25 2 -4 21 2 0.39541577D-01 0.27405551D+00 0.22300560D+06 0.22300560D+06 0.22300560D+06 0.10942121D+01  1  2  6  2  6  2        1 0.981650003008D-02 0.100000000000D+01
-.718429172355D-04 0.000000000000D+00 -.848404379810D-05 0.242262834260D-04 0.000000000000D+00  6 -3 21 25 2 -4 -1 2 0.39541577D-01 0.30828860D+00 0.22300560D+06 0.22300560D+06 0.22300560D+06 0.10942121D+01  1  2  5  6  6  2        1 -.642897375024D-04 0.100000000000D+01
  </mgrwgt>
  </event>
  <event>
  6     66 0.16453327E-05 0.14233887E+02 0.75467711E-02 0.94756904E-01
       -3 -1    0    0    0  503 0.00000000E+00 0.00000000E+00 0.41653887E+03 0.41653917E+03 0.50000000E+00 0.0000E+00 0.9000E+01
        1 -1    0    0  502    0 0.00000000E+00 0.00000000E+00 -.17285574E+04 0.17285575E+04 0.32000000E+00 0.0000E+00 0.9000E+01
       25  1    1    2    0    0 -.20723893E+03 -.42759010E+03 0.78986488E+02 0.49763956E+03 0.12500000E+03 0.0000E+00 0.9000E+01
        2  1    1    2  502    0 -.27979797E+01 -.10280656E+01 -.93019039E+03 0.93019522E+03 0.32000000E+00 0.0000E+00 0.9000E+01
       -4  1    1    2    0  501 0.19696022E+03 0.43735415E+03 -.48899932E+03 0.68497790E+03 0.15500000E+01 0.0000E+00 0.9000E+01
       21  1    1    2  501  503 0.13076685E+02 -.87359857E+01 0.28184648E+02 0.32283959E+02 0.75000000E+00 0.0000E+00 0.9000E+01
#aMCatNLO 2  0  0  1  1 0.16275571D+02 0.00000000D+00  -5  6  0 0.00000000D+00 0.00000000D+00 0.00000000D+00 0.00000000D+00 0.00000000D+00
  <mgrwgt>
 0.3368091130D-01    1    2    0
 0.816637228261993D+03 0.000000000000000D+00 0.000000000000000D+00 0.816637228261993D+03
 0.816637228261993D+03 0.000000000000000D+00 0.000000000000000D+00 -.816637228261993D+03
 0.709173276564283D+03 -.201311118917233D+03 -.430830230854360D+03 0.511039021773476D+03
 0.440639556251660D+03 0.725538065590200D+00 -.338465491388132D+01 -.440625959561269D+03
 0.483461623708044D+03 0.200585580851643D+03 0.434214885768241D+03 -.704130622122070D+02
 0.000000000000000D+00 0.000000000000000D+00 -.000000000000000D+00 0.000000000000000D+00
 0.880590172836638D+03 0.000000000000000D+00 0.000000000000000D+00 0.880590172836638D+03
 0.817642449462303D+03 0.000000000000000D+00 0.000000000000000D+00 -.817642449462303D+03
 0.708513526562450D+03 -.206986287197893D+03 -.427038888696100D+03 0.511039021773476D+03
 0.440636069406932D+03 -.280231270245371D+01 -.102784562057550D+01 -.440625959561269D+03
 0.484200570860558D+03 0.196711914410721D+03 0.436802720024109D+03 -.704130622122070D+02
 0.648824554690002D+02 0.130766854896255D+02 -.873598570743258D+01 0.629477233743345D+02
0.351875492983D-01 0.000000000000D+00 0.000000000000D+00 0.348715657173D-05 0.854150531043D-07  6 -3 1 25 2 -4 21 2 0.64082759D-01 0.26593124D+00 0.24428776D+06 0.24428776D+06 0.24428776D+06 0.10912151D+01  1  2  1  1  6  1       -3 0.336809112973D-01 0.100000000000D+01
  </mgrwgt>
  </event>
  <event>
  5     66 0.16453327E-05 0.11215193E+03 0.75467711E-02 0.94086686E-01
       -3 -1    0    0    0  501 0.00000000E+00 0.00000000E+00 0.81930469E+03 0.81930484E+03 0.50000000E+00 0.0000E+00 0.9000E+01
        1 -1    0    0  502    0 0.00000000E+00 0.00000000E+00 -.77315811E+03 0.77315817E+03 0.32000000E+00 0.0000E+00 0.9000E+01
       25  1    1    2    0    0 0.35199613E+03 0.34064094E+03 -.42486292E+02 0.50731412E+03 0.12500000E+03 0.0000E+00 0.9000E+01
        2  1    1    2  502    0 0.13514770E+02 -.11122106E+03 -.41038947E+03 0.42540850E+03 0.32000000E+00 0.0000E+00 0.9000E+01
       -4  1    1    2    0  501 -.36551090E+03 -.22941988E+03 0.49902234E+03 0.65974040E+03 0.15500000E+01 0.0000E+00 0.9000E+01
#aMCatNLO 1  0  0  1  1 0.16275571D+02 0.00000000D+00  -5  6  0 0.00000000D+00 0.00000000D+00 0.00000000D+00 0.00000000D+00 0.00000000D+00
  <mgrwgt>
 0.1044693875D-02    5    4    0
 0.795897128373147D+03 0.000000000000000D+00 0.000000000000000D+00 0.795897128373147D+03
 0.795897128373147D+03 0.000000000000000D+00 0.000000000000000D+00 -.795897128373147D+03
 0.508603195338044D+03 0.351848918783071D+03 0.340661070953693D+03 -.566090398782336D+02
 0.437905891664479D+03 0.135126462489296D+02 -.111334920498131D+03 -.423300736856775D+03
 0.645285169743770D+03 -.365361565032001D+03 -.229326150455562D+03 0.479909776735009D+03
 0.000000000000000D+00 0.000000000000000D+00 -.000000000000000D+00 0.000000000000000D+00
 0.139597245439574D+04 0.000000000000000D+00 0.000000000000000D+00 0.139597245439574D+04
 0.112980895488824D+04 0.000000000000000D+00 0.000000000000000D+00 -.112980895488824D+04
 0.442188128378305D+03 0.151209648308198D+03 0.392219835986508D+03 -.566090398782336D+02
 0.462890292438102D+03 -.176576477112497D+03 -.624872526238940D+02 -.423300736856775D+03
 0.845377426693314D+03 -.679926336936191D+03 -.148491670127642D+03 0.479909776735009D+03
 0.775325561774260D+03 0.705293165740491D+03 -.181240913234973D+03 0.266163499507506D+03
 0.795897128373147D+03 0.000000000000000D+00 0.000000000000000D+00 0.795897128373147D+03
 0.795897128373147D+03 0.000000000000000D+00 0.000000000000000D+00 -.795897128373147D+03
 0.508603195338044D+03 0.351848918783071D+03 0.340661070953693D+03 -.566090398782336D+02
 0.437905891664479D+03 0.135126462489296D+02 -.111334920498131D+03 -.423300736856775D+03
 0.000000000000000D+00 0.000000000000000D+00 -.000000000000000D+00 0.000000000000000D+00
 0.645285169743770D+03 -.365361565032001D+03 -.229326150455562D+03 0.479909776735009D+03
 0.139597245439574D+04 0.000000000000000D+00 0.000000000000000D+00 0.139597245439574D+04
 0.112980895488824D+04 0.000000000000000D+00 0.000000000000000D+00 -.112980895488824D+04
 0.442188128378305D+03 0.151209648308198D+03 0.392219835986508D+03 -.566090398782336D+02
 0.462890292438102D+03 -.176576477112497D+03 -.624872526238940D+02 -.423300736856775D+03
 0.775325561774260D+03 0.705293165740491D+03 -.181240913234973D+03 0.266163499507506D+03
 0.845377426693314D+03 -.679926336936191D+03 -.148491670127642D+03 0.479909776735009D+03
0.309307299869D-02 0.000000000000D+00 0.000000000000D+00 0.480170030855D-05 0.000000000000D+00  6 -3 1 25 2 -4 21 0 0.12604689D+00 0.11894742D+00 0.27508154D+06 0.27508154D+06 0.27508154D+06 0.10873491D+01  1  2  2  1  6  1       -3 0.220370066268D-02 0.100000000000D+01
0.493316739012D-03 0.000000000000D+00 -.118782147398D-04 0.480170030855D-05 0.000000000000D+00  6 -3 1 25 2 -4 21 2 0.12604689D+00 0.11894742D+00 0.27508154D+06 0.27508154D+06 0.27508154D+06 0.10873491D+01  1  2  3  1  6  1       -3 0.415552903326D-03 0.100000000000D+01
-.197373310249D-02 0.000000000000D+00 0.000000000000D+00 0.480170030855D-05 0.000000000000D+00  6 -3 1 25 2 -4 21 2 0.12604689D+00 0.11894742D+00 0.27508154D+06 0.27508154D+06 0.27508154D+06 0.10873491D+01  1  2 15  1  6  1       -3 -.166260427889D-02 0.100000000000D+01
-.607964634192D-04 0.000000000000D+00 -.157380360647D-02 0.480170030855D-05 0.000000000000D+00  6 -3 1 25 2 -4 21 2 0.27205968D+00 0.11894742D+00 0.27508154D+06 0.27508154D+06 0.27508154D+06 0.10873491D+01  1  2  5  1  6  1       -3 -.103333910083D-05 0.100000000000D+01
0.935328108177D-04 0.000000000000D+00 -.131086874850D-03 0.480170030855D-05 0.000000000000D+00  6 21 1 25 2 3 -4 2 0.27205968D+00 0.11894742D+00 0.27508154D+06 0.27508154D+06 0.27508154D+06 0.10873491D+01  3  4  5  5  5  1       -3 0.890779267442D-04 0.100000000000D+01
  </mgrwgt>
  </event>
  <event>
  5     66 0.16453327E-05 0.48168985E+02 0.75467711E-02 0.93198152E-01
       -3 -1    0    0    0  501 0.00000000E+00 0.00000000E+00 0.10638009E+04 0.10638010E+04 0.50000000E+00 0.0000E+00 0.9000E+01
        1 -1    0    0  502    0 0.00000000E+00 0.00000000E+00 -.93468830E+03 0.93468836E+03 0.32000000E+00 0.0000E+00 0.9000E+01
       25  1    1    2    0    0 -.52678500E+03 0.12026393E+03 -.30673686E+03 0.63378100E+03 0.12500000E+03 0.0000E+00 0.9000E+01
        2  1    1    2  502    0 0.52383873E+03 -.72155099E+02 -.31288747E+03 0.61442009E+03 0.32000000E+00 0.0000E+00 0.9000E+01
       -4  1    1    2    0  501 0.29462683E+01 -.48108833E+02 0.74873688E+03 0.75028825E+03 0.15500000E+01 0.0000E+00 0.9000E+01
#aMCatNLO 1  0  0  5  1 0.85135680D+01 0.00000000D+00  -5  6  0 0.00000000D+00 0.00000000D+00 0.00000000D+00 0.00000000D+00 0.00000000D+00
  <mgrwgt>
 0.5391131293D-02    8    2    0
 0.997157157715755D+03 0.000000000000000D+00 0.000000000000000D+00 0.997157157715755D+03
 0.997157157715755D+03 -.000000000000000D+00 -.000000000000000D+00 -.997157157715755D+03
 0.655167468762680D+03 -.527186638194356D+03 0.120320897859713D+03 -.348161660974414D+03
 0.636200593480291D+03 0.524242202517076D+03 -.722419895046102D+02 -.353132274363495D+03
 0.702946253188540D+03 0.294443567728034D+01 -.480789083551025D+02 0.701293935337909D+03
 0.000000000000000D+00 0.000000000000000D+00 0.000000000000000D+00 0.000000000000000D+00
 0.997157157715755D+03 0.000000000000000D+00 0.000000000000000D+00 0.997157157715755D+03
 0.997157157715755D+03 -.000000000000000D+00 -.000000000000000D+00 -.997157157715755D+03
 0.655115933601627D+03 -.527186242865220D+03 0.120314442635226D+03 -.348067503059046D+03
 0.636150875552959D+03 0.524242586401666D+03 -.722482578541474D+02 -.353040842264361D+03
 0.538159479320771D+03 -.566137830401023D+01 -.399333823755868D+02 0.536645971708116D+03
 0.164888026956153D+03 0.860503476756503D+01 -.813280240549165D+01 0.164462373615291D+03
0.161645752814D-03 0.000000000000D+00 0.000000000000D+00 0.223321873757D-04 0.000000000000D+00  6 -3 1 25 2 -4 21 0 0.16366168D+00 0.14379821D+00 0.32056429D+06 0.32056429D+06 0.32056429D+06 0.10824280D+01  1  2  2  4  6  5       -4 0.359885973958D-04 0.100000000000D+01
0.765488495999D-04 0.000000000000D+00 -.620762253111D-06 0.223321873757D-04 0.000000000000D+00  6 -3 1 25 2 -4 21 2 0.16366168D+00 0.14379821D+00 0.32056429D+06 0.32056429D+06 0.32056429D+06 0.10824280D+01  1  2  3  4  6  5       -4 0.199681259692D-04 0.100000000000D+01
-.963837616220D-04 0.000000000000D+00 0.000000000000D+00 0.223321873757D-04 0.000000000000D+00  6 -3 1 25 2 -4 21 2 0.16366168D+00 0.14379821D+00 0.32056429D+06 0.32056429D+06 0.32056429D+06 0.10824280D+01  1  2 15  4  6  5       -4 -.251421556759D-04 0.100000000000D+01
0.489773505252D-01 0.000000000000D+00 0.000000000000D+00 0.223321873757D-04 0.000000000000D+00  6 -3 1 25 2 -4 21 2 0.16366168D+00 0.14379821D+00 0.32283491D+06 0.32283491D+06 0.32283491D+06 0.10822026D+01  1  2 12  4  6  5       -4 0.127651957445D-01 0.100000000000D+01
-.459215731388D-01 0.000000000000D+00 0.000000000000D+00 0.223321873757D-04 0.000000000000D+00  6 -3 1 25 2 -4 21 2 0.16366168D+00 0.14379821D+00 0.32056429D+06 0.32056429D+06 0.32056429D+06 0.10824280D+01  1  2  4  4  6  5       -4 -.119788574477D-01 0.100000000000D+01
-.669461212833D-01 0.000000000000D+00 0.000000000000D+00 0.223321873757D-04 0.000000000000D+00  6 -3 1 25 2 -4 21 2 0.16366168D+00 0.14379821D+00 0.32056429D+06 0.32056429D+06 0.32056429D+06 0.10824280D+01  1  2  5  4  6  5       -4 -.174632093091D-01 0.100000000000D+01
0.844273214104D-01 0.000000000000D+00 -.000000000000D+00 0.223321873757D-04 0.000000000000D+00  6 -3 1 25 2 -4 21 2 0.16366168D+00 0.14379821D+00 0.32056429D+06 0.32056429D+06 0.32056429D+06 0.10824280D+01  1  2  6  4  6  5       -4 0.220232622433D-01 0.100000000000D+01
0.534291706394D-04 0.000000000000D+00 0.000000000000D+00 0.223321873757D-04 0.104656606274D-05  6 -3 1 25 2 -4 21 2 0.16366168D+00 0.14379821D+00 0.32283491D+06 0.32283491D+06 0.32283491D+06 0.10822026D+01  1  2 11  4  6  5       -4 0.139254944247D-04 0.100000000000D+01
  </mgrwgt>
  </event>
  <event>
  5     66 0.16453327E-05 0.60630705E+02 0.75467711E-02 0.92342737E-01
       -3 -1    0    0    0  501 0.00000000E+00 0.00000000E+00 0.90904334E+03 0.90904348E+03 0.50000000E+00 0.0000E+00 0.9000E+01
        1 -1    0    0  502    0 0.00000000E+00 0.00000000E+00 -.26946872E+04 0.26946872E+04 0.32000000E+00 0.0000E+00 0.9000E+01
       25  1    1    2    0    0 0.53511176E+03 0.16082531E+03 -.16189314E+02 0.57279706E+03 0.12500000E+03 0.0000E+00 0.9000E+01
        2  1    1    2  502    0 -.49259208E+03 -.11756153E+03 -.23719398E+04 0.24254002E+04 0.32000000E+00 0.0000E+00 0.9000E+01
       -4  1    1    2    0  501 -.42519682E+02 -.43263783E+02 0.60248533E+03 0.60553336E+03 0.15500000E+01 0.0000E+00 0.9000E+01
#aMCatNLO 1  0  0  1  1 0.14677781D+02 0.00000000D+00  -5  6  0 0.00000000D+00 0.00000000D+00 0.00000000D+00 0.00000000D+00 0.00000000D+00
  <mgrwgt>
 0.1061460441D-02    4    2    0
 0.156511587820392D+04 0.000000000000000D+00 0.000000000000000D+00 0.156511587820392D+04
 0.156511587820392D+04 0.000000000000000D+00 0.000000000000000D+00 -.156511587820392D+04
 0.650637304859820D+03 0.535336176964321D+03 0.160865511864203D+03 0.308612001064675D+03
 0.143928571002414D+04 -.492837275935731D+03 -.117622872895259D+03 -.134715241687784D+04
 0.104030874152389D+04 -.424989010285907D+02 -.432426389689440D+02 0.103854041581316D+04
 0.000000000000000D+00 0.000000000000000D+00 -.000000000000000D+00 -.000000000000000D+00
 0.158887224859952D+04 0.000000000000000D+00 0.000000000000000D+00 0.158887224859952D+04
 0.161303027715227D+04 0.000000000000000D+00 0.000000000000000D+00 -.161303027715227D+04
 0.642675290760048D+03 0.523446662637455D+03 0.167835495429540D+03 0.308612001064675D+03
 0.144740709101904D+04 -.519374847387135D+03 -.102065766709491D+03 -.134715241687784D+04
 0.104086037204329D+04 -.616312361470995D+02 -.320267004809261D+02 0.103854041581316D+04
 0.709597719294108D+02 0.575594208967793D+02 -.337430282391229D+02 -.241580285527432D+02
0.744705979389D-01 0.000000000000D+00 0.000000000000D+00 0.569138795400D-03 0.000000000000D+00  6 -3 1 25 2 -4 21 0 0.13985283D+00 0.41456727D+00 0.32495647D+06 0.32495647D+06 0.32495647D+06 0.10819936D+01  1  2  2  1  6  1       -3 0.171615604054D-02 0.100000000000D+01
0.297807143561D-01 0.000000000000D+00 -.285986704644D-03 0.569138795400D-03 0.000000000000D+00  6 -3 1 25 2 -4 21 2 0.13985283D+00 0.41456727D+00 0.32495647D+06 0.32495647D+06 0.32495647D+06 0.10819936D+01  1  2  3  1  6  1       -3 0.803445534116D-03 0.100000000000D+01
-.524647661854D-01 0.000000000000D+00 0.000000000000D+00 0.569138795400D-03 0.000000000000D+00  6 -3 1 25 2 -4 21 2 0.13985283D+00 0.41456727D+00 0.32495647D+06 0.32495647D+06 0.32495647D+06 0.10819936D+01  1  2 15  1  6  1       -3 -.141543220173D-02 0.100000000000D+01
-.158306000086D-02 0.000000000000D+00 0.000000000000D+00 0.569138795400D-03 0.000000000000D+00  6 -3 1 25 2 -4 21 2 0.13985283D+00 0.41456727D+00 0.32495647D+06 0.32495647D+06 0.32495647D+06 0.10819936D+01  1  2  4  1  6  1       -3 -.427089314487D-04 0.100000000000D+01
  </mgrwgt>
  </event>
  <event>
  5     66 -.16453327E-05 0.24180756E+02 0.75467711E-02 0.93174333E-01
       -3 -1    0    0    0  501 0.00000000E+00 0.00000000E+00 0.64762622E+03 0.64762641E+03 0.50000000E+00 0.0000E+00 0.9000E+01
        1 -1    0    0  502    0 0.00000000E+00 0.00000000E+00 -.11893466E+04 0.11893466E+04 0.32000000E+00 0.0000E+00 0.9000E+01
       25  1    1    2    0    0 0.27291472E+03 0.46747436E+03 -.25454814E+03 0.61109286E+03 0.12500000E+03 0.0000E+00 0.9000E+01
        2  1    1    2  502    0 -.18638481E+02 -.15371870E+02 -.61290385E+03 0.61337991E+03 0.32000000E+00 0.0000E+00 0.9000E+01
       -4  1    1    2    0  501 -.25427624E+03 -.45210249E+03 0.32573164E+03 0.61250026E+03 0.15500000E+01 0.0000E+00 0.9000E+01
#aMCatNLO 1  0  0  1  1 0.14677781D+02 0.00000000D+00  -5  6  0 0.00000000D+00 0.00000000D+00 0.00000000D+00 0.00000000D+00 0.00000000D+00
  <mgrwgt>
 -.2583381035D-02    7    4    0
 0.877640155990017D+03 0.000000000000000D+00 0.000000000000000D+00 0.877640155990017D+03
 0.877640155990017D+03 0.000000000000000D+00 0.000000000000000D+00 -.877640155990017D+03
 0.560770369146303D+03 0.272857554424423D+03 0.467357777336668D+03 -.772260957768351D+02
 0.453190158639145D+03 -.186545878389005D+02 -.153855559649928D+02 -.452544595490414D+03
 0.741319784194585D+03 -.254202966585523D+03 -.451972221371676D+03 0.529770691267249D+03
 0.000000000000000D+00 -.000000000000000D+00 0.000000000000000D+00 0.000000000000000D+00
 0.990944374531311D+03 0.000000000000000D+00 0.000000000000000D+00 0.990944374531311D+03
 0.881159158604893D+03 0.000000000000000D+00 0.000000000000000D+00 -.881159158604893D+03
 0.558565227887164D+03 0.282076915728665D+03 0.459171925915239D+03 -.772260957768351D+02
 0.453217862921374D+03 -.111889956947964D+02 -.220142394548687D+02 -.452544595490414D+03
 0.743923178213152D+03 -.241969824415017D+03 -.462834002456111D+03 0.529770691267249D+03
 0.116397264114516D+03 -.289180956188516D+02 0.256763159957404D+02 0.109785215926418D+03
 0.877640155990017D+03 0.000000000000000D+00 0.000000000000000D+00 0.877640155990017D+03
 0.877640155990017D+03 0.000000000000000D+00 0.000000000000000D+00 -.877640155990017D+03
 0.560770369146303D+03 0.272857554424423D+03 0.467357777336668D+03 -.772260957768351D+02
 0.453190158639145D+03 -.186545878389005D+02 -.153855559649928D+02 -.452544595490414D+03
 0.000000000000000D+00 -.000000000000000D+00 0.000000000000000D+00 0.000000000000000D+00
 0.741319784194585D+03 -.254202966585523D+03 -.451972221371676D+03 0.529770691267249D+03
 0.990944374531311D+03 0.000000000000000D+00 0.000000000000000D+00 0.990944374531311D+03
 0.881159158604893D+03 0.000000000000000D+00 0.000000000000000D+00 -.881159158604893D+03
 0.558565227887164D+03 0.282076915728665D+03 0.459171925915239D+03 -.772260957768351D+02
 0.453217862921374D+03 -.111889956947964D+02 -.220142394548687D+02 -.452544595490414D+03
 0.116397264114516D+03 -.289180956188516D+02 0.256763159957404D+02 0.109785215926418D+03
 0.743923178213152D+03 -.241969824415017D+03 -.462834002456111D+03 0.529770691267249D+03
0.215055781593D-03 0.000000000000D+00 0.000000000000D+00 0.540195790146D-04 0.000000000000D+00  6 -3 1 25 2 -4 21 0 0.99634822D-01 0.18297641D+00 0.30148989D+06 0.30148989D+06 0.30148989D+06 0.10843927D+01  1  2  2  1  6  1       -3 0.137956019731D-03 0.100000000000D+01
0.138642534227D-03 0.000000000000D+00 -.825870826804D-06 0.540195790146D-04 0.000000000000D+00  6 -3 1 25 2 -4 21 2 0.99634822D-01 0.18297641D+00 0.30148989D+06 0.30148989D+06 0.30148989D+06 0.10843927D+01  1  2  3  1  6  1       -3 0.104582546370D-03 0.100000000000D+01
-.125431361752D-03 0.000000000000D+00 0.000000000000D+00 0.540195790146D-04 0.000000000000D+00  6 -3 1 25 2 -4 21 2 0.99634822D-01 0.18297641D+00 0.30148989D+06 0.30148989D+06 0.30148989D+06 0.10843927D+01  1  2 15  1  6  1       -3 -.946169318082D-04 0.100000000000D+01
-.420027025278D-02 0.000000000000D+00 0.000000000000D+00 0.540195790146D-04 0.000000000000D+00  6 -3 1 25 2 -4 21 2 0.99634822D-01 0.18297641D+00 0.30148989D+06 0.30148989D+06 0.30148989D+06 0.10843927D+01  1  2  4  1  6  1       -3 -.316839966123D-02 0.100000000000D+01
-.732218137777D-02 0.000000000000D+00 -.401079839352D-03 0.540195790146D-04 0.000000000000D+00  6 -3 1 25 2 -4 21 2 0.11270280D+00 0.18297641D+00 0.30148989D+06 0.30148989D+06 0.30148989D+06 0.10843927D+01  1  2  5  1  6  1       -3 -.396837151580D-02 0.100000000000D+01
0.731898485050D-02 0.000000000000D+00 0.398053051756D-03 0.540195790146D-04 0.000000000000D+00  6 -3 1 25 2 -4 21 2 0.99634822D-01 0.18297641D+00 0.30148989D+06 0.30148989D+06 0.30148989D+06 0.10843927D+01  1  2  6  1  6  1       -3 0.552094692134D-02 0.100000000000D+01
-.140124186467D-03 0.000000000000D+00 -.778215454974D-05 0.540195790146D-04 0.000000000000D+00  6 21 1 25 2 3 -4 2 0.11270280D+00 0.18297641D+00 0.30148989D+06 0.30148989D+06 0.30148989D+06 0.10843927D+01  3  4  5  5  5  1       -3 -.111547841351D-02 0.100000000000D+01
  </mgrwgt>
  </event>
  <event>
  5     66 0.16453327E-05 0.78009245E+02 0.75467711E-02 0.91844943E-01
       -3 -1    0    0    0  501 0.00000000E+00 0.00000000E+00 0.78350458E+03 0.78350474E+03 0.50000000E+00 0.0000E+00 0.9000E+01
        1 -1    0    0  502    0 0.00000000E+00 0.00000000E+00 -.22218701E+04 0.22218701E+04 0.32000000E+00 0.0000E+00 0.9000E+01
       25  1    1    2    0    0 0.43212209E+03 -.32938757E+03 -.33248068E+03 0.64914873E+03 0.12500000E+03 0.0000E+00 0.9000E+01
        2  1    1    2  502    0 0.73725904E+00 0.77960521E+02 -.16297673E+04 0.16316311E+04 0.32000000E+00 0.0000E+00 0.9000E+01
       -4  1    1    2    0  501 -.43285935E+03 0.25142705E+03 0.52388246E+03 0.72459507E+03 0.15500000E+01 0.0000E+00 0.9000E+01
#aMCatNLO 1  0  0  2  1 0.19190176D+03 0.00000000D+00  -5  6  0 0.00000000D+00 0.00000000D+00 0.00000000D+00 0.00000000D+00 0.00000000D+00
  <mgrwgt>
 0.3600795480D-02    4    2    0
 0.131941111073697D+04 0.000000000000000D+00 0.000000000000000D+00 0.131941111073697D+04
 0.131941111073697D+04 0.000000000000000D+00 0.000000000000000D+00 -.131941111073697D+04
 0.557997439948109D+03 0.432034429661649D+03 -.329381018726596D+03 -.243010098186810D+02
 0.970250765916417D+03 0.735720542498427D+00 0.780057758018061D+02 -.967109666179713D+03
 0.111057401560941D+04 -.432770150204147D+03 0.251375242924790D+03 0.991410675998394D+03
 0.000000000000000D+00 -.000000000000000D+00 -.000000000000000D+00 0.000000000000000D+00
 0.138426580486061D+04 0.000000000000000D+00 0.000000000000000D+00 0.138426580486061D+04
 0.137036132630283D+04 0.000000000000000D+00 0.000000000000000D+00 -.137036132630283D+04
 0.554776970170232D+03 0.443193659031882D+03 -.308449879473127D+03 -.243010098186810D+02
 0.974083540935462D+03 0.202340773570359D+02 0.114578446562348D+03 -.967109666179713D+03
 0.111236084497973D+04 -.410477905020540D+03 0.293188353197010D+03 0.991410675998394D+03
 0.113405775078013D+03 -.529498313683780D+02 -.993169202862304D+02 0.139044785577791D+02
0.830560048432D-01 0.000000000000D+00 0.000000000000D+00 0.158834558690D-03 0.000000000000D+00  6 -3 1 25 2 -4 21 0 0.12053918D+00 0.34182618D+00 0.32259933D+06 0.32259933D+06 0.32259933D+06 0.10822259D+01  1  2  2  2  6  2        1 0.635037521704D-02 0.100000000000D+01
0.285216985816D-01 0.000000000000D+00 -.318956927746D-03 0.158834558690D-03 0.000000000000D+00  6 -3 1 25 2 -4 21 2 0.12053918D+00 0.34182618D+00 0.32259933D+06 0.32259933D+06 0.32259933D+06 0.10822259D+01  1  2  3  2  6  2        1 0.255411001476D-02 0.100000000000D+01
-.535127467006D-01 0.000000000000D+00 0.000000000000D+00 0.158834558690D-03 0.000000000000D+00  6 -3 1 25 2 -4 21 2 0.12053918D+00 0.34182618D+00 0.32259933D+06 0.32259933D+06 0.32259933D+06 0.10822259D+01  1  2 15  2  6  2        1 -.479205128243D-02 0.100000000000D+01
-.571345718316D-02 0.000000000000D+00 0.000000000000D+00 0.158834558690D-03 0.000000000000D+00  6 -3 1 25 2 -4 21 2 0.12053918D+00 0.34182618D+00 0.32259933D+06 0.32259933D+06 0.32259933D+06 0.10822259D+01  1  2  4  2  6  2        1 -.511638469520D-03 0.100000000000D+01
  </mgrwgt>
  </event>
  <event>
  5     66 0.16453327E-05 0.70724572E+02 0.75467711E-02 0.89297528E-01
       -3 -1    0    0    0  501 0.00000000E+00 0.00000000E+00 0.55650364E+03 0.55650387E+03 0.50000000E+00 0.0000E+00 0.9000E+01
        1 -1    0    0  502    0 0.00000000E+00 0.00000000E+00 -.13612150E+04 0.13612150E+04 0.32000000E+00 0.0000E+00 0.9000E+01
       25  1    1    2    0    0 -.39528856E+03 -.29261770E+03 -.38928057E+03 0.63956432E+03 0.12500000E+03 0.0000E+00 0.9000E+01
        2  1    1    2  502    0 0.46488188E+03 0.27960803E+03 -.75588827E+03 0.93041012E+03 0.32000000E+00 0.0000E+00 0.9000E+01
       -4  1    1    2    0  501 -.69593325E+02 0.13009667E+02 0.34045750E+03 0.34774444E+03 0.15500000E+01 0.0000E+00 0.9000E+01
#aMCatNLO 1  0  0  1  5 0.16249317D+04 0.00000000D+00  -5  6  0 0.00000000D+00 0.00000000D+00 0.00000000D+00 0.00000000D+00 0.00000000D+00
  <mgrwgt>
 0.3220810996D-02    6    4    0
 0.870357022734313D+03 0.000000000000000D+00 0.000000000000000D+00 0.870357022734313D+03
 0.870357022734313D+03 0.000000000000000D+00 0.000000000000000D+00 -.870357022734313D+03
 0.525031202258396D+03 -.395718724155055D+03 -.292861928038856D+03 -.132933614271771D+03
 0.675758059919875D+03 0.465238999693384D+03 0.279865916961856D+03 -.402339032700124D+03
 0.539924783290356D+03 -.695202755383298D+02 0.129960110769996D+02 0.535272646971895D+03
 0.000000000000000D+00 0.000000000000000D+00 -.000000000000000D+00 0.000000000000000D+00
 0.167226808552299D+04 0.000000000000000D+00 0.000000000000000D+00 0.167226808552299D+04
 0.946296026264443D+03 0.000000000000000D+00 0.000000000000000D+00 -.946296026264443D+03
 0.628415968203090D+03 -.528056812926082D+03 -.287691302634645D+03 -.132933614271771D+03
 0.588174248990540D+03 0.320224654536827D+03 0.285531820587976D+03 -.402339032700124D+03
 0.570635064531414D+03 -.196937786708586D+03 0.179743829600797D+02 0.535272646971895D+03
 0.831338830062395D+03 0.404769945097841D+03 -.158149009134104D+02 0.725972059258551D+03
 0.870357022734313D+03 0.000000000000000D+00 0.000000000000000D+00 0.870357022734313D+03
 0.870357022734313D+03 0.000000000000000D+00 0.000000000000000D+00 -.870357022734313D+03
 0.525031202258396D+03 -.395718724155055D+03 -.292861928038856D+03 -.132933614271771D+03
 0.675758059919875D+03 0.465238999693384D+03 0.279865916961856D+03 -.402339032700124D+03
 0.000000000000000D+00 0.000000000000000D+00 -.000000000000000D+00 0.000000000000000D+00
 0.539924783290356D+03 -.695202755383298D+02 0.129960110769996D+02 0.535272646971895D+03
 0.167226808552299D+04 0.000000000000000D+00 0.000000000000000D+00 0.167226808552299D+04
 0.946296026264443D+03 0.000000000000000D+00 0.000000000000000D+00 -.946296026264443D+03
 0.628415968203090D+03 -.528056812926082D+03 -.287691302634645D+03 -.132933614271771D+03
 0.588174248990540D+03 0.320224654536827D+03 0.285531820587976D+03 -.402339032700124D+03
 0.831338830062395D+03 0.404769945097841D+03 -.158149009134104D+02 0.725972059258551D+03
 0.570635064531414D+03 -.196937786708586D+03 0.179743829600797D+02 0.535272646971895D+03
0.194816774554D-02 0.000000000000D+00 0.000000000000D+00 0.893592686251D-05 0.000000000000D+00  6 -3 1 25 2 -4 21 0 0.85615965D-01 0.20941771D+00 0.31448404D+06 0.31448404D+06 0.31448404D+06 0.10830401D+01  1  2  2  1  6  1       -3 0.138752858046D-02 0.100000000000D+01
0.599377368547D-03 0.000000000000D+00 -.748147710722D-05 0.893592686251D-05 0.000000000000D+00  6 -3 1 25 2 -4 21 2 0.85615965D-01 0.20941771D+00 0.31448404D+06 0.31448404D+06 0.31448404D+06 0.10830401D+01  1  2  3  1  6  1       -3 0.500731609034D-03 0.100000000000D+01
-.125562261953D-02 0.000000000000D+00 0.000000000000D+00 0.893592686251D-05 0.000000000000D+00  6 -3 1 25 2 -4 21 2 0.85615965D-01 0.20941771D+00 0.31448404D+06 0.31448404D+06 0.31448404D+06 0.10830401D+01  1  2 15  1  6  1       -3 -.104897176238D-02 0.100000000000D+01
-.383446180279D-02 0.000000000000D+00 -.106236787134D-02 0.893592686251D-05 0.000000000000D+00  6 -3 1 25 2 -4 21 2 0.17090404D+00 0.20941771D+00 0.31448404D+06 0.31448404D+06 0.31448404D+06 0.10830401D+01  1  2  5  1  6  1       -3 -.417837465721D-03 0.100000000000D+01
0.382863558686D-02 0.000000000000D+00 0.850871268315D-03 0.893592686251D-05 0.000000000000D+00  6 -3 1 25 2 -4 21 2 0.85615965D-01 0.20941771D+00 0.31448404D+06 0.31448404D+06 0.31448404D+06 0.10830401D+01  1  2  6  1  6  1       -3 0.319851725877D-02 0.100000000000D+01
-.223169950412D-03 0.000000000000D+00 -.794639750146D-04 0.893592686251D-05 0.000000000000D+00  6 21 1 25 2 3 -4 2 0.17090404D+00 0.20941771D+00 0.31448404D+06 0.31448404D+06 0.31448404D+06 0.10830401D+01  3  4  5  5  5  1       -3 -.399157223985D-03 0.100000000000D+01
  </mgrwgt>
  </event>
  <event>
  5     66 -.16453327E-05 0.17107193E+02 0.75467711E-02 0.95498473E-01
       -3 -1    0    0    0  501 0.00000000E+00 0.00000000E+00 0.63975064E+03 0.63975084E+03 0.50000000E+00 0.0000E+00 0.9000E+01
        1 -1    0    0  502    0 0.00000000E+00 0.00000000E+00 -.95065000E+03 0.95065005E+03 0.32000000E+00 0.0000E+00 0.9000E+01
       25  1    1    2    0    0 -.20179151E+03 0.40652807E+03 -.36664019E+03 0.59668661E+03 0.12500000E+03 0.0000E+00 0.9000E+01
        2  1    1    2  502    0 0.18927889E+03 -.39483786E+03 -.36657271E+03 0.57105086E+03 0.32000000E+00 0.0000E+00 0.9000E+01
       -4  1    1    2    0  501 0.12512624E+02 -.11690212E+02 0.42231355E+03 0.42266342E+03 0.15500000E+01 0.0000E+00 0.9000E+01
#aMCatNLO 1  0  0  1  5 0.16249317D+04 0.00000000D+00  -5  6  0 0.00000000D+00 0.00000000D+00 0.00000000D+00 0.00000000D+00 0.00000000D+00
  <mgrwgt>
 -.1140281910D-02    1    2    0
 0.779858414247023D+03 0.000000000000000D+00 0.000000000000000D+00 0.779858414247023D+03
 0.779858414247023D+03 0.000000000000000D+00 0.000000000000000D+00 -.779858414247023D+03
 0.535564834192886D+03 -.201977432069825D+03 0.406916885353516D+03 -.254614329865241D+03
 0.509497503691637D+03 0.189476991871351D+03 -.395238056512171D+03 -.259755759327634D+03
 0.514654490609522D+03 0.125004401984734D+02 -.116788288413448D+02 0.514370089192875D+03
 0.000000000000000D+00 -.000000000000000D+00 0.000000000000000D+00 -.000000000000000D+00
 0.126046031649905D+04 0.000000000000000D+00 0.000000000000000D+00 0.126046031649905D+04
 0.220132145814421D+04 0.000000000000000D+00 0.000000000000000D+00 -.220132145814421D+04
 0.370376456667233D+03 0.471971494549508D+02 0.233447406847830D+03 -.254614329865241D+03
 0.926353658143283D+03 0.584400609981745D+03 -.670174583600819D+03 -.259755759327634D+03
 0.657672391378128D+03 0.334943034632135D+03 -.236155773328021D+03 0.514370089192875D+03
 0.150737926845461D+04 -.966540794068831D+03 0.672882950081010D+03 -.940861141645160D+03
-.938886259929D-03 0.000000000000D+00 0.000000000000D+00 0.322829047830D-04 0.000000000000D+00  6 -3 1 25 2 -4 21 2 0.98423195D-01 0.14625386D+00 0.21464046D+06 0.21464046D+06 0.21464046D+06 0.10954767D+01  1  2 14  1  6  1       -3 -.114028191005D-02 0.100000000000D+01
  </mgrwgt>
  </event>
  <event>
  5     66 -.16453327E-05 0.11400859E+02 0.75467711E-02 0.94136763E-01
       -3 -1    0    0    0  501 0.00000000E+00 0.00000000E+00 0.14699802E+03 0.14699887E+03 0.50000000E+00 0.0000E+00 0.9000E+01
        1 -1    0    0  502    0 -.00000000E+00 -.00000000E+00 -.27375966E+04 0.27375966E+04 0.32000000E+00 0.0000E+00 0.9000E+01
       25  1    1    2    0    0 -.31798136E+03 0.40411144E+03 -.10207619E+04 0.11497818E+04 0.12500000E+03 0.0000E+00 0.9000E+01
        2  1    1    2  502    0 0.31755871E+03 -.39265369E+03 -.16129597E+04 0.16901655E+04 0.32000000E+00 0.0000E+00 0.9000E+01
       -4  1    1    2    0  501 0.42264367E+00 -.11457751E+02 0.43123055E+02 0.44648170E+02 0.15500000E+01 0.0000E+00 0.9000E+01
#aMCatNLO 1  0  0  4  2 0.24845265D+02 0.00000000D+00  -5  6  0 0.00000000D+00 0.00000000D+00 0.00000000D+00 0.00000000D+00 0.00000000D+00
  <mgrwgt>
 -.9986846840D-02    6    2    0
 0.634367817421355D+03 0.000000000000000D+00 0.000000000000000D+00 0.634367817421355D+03
 0.634367817421355D+03 -.000000000000000D+00 -.000000000000000D+00 -.634367817421355D+03
 0.530491975607135D+03 -.318374281460895D+03 0.404563631418792D+03 0.276192183281871D+02
 0.549755542128729D+03 0.317954022192791D+03 -.393170520804530D+03 -.215762224318745D+03
 0.188488117106847D+03 0.420259268103688D+00 -.113931106142610D+02 0.188143005990558D+03
 0.000000000000000D+00 0.000000000000000D+00 0.000000000000000D+00 -.000000000000000D+00
 0.634367817421355D+03 0.000000000000000D+00 0.000000000000000D+00 0.634367817421355D+03
 0.634367817421355D+03 -.000000000000000D+00 -.000000000000000D+00 -.634367817421355D+03
 0.526463536781898D+03 -.315820271387059D+03 0.401405434318642D+03 0.258860781380964D+02
 0.497585033673567D+03 0.308583524984888D+03 -.350278225031652D+03 -.172256317482121D+03
 0.187947790624756D+03 0.132987286037967D+01 -.125179061030540D+02 0.187525746140890D+03
 0.567392737624887D+02 0.590687354179150D+01 -.386093031839359D+02 -.411555067968655D+02
0.400909081618D-03 0.000000000000D+00 0.000000000000D+00 0.660271133444D-05 0.000000000000D+00  6 -3 1 25 2 -4 21 0 0.22615147D-01 0.42116877D+00 0.27395767D+06 0.27395767D+06 0.27395767D+06 0.10874818D+01  1  2  2  3  6  4        2 0.529039274379D-03 0.100000000000D+01
0.302157776954D-03 0.000000000000D+00 -.153959643520D-05 0.660271133444D-05 0.000000000000D+00  6 -3 1 25 2 -4 21 2 0.22615147D-01 0.42116877D+00 0.27395767D+06 0.27395767D+06 0.27395767D+06 0.10874818D+01  1  2  3  3  6  4        2 0.471541325222D-03 0.100000000000D+01
-.251232815305D-03 0.000000000000D+00 0.000000000000D+00 0.660271133444D-05 0.000000000000D+00  6 -3 1 25 2 -4 21 2 0.22615147D-01 0.42116877D+00 0.27395767D+06 0.27395767D+06 0.27395767D+06 0.10874818D+01  1  2 15  3  6  4        2 -.392068858405D-03 0.100000000000D+01
-.734379542938D-02 0.000000000000D+00 0.000000000000D+00 0.660271133444D-05 0.000000000000D+00  6 -3 1 25 2 -4 21 2 0.22615147D-01 0.42116877D+00 0.27395767D+06 0.27395767D+06 0.27395767D+06 0.10874818D+01  1  2  4  3  6  4        2 -.114605788533D-01 0.100000000000D+01
-.510975547202D-02 0.000000000000D+00 0.000000000000D+00 0.660271133444D-05 0.000000000000D+00  6 -3 1 25 2 -4 21 2 0.22615147D-01 0.42116877D+00 0.27395767D+06 0.27395767D+06 0.27395767D+06 0.10874818D+01  1  2  5  3  6  4        2 -.797418120800D-02 0.100000000000D+01
0.566417778914D-02 0.000000000000D+00 -.000000000000D+00 0.660271133444D-05 0.000000000000D+00  6 -3 1 25 2 -4 21 2 0.22615147D-01 0.42116877D+00 0.27395767D+06 0.27395767D+06 0.27395767D+06 0.10874818D+01  1  2  6  3  6  4        2 0.883940148061D-02 0.100000000000D+01
  </mgrwgt>
  </event>
  <event>
  5     66 -.16453327E-05 0.24618581E+02 0.75467711E-02 0.94208482E-01
       -3 -1    0    0    0  501 0.00000000E+00 0.00000000E+00 0.13910046E+04 0.13910047E+04 0.50000000E+00 0.0000E+00 0.9000E+01
        1 -1    0    0  502    0 0.00000000E+00 0.00000000E+00 -.10166729E+04 0.10166730E+04 0.32000000E+00 0.0000E+00 0.9000E+01
       25  1    1    2    0    0 -.48213977E+03 -.12497543E+03 -.99190731E+02 0.52301188E+03 0.12500000E+03 0.0000E+00 0.9000E+01
        2  1    1    2  502    0 0.45804210E+03 0.11989875E+03 -.62598620E+03 0.78488031E+03 0.32000000E+00 0.0000E+00 0.9000E+01
       -4  1    1    2    0  501 0.24097678E+02 0.50766799E+01 0.10995086E+04 0.10997855E+04 0.15500000E+01 0.0000E+00 0.9000E+01
#aMCatNLO 1  0  0  2  2 0.32598445D+02 0.00000000D+00  -5  6  0 0.00000000D+00 0.00000000D+00 0.00000000D+00 0.00000000D+00 0.00000000D+00
  <mgrwgt>
 -.2196973804D-01    7    2    0
 0.118920009305547D+04 0.000000000000000D+00 0.000000000000000D+00 0.118920009305547D+04
 0.118920009305547D+04 0.000000000000000D+00 0.000000000000000D+00 -.118920009305547D+04
 0.545247941774094D+03 -.482429018247066D+03 -.125051229429739D+03 -.182468491472277D+03
 0.893186708432662D+03 0.458339213744541D+03 0.119976208296881D+03 -.757174597241292D+03
 0.939965535904187D+03 0.240898045025250D+02 0.507502113285805D+01 0.939643088713569D+03
 0.000000000000000D+00 0.000000000000000D+00 0.000000000000000D+00 -.000000000000000D+00
 0.119094082126828D+04 0.000000000000000D+00 0.000000000000000D+00 0.119094082126828D+04
 0.135239283057212D+04 0.000000000000000D+00 0.000000000000000D+00 -.135239283057212D+04
 0.549421356287001D+03 -.485310293205752D+03 -.131977254375992D+03 -.182468491472277D+03
 0.889339438647057D+03 0.453647433350333D+03 0.108698080204780D+03 -.757174597241292D+03
 0.939862778463972D+03 0.191419154383004D+02 -.681874242025159D+01 0.939643088713569D+03
 0.164710078442371D+03 0.125209444171194D+02 0.300979165914636D+02 -.161452009303844D+03
0.335523364413D-02 0.000000000000D+00 0.000000000000D+00 0.386693255283D-03 0.000000000000D+00  6 -3 1 25 2 -4 21 0 0.21400072D+00 0.15641123D+00 0.25614235D+06 0.25614235D+06 0.25614235D+06 0.10896670D+01  1  2  2  2  6  2        1 0.207194735061D-03 0.100000000000D+01
0.257028112950D-02 0.000000000000D+00 -.128849806468D-04 0.386693255283D-03 0.000000000000D+00  6 -3 1 25 2 -4 21 2 0.21400072D+00 0.15641123D+00 0.25614235D+06 0.25614235D+06 0.25614235D+06 0.10896670D+01  1  2  3  2  6  2        1 0.188462152629D-03 0.100000000000D+01
-.204404129486D-02 0.000000000000D+00 0.000000000000D+00 0.386693255283D-03 0.000000000000D+00  6 -3 1 25 2 -4 21 2 0.21400072D+00 0.15641123D+00 0.25614235D+06 0.25614235D+06 0.25614235D+06 0.10896670D+01  1  2 15  2  6  2        1 -.149876376584D-03 0.100000000000D+01
-.358880762935D+00 0.000000000000D+00 0.000000000000D+00 0.386693255283D-03 0.000000000000D+00  6 -3 1 25 2 -4 21 2 0.21400072D+00 0.15641123D+00 0.25614235D+06 0.25614235D+06 0.25614235D+06 0.10896670D+01  1  2  4  2  6  2        1 -.263144137595D-01 0.100000000000D+01
-.295918454444D+00 0.000000000000D+00 -.639675088353D-02 0.386693255283D-03 0.000000000000D+00  6 -3 1 25 2 -4 21 2 0.21400072D+00 0.17797751D+00 0.25614235D+06 0.25614235D+06 0.25614235D+06 0.10896670D+01  1  2  5  2  6  2        1 -.171027783111D-01 0.100000000000D+01
0.294338841483D+00 0.000000000000D+00 0.634375600080D-02 0.386693255283D-03 0.000000000000D+00  6 -3 1 25 2 -4 21 2 0.21400072D+00 0.15641123D+00 0.25614235D+06 0.25614235D+06 0.25614235D+06 0.10896670D+01  1  2  6  2  6  2        1 0.215819705602D-01 0.100000000000D+01
-.593721184406D-02 0.000000000000D+00 -.129074285387D-03 0.386693255283D-03 0.000000000000D+00  6 -3 21 25 2 -4 -1 2 0.21400072D+00 0.17797751D+00 0.25614235D+06 0.25614235D+06 0.25614235D+06 0.10896670D+01  1  2  5  6  6  2        1 -.380297042950D-03 0.100000000000D+01
  </mgrwgt>
  </event>
  <event>
  5     66 0.16453327E-05 0.80156842E+02 0.75467711E-02 0.94806666E-01
       -3 -1    0    0    0  501 0.00000000E+00 0.00000000E+00 0.17419779E+03 0.17419851E+03 0.50000000E+00 0.0000E+00 0.9000E+01
        1 -1    0    0  502    0 0.00000000E+00 0.00000000E+00 -.31884104E+04 0.31884104E+04 0.32000000E+00 0.0000E+00 0.9000E+01
       25  1    1    2    0    0 0.39766441E+03 -.25963510E+03 -.48167406E+03 0.68788245E+03 0.12500000E+03 0.0000E+00 0.9000E+01
        2  1    1    2  502    0 -.31724471E+03 0.26330446E+03 -.25574302E+04 0.25904484E+04 0.32000000E+00 0.0000E+00 0.9000E+01
       -4  1    1    2    0  501 -.80419703E+02 -.36693685E+01 0.24891694E+02 0.84278062E+02 0.15500000E+01 0.0000E+00 0.9000E+01
#aMCatNLO 1  0  0  2  2 0.32598445D+02 0.00000000D+00  -5  6  0 0.00000000D+00 0.00000000D+00 0.00000000D+00 0.00000000D+00 0.00000000D+00
  <mgrwgt>
 0.3476466679D-03    1    2    0
 0.745261893507335D+03 0.000000000000000D+00 0.000000000000000D+00 0.745261893507335D+03
 0.745261893507335D+03 0.000000000000000D+00 0.000000000000000D+00 -.745261893507335D+03
 0.578496213450507D+03 0.397710718357146D+03 -.259924796349682D+03 0.305447464751295D+03
 0.672599819930062D+03 -.317637185202238D+03 0.263578369953649D+03 -.531058922568229D+03
 0.239427753634101D+03 -.800735331549086D+02 -.365357360396701D+01 0.225611457816934D+03
 0.000000000000000D+00 -.000000000000000D+00 0.000000000000000D+00 -.000000000000000D+00
 0.881570656552779D+03 0.000000000000000D+00 0.000000000000000D+00 0.881570656552779D+03
 0.913882625743520D+03 0.000000000000000D+00 0.000000000000000D+00 -.913882625743520D+03
 0.671720549180136D+03 0.467429985232646D+03 -.351844498853227D+03 0.305447464751295D+03
 0.609331343642504D+03 -.246149341189431D+03 0.169326929157358D+03 -.531058922568229D+03
 0.235074881094073D+03 -.536125410993133D+02 -.385404366864833D+02 0.225611457816934D+03
 0.279326508379585D+03 -.167668102943902D+03 0.221058006382353D+03 -.323119691907404D+02
0.646461055722D-03 0.000000000000D+00 0.000000000000D+00 0.451204112103D-05 0.000000000000D+00  6 -3 1 25 2 -4 21 2 0.26799717D-01 0.49052473D+00 0.24216039D+06 0.24216039D+06 0.24216039D+06 0.10915016D+01  1  2 14  2  6  2        1 0.347646667872D-03 0.100000000000D+01
  </mgrwgt>
  </event>
  <event>
  5     66 0.16453327E-05 0.22242091E+03 0.75467711E-02 0.92896464E-01
       -3 -1    0    0    0  501 0.00000000E+00 0.00000000E+00 0.21624919E+04 0.21624919E+04 0.50000000E+00 0.0000E+00 0.9000E+01
        1 -1    0    0  502    0 0.00000000E+00 0.00000000E+00 -.12575114E+04 0.12575114E+04 0.32000000E+00 0.0000E+00 0.9000E+01
       25  1    1    2    0    0 -.11484990E+03 0.55444887E+03 -.11799273E+03 0.59173587E+03 0.12500000E+03 0.0000E+00 0.9000E+01
        2  1    1    2  502    0 0.22679105E+02 -.35199530E+03 -.86139465E+03 0.93081463E+03 0.32000000E+00 0.0000E+00 0.9000E+01
       -4  1    1    2    0  501 0.92170792E+02 -.20245358E+03 0.18843678E+04 0.18974529E+04 0.15500000E+01 0.0000E+00 0.9000E+01
#aMCatNLO 1  0  0  2  2 0.17420983D+02 0.00000000D+00  -5  6  0 0.00000000D+00 0.00000000D+00 0.00000000D+00 0.00000000D+00 0.00000000D+00
  <mgrwgt>
 0.3312329041D-03    7    2    0
 0.164904771575448D+04 0.000000000000000D+00 0.000000000000000D+00 0.164904771575448D+04
 0.164904771575448D+04 0.000000000000000D+00 0.000000000000000D+00 -.164904771575448D+04
 0.645976999568074D+03 -.114855627966010D+03 0.554597129055424D+03 -.284414298408126D+03
 0.120176502766839D+04 0.226958671691064D+02 -.352167783161015D+03 -.114878280446902D+04
 0.145035340427250D+04 0.921597607969035D+02 -.202429345894409D+03 0.143319710287714D+04
 0.000000000000000D+00 0.000000000000000D+00 -.000000000000000D+00 -.000000000000000D+00
 0.165223372956798D+04 0.000000000000000D+00 0.000000000000000D+00 0.165223372956798D+04
 0.167305821444638D+04 0.000000000000000D+00 0.000000000000000D+00 -.167305821444638D+04
 0.647149260209839D+03 -.118206007023810D+03 0.555259409424679D+03 -.284414298408126D+03
 0.120130345472326D+04 0.164697231580444D+02 -.350937040942436D+03 -.114878280446902D+04
 0.144968872623864D+04 0.846460007542687D+02 -.200944076410067D+03 0.143319710287714D+04
 0.271505028426123D+02 0.170902831114964D+02 -.337829207217558D+01 -.208244848783992D+02
0.178149234878D+00 0.000000000000D+00 0.000000000000D+00 0.709508714927D-04 0.000000000000D+00  6 -3 1 25 2 -4 21 0 0.33269106D+00 0.19346330D+00 0.33368806D+06 0.33368806D+06 0.33368806D+06 0.10811488D+01  1  2  2  2  6  2        1 0.645627527329D-04 0.100000000000D+01
0.247419918955D-01 0.000000000000D+00 -.684139969702D-03 0.709508714927D-04 0.000000000000D+00  6 -3 1 25 2 -4 21 2 0.33269106D+00 0.19346330D+00 0.33368806D+06 0.33368806D+06 0.33368806D+06 0.10811488D+01  1  2  3  2  6  2        1 0.104810236218D-04 0.100000000000D+01
-.114549062822D+00 0.000000000000D+00 0.000000000000D+00 0.709508714927D-04 0.000000000000D+00  6 -3 1 25 2 -4 21 2 0.33269106D+00 0.19346330D+00 0.33368806D+06 0.33368806D+06 0.33368806D+06 0.10811488D+01  1  2 15  2  6  2        1 -.485244453382D-04 0.100000000000D+01
-.274556727535D-01 0.000000000000D+00 0.000000000000D+00 0.709508714927D-04 0.000000000000D+00  6 -3 1 25 2 -4 21 2 0.33269106D+00 0.19346330D+00 0.33368806D+06 0.33368806D+06 0.33368806D+06 0.10811488D+01  1  2  4  2  6  2        1 -.116305734759D-04 0.100000000000D+01
-.251218851284D+02 0.000000000000D+00 -.256175323765D+01 0.709508714927D-04 0.000000000000D+00  6 -3 1 25 2 -4 21 2 0.33269106D+00 0.19645619D+00 0.33368806D+06 0.33368806D+06 0.33368806D+06 0.10811488D+01  1  2  5  2  6  2        1 -.103133098396D-01 0.100000000000D+01
0.251585493922D+02 0.000000000000D+00 0.256145140008D+01 0.709508714927D-04 0.000000000000D+00  6 -3 1 25 2 -4 21 2 0.33269106D+00 0.19346330D+00 0.33368806D+06 0.33368806D+06 0.33368806D+06 0.10811488D+01  1  2  6  2  6  2        1 0.106574826951D-01 0.100000000000D+01
-.704526468189D-01 0.000000000000D+00 -.720691182445D-02 0.709508714927D-04 0.000000000000D+00  6 -3 21 25 2 -4 -1 2 0.33269106D+00 0.19645619D+00 0.33368806D+06 0.33368806D+06 0.33368806D+06 0.10811488D+01  1  2  5  6  6  2        1 -.278287089796D-04 0.100000000000D+01
  </mgrwgt>
  </event>
  <event>
  5     66 0.16453327E-05 0.24808163E+03 0.75467711E-02 0.94345285E-01
       -3 -1    0    0    0  501 0.00000000E+00 0.00000000E+00 0.12412280E+04 0.12412281E+04 0.50000000E+00 0.0000E+00 0.9000E+01
        1 -1    0    0  502    0 0.00000000E+00 0.00000000E+00 -.92321686E+03 0.92321692E+03 0.32000000E+00 0.0000E+00 0.9000E+01
       25  1    1    2    0    0 -.17059384E+03 0.42548278E+03 0.56144976E+03 0.73551934E+03 0.12500000E+03 0.0000E+00 0.9000E+01
        2  1    1    2  502    0 -.43055974E+02 -.29865477E+03 -.78070550E+03 0.83698845E+03 0.32000000E+00 0.0000E+00 0.9000E+01
       -4  1    1    2    0  501 0.21364981E+03 -.12682802E+03 0.53726691E+03 0.59193727E+03 0.15500000E+01 0.0000E+00 0.9000E+01
#aMCatNLO 1  0  0  1  2 0.21475337D+03 0.00000000D+00  -5  6  0 0.00000000D+00 0.00000000D+00 0.00000000D+00 0.00000000D+00 0.00000000D+00
  <mgrwgt>
 0.7713622980D-04    1    2    0
 0.107047784815440D+04 0.000000000000000D+00 0.000000000000000D+00 0.107047784815440D+04
 0.107047784815440D+04 0.000000000000000D+00 0.000000000000000D+00 -.107047784815440D+04
 0.660736354961897D+03 -.170258514581997D+03 0.425518288665815D+03 0.459231700769428D+03
 0.962380519176374D+03 -.430672954339370D+02 -.298882609265327D+03 -.913778232194739D+03
 0.517838822170526D+03 0.213325810015934D+03 -.126635679400487D+03 0.454546531425310D+03
 0.000000000000000D+00 0.000000000000000D+00 -.000000000000000D+00 0.000000000000000D+00
 0.109014204890495D+04 0.000000000000000D+00 0.000000000000000D+00 0.109014204890495D+04
 0.108178689227821D+04 0.000000000000000D+00 0.000000000000000D+00 -.108178689227821D+04
 0.667131513248195D+03 -.173260337231641D+03 0.434196449225028D+03 0.459231700769428D+03
 0.958760470197878D+03 -.474102912041693D+02 -.286327165789503D+03 -.913778232194739D+03
 0.515268492411199D+03 0.210990332962328D+03 -.119883899825519D+03 0.454546531425310D+03
 0.307684653258900D+02 0.968029547348212D+01 -.279853836100053D+02 0.835515662674375D+01
0.518318568397D-03 0.000000000000D+00 0.000000000000D+00 0.426651179355D-05 0.000000000000D+00  6 -3 1 25 2 -4 21 2 0.19095817D+00 0.14203338D+00 0.26271149D+06 0.26271149D+06 0.26271149D+06 0.10888424D+01  1  2 14  1  6  1       -3 0.771362298030D-04 0.100000000000D+01
  </mgrwgt>
  </event>
  <event>
  5     66 -.16453327E-05 0.11292492E+03 0.75467711E-02 0.94985385E-01
       -3 -1    0    0    0  501 0.00000000E+00 0.00000000E+00 0.63875642E+03 0.63875662E+03 0.50000000E+00 0.0000E+00 0.9000E+01
        1 -1    0    0  502    0 -.00000000E+00 -.00000000E+00 -.40325448E+04 0.40325448E+04 0.32000000E+00 0.0000E+00 0.9000E+01
       25  1    1    2    0    0 -.45401122E+03 -.59051665E+02 0.23823291E+03 0.53103033E+03 0.12500000E+03 0.0000E+00 0.9000E+01
        2  1    1    2  502    0 0.77277494E+02 0.82266195E+02 -.37446682E+04 0.37463689E+04 0.32000000E+00 0.0000E+00 0.9000E+01
       -4  1    1    2    0  501 0.37673373E+03 -.23214530E+02 0.11264695E+03 0.39390221E+03 0.15500000E+01 0.0000E+00 0.9000E+01
#aMCatNLO 1  0  0  5  1 0.73271763D+02 0.00000000D+00  -5  6  0 0.00000000D+00 0.00000000D+00 0.00000000D+00 0.00000000D+00 0.00000000D+00
  <mgrwgt>
 -.2110243908D-03    7    2    0
 0.160493438110081D+04 0.000000000000000D+00 0.000000000000000D+00 0.160493438110081D+04
 0.160493438110081D+04 -.000000000000000D+00 -.000000000000000D+00 -.160493438110081D+04
 0.102534214995636D+04 -.453574235491678D+03 -.591205570290432D+02 0.909107637803057D+03
 0.149305779513518D+04 0.773162117239452D+02 0.823057735320118D+02 -.148878122726675D+04
 0.691468817110078D+03 0.376258023767733D+03 -.231852165029686D+02 0.579673589463692D+03
 0.000000000000000D+00 0.000000000000000D+00 0.000000000000000D+00 0.000000000000000D+00
 0.160493438110081D+04 0.000000000000000D+00 0.000000000000000D+00 0.160493438110081D+04
 0.160493438110081D+04 -.000000000000000D+00 -.000000000000000D+00 -.160493438110081D+04
 0.102798239804560D+04 -.450737220731387D+03 -.592953753645588D+02 0.913478421748050D+03
 0.148693849260747D+04 0.814335800484817D+02 0.820520591392371D+02 -.148243789496534D+04
 0.414047559334489D+03 0.274650300529251D+03 0.249931372216722D+02 0.308833186205527D+03
 0.280900312214058D+03 0.946533401536551D+02 -.477498209963505D+02 0.260126287011767D+03
0.532168935623D-02 0.000000000000D+00 0.000000000000D+00 0.901344294933D-04 0.000000000000D+00  6 -3 1 25 2 -4 21 0 0.98270235D-01 0.62039152D+00 0.23236253D+06 0.23236253D+06 0.23236253D+06 0.10928575D+01  1  2  2  4  6  5       -4 0.287807873714D-04 0.100000000000D+01
0.110395599933D-02 0.000000000000D+00 -.204366883609D-04 0.901344294933D-04 0.000000000000D+00  6 -3 1 25 2 -4 21 2 0.98270235D-01 0.62039152D+00 0.23236253D+06 0.23236253D+06 0.23236253D+06 0.10928575D+01  1  2  3  4  6  5       -4 0.713069747665D-05 0.100000000000D+01
-.355787694407D-02 0.000000000000D+00 0.000000000000D+00 0.901344294933D-04 0.000000000000D+00  6 -3 1 25 2 -4 21 2 0.98270235D-01 0.62039152D+00 0.23236253D+06 0.23236253D+06 0.23236253D+06 0.10928575D+01  1  2 15  4  6  5       -4 -.229811189600D-04 0.100000000000D+01
0.244760196684D-01 0.000000000000D+00 0.000000000000D+00 0.901344294933D-04 0.000000000000D+00  6 -3 1 25 2 -4 21 2 0.98270235D-01 0.62039152D+00 0.23468969D+06 0.23468969D+06 0.23468969D+06 0.10925299D+01  1  2 12  4  6  5       -4 0.157833240007D-03 0.100000000000D+01
-.737214292246D-01 0.000000000000D+00 0.000000000000D+00 0.901344294933D-04 0.000000000000D+00  6 -3 1 25 2 -4 21 2 0.98270235D-01 0.62039152D+00 0.23236253D+06 0.23236253D+06 0.23236253D+06 0.10928575D+01  1  2  4  4  6  5       -4 -.476183117502D-03 0.100000000000D+01
-.257238552404D-01 0.000000000000D+00 0.000000000000D+00 0.901344294933D-04 0.000000000000D+00  6 -3 1 25 2 -4 21 2 0.98270235D-01 0.62039152D+00 0.23236253D+06 0.23236253D+06 0.23236253D+06 0.10928575D+01  1  2  5  4  6  5       -4 -.166156105645D-03 0.100000000000D+01
0.403378618357D-01 0.000000000000D+00 -.000000000000D+00 0.901344294933D-04 0.000000000000D+00  6 -3 1 25 2 -4 21 2 0.98270235D-01 0.62039152D+00 0.23236253D+06 0.23236253D+06 0.23236253D+06 0.10928575D+01  1  2  6  4  6  5       -4 0.260551226480D-03 0.100000000000D+01
  </mgrwgt>
  </event>
  <event>
  6     66 0.16453327E-05 0.58797872E+02 0.75467711E-02 0.93236955E-01
       -3 -1    0    0    0  503 0.00000000E+00 0.00000000E+00 0.26831336E+03 0.26831382E+03 0.50000000E+00 0.0000E+00 0.9000E+01
        1 -1    0    0  502    0 0.00000000E+00 0.00000000E+00 -.18787404E+04 0.18787405E+04 0.32000000E+00 0.0000E+00 0.9000E+01
       25  1    1    2    0    0 -.53500588E+02 -.49858713E+03 -.29010838E+03 0.59265447E+03 0.12500000E+03 0.0000E+00 0.9000E+01
        2  1    1    2  502    0 -.32334855E+02 0.76767471E+02 -.78432369E+03 0.78873477E+03 0.32000000E+00 0.0000E+00 0.9000E+01
       -4  1    1    2    0  501 -.14123651E+02 0.43229674E+03 -.49437744E+03 0.65688006E+03 0.15500000E+01 0.0000E+00 0.9000E+01
       21  1    1    2  501  503 0.99959094E+02 -.10477080E+02 -.41617561E+02 0.10878499E+03 0.75000000E+00 0.0000E+00 0.9000E+01
#aMCatNLO 2  0  0  1  4 0.47275206D+03 0.00000000D+00  -5  6  0 0.00000000D+00 0.00000000D+00 0.00000000D+00 0.00000000D+00 0.00000000D+00
  <mgrwgt>
 0.8680298885D-04    1    2    0
 0.648705797877969D+03 0.000000000000000D+00 0.000000000000000D+00 0.648705797877969D+03
 0.648705797877969D+03 0.000000000000000D+00 0.000000000000000D+00 -.648705797877969D+03
 0.580109408188709D+03 -.889660609672450D+01 -.502867516763805D+03 0.260666523460185D+03
 0.288193121866489D+03 -.101335072646606D+02 0.745394353224181D+02 -.278202192844494D+03
 0.429109065700740D+03 0.190301133613851D+02 0.428328081441387D+03 0.175356693843092D+02
 0.000000000000000D+00 0.000000000000000D+00 -.000000000000000D+00 0.000000000000000D+00
 0.743739041279764D+03 0.000000000000000D+00 0.000000000000000D+00 0.743739041279764D+03
 0.677778029942184D+03 0.000000000000000D+00 0.000000000000000D+00 -.677778029942184D+03
 0.578472062512633D+03 -.534613086669020D+02 -.498196526614170D+03 0.260666523460185D+03
 0.290439242615645D+03 -.323905343902671D+02 0.768722760790719D+02 -.278202192844494D+03
 0.432387445501737D+03 -.141072505252852D+02 0.431801330254295D+03 0.175356693843092D+02
 0.120218320591933D+03 0.999590935824543D+02 -.104770797191976D+02 0.659610113375810D+02
0.462623743303D-04 0.000000000000D+00 0.000000000000D+00 0.485108836875D-06 0.126903775636D-09  6 -3 1 25 2 -4 21 2 0.41278946D-01 0.28903654D+00 0.32056514D+06 0.32056514D+06 0.32056514D+06 0.10824279D+01  1  2  1  1  6  1       -3 0.868029888526D-04 0.100000000000D+01
  </mgrwgt>
  </event>
  <event>
  6     66 0.16453327E-05 0.11132106E+03 0.75467711E-02 0.95279362E-01
       -3 -1    0    0    0  501 0.00000000E+00 0.00000000E+00 0.56146914E+03 0.56146936E+03 0.50000000E+00 0.0000E+00 0.9000E+01
        1 -1    0    0  502    0 -.00000000E+00 -.00000000E+00 -.17953753E+04 0.17953753E+04 0.32000000E+00 0.0000E+00 0.9000E+01
       25  1    1    2    0    0 -.45137766E+03 0.29924167E+02 -.43597932E+03 0.64057804E+03 0.12500000E+03 0.0000E+00 0.9000E+01
        2  1    1    2  503    0 0.21744115E+03 0.57085637E+02 -.56094205E+03 0.60431409E+03 0.32000000E+00 0.0000E+00 0.9000E+01
       -4  1    1    2    0  501 0.39095283E+02 -.17554243E+02 0.42050792E+03 0.42268890E+03 0.15500000E+01 0.0000E+00 0.9000E+01
       21  1    1    2  502  503 0.19484123E+03 -.69455561E+02 -.65749269E+03 0.68926365E+03 0.75000000E+00 0.0000E+00 0.9000E+01
#aMCatNLO 2  0  0  4  2 0.61766537D+01 0.00000000D+00  -5  6  0 0.00000000D+00 0.00000000D+00 0.00000000D+00 0.00000000D+00 0.00000000D+00
  <mgrwgt>
 0.2970515476D-02    1    2    0
 0.100401599307498D+04 0.000000000000000D+00 0.000000000000000D+00 0.100401599307498D+04
 0.100401599307498D+04 -.000000000000000D+00 -.000000000000000D+00 -.100401599307498D+04
 0.485045934179209D+03 -.453263219191226D+03 0.299782288484654D+02 -.115318334133378D+03
 0.765068755292352D+03 0.416692804461134D+03 -.125067307729682D+02 -.641514527287011D+03
 0.757917296678408D+03 0.365704147300919D+02 -.174714980754972D+02 0.756832861420388D+03
 0.000000000000000D+00 0.000000000000000D+00 0.000000000000000D+00 -.000000000000000D+00
 0.100401599307498D+04 0.000000000000000D+00 0.000000000000000D+00 0.100401599307498D+04
 0.100401599307498D+04 -.000000000000000D+00 -.000000000000000D+00 -.100401599307498D+04
 0.484136736258266D+03 -.451654728563597D+03 0.299299511748046D+02 -.117794667042374D+03
 0.364323219261968D+03 0.217389034085093D+03 0.570881044047770D+02 -.286730473246957D+03
 0.754186937654927D+03 0.390799576296008D+02 -.175468201762663D+02 0.752969324038295D+03
 0.405385092974808D+03 0.195185736848903D+03 -.694712354033152D+02 -.348444183748964D+03
0.682775630166D-02 0.000000000000D+00 0.000000000000D+00 0.222760608323D-03 0.913418974204D-07  6 -3 1 25 2 -4 21 2 0.86379887D-01 0.27621160D+00 0.22295714D+06 0.22295714D+06 0.22295714D+06 0.10942193D+01  1  2  1  3  6  4        2 0.297051547583D-02 0.100000000000D+01
  </mgrwgt>
  </event>
  <event>
  5     66 -.16453327E-05 0.32225111E+02 0.75467711E-02 0.92156622E-01
       -3 -1    0    0    0  501 0.00000000E+00 0.00000000E+00 0.32377579E+03 0.32377617E+03 0.50000000E+00 0.0000E+00 0.9000E+01
        1 -1    0    0  502    0 -.00000000E+00 -.00000000E+00 -.24132508E+04 0.24132508E+04 0.32000000E+00 0.0000E+00 0.9000E+01
       25  1    1    2    0    0 -.58449148E+03 -.53824999E+02 -.43188172E+03 0.73937422E+03 0.12500000E+03 0.0000E+00 0.9000E+01
        2  1    1    2  502    0 -.31507357E+02 -.66363123E+01 -.12634353E+04 0.12638455E+04 0.32000000E+00 0.0000E+00 0.9000E+01
       -4  1    1    2    0  501 0.61599884E+03 0.60461311E+02 -.39415806E+03 0.73380728E+03 0.15500000E+01 0.0000E+00 0.9000E+01
#aMCatNLO 1  0  0  4  2 0.61766537D+01 0.00000000D+00  -5  6  0 0.00000000D+00 0.00000000D+00 0.00000000D+00 0.00000000D+00 0.00000000D+00
  <mgrwgt>
 -.2329782576D-03    1    2    0
 0.883941593009278D+03 0.000000000000000D+00 0.000000000000000D+00 0.883941593009278D+03
 0.883941593009278D+03 -.000000000000000D+00 -.000000000000000D+00 -.883941593009278D+03
 0.634125024947276D+03 -.584143066773453D+03 -.537877599594405D+02 0.205847763367577D+03
 0.463893037688363D+03 -.315332059577660D+02 -.664189077130630D+01 -.462772398296121D+03
 0.669865123382918D+03 0.615676272731219D+03 0.604296507307468D+02 0.256924634928545D+03
 0.000000000000000D+00 0.000000000000000D+00 -.000000000000000D+00 0.000000000000000D+00
 0.883941593009278D+03 0.000000000000000D+00 0.000000000000000D+00 0.883941593009278D+03
 0.883941593009278D+03 -.000000000000000D+00 -.000000000000000D+00 -.883941593009278D+03
 0.631937468385327D+03 -.584729333449617D+03 -.539112462687981D+02 0.197243879698631D+03
 0.342449949755674D+03 0.390737880949488D+02 0.140085458548158D+02 -.339924944384210D+03
 0.665853120420212D+03 0.615057751055386D+03 0.602993704980272D+02 0.247847386021250D+03
 0.127642647457344D+03 -.694022057007172D+02 -.203966700840450D+02 -.105166321335671D+03
-.428418687966D-03 0.000000000000D+00 0.000000000000D+00 0.870608408689D-05 0.000000000000D+00  6 -3 1 25 2 -4 21 2 0.49811691D-01 0.37126939D+00 0.39102776D+06 0.39102776D+06 0.39102776D+06 0.10761386D+01  1  2 14  3  6  4        2 -.232978257574D-03 0.100000000000D+01
  </mgrwgt>
  </event>
  <event>
  5     66 0.16453327E-05 0.31871936E+02 0.75467711E-02 0.94019531E-01
       -3 -1    0    0    0  501 0.00000000E+00 0.00000000E+00 0.41037731E+03 0.41037762E+03 0.50000000E+00 0.0000E+00 0.9000E+01
        1 -1    0    0  502    0 0.00000000E+00 0.00000000E+00 -.14285369E+04 0.14285369E+04 0.32000000E+00 0.0000E+00 0.9000E+01
       25  1    1    2    0    0 0.38387547E+03 0.34484460E+03 -.67512740E+03 0.85889475E+03 0.12500000E+03 0.0000E+00 0.9000E+01
        2  1    1    2  502    0 -.31733642E+02 -.26132243E+01 -.47139653E+03 0.47247078E+03 0.32000000E+00 0.0000E+00 0.9000E+01
       -4  1    1    2    0  501 -.35214183E+03 -.34223138E+03 0.12836436E+03 0.50754901E+03 0.15500000E+01 0.0000E+00 0.9000E+01
#aMCatNLO 1  0  0  2  4 0.12524221D+01 0.00000000D+00  -5  6  0 0.00000000D+00 0.00000000D+00 0.00000000D+00 0.00000000D+00 0.00000000D+00
  <mgrwgt>
 0.8838640979D-03   11    2    0
 0.765662745822814D+03 0.000000000000000D+00 0.000000000000000D+00 0.765662745822814D+03
 0.765662745822814D+03 0.000000000000000D+00 0.000000000000000D+00 -.765662745822814D+03
 0.582324289402444D+03 0.383850722139070D+03 0.344795175913766D+03 -.239272831320171D+03
 0.254266666415114D+03 -.317642632526014D+02 -.261760746830345D+01 -.252261208593426D+03
 0.694734535828070D+03 -.352086458886469D+03 -.342177568445463D+03 0.491534039913597D+03
 0.000000000000000D+00 0.000000000000000D+00 0.000000000000000D+00 -.000000000000000D+00
 0.765665015338375D+03 0.000000000000000D+00 0.000000000000000D+00 0.765665015338375D+03
 0.960424671580429D+03 0.000000000000000D+00 0.000000000000000D+00 -.960424671580429D+03
 0.581907180259082D+03 0.383453166571801D+03 0.344533231597714D+03 -.239272831320171D+03
 0.254289622731068D+03 -.319379223481409D+02 -.273202924164144D+01 -.252261208593426D+03
 0.695129200813362D+03 -.352561062159655D+03 -.342490278516774D+03 0.491534039913597D+03
 0.194763683115291D+03 0.104581793599551D+01 0.689076160701662D+00 -.194759656242054D+03
0.746335574230D-06 0.000000000000D+00 0.000000000000D+00 0.192783770727D-04 0.000000000000D+00  6 -3 1 25 2 -4 21 0 0.63134998D-01 0.21977493D+00 0.27759004D+06 0.27759004D+06 0.27759004D+06 0.10870553D+01  1  2  2  2  6  2        1 0.978530100495D-06 0.100000000000D+01
0.296493318679D-06 0.000000000000D+00 -.286612511971D-08 0.192783770727D-04 0.000000000000D+00  6 -3 1 25 2 -4 21 2 0.63134998D-01 0.21977493D+00 0.27759004D+06 0.27759004D+06 0.27759004D+06 0.10870553D+01  1  2  3  2  6  2        1 0.459365327686D-06 0.100000000000D+01
-.572183755374D-06 0.000000000000D+00 0.000000000000D+00 0.192783770727D-04 0.000000000000D+00  6 -3 1 25 2 -4 21 2 0.63134998D-01 0.21977493D+00 0.27759004D+06 0.27759004D+06 0.27759004D+06 0.10870553D+01  1  2 15  2  6  2        1 -.886500172938D-06 0.100000000000D+01
0.169003547479D-05 0.000000000000D+00 0.000000000000D+00 0.192783770727D-04 0.000000000000D+00  6 -3 1 25 2 -4 21 2 0.63134998D-01 0.27595557D+00 0.27839980D+06 0.27839980D+06 0.27839980D+06 0.10869610D+01  1  2 12  2  6  2        1 0.149229930044D-05 0.100000000000D+01
-.272218065801D-01 0.000000000000D+00 0.000000000000D+00 0.192783770727D-04 0.000000000000D+00  6 -3 1 25 2 -4 21 2 0.63134998D-01 0.21977493D+00 0.27759004D+06 0.27759004D+06 0.27759004D+06 0.10870553D+01  1  2  4  2  6  2        1 -.421755004652D-01 0.100000000000D+01
-.308466106538D-01 0.000000000000D+00 -.799970392521D-06 0.192783770727D-04 0.000000000000D+00  6 -3 1 25 2 -4 21 2 0.63134998D-01 0.27567943D+00 0.27759004D+06 0.27759004D+06 0.27759004D+06 0.10870553D+01  1  2  5  2  6  2        1 -.273210896426D-01 0.100000000000D+01
0.300712223425D-01 0.000000000000D+00 0.779856520903D-06 0.192783770727D-04 0.000000000000D+00  6 -3 1 25 2 -4 21 2 0.63134998D-01 0.21977493D+00 0.27759004D+06 0.27759004D+06 0.27759004D+06 0.10870553D+01  1  2  6  2  6  2        1 0.465901793903D-01 0.100000000000D+01
0.268861610389D-01 0.000000000000D+00 0.000000000000D+00 0.192783770727D-04 0.693074406500D-04  6 -3 1 25 2 -4 21 2 0.63135185D-01 0.27567916D+00 0.27839980D+06 0.27839980D+06 0.27839980D+06 0.10869610D+01  1  2 11  2  6  2        1 0.238055074841D-01 0.100000000000D+01
0.531723926392D-07 0.000000000000D+00 0.000000000000D+00 0.192783770727D-04 0.000000000000D+00  6 -3 21 25 2 -4 -1 2 0.63134998D-01 0.27595557D+00 0.27839980D+06 0.27839980D+06 0.27839980D+06 0.10869610D+01  1  2 12  6  6  2        1 0.281545955880D-07 0.100000000000D+01
-.970487275574D-03 0.000000000000D+00 -.251687360373D-07 0.192783770727D-04 0.000000000000D+00  6 -3 21 25 2 -4 -1 2 0.63134998D-01 0.27567943D+00 0.27759004D+06 0.27759004D+06 0.27759004D+06 0.10870553D+01  1  2  5  6  6  2        1 -.516295157178D-03 0.100000000000D+01
0.938392325163D-03 0.000000000000D+00 0.000000000000D+00 0.192783770727D-04 0.241715966596D-05  6 -3 21 25 2 -4 -1 2 0.63135185D-01 0.27567916D+00 0.27839980D+06 0.27839980D+06 0.27839980D+06 0.10869610D+01  1  2 11  6  6  2        1 0.498990639310D-03 0.100000000000D+01
  </mgrwgt>
  </event>
  <event>
  6     66 0.16453327E-05 0.22746809E+03 0.75467711E-02 0.93062123E-01
       21 -1    0    0  503  501 0.00000000E+00 0.00000000E+00 0.40006029E+03 0.40006099E+03 0.75000000E+00 0.0000E+00 0.9000E+01
        1 -1    0    0  502    0 0.00000000E+00 0.00000000E+00 -.17754317E+04 0.17754317E+04 0.32000000E+00 0.0000E+00 0.9000E+01
       25  1    1    2    0    0 0.54310009E+03 -.53111241E+02 -.66735552E+03 0.87107227E+03 0.12500000E+03 0.0000E+00 0.9000E+01
        2  1    1    2  502    0 -.29883581E+03 -.74981932E+02 -.89410097E+03 0.94569645E+03 0.32000000E+00 0.0000E+00 0.9000E+01
        3  1    1    2  503    0 -.17385203E+03 0.58693822E+02 0.18395392E+03 0.25982453E+03 0.50000000E+00 0.0000E+00 0.9000E+01
       -4  1    1    2    0  501 -.70412249E+02 0.69399351E+02 0.21311877E+01 0.98899440E+02 0.15500000E+01 0.0000E+00 0.9000E+01
#aMCatNLO 2  0  0  1  5 0.18349249D+03 0.00000000D+00  -5  6  0 0.00000000D+00 0.00000000D+00 0.00000000D+00 0.00000000D+00 0.00000000D+00
  <mgrwgt>
 0.8592968916D-03    1    2    0
 0.548775822863812D+03 0.000000000000000D+00 0.000000000000000D+00 0.548775822863812D+03
 0.548775822863812D+03 0.000000000000000D+00 0.000000000000000D+00 -.548775822863812D+03
 0.483672016529873D+03 0.460874542967255D+03 -.249429018421331D+02 0.727057553876657D+02
 0.424363301180288D+03 -.362365592006452D+03 -.537052462306010D+02 -.214222164226197D+03
 0.000000000000000D+00 -.000000000000000D+00 0.000000000000000D+00 0.000000000000000D+00
 0.189516328017464D+03 -.985089509608031D+02 0.786481480727341D+02 0.141516408838532D+03
 0.124930574970489D+04 0.000000000000000D+00 0.000000000000000D+00 0.124930574970489D+04
 0.568539993749687D+03 0.000000000000000D+00 0.000000000000000D+00 -.568539993749687D+03
 0.564721161026120D+03 0.543334981632978D+03 -.527821994434576D+02 0.727057553876657D+02
 0.375726312139488D+03 -.299435250700683D+03 -.749510281850990D+02 -.214222164226197D+03
 0.705061349585802D+03 -.173852027393647D+03 0.586938222439651D+02 0.680765755955207D+03
 0.172336920703170D+03 -.700477035386478D+02 0.690394053845914D+02 0.141516408838532D+03
0.615934898206D-04 0.000000000000D+00 0.000000000000D+00 0.162632041278D-06 0.101380614914D-10  6 21 1 25 2 3 -4 2 0.61547783D-01 0.27314335D+00 0.33093499D+06 0.33093499D+06 0.33093499D+06 0.10814126D+01  1  2  1  5  5  1       -3 0.859296891608D-03 0.100000000000D+01
  </mgrwgt>
  </event>
  <event>
  5     66 0.16453327E-05 0.10471189E+03 0.75467711E-02 0.91019091E-01
       -3 -1    0    0    0  501 0.00000000E+00 0.00000000E+00 0.77496359E+03 0.77496375E+03 0.50000000E+00 0.0000E+00 0.9000E+01
        1 -1    0    0  502    0 0.00000000E+00 0.00000000E+00 -.30784086E+04 0.30784086E+04 0.32000000E+00 0.0000E+00 0.9000E+01
       25  1    1    2    0    0 -.53929840E+03 0.20268764E+03 -.49303994E+03 0.76853004E+03 0.12500000E+03 0.0000E+00 0.9000E+01
        2  1    1    2  502    0 0.85758546E+02 -.59991076E+02 -.23576095E+04 0.23599314E+04 0.32000000E+00 0.0000E+00 0.9000E+01
       -4  1    1    2    0  501 0.45353985E+03 -.14269657E+03 0.54720447E+03 0.72491092E+03 0.15500000E+01 0.0000E+00 0.9000E+01
#aMCatNLO 1  0  0  1  5 0.62692331D+01 0.00000000D+00  -5  6  0 0.00000000D+00 0.00000000D+00 0.00000000D+00 0.00000000D+00 0.00000000D+00
  <mgrwgt>
 0.1112112303D-02    7    4    0
 0.154455655102249D+04 0.000000000000000D+00 0.000000000000000D+00 0.154455655102249D+04
 0.154455655102249D+04 0.000000000000000D+00 0.000000000000000D+00 -.154455655102249D+04
 0.590963537666258D+03 -.539266502042941D+03 0.202693589326843D+03 -.414710919941917D+02
 0.118608167052755D+04 0.858025239053489D+02 -.600208919896322D+02 -.118145044270916D+04
 0.131206789385117D+04 0.453463978137592D+03 -.142672697337211D+03 0.122292153470335D+04
 0.000000000000000D+00 -.000000000000000D+00 0.000000000000000D+00 0.000000000000000D+00
 0.256652357609318D+04 0.000000000000000D+00 0.000000000000000D+00 0.256652357609318D+04
 0.155070070952183D+04 0.000000000000000D+00 0.000000000000000D+00 -.155070070952183D+04
 0.566472442940019D+03 -.517535984884918D+03 0.188951532114563D+03 -.414710919941917D+02
 0.119190216724376D+04 0.130448464980313D+03 -.882543238995458D+02 -.118145044270916D+04
 0.133378866690514D+04 0.503139150116492D+03 -.174086540385666D+03 0.122292153470335D+04
 0.102506100852609D+04 -.116051630211886D+03 0.733893321706494D+02 0.101582286657135D+04
 0.154455655102249D+04 0.000000000000000D+00 0.000000000000000D+00 0.154455655102249D+04
 0.154455655102249D+04 0.000000000000000D+00 0.000000000000000D+00 -.154455655102249D+04
 0.590963537666258D+03 -.539266502042941D+03 0.202693589326843D+03 -.414710919941917D+02
 0.118608167052755D+04 0.858025239053489D+02 -.600208919896322D+02 -.118145044270916D+04
 0.000000000000000D+00 -.000000000000000D+00 0.000000000000000D+00 0.000000000000000D+00
 0.131206789385117D+04 0.453463978137592D+03 -.142672697337211D+03 0.122292153470335D+04
 0.256652357609318D+04 0.000000000000000D+00 0.000000000000000D+00 0.256652357609318D+04
 0.155070070952183D+04 0.000000000000000D+00 0.000000000000000D+00 -.155070070952183D+04
 0.566472442940019D+03 -.517535984884918D+03 0.188951532114563D+03 -.414710919941917D+02
 0.119190216724376D+04 0.130448464980313D+03 -.882543238995458D+02 -.118145044270916D+04
 0.102506100852609D+04 -.116051630211886D+03 0.733893321706494D+02 0.101582286657135D+04
 0.133378866690514D+04 0.503139150116492D+03 -.174086540385666D+03 0.122292153470335D+04
0.865488559792D-02 0.000000000000D+00 0.000000000000D+00 0.209853905273D-03 0.000000000000D+00  6 -3 1 25 2 -4 21 0 0.11922518D+00 0.47360134D+00 0.34198951D+06 0.34198951D+06 0.34198951D+06 0.10803677D+01  1  2  2  1  6  1       -3 0.167548455972D-03 0.100000000000D+01
0.244693684856D-02 0.000000000000D+00 -.332370395797D-04 0.209853905273D-03 0.000000000000D+00  6 -3 1 25 2 -4 21 2 0.11922518D+00 0.47360134D+00 0.34198951D+06 0.34198951D+06 0.34198951D+06 0.10803677D+01  1  2  3  1  6  1       -3 0.552898040047D-04 0.100000000000D+01
-.622648355567D-02 0.000000000000D+00 0.000000000000D+00 0.209853905273D-03 0.000000000000D+00  6 -3 1 25 2 -4 21 2 0.11922518D+00 0.47360134D+00 0.34198951D+06 0.34198951D+06 0.34198951D+06 0.10803677D+01  1  2 15  1  6  1       -3 -.140690617183D-03 0.100000000000D+01
-.140267575018D+00 0.000000000000D+00 0.000000000000D+00 0.209853905273D-03 0.000000000000D+00  6 -3 1 25 2 -4 21 2 0.11922518D+00 0.47360134D+00 0.34198951D+06 0.34198951D+06 0.34198951D+06 0.10803677D+01  1  2  4  1  6  1       -3 -.316941842432D-02 0.100000000000D+01
-.339471612641D+00 0.000000000000D+00 -.515785536226D-02 0.209853905273D-03 0.000000000000D+00  6 -3 1 25 2 -4 21 2 0.19835459D+00 0.47360134D+00 0.34198951D+06 0.34198951D+06 0.34198951D+06 0.10803677D+01  1  2  5  1  6  1       -3 -.128535245715D-02 0.100000000000D+01
0.302636000794D+00 0.000000000000D+00 0.455486414892D-02 0.209853905273D-03 0.000000000000D+00  6 -3 1 25 2 -4 21 2 0.11922518D+00 0.47360134D+00 0.34198951D+06 0.34198951D+06 0.34198951D+06 0.10803677D+01  1  2  6  1  6  1       -3 0.683821700528D-02 0.100000000000D+01
-.191779424574D-01 0.000000000000D+00 -.294991493031D-03 0.209853905273D-03 0.000000000000D+00  6 21 1 25 2 3 -4 2 0.19835459D+00 0.47360134D+00 0.34198951D+06 0.34198951D+06 0.34198951D+06 0.10803677D+01  3  4  5  5  5  1       -3 -.135348146322D-02 0.100000000000D+01
  </mgrwgt>
  </event>
  <event>
  5     66 -.16453327E-05 0.75950282E+02 0.75467711E-02 0.87999179E-01
       -3 -1    0    0    0  501 0.00000000E+00 0.00000000E+00 0.10223397E+04 0.10223399E+04 0.50000000E+00 0.0000E+00 0.9000E+01
        1 -1    0    0  502    0 0.00000000E+00 0.00000000E+00 -.11377218E+04 0.11377218E+04 0.32000000E+00 0.0000E+00 0.9000E+01
       25  1    1    2    0    0 -.25344372E+03 -.82857273E+03 0.29421553E+02 0.87593215E+03 0.12500000E+03 0.0000E+00 0.9000E+01
        2  1    1    2  502    0 0.31542372E+03 0.78426902E+03 -.45825779E+03 0.96154580E+03 0.32000000E+00 0.0000E+00 0.9000E+01
       -4  1    1    2    0  501 -.61979993E+02 0.44303711E+02 0.31345420E+03 0.32258375E+03 0.15500000E+01 0.0000E+00 0.9000E+01
#aMCatNLO 1  0  0  2  4 0.28106966D+02 0.00000000D+00  -5  6  0 0.00000000D+00 0.00000000D+00 0.00000000D+00 0.00000000D+00 0.00000000D+00
  <mgrwgt>
 -.1623178897D-02    7    2    0
 0.107848893313863D+04 0.000000000000000D+00 0.000000000000000D+00 0.107848893313863D+04
 0.107848893313863D+04 0.000000000000000D+00 0.000000000000000D+00 -.107848893313863D+04
 0.879377983978968D+03 -.253778722970584D+03 -.829061403420051D+03 0.770336798647814D+02
 0.938843326101205D+03 0.315566782477904D+03 0.784894888455619D+03 -.407166318397727D+03
 0.338756556197084D+03 -.617880595073198D+02 0.441665149644321D+02 0.330132638532945D+03
 0.000000000000000D+00 0.000000000000000D+00 0.000000000000000D+00 -.000000000000000D+00
 0.108482864144061D+04 0.000000000000000D+00 0.000000000000000D+00 0.108482864144061D+04
 0.134504385636511D+04 0.000000000000000D+00 0.000000000000000D+00 -.134504385636511D+04
 0.907462983754837D+03 -.276437514583449D+03 -.851770027403317D+03 0.770336798647814D+02
 0.911486206511501D+03 0.292102897301948D+03 0.761379400306427D+03 -.407166318397727D+03
 0.339419597107593D+03 -.703879586656841D+02 0.355477024691345D+02 0.330132638532945D+03
 0.271503710431785D+03 0.547225759471854D+02 0.548429246277551D+02 -.260215214924504D+03
0.339166193651D-03 0.000000000000D+00 0.000000000000D+00 0.629508432900D-06 0.000000000000D+00  6 -3 1 25 2 -4 21 0 0.15728305D+00 0.17503413D+00 0.80811485D+06 0.80811485D+06 0.80811485D+06 0.10540793D+01  1  2  2  2  6  2        1 0.575688072147D-04 0.100000000000D+01
0.959944685232D-04 0.000000000000D+00 -.130248748813D-05 0.629508432900D-06 0.000000000000D+00  6 -3 1 25 2 -4 21 2 0.15728305D+00 0.17503413D+00 0.80811485D+06 0.80811485D+06 0.80811485D+06 0.10540793D+01  1  2  3  2  6  2        1 0.181037031440D-04 0.100000000000D+01
-.232883783041D-03 0.000000000000D+00 0.000000000000D+00 0.629508432900D-06 0.000000000000D+00  6 -3 1 25 2 -4 21 2 0.15728305D+00 0.17503413D+00 0.80811485D+06 0.80811485D+06 0.80811485D+06 0.10540793D+01  1  2 15  2  6  2        1 -.439198105898D-04 0.100000000000D+01
-.116347828133D-01 0.000000000000D+00 0.000000000000D+00 0.629508432900D-06 0.000000000000D+00  6 -3 1 25 2 -4 21 2 0.15728305D+00 0.17503413D+00 0.80811485D+06 0.80811485D+06 0.80811485D+06 0.10540793D+01  1  2  4  2  6  2        1 -.219421657764D-02 0.100000000000D+01
-.834279503004D-02 0.000000000000D+00 -.389660213729D-03 0.629508432900D-06 0.000000000000D+00  6 -3 1 25 2 -4 21 2 0.15728305D+00 0.21876062D+00 0.80811485D+06 0.80811485D+06 0.80811485D+06 0.10540793D+01  1  2  5  2  6  2        1 -.989360420324D-03 0.100000000000D+01
0.823361082276D-02 0.000000000000D+00 0.380168526978D-03 0.629508432900D-06 0.000000000000D+00  6 -3 1 25 2 -4 21 2 0.15728305D+00 0.17503413D+00 0.80811485D+06 0.80811485D+06 0.80811485D+06 0.10540793D+01  1  2  6  2  6  2        1 0.155278578476D-02 0.100000000000D+01
-.253911704097D-03 0.000000000000D+00 -.121115015607D-04 0.629508432900D-06 0.000000000000D+00  6 -3 21 25 2 -4 -1 2 0.15728305D+00 0.21876062D+00 0.80811485D+06 0.80811485D+06 0.80811485D+06 0.10540793D+01  1  2  5  6  6  2        1 -.241403835588D-04 0.100000000000D+01
  </mgrwgt>
  </event>
  <event>
  5     66 0.16453327E-05 0.92076529E+02 0.75467711E-02 0.94102480E-01
       -3 -1    0    0    0  501 0.00000000E+00 0.00000000E+00 0.75246983E+03 0.75247000E+03 0.50000000E+00 0.0000E+00 0.9000E+01
        1 -1    0    0  502    0 -.00000000E+00 -.00000000E+00 -.13044330E+04 0.13044331E+04 0.32000000E+00 0.0000E+00 0.9000E+01
       25  1    1    2    0    0 -.12173757E+03 -.44035509E+03 -.69236449E+03 0.83888392E+03 0.12500000E+03 0.0000E+00 0.9000E+01
        2  1    1    2  502    0 -.21936744E+02 0.89350736E+02 -.48116121E+03 0.48987854E+03 0.32000000E+00 0.0000E+00 0.9000E+01
       -4  1    1    2    0  501 0.14367432E+03 0.35100435E+03 0.62156252E+03 0.72814060E+03 0.15500000E+01 0.0000E+00 0.9000E+01
#aMCatNLO 1  0  0  4  1 0.93653644D+02 0.00000000D+00  -5  6  0 0.00000000D+00 0.00000000D+00 0.00000000D+00 0.00000000D+00 0.00000000D+00
  <mgrwgt>
 0.9441555907D-03    6    2    0
 0.990730390785117D+03 0.000000000000000D+00 0.000000000000000D+00 0.990730390785117D+03
 0.990730390785117D+03 -.000000000000000D+00 -.000000000000000D+00 -.990730390785117D+03
 0.677723163545021D+03 -.121717439333328D+03 -.440400438059403D+03 -.484681344312627D+03
 0.374801361385859D+03 -.219458781797133D+02 0.894229593465295D+02 -.363315253284697D+03
 0.928936256639354D+03 0.143663317513041D+03 0.350977478712873D+03 0.847996597597324D+03
 0.000000000000000D+00 0.000000000000000D+00 0.000000000000000D+00 -.000000000000000D+00
 0.990730390785117D+03 0.000000000000000D+00 0.000000000000000D+00 0.990730390785117D+03
 0.990730390785117D+03 -.000000000000000D+00 -.000000000000000D+00 -.990730390785117D+03
 0.688015985036700D+03 -.122797336787012D+03 -.436000175499464D+03 -.502559107676376D+03
 0.147735613407069D+03 -.979336874842142D+02 0.458097874643888D+02 -.100679033055422D+03
 0.909105024199936D+03 0.142209968166642D+03 0.356899447223550D+03 0.823936317048310D+03
 0.236604158926529D+03 0.785210561045843D+02 0.332909408115249D+02 -.220698176316512D+03
0.340340836682D-02 0.000000000000D+00 0.000000000000D+00 0.272040638846D-04 0.000000000000D+00  6 -3 1 25 2 -4 21 0 0.11576461D+00 0.20068202D+00 0.22326540D+06 0.22326540D+06 0.22326540D+06 0.10941736D+01  1  2  2  3  6  4        2 0.122960973295D-02 0.100000000000D+01
0.425706427428D-03 0.000000000000D+00 -.130699842666D-04 0.272040638846D-04 0.000000000000D+00  6 -3 1 25 2 -4 21 2 0.11576461D+00 0.20068202D+00 0.22326540D+06 0.22326540D+06 0.22326540D+06 0.10941736D+01  1  2  3  3  6  4        2 0.184134822360D-03 0.100000000000D+01
-.267956635242D-02 0.000000000000D+00 0.000000000000D+00 0.272040638846D-04 0.000000000000D+00  6 -3 1 25 2 -4 21 2 0.11576461D+00 0.20068202D+00 0.22326540D+06 0.22326540D+06 0.22326540D+06 0.10941736D+01  1  2 15  3  6  4        2 -.115901814611D-02 0.100000000000D+01
-.221302270603D-03 0.000000000000D+00 0.000000000000D+00 0.272040638846D-04 0.000000000000D+00  6 -3 1 25 2 -4 21 2 0.11576461D+00 0.20068202D+00 0.22326540D+06 0.22326540D+06 0.22326540D+06 0.10941736D+01  1  2  4  3  6  4        2 -.957219615676D-04 0.100000000000D+01
-.169548599648D-02 0.000000000000D+00 0.000000000000D+00 0.272040638846D-04 0.000000000000D+00  6 -3 1 25 2 -4 21 2 0.11576461D+00 0.20068202D+00 0.22326540D+06 0.22326540D+06 0.22326540D+06 0.10941736D+01  1  2  5  3  6  4        2 -.733364573947D-03 0.100000000000D+01
0.351069880528D-02 0.000000000000D+00 -.000000000000D+00 0.272040638846D-04 0.000000000000D+00  6 -3 1 25 2 -4 21 2 0.11576461D+00 0.20068202D+00 0.22326540D+06 0.22326540D+06 0.22326540D+06 0.10941736D+01  1  2  6  3  6  4        2 0.151851571698D-02 0.100000000000D+01
  </mgrwgt>
  </event>
  <event>
  5     66 0.16453327E-05 0.58491046E+02 0.75467711E-02 0.91914152E-01
       -3 -1    0    0    0  501 0.00000000E+00 0.00000000E+00 0.48389532E+03 0.48389558E+03 0.50000000E+00 0.0000E+00 0.9000E+01
        1 -1    0    0  502    0 0.00000000E+00 0.00000000E+00 -.11422417E+04 0.11422417E+04 0.32000000E+00 0.0000E+00 0.9000E+01
       25  1    1    2    0    0 -.43660295E+03 -.25574088E+03 -.62936482E+03 0.81716009E+03 0.12500000E+03 0.0000E+00 0.9000E+01
        2  1    1    2  502    0 0.47570981E+03 0.29946246E+03 -.22416228E+03 0.60516644E+03 0.32000000E+00 0.0000E+00 0.9000E+01
       -4  1    1    2    0  501 -.39106860E+02 -.43721575E+02 0.19518073E+03 0.20381080E+03 0.15500000E+01 0.0000E+00 0.9000E+01
#aMCatNLO 1  0  0  1  5 0.21585353D+02 0.00000000D+00  -5  6  0 0.00000000D+00 0.00000000D+00 0.00000000D+00 0.00000000D+00 0.00000000D+00
  <mgrwgt>
 0.5159192985D-03    7    4    0
 0.743455217107831D+03 0.000000000000000D+00 0.000000000000000D+00 0.743455217107831D+03
 0.743455217107831D+03 0.000000000000000D+00 0.000000000000000D+00 -.743455217107831D+03
 0.615435363840000D+03 -.437112852260232D+03 -.256066847322368D+03 -.326340023834313D+03
 0.563053468936354D+03 0.476107489373306D+03 0.299662957148527D+03 0.235155173642574D+02
 0.308421601439308D+03 -.389946371130736D+02 -.435961098261585D+02 0.302824506470056D+03
 0.000000000000000D+00 -.000000000000000D+00 0.000000000000000D+00 0.000000000000000D+00
 0.141534701430831D+04 0.000000000000000D+00 0.000000000000000D+00 0.141534701430831D+04
 0.751511728237777D+03 0.000000000000000D+00 0.000000000000000D+00 -.751511728237777D+03
 0.616665188779054D+03 -.410734207309428D+03 -.299082856147961D+03 -.326340023834313D+03
 0.564406845977195D+03 0.500245840159698D+03 0.260300225954443D+03 0.235155173642574D+02
 0.310834667684913D+03 -.257366759652892D+02 -.652160442392445D+02 0.302824506470056D+03
 0.674952040104925D+03 -.637749568849800D+02 0.103998674432763D+03 0.663835286070534D+03
 0.743455217107831D+03 0.000000000000000D+00 0.000000000000000D+00 0.743455217107831D+03
 0.743455217107831D+03 0.000000000000000D+00 0.000000000000000D+00 -.743455217107831D+03
 0.615435363840000D+03 -.437112852260232D+03 -.256066847322368D+03 -.326340023834313D+03
 0.563053468936354D+03 0.476107489373306D+03 0.299662957148527D+03 0.235155173642574D+02
 0.000000000000000D+00 -.000000000000000D+00 0.000000000000000D+00 0.000000000000000D+00
 0.308421601439308D+03 -.389946371130736D+02 -.435961098261585D+02 0.302824506470056D+03
 0.141534701430831D+04 0.000000000000000D+00 0.000000000000000D+00 0.141534701430831D+04
 0.751511728237777D+03 0.000000000000000D+00 0.000000000000000D+00 -.751511728237777D+03
 0.616665188779054D+03 -.410734207309428D+03 -.299082856147961D+03 -.326340023834313D+03
 0.564406845977195D+03 0.500245840159698D+03 0.260300225954443D+03 0.235155173642574D+02
 0.674952040104925D+03 -.637749568849800D+02 0.103998674432763D+03 0.663835286070534D+03
 0.310834667684913D+03 -.257366759652892D+02 -.652160442392445D+02 0.302824506470056D+03
0.440348475917D-04 0.000000000000D+00 0.000000000000D+00 0.542353491326D-06 0.000000000000D+00  6 -3 1 25 2 -4 21 0 0.74445457D-01 0.17572952D+00 0.32652162D+06 0.32652162D+06 0.32652162D+06 0.10818404D+01  1  2  2  1  6  1       -3 0.623961914573D-04 0.100000000000D+01
0.112744423891D-04 0.000000000000D+00 -.169105409394D-06 0.542353491326D-06 0.000000000000D+00  6 -3 1 25 2 -4 21 2 0.74445457D-01 0.17572952D+00 0.32652162D+06 0.32652162D+06 0.32652162D+06 0.10818404D+01  1  2  3  1  6  1       -3 0.186974780324D-04 0.100000000000D+01
-.325766395751D-04 0.000000000000D+00 0.000000000000D+00 0.542353491326D-06 0.000000000000D+00  6 -3 1 25 2 -4 21 2 0.74445457D-01 0.17572952D+00 0.32652162D+06 0.32652162D+06 0.32652162D+06 0.10818404D+01  1  2 15  1  6  1       -3 -.540249337222D-04 0.100000000000D+01
-.883772569887D-04 0.000000000000D+00 0.000000000000D+00 0.542353491326D-06 0.000000000000D+00  6 -3 1 25 2 -4 21 2 0.74445457D-01 0.17572952D+00 0.32652162D+06 0.32652162D+06 0.32652162D+06 0.10818404D+01  1  2  4  1  6  1       -3 -.146564394414D-03 0.100000000000D+01
-.791626223062D-03 0.000000000000D+00 -.248082981099D-04 0.542353491326D-06 0.000000000000D+00  6 -3 1 25 2 -4 21 2 0.14222207D+00 0.17572952D+00 0.32652162D+06 0.32652162D+06 0.32652162D+06 0.10818404D+01  1  2  5  1  6  1       -3 -.231072686267D-03 0.100000000000D+01
0.667339882748D-03 0.000000000000D+00 0.203859282489D-04 0.542353491326D-06 0.000000000000D+00  6 -3 1 25 2 -4 21 2 0.74445457D-01 0.17572952D+00 0.32652162D+06 0.32652162D+06 0.32652162D+06 0.10818404D+01  1  2  6  1  6  1       -3 0.110671307433D-02 0.100000000000D+01
-.542189774288D-04 0.000000000000D+00 -.174380247826D-05 0.542353491326D-06 0.000000000000D+00  6 21 1 25 2 3 -4 2 0.14222207D+00 0.17572952D+00 0.32652162D+06 0.32652162D+06 0.32652162D+06 0.10818404D+01  3  4  5  5  5  1       -3 -.240225430889D-03 0.100000000000D+01
  </mgrwgt>
  </event>
  <event>
  5     66 0.16453327E-05 0.60887246E+02 0.75467711E-02 0.93866119E-01
       -3 -1    0    0    0  501 0.00000000E+00 0.00000000E+00 0.52788864E+03 0.52788888E+03 0.50000000E+00 0.0000E+00 0.9000E+01
        1 -1    0    0  502    0 0.00000000E+00 0.00000000E+00 -.25141321E+04 0.25141321E+04 0.32000000E+00 0.0000E+00 0.9000E+01
       25  1    1    2    0    0 -.11725761E+03 -.48518293E+03 -.29795046E+03 0.59460180E+03 0.12500000E+03 0.0000E+00 0.9000E+01
        2  1    1    2  502    0 0.60669908E+02 -.46420317E+01 -.19070258E+04 0.19079963E+04 0.32000000E+00 0.0000E+00 0.9000E+01
       -4  1    1    2    0  501 0.56587701E+02 0.48982496E+03 0.21873277E+03 0.53942292E+03 0.15500000E+01 0.0000E+00 0.9000E+01
#aMCatNLO 1  0  0  2  2 0.25507978D+01 0.00000000D+00  -5  6  0 0.00000000D+00 0.00000000D+00 0.00000000D+00 0.00000000D+00 0.00000000D+00
  <mgrwgt>
 0.8911206968D-02    9    2    0
 0.115203392467917D+04 0.000000000000000D+00 0.000000000000000D+00 0.115203392467917D+04
 0.115203392467917D+04 0.000000000000000D+00 0.000000000000000D+00 -.115203392467917D+04
 0.528172009974249D+03 -.117277499093494D+03 -.485007284490391D+03 0.119810660284763D+03
 0.875466140364583D+03 0.607099261016260D+02 -.464344656261579D+01 -.873346269358045D+03
 0.900429699019516D+03 0.565675729918676D+02 0.489650731053007D+03 0.753535609073282D+03
 0.000000000000000D+00 0.000000000000000D+00 -.000000000000000D+00 -.000000000000000D+00
 0.115211150525430D+04 0.000000000000000D+00 0.000000000000000D+00 0.115211150525430D+04
 0.117319431894105D+04 0.000000000000000D+00 0.000000000000000D+00 -.117319431894105D+04
 0.528229920767115D+03 -.117857111920011D+03 -.484929846519716D+03 0.119810660284763D+03
 0.875399377023244D+03 0.597492840563458D+02 -.451510197269579D+01 -.873346269358045D+03
 0.900439963541881D+03 0.555794953247107D+02 0.489782741122339D+03 0.753535609073282D+03
 0.212365628631100D+02 0.252833253895466D+01 -.337792629926879D+00 -.210828136867557D+02
0.650983867143D-03 0.000000000000D+00 0.000000000000D+00 0.125801265473D-03 0.000000000000D+00  6 -3 1 25 2 -4 21 0 0.81213656D-01 0.38678957D+00 0.28526189D+06 0.28526189D+06 0.28526189D+06 0.10861742D+01  1  2  2  2  6  2        1 0.888431604316D-04 0.100000000000D+01
0.264636013026D-03 0.000000000000D+00 -.249994945782D-05 0.125801265473D-03 0.000000000000D+00  6 -3 1 25 2 -4 21 2 0.81213656D-01 0.38678957D+00 0.28526189D+06 0.28526189D+06 0.28526189D+06 0.10861742D+01  1  2  3  2  6  2        1 0.426090318870D-04 0.100000000000D+01
-.474125941057D-03 0.000000000000D+00 0.000000000000D+00 0.125801265473D-03 0.000000000000D+00  6 -3 1 25 2 -4 21 2 0.81213656D-01 0.38678957D+00 0.28526189D+06 0.28526189D+06 0.28526189D+06 0.10861742D+01  1  2 15  2  6  2        1 -.763389952486D-04 0.100000000000D+01
-.719343911359D-01 0.000000000000D+00 0.000000000000D+00 0.125801265473D-03 0.000000000000D+00  6 -3 1 25 2 -4 21 2 0.81213656D-01 0.38678957D+00 0.28526189D+06 0.28526189D+06 0.28526189D+06 0.10861742D+01  1  2  4  2  6  2        1 -.115821528999D-01 0.100000000000D+01
-.844875842284D+00 0.000000000000D+00 -.600512755064D-02 0.125801265473D-03 0.000000000000D+00  6 -3 1 25 2 -4 21 2 0.81213656D-01 0.39390205D+00 0.28526189D+06 0.28526189D+06 0.28526189D+06 0.10861742D+01  1  2  5  2  6  2        1 -.126321949923D+00 0.100000000000D+01
0.844846003725D+00 0.000000000000D+00 0.600413077150D-02 0.125801265473D-03 0.000000000000D+00  6 -3 1 25 2 -4 21 2 0.81213656D-01 0.38678957D+00 0.28526189D+06 0.28526189D+06 0.28526189D+06 0.10861742D+01  1  2  6  2  6  2        1 0.136028614929D+00 0.100000000000D+01
0.718506208033D-01 0.000000000000D+00 0.000000000000D+00 0.125801265473D-03 0.215612236589D-03  6 -3 1 25 2 -4 21 2 0.81219126D-01 0.39389407D+00 0.28614994D+06 0.28614994D+06 0.28614994D+06 0.10860739D+01  1  2 11  2  6  2        1 0.107374973314D-01 0.100000000000D+01
-.282325414052D-02 0.000000000000D+00 -.199672112956D-04 0.125801265473D-03 0.000000000000D+00  6 -3 21 25 2 -4 -1 2 0.81213656D-01 0.39390205D+00 0.28526189D+06 0.28526189D+06 0.28526189D+06 0.10861742D+01  1  2  5  6  6  2        1 -.136737471028D-03 0.100000000000D+01
0.270277233904D-02 0.000000000000D+00 0.000000000000D+00 0.125801265473D-03 0.412742542893D-06  6 -3 21 25 2 -4 -1 2 0.81219126D-01 0.39389407D+00 0.28614994D+06 0.28614994D+06 0.28614994D+06 0.10860739D+01  1  2 11  6  6  2        1 0.130821804164D-03 0.100000000000D+01
  </mgrwgt>
  </event>
  <event>
  5     66 0.16453327E-05 0.10234644E+03 0.75467711E-02 0.93100759E-01
       -3 -1    0    0    0  501 0.00000000E+00 0.00000000E+00 0.14079556E+04 0.14079557E+04 0.50000000E+00 0.0000E+00 0.9000E+01
        1 -1    0    0  502    0 0.00000000E+00 0.00000000E+00 -.15893000E+04 0.15893000E+04 0.32000000E+00 0.0000E+00 0.9000E+01
       25  1    1    2    0    0 -.31476475E+03 0.40629379E+03 0.72806307E+03 0.89991795E+03 0.12500000E+03 0.0000E+00 0.9000E+01
        2  1    1    2  502    0 0.22193626E+03 -.44977626E+03 -.14566480E+04 0.15405771E+04 0.32000000E+00 0.0000E+00 0.9000E+01
       -4  1    1    2    0  501 0.92828496E+02 0.43482467E+02 0.54724053E+03 0.55676068E+03 0.15500000E+01 0.0000E+00 0.9000E+01
#aMCatNLO 1  0  0  2  4 0.10668331D+02 0.00000000D+00  -5  6  0 0.00000000D+00 0.00000000D+00 0.00000000D+00 0.00000000D+00 0.00000000D+00
  <mgrwgt>
 0.1912231357D-02    9    2    0
 0.149588236629260D+04 0.000000000000000D+00 0.000000000000000D+00 0.149588236629260D+04
 0.149588236629260D+04 0.000000000000000D+00 0.000000000000000D+00 -.149588236629260D+04
 0.946563406834820D+03 -.314743039716461D+03 0.406590704738730D+03 0.784842723689814D+03
 0.145518049223679D+04 0.222060694257592D+03 -.450004712854233D+03 -.136591913064475D+04
 0.590020833513591D+03 0.926823454588685D+02 0.434140081155033D+02 0.581076406954939D+03
 0.000000000000000D+00 -.000000000000000D+00 0.000000000000000D+00 -.000000000000000D+00
 0.149659658015844D+04 0.000000000000000D+00 0.000000000000000D+00 0.149659658015844D+04
 0.153626819087986D+04 0.000000000000000D+00 0.000000000000000D+00 -.153626819087986D+04
 0.944863022850494D+03 -.311846270622981D+03 0.404864093888141D+03 0.784842723689814D+03
 0.145669151647222D+04 0.226520302470004D+03 -.452662849447259D+03 -.136591913064475D+04
 0.590229214299085D+03 0.944899293053366D+02 0.423366029851855D+02 0.581076406954939D+03
 0.410810174165007D+02 -.916396115236000D+01 0.546215257393273D+01 -.396716107214209D+02
0.424544397413D-02 0.000000000000D+00 0.000000000000D+00 0.449756153543D-04 0.000000000000D+00  6 -3 1 25 2 -4 21 0 0.21660857D+00 0.24450770D+00 0.32109934D+06 0.32109934D+06 0.32109934D+06 0.10823747D+01  1  2  2  2  6  2        1 0.955858033788D-04 0.100000000000D+01
0.540523786684D-03 0.000000000000D+00 -.163036227117D-04 0.449756153543D-04 0.000000000000D+00  6 -3 1 25 2 -4 21 2 0.21660857D+00 0.24450770D+00 0.32109934D+06 0.32109934D+06 0.32109934D+06 0.10823747D+01  1  2  3  2  6  2        1 0.142574011404D-04 0.100000000000D+01
-.341537647629D-02 0.000000000000D+00 0.000000000000D+00 0.449756153543D-04 0.000000000000D+00  6 -3 1 25 2 -4 21 2 0.21660857D+00 0.24450770D+00 0.32109934D+06 0.32109934D+06 0.32109934D+06 0.10823747D+01  1  2 15  2  6  2        1 -.900874182927D-04 0.100000000000D+01
0.856938038656D-01 0.000000000000D+00 0.000000000000D+00 0.449756153543D-04 0.000000000000D+00  6 -3 1 25 2 -4 21 2 0.21660857D+00 0.25307438D+00 0.32861140D+06 0.32861140D+06 0.32861140D+06 0.10816370D+01  1  2 12  2  6  2        1 0.206724619465D-02 0.100000000000D+01
-.356944311221D-01 0.000000000000D+00 0.000000000000D+00 0.449756153543D-04 0.000000000000D+00  6 -3 1 25 2 -4 21 2 0.21660857D+00 0.24450770D+00 0.32109934D+06 0.32109934D+06 0.32109934D+06 0.10823747D+01  1  2  4  2  6  2        1 -.941512354359D-03 0.100000000000D+01
-.449712828677D+00 0.000000000000D+00 -.329285944669D-01 0.449756153543D-04 0.000000000000D+00  6 -3 1 25 2 -4 21 2 0.21660857D+00 0.25115399D+00 0.32109934D+06 0.32109934D+06 0.32109934D+06 0.10823747D+01  1  2  5  2  6  2        1 -.110989591821D-01 0.100000000000D+01
0.450445785808D+00 0.000000000000D+00 0.329167555242D-01 0.449756153543D-04 0.000000000000D+00  6 -3 1 25 2 -4 21 2 0.21660857D+00 0.24450770D+00 0.32109934D+06 0.32109934D+06 0.32109934D+06 0.10823747D+01  1  2  6  2  6  2        1 0.118814128416D-01 0.100000000000D+01
0.446740876336D-02 0.000000000000D+00 0.000000000000D+00 0.449756153543D-04 0.000000000000D+00  6 -3 21 25 2 -4 -1 2 0.21660857D+00 0.25307438D+00 0.32861140D+06 0.32861140D+06 0.32861140D+06 0.10816370D+01  1  2 12  6  6  2        1 0.729101199358D-04 0.100000000000D+01
-.524406915940D-02 0.000000000000D+00 -.159122173187D-03 0.449756153543D-04 0.000000000000D+00  6 -3 21 25 2 -4 -1 2 0.21660857D+00 0.25115399D+00 0.32109934D+06 0.32109934D+06 0.32109934D+06 0.10823747D+01  1  2  5  6  6  2        1 -.886220486163D-04 0.100000000000D+01
  </mgrwgt>
  </event>
  <event>
  5     66 -.16453327E-05 0.26724210E+02 0.75467711E-02 0.91383881E-01
       -3 -1    0    0    0  501 0.00000000E+00 0.00000000E+00 0.50222947E+04 0.50222947E+04 0.50000000E+00 0.0000E+00 0.9000E+01
        1 -1    0    0  502    0 0.00000000E+00 0.00000000E+00 -.11471680E+04 0.11471680E+04 0.32000000E+00 0.0000E+00 0.9000E+01
       25  1    1    2    0    0 0.22969785E+02 0.65678611E+03 0.20635905E+04 0.21693148E+04 0.12500000E+03 0.0000E+00 0.9000E+01
        2  1    1    2  502    0 -.25305397E+02 -.85651115E+01 -.10579840E+04 0.10583213E+04 0.32000000E+00 0.0000E+00 0.9000E+01
       -4  1    1    2    0  501 0.23356129E+01 -.64822100E+03 0.28695201E+04 0.29418266E+04 0.15500000E+01 0.0000E+00 0.9000E+01
#aMCatNLO 1  0  0  5  2 0.24210042D+03 0.00000000D+00  -5  6  0 0.00000000D+00 0.00000000D+00 0.00000000D+00 0.00000000D+00 0.00000000D+00
  <mgrwgt>
 -.7858355067D-02    6    2    0
 0.240029492996624D+04 0.000000000000000D+00 0.000000000000000D+00 0.240029492996624D+04
 0.240029492996624D+04 -.000000000000000D+00 -.000000000000000D+00 -.240029492996624D+04
 0.112253957306834D+04 0.229788629127157D+02 0.656524018977839D+03 0.901619807606770D+03
 0.221430115464637D+04 -.253135214487065D+02 -.856790629498281D+01 -.221413988268172D+04
 0.146374913221778D+04 0.233465853599074D+01 -.647956112682855D+03 0.131252007507495D+04
 0.000000000000000D+00 0.000000000000000D+00 0.000000000000000D+00 0.000000000000000D+00
 0.240029492996624D+04 0.000000000000000D+00 0.000000000000000D+00 0.240029492996624D+04
 0.240029492996624D+04 -.000000000000000D+00 -.000000000000000D+00 -.240029492996624D+04
 0.112270119513218D+04 0.229794215280320D+02 0.656368982083469D+03 0.901933855166866D+03
 0.221368303824549D+04 -.253124197673966D+02 -.887366455810794D+01 -.221352052922457D+04
 0.903258705413716D+03 0.248365387159973D+02 -.419388590841876D+03 0.799607807066650D+03
 0.560946921141103D+03 -.225035404766327D+02 -.228106726683485D+03 0.511978866991056D+03
0.255460134644D+01 0.000000000000D+00 0.000000000000D+00 0.126454095284D-02 0.000000000000D+00  6 -3 1 25 2 -4 21 0 0.77266072D+00 0.17648738D+00 0.45117910D+06 0.45117910D+06 0.45117910D+06 0.10716783D+01  1  2  2  4  6  5       -4 0.412697873609D-04 0.100000000000D+01
0.234318155810D+01 0.000000000000D+00 -.981034181230D-02 0.126454095284D-02 0.000000000000D+00  6 -3 1 25 2 -4 21 2 0.77266072D+00 0.17648738D+00 0.45117910D+06 0.45117910D+06 0.45117910D+06 0.10716783D+01  1  2  3  4  6  5       -4 0.434754347107D-04 0.100000000000D+01
-.174800200545D+01 0.000000000000D+00 0.000000000000D+00 0.126454095284D-02 0.000000000000D+00  6 -3 1 25 2 -4 21 2 0.77266072D+00 0.17648738D+00 0.45117910D+06 0.45117910D+06 0.45117910D+06 0.10716783D+01  1  2 15  4  6  5       -4 -.324324620938D-04 0.100000000000D+01
-.559475821215D+03 0.000000000000D+00 0.000000000000D+00 0.126454095284D-02 0.000000000000D+00  6 -3 1 25 2 -4 21 2 0.77266072D+00 0.17648738D+00 0.45117910D+06 0.45117910D+06 0.45117910D+06 0.10716783D+01  1  2  4  4  6  5       -4 -.103805249121D-01 0.100000000000D+01
-.296577042690D+03 0.000000000000D+00 0.000000000000D+00 0.126454095284D-02 0.000000000000D+00  6 -3 1 25 2 -4 21 2 0.77266072D+00 0.17648738D+00 0.45117910D+06 0.45117910D+06 0.45117910D+06 0.10716783D+01  1  2  5  4  6  5       -4 -.550269602951D-02 0.100000000000D+01
0.429694137709D+03 0.000000000000D+00 -.000000000000D+00 0.126454095284D-02 0.000000000000D+00  6 -3 1 25 2 -4 21 2 0.77266072D+00 0.17648738D+00 0.45117910D+06 0.45117910D+06 0.45117910D+06 0.10716783D+01  1  2  6  4  6  5       -4 0.797255311479D-02 0.100000000000D+01
  </mgrwgt>
  </event>
  <event>
  5     66 0.16453327E-05 0.28070799E+02 0.75467711E-02 0.89261438E-01
       -3 -1    0    0    0  501 0.00000000E+00 0.00000000E+00 0.37549913E+03 0.37549946E+03 0.50000000E+00 0.0000E+00 0.9000E+01
        1 -1    0    0  502    0 0.00000000E+00 0.00000000E+00 -.11880299E+04 0.11880300E+04 0.32000000E+00 0.0000E+00 0.9000E+01
       25  1    1    2    0    0 0.14828681E+03 0.45459972E+03 -.53105913E+03 0.72546446E+03 0.12500000E+03 0.0000E+00 0.9000E+01
        2  1    1    2  502    0 -.22484611E+02 -.16752560E+02 -.37245090E+03 0.37350500E+03 0.32000000E+00 0.0000E+00 0.9000E+01
       -4  1    1    2    0  501 -.12580220E+03 -.43784716E+03 0.90979248E+02 0.46455996E+03 0.15500000E+01 0.0000E+00 0.9000E+01
#aMCatNLO 1  0  0  2  1 0.98375473D+02 0.00000000D+00  -5  6  0 0.00000000D+00 0.00000000D+00 0.00000000D+00 0.00000000D+00 0.00000000D+00
  <mgrwgt>
 0.7351032546D-03    5    2    0
 0.667910543322977D+03 0.000000000000000D+00 0.000000000000000D+00 0.667910543322977D+03
 0.667910543322977D+03 0.000000000000000D+00 0.000000000000000D+00 -.667910543322977D+03
 0.525914221889259D+03 0.148285891202845D+03 0.454532658923089D+03 -.179922553416378D+03
 0.210938601938515D+03 -.225087622363975D+02 -.167727578032338D+02 -.209062488280501D+03
 0.598968262818181D+03 -.125777128966447D+03 -.437759901119855D+03 0.388985041696878D+03
 0.000000000000000D+00 -.000000000000000D+00 -.000000000000000D+00 -.000000000000000D+00
 0.924608309091201D+03 0.000000000000000D+00 0.000000000000000D+00 0.924608309091201D+03
 0.116681691713044D+04 0.000000000000000D+00 0.000000000000000D+00 -.116681691713044D+04
 0.782633046431590D+03 0.256593485097261D+03 0.706170760896090D+03 -.179922553416378D+03
 0.219634208184440D+03 0.131294651244043D+02 0.660278618790468D+02 -.209062488280501D+03
 0.456023571687095D+03 -.384561510088473D+02 -.234881373718559D+03 0.388985041696878D+03
 0.633134399918513D+03 -.231266799212818D+03 -.537317249056578D+03 -.242208608039236D+03
0.496126628703D-03 0.000000000000D+00 0.000000000000D+00 0.140225588087D-04 0.000000000000D+00  6 -3 1 25 2 -4 21 0 0.57769126D-01 0.18277386D+00 0.23898475D+06 0.23898475D+06 0.23898475D+06 0.10919344D+01  1  2  2  2  6  2        1 0.116708504431D-02 0.100000000000D+01
0.199986185022D-03 0.000000000000D+00 -.190525688736D-05 0.140225588087D-04 0.000000000000D+00  6 -3 1 25 2 -4 21 2 0.57769126D-01 0.18277386D+00 0.23898475D+06 0.23898475D+06 0.23898475D+06 0.10919344D+01  1  2  3  2  6  2        1 0.560922753040D-03 0.100000000000D+01
-.333370980410D-03 0.000000000000D+00 0.000000000000D+00 0.140225588087D-04 0.000000000000D+00  6 -3 1 25 2 -4 21 2 0.57769126D-01 0.18277386D+00 0.23898475D+06 0.23898475D+06 0.23898475D+06 0.10919344D+01  1  2 15  2  6  2        1 -.935041428460D-03 0.100000000000D+01
-.139737069091D-03 0.000000000000D+00 -.273695797729D-03 0.140225588087D-04 0.000000000000D+00  6 -3 1 25 2 -4 21 2 0.57769126D-01 0.37114637D+00 0.23898475D+06 0.23898475D+06 0.23898475D+06 0.10919344D+01  1  2  5  2  6  2        1 -.587771343378D-04 0.100000000000D+01
0.590576914834D-05 0.000000000000D+00 -.209671331625D-04 0.140225588087D-04 0.000000000000D+00  6 -3 21 25 2 -4 -1 2 0.57769126D-01 0.37114637D+00 0.23898475D+06 0.23898475D+06 0.23898475D+06 0.10919344D+01  1  2  5  6  6  2        1 0.914020055014D-06 0.100000000000D+01
  </mgrwgt>
  </event>
  <event>
  5     66 0.16453327E-05 0.21588764E+03 0.75467711E-02 0.94753383E-01
       -3 -1    0    0    0  501 0.00000000E+00 0.00000000E+00 0.32222328E+03 0.32222367E+03 0.50000000E+00 0.0000E+00 0.9000E+01
        1 -1    0    0  502    0 -.00000000E+00 -.00000000E+00 -.10276037E+04 0.10276038E+04 0.32000000E+00 0.0000E+00 0.9000E+01
       25  1    1    2    0    0 -.42817043E+03 -.23663791E+03 -.13730211E+03 0.52326311E+03 0.12500000E+03 0.0000E+00 0.9000E+01
        2  1    1    2  502    0 0.17290856E+03 0.12859601E+03 -.49505069E+03 0.53991628E+03 0.32000000E+00 0.0000E+00 0.9000E+01
       -4  1    1    2    0  501 0.25526186E+03 0.10804190E+03 -.73027659E+02 0.28664807E+03 0.15500000E+01 0.0000E+00 0.9000E+01
#aMCatNLO 1  0  0  5  1 0.32433490D+02 0.00000000D+00  -5  6  0 0.00000000D+00 0.00000000D+00 0.00000000D+00 0.00000000D+00 0.00000000D+00
  <mgrwgt>
 0.1786903502D-03    7    2    0
 0.575428664600884D+03 0.000000000000000D+00 0.000000000000000D+00 0.575428664600884D+03
 0.575428664600884D+03 -.000000000000000D+00 -.000000000000000D+00 -.575428664600884D+03
 0.529565394979467D+03 -.427863344484881D+03 -.236583550297141D+03 0.160548091657209D+03
 0.330585936086420D+03 0.173246298076916D+03 0.128814572073905D+03 -.250358917081448D+03
 0.290705998135881D+03 0.254617046407965D+03 0.107768978223235D+03 0.898108254242387D+02
 0.000000000000000D+00 0.000000000000000D+00 0.000000000000000D+00 0.000000000000000D+00
 0.575428664600884D+03 0.000000000000000D+00 0.000000000000000D+00 0.575428664600884D+03
 0.575428664600884D+03 -.000000000000000D+00 -.000000000000000D+00 -.575428664600884D+03
 0.525182872514127D+03 -.422926421341229D+03 -.234493952722022D+03 0.162289487800329D+03
 0.331910381745849D+03 0.176347221306553D+03 0.130127066004383D+03 -.249265131418784D+03
 0.236155065021520D+03 0.190955371410569D+03 0.966435731715479D+02 0.998262522055480D+02
 0.576090099202718D+02 0.556238286241075D+02 0.772331354609086D+01 -.128506085870930D+02
0.101234369965D-04 0.000000000000D+00 0.000000000000D+00 0.667088263667D-07 0.000000000000D+00  6 -3 1 25 2 -4 21 0 0.49572847D-01 0.15809292D+00 0.24850972D+06 0.24850972D+06 0.24850972D+06 0.10906545D+01  1  2  2  4  6  5       -4 0.431778732920D-04 0.100000000000D+01
0.340438548079D-06 0.000000000000D+00 -.388766636287D-07 0.667088263667D-07 0.000000000000D+00  6 -3 1 25 2 -4 21 2 0.49572847D-01 0.15809292D+00 0.24850972D+06 0.24850972D+06 0.24850972D+06 0.10906545D+01  1  2  3  4  6  5       -4 0.172721494866D-05 0.100000000000D+01
-.677636585367D-05 0.000000000000D+00 0.000000000000D+00 0.667088263667D-07 0.000000000000D+00  6 -3 1 25 2 -4 21 2 0.49572847D-01 0.15809292D+00 0.24850972D+06 0.24850972D+06 0.24850972D+06 0.10906545D+01  1  2 15  4  6  5       -4 -.343798916607D-04 0.100000000000D+01
0.474022233650D-04 0.000000000000D+00 0.000000000000D+00 0.667088263667D-07 0.000000000000D+00  6 -3 1 25 2 -4 21 2 0.49572847D-01 0.15809292D+00 0.24443905D+06 0.24443905D+06 0.24443905D+06 0.10911948D+01  1  2 12  4  6  5       -4 0.240844509786D-03 0.100000000000D+01
-.241544687958D-04 0.000000000000D+00 0.000000000000D+00 0.667088263667D-07 0.000000000000D+00  6 -3 1 25 2 -4 21 2 0.49572847D-01 0.15809292D+00 0.24850972D+06 0.24850972D+06 0.24850972D+06 0.10906545D+01  1  2  4  4  6  5       -4 -.122547695660D-03 0.100000000000D+01
-.452258311953D-04 0.000000000000D+00 0.000000000000D+00 0.667088263667D-07 0.000000000000D+00  6 -3 1 25 2 -4 21 2 0.49572847D-01 0.15809292D+00 0.24850972D+06 0.24850972D+06 0.24850972D+06 0.10906545D+01  1  2  5  4  6  5       -4 -.229453251246D-03 0.100000000000D+01
0.550550103016D-04 0.000000000000D+00 -.000000000000D+00 0.667088263667D-07 0.000000000000D+00  6 -3 1 25 2 -4 21 2 0.49572847D-01 0.15809292D+00 0.24850972D+06 0.24850972D+06 0.24850972D+06 0.10906545D+01  1  2  6  4  6  5       -4 0.279321590720D-03 0.100000000000D+01
  </mgrwgt>
  </event>
  <event>
  5     66 -.16453327E-05 0.20647402E+03 0.75467711E-02 0.91837001E-01
       -1 -1    0    0    0  501 0.00000000E+00 0.00000000E+00 0.16421751E+04 0.16421751E+04 0.32000000E+00 0.0000E+00 0.9000E+01
        3 -1    0    0  502    0 -.00000000E+00 -.00000000E+00 -.16445031E+04 0.16445031E+04 0.50000000E+00 0.0000E+00 0.9000E+01
       25  1    1    2    0    0 -.31664479E+03 -.49589115E+03 0.92213180E+02 0.60852299E+03 0.12500000E+03 0.0000E+00 0.9000E+01
        4  1    1    2  502    0 0.37720812E+03 0.29849419E+03 -.13358360E+04 0.14198046E+04 0.15500000E+01 0.0000E+00 0.9000E+01
       -2  1    1    2    0  501 -.60563333E+02 0.19739696E+03 0.12412949E+04 0.12583507E+04 0.32000000E+00 0.0000E+00 0.9000E+01
#aMCatNLO 1  0  0  4  2 0.40572469D+02 0.00000000D+00  -5  6  0 0.00000000D+00 0.00000000D+00 0.00000000D+00 0.00000000D+00 0.00000000D+00
  <mgrwgt>
 -.2486739380D-03    7    2    0
 0.164333873246656D+04 0.000000000000000D+00 0.000000000000000D+00 0.164333873246656D+04
 0.164333873246656D+04 -.000000000000000D+00 -.000000000000000D+00 -.164333873246656D+04
 0.608608484497023D+03 -.316660470213894D+03 -.495899758306133D+03 0.926761226940216D+02
 0.141886766306641D+04 0.377222412902071D+03 0.298507328706921D+03 -.133483409875839D+04
 0.125920131736970D+04 -.605619426881769D+02 0.197392429599212D+03 0.124215797606437D+04
 0.000000000000000D+00 0.000000000000000D+00 0.000000000000000D+00 -.000000000000000D+00
 0.164333873246656D+04 0.000000000000000D+00 0.000000000000000D+00 0.164333873246656D+04
 0.164333873246656D+04 -.000000000000000D+00 -.000000000000000D+00 -.164333873246656D+04
 0.608398214768091D+03 -.316536984351106D+03 -.495802040265600D+03 0.922391572997959D+02
 0.903592565854695D+03 0.271043766252634D+03 0.212110485071703D+03 -.835478272587687D+03
 0.125832910088386D+04 -.603064967518630D+02 0.197594571575590D+03 0.124125405854908D+04
 0.516357583426477D+03 0.105799714850335D+03 0.860969836183061D+02 -.498014943261192D+03
0.118038821358D-02 0.000000000000D+00 0.000000000000D+00 0.299653669474D-04 0.000000000000D+00  6 -1 3 25 4 -2 21 0 0.25264233D+00 0.25300048D+00 0.41539895D+06 0.41539895D+06 0.41539895D+06 0.10742470D+01  1  2  2  3  6  4        4 0.176514696247D-05 0.100000000000D+01
0.174597948544D-03 0.000000000000D+00 -.453300154348D-05 0.299653669474D-04 0.000000000000D+00  6 -1 3 25 4 -2 21 2 0.25264233D+00 0.25300048D+00 0.41539895D+06 0.41539895D+06 0.41539895D+06 0.10742470D+01  1  2  3  3  6  4        4 0.301302971216D-06 0.100000000000D+01
-.847720310873D-03 0.000000000000D+00 0.000000000000D+00 0.299653669474D-04 0.000000000000D+00  6 -1 3 25 4 -2 21 2 0.25264233D+00 0.25300048D+00 0.41539895D+06 0.41539895D+06 0.41539895D+06 0.10742470D+01  1  2 15  3  6  4        4 -.146290750010D-05 0.100000000000D+01
0.863289309218D-01 0.000000000000D+00 0.000000000000D+00 0.299653669474D-04 0.000000000000D+00  6 -1 3 25 4 -2 21 2 0.25264233D+00 0.25300048D+00 0.41508159D+06 0.41508159D+06 0.41508159D+06 0.10742708D+01  1  2 12  3  6  4        4 0.148997143061D-03 0.100000000000D+01
-.268701845891D+00 0.000000000000D+00 0.000000000000D+00 0.299653669474D-04 0.000000000000D+00  6 -1 3 25 4 -2 21 2 0.25264233D+00 0.25300048D+00 0.41539895D+06 0.41539895D+06 0.41539895D+06 0.10742470D+01  1  2  4  3  6  4        4 -.463697684958D-03 0.100000000000D+01
-.894344952941D-01 0.000000000000D+00 0.000000000000D+00 0.299653669474D-04 0.000000000000D+00  6 -1 3 25 4 -2 21 2 0.25264233D+00 0.25300048D+00 0.41539895D+06 0.41539895D+06 0.41539895D+06 0.10742470D+01  1  2  5  3  6  4        4 -.154336745569D-03 0.100000000000D+01
0.127345612734D+00 0.000000000000D+00 -.000000000000D+00 0.299653669474D-04 0.000000000000D+00  6 -1 3 25 4 -2 21 2 0.25264233D+00 0.25300048D+00 0.41539895D+06 0.41539895D+06 0.41539895D+06 0.10742470D+01  1  2  6  3  6  4        4 0.219759807077D-03 0.100000000000D+01
  </mgrwgt>
  </event>
  <event>
  5     66 0.16453327E-05 0.18367518E+02 0.75467711E-02 0.92868005E-01
       -3 -1    0    0    0  501 0.00000000E+00 0.00000000E+00 0.28796655E+03 0.28796698E+03 0.50000000E+00 0.0000E+00 0.9000E+01
        1 -1    0    0  502    0 -.00000000E+00 -.00000000E+00 -.21852521E+04 0.21852522E+04 0.32000000E+00 0.0000E+00 0.9000E+01
       25  1    1    2    0    0 0.48492972E+03 -.31071292E+03 -.80081950E+03 0.99430188E+03 0.12500000E+03 0.0000E+00 0.9000E+01
        2  1    1    2  502    0 -.47319505E+03 0.29652766E+03 -.12264649E+04 0.13476122E+04 0.32000000E+00 0.0000E+00 0.9000E+01
       -4  1    1    2    0  501 -.11734679E+02 0.14185260E+02 0.12999885E+03 0.13130509E+03 0.15500000E+01 0.0000E+00 0.9000E+01
#aMCatNLO 1  0  0  5  1 0.46022110D+01 0.00000000D+00  -5  6  0 0.00000000D+00 0.00000000D+00 0.00000000D+00 0.00000000D+00 0.00000000D+00
  <mgrwgt>
 0.5247552155D-03    7    2    0
 0.793271756134400D+03 0.000000000000000D+00 0.000000000000000D+00 0.793271756134400D+03
 0.793271756134400D+03 -.000000000000000D+00 -.000000000000000D+00 -.793271756134400D+03
 0.592781110936410D+03 0.485381984493310D+03 -.310989187223274D+03 -.587749950450667D+02
 0.634446310201230D+03 -.473674317732806D+03 0.296836581237703D+03 -.300071333664896D+03
 0.359316091131161D+03 -.117076667605042D+02 0.141526059855711D+02 0.358846328709963D+03
 0.000000000000000D+00 0.000000000000000D+00 0.000000000000000D+00 0.000000000000000D+00
 0.793271756134400D+03 0.000000000000000D+00 0.000000000000000D+00 0.793271756134400D+03
 0.793271756134400D+03 -.000000000000000D+00 -.000000000000000D+00 -.793271756134400D+03
 0.592768676917165D+03 0.485379215159157D+03 -.310985839562641D+03 -.586901134530057D+02
 0.634407237702555D+03 -.473677281656803D+03 0.296840164124828D+03 -.299980487788711D+03
 0.550643389860131D+02 -.120537681068255D+01 -.239959741039182D+01 0.549988220508301D+02
 0.304303258663068D+03 -.104965566916711D+02 0.165452728482049D+02 0.303671779190887D+03
0.115067267281D-04 0.000000000000D+00 0.000000000000D+00 0.141411240095D-04 0.000000000000D+00  6 -3 1 25 2 -4 21 0 0.44302581D-01 0.33619267D+00 0.34060420D+06 0.34060420D+06 0.34060420D+06 0.10804966D+01  1  2  2  4  6  5       -4 0.992954632410D-05 0.100000000000D+01
0.847935626954D-05 0.000000000000D+00 -.441888604265D-07 0.141411240095D-04 0.000000000000D+00  6 -3 1 25 2 -4 21 2 0.44302581D-01 0.33619267D+00 0.34060420D+06 0.34060420D+06 0.34060420D+06 0.10804966D+01  1  2  3  4  6  5       -4 0.854254567300D-05 0.100000000000D+01
-.894503148848D-05 0.000000000000D+00 0.000000000000D+00 0.141411240095D-04 0.000000000000D+00  6 -3 1 25 2 -4 21 2 0.44302581D-01 0.33619267D+00 0.34060420D+06 0.34060420D+06 0.34060420D+06 0.10804966D+01  1  2 15  4  6  5       -4 -.901169117180D-05 0.100000000000D+01
-.967674798086D-04 0.000000000000D+00 0.000000000000D+00 0.141411240095D-04 0.000000000000D+00  6 -3 1 25 2 -4 21 2 0.44302581D-01 0.33619267D+00 0.34060420D+06 0.34060420D+06 0.34060420D+06 0.10804966D+01  1  2  4  4  6  5       -4 -.974886052254D-04 0.100000000000D+01
-.397470575165D-03 0.000000000000D+00 0.000000000000D+00 0.141411240095D-04 0.000000000000D+00  6 -3 1 25 2 -4 21 2 0.44302581D-01 0.33619267D+00 0.34060420D+06 0.34060420D+06 0.34060420D+06 0.10804966D+01  1  2  5  4  6  5       -4 -.400432584042D-03 0.100000000000D+01
0.841736327290D-03 0.000000000000D+00 -.000000000000D+00 0.141411240095D-04 0.000000000000D+00  6 -3 1 25 2 -4 21 2 0.44302581D-01 0.33619267D+00 0.34060420D+06 0.34060420D+06 0.34060420D+06 0.10804966D+01  1  2  6  4  6  5       -4 0.848009069547D-03 0.100000000000D+01
0.164105773578D-03 0.000000000000D+00 0.000000000000D+00 0.141411240095D-04 0.190794152432D-06  6 -3 1 25 2 -4 21 2 0.44302581D-01 0.33619267D+00 0.34289121D+06 0.34289121D+06 0.34289121D+06 0.10802841D+01  1  2 11  4  6  5       -4 0.165206934406D-03 0.100000000000D+01
  </mgrwgt>
  </event>
  <event>
  5     66 0.16453327E-05 0.14511443E+03 0.75467711E-02 0.94274740E-01
       -3 -1    0    0    0  501 0.00000000E+00 0.00000000E+00 0.29665100E+03 0.29665142E+03 0.50000000E+00 0.0000E+00 0.9000E+01
        1 -1    0    0  502    0 0.00000000E+00 0.00000000E+00 -.41604732E+04 0.41604733E+04 0.32000000E+00 0.0000E+00 0.9000E+01
       25  1    1    2    0    0 0.14305100E+02 -.45889153E+03 -.24114020E+04 0.24578997E+04 0.12500000E+03 0.0000E+00 0.9000E+01
        2  1    1    2  502    0 0.12542227E+03 0.72812725E+02 -.15664081E+04 0.15731074E+04 0.32000000E+00 0.0000E+00 0.9000E+01
       -4  1    1    2    0  501 -.13972737E+03 0.38607881E+03 0.11398788E+03 0.42611761E+03 0.15500000E+01 0.0000E+00 0.9000E+01
#aMCatNLO 1  0  0  2  2 0.53317192D+02 0.00000000D+00  -5  6  0 0.00000000D+00 0.00000000D+00 0.00000000D+00 0.00000000D+00 0.00000000D+00
  <mgrwgt>
 0.3795847113D-02    7    2    0
 0.111094982234604D+04 0.000000000000000D+00 0.000000000000000D+00 0.111094982234604D+04
 0.111094982234604D+04 0.000000000000000D+00 0.000000000000000D+00 -.111094982234604D+04
 0.736984118813282D+03 0.142350875736118D+02 -.458939689781648D+03 -.562754222381215D+03
 0.431962602014914D+03 0.125484517207304D+03 0.728823266223234D+02 -.406858073468945D+03
 0.105295292386388D+04 -.139719604780916D+03 0.386057363159325D+03 0.969612295850160D+03
 0.000000000000000D+00 -.000000000000000D+00 -.000000000000000D+00 -.000000000000000D+00
 0.113161757866323D+04 0.000000000000000D+00 0.000000000000000D+00 0.113161757866323D+04
 0.114619603444945D+04 0.000000000000000D+00 0.000000000000000D+00 -.114619603444945D+04
 0.731024959572285D+03 0.285114227126180D+02 -.448628215212416D+03 -.562754222381215D+03
 0.435551982273577D+03 0.133921065131721D+03 0.789758547251375D+02 -.406858073468945D+03
 0.105596231630594D+04 -.119210480422140D+03 0.400870640670927D+03 0.969612295850160D+03
 0.552743549608689D+02 -.432220074221987D+02 -.312182801836486D+02 -.145784557862193D+02
0.267086128893D-01 0.000000000000D+00 0.000000000000D+00 0.739378024325D-05 0.000000000000D+00  6 -3 1 25 2 -4 21 0 0.45638649D-01 0.64007284D+00 0.26602300D+06 0.26602300D+06 0.26602300D+06 0.10884353D+01  1  2  2  2  6  2        1 0.618209471466D-03 0.100000000000D+01
0.181754262864D-02 0.000000000000D+00 -.102568106034D-03 0.739378024325D-05 0.000000000000D+00  6 -3 1 25 2 -4 21 2 0.45638649D-01 0.64007284D+00 0.26602300D+06 0.26602300D+06 0.26602300D+06 0.10884353D+01  1  2  3  2  6  2        1 0.498395522272D-04 0.100000000000D+01
-.172115607893D-01 0.000000000000D+00 0.000000000000D+00 0.739378024325D-05 0.000000000000D+00  6 -3 1 25 2 -4 21 2 0.45638649D-01 0.64007284D+00 0.26602300D+06 0.26602300D+06 0.26602300D+06 0.10884353D+01  1  2 15  2  6  2        1 -.471964986875D-03 0.100000000000D+01
-.100824960957D-02 0.000000000000D+00 0.000000000000D+00 0.739378024325D-05 0.000000000000D+00  6 -3 1 25 2 -4 21 2 0.45638649D-01 0.64007284D+00 0.26602300D+06 0.26602300D+06 0.26602300D+06 0.10884353D+01  1  2  4  2  6  2        1 -.276476096254D-04 0.100000000000D+01
-.446777381756D+00 0.000000000000D+00 -.765187448558D-01 0.739378024325D-05 0.000000000000D+00  6 -3 1 25 2 -4 21 2 0.45638649D-01 0.66269730D+00 0.26602300D+06 0.26602300D+06 0.26602300D+06 0.10884353D+01  1  2  5  2  6  2        1 -.874172940152D-02 0.100000000000D+01
0.451200323585D+00 0.000000000000D+00 0.788569128881D-01 0.739378024325D-05 0.000000000000D+00  6 -3 1 25 2 -4 21 2 0.45638649D-01 0.64007284D+00 0.26602300D+06 0.26602300D+06 0.26602300D+06 0.10884353D+01  1  2  6  2  6  2        1 0.123725417704D-01 0.100000000000D+01
-.273093764495D-02 0.000000000000D+00 -.473398336923D-03 0.739378024325D-05 0.000000000000D+00  6 -3 21 25 2 -4 -1 2 0.45638649D-01 0.66269730D+00 0.26602300D+06 0.26602300D+06 0.26602300D+06 0.10884353D+01  1  2  5  6  6  2        1 -.340168295167D-05 0.100000000000D+01
  </mgrwgt>
  </event>
  <event>
  5     66 0.16453327E-05 0.21811983E+02 0.75467711E-02 0.89986777E-01
       -3 -1    0    0    0  501 0.00000000E+00 0.00000000E+00 0.76793579E+03 0.76793595E+03 0.50000000E+00 0.0000E+00 0.9000E+01
        1 -1    0    0  502    0 0.00000000E+00 0.00000000E+00 -.17090176E+04 0.17090176E+04 0.32000000E+00 0.0000E+00 0.9000E+01
       25  1    1    2    0    0 -.60461973E+03 -.43161728E+03 -.38687689E+03 0.84685136E+03 0.12500000E+03 0.0000E+00 0.9000E+01
        2  1    1    2  502    0 -.11786435E+02 -.18337119E+02 -.82127000E+03 0.82155930E+03 0.32000000E+00 0.0000E+00 0.9000E+01
       -4  1    1    2    0  501 0.61640617E+03 0.44995439E+03 0.26706507E+03 0.80854293E+03 0.15500000E+01 0.0000E+00 0.9000E+01
#aMCatNLO 1  0  0  2  4 0.10309642D+00 0.00000000D+00  -5  6  0 0.00000000D+00 0.00000000D+00 0.00000000D+00 0.00000000D+00 0.00000000D+00
  <mgrwgt>
 0.7186455523D-02    9    2    0
 0.114560727359511D+04 0.000000000000000D+00 0.000000000000000D+00 0.114560727359511D+04
 0.114560727359511D+04 0.000000000000000D+00 0.000000000000000D+00 -.114560727359511D+04
 0.756383802878106D+03 -.604487582538449D+03 -.431514534124885D+03 -.698672072731587D+02
 0.551250362885579D+03 -.117936306663227D+02 -.183486483100652D+02 -.550818663411456D+03
 0.983580381426533D+03 0.616281213204771D+03 0.449863182434950D+03 0.620685870684615D+03
 0.000000000000000D+00 0.000000000000000D+00 0.000000000000000D+00 -.000000000000000D+00
 0.114560733793084D+04 0.000000000000000D+00 0.000000000000000D+00 0.114560733793084D+04
 0.118766784347075D+04 0.000000000000000D+00 0.000000000000000D+00 -.118766784347075D+04
 0.756412296675770D+03 -.604521534131625D+03 -.431516918186655D+03 -.698672072731587D+02
 0.551250950643535D+03 -.118183740379407D+02 -.183503857756986D+02 -.550818663411456D+03
 0.983551302190398D+03 0.616237064985017D+03 0.449860082371799D+03 0.620685870684615D+03
 0.420606318918853D+02 0.102843184549269D+00 0.722159055512188D-02 -.420605055399088D+02
0.429686811041D-05 0.000000000000D+00 0.000000000000D+00 0.298537014874D-04 0.000000000000D+00  6 -3 1 25 2 -4 21 0 0.11814398D+00 0.26292580D+00 0.59133707D+06 0.59133707D+06 0.59133707D+06 0.10633985D+01  1  2  2  2  6  2        1 0.735416673305D-06 0.100000000000D+01
0.349039390855D-05 0.000000000000D+00 -.165011049353D-07 0.298537014874D-04 0.000000000000D+00  6 -3 1 25 2 -4 21 2 0.11814398D+00 0.26292580D+00 0.59133707D+06 0.59133707D+06 0.59133707D+06 0.10633985D+01  1  2  3  2  6  2        1 0.675535156607D-06 0.100000000000D+01
-.277037573102D-05 0.000000000000D+00 0.000000000000D+00 0.298537014874D-04 0.000000000000D+00  6 -3 1 25 2 -4 21 2 0.11814398D+00 0.26292580D+00 0.59133707D+06 0.59133707D+06 0.59133707D+06 0.10633985D+01  1  2 15  2  6  2        1 -.536181947469D-06 0.100000000000D+01
-.722005117563D+01 0.000000000000D+00 0.000000000000D+00 0.298537014874D-04 0.000000000000D+00  6 -3 1 25 2 -4 21 2 0.11814398D+00 0.26292580D+00 0.59133707D+06 0.59133707D+06 0.59133707D+06 0.10633985D+01  1  2  4  2  6  2        1 -.139737763973D+01 0.100000000000D+01
-.780386360833D+01 0.000000000000D+00 -.243034614759D-04 0.298537014874D-04 0.000000000000D+00  6 -3 1 25 2 -4 21 2 0.11814398D+00 0.27257903D+00 0.59133707D+06 0.59133707D+06 0.59133707D+06 0.10633985D+01  1  2  5  2  6  2        1 -.137090153659D+01 0.100000000000D+01
0.779879438901D+01 0.000000000000D+00 0.242876717018D-04 0.298537014874D-04 0.000000000000D+00  6 -3 1 25 2 -4 21 2 0.11814398D+00 0.26292580D+00 0.59133707D+06 0.59133707D+06 0.59133707D+06 0.10633985D+01  1  2  6  2  6  2        1 0.150938831747D+01 0.100000000000D+01
0.720734338164D+01 0.000000000000D+00 0.000000000000D+00 0.298537014874D-04 0.156654633064D-01  6 -3 1 25 2 -4 21 2 0.11814399D+00 0.27257903D+00 0.59142095D+06 0.59142095D+06 0.59142095D+06 0.10633942D+01  1  2 11  2  6  2        1 0.126608873621D+01 0.100000000000D+01
-.500189721087D-01 0.000000000000D+00 -.155773408901D-06 0.298537014874D-04 0.000000000000D+00  6 -3 21 25 2 -4 -1 2 0.11814398D+00 0.27257903D+00 0.59133707D+06 0.59133707D+06 0.59133707D+06 0.10633985D+01  1  2  5  6  6  2        1 -.519107285625D-02 0.100000000000D+01
0.499016785928D-01 0.000000000000D+00 0.000000000000D+00 0.298537014874D-04 0.108391318164D-03  6 -3 21 25 2 -4 -1 2 0.11814399D+00 0.27257903D+00 0.59142095D+06 0.59142095D+06 0.59142095D+06 0.10633942D+01  1  2 11  6  6  2        1 0.517877625008D-02 0.100000000000D+01
  </mgrwgt>
  </event>
  <event>
  5     66 0.16453327E-05 0.13409345E+03 0.75467711E-02 0.90271314E-01
       -3 -1    0    0    0  501 0.00000000E+00 0.00000000E+00 0.10697095E+04 0.10697096E+04 0.50000000E+00 0.0000E+00 0.9000E+01
        1 -1    0    0  502    0 0.00000000E+00 0.00000000E+00 -.53828874E+03 0.53828883E+03 0.32000000E+00 0.0000E+00 0.9000E+01
       25  1    1    2    0    0 0.24373268E+03 -.62749665E+03 0.41435000E+03 0.80029281E+03 0.12500000E+03 0.0000E+00 0.9000E+01
        2  1    1    2  502    0 -.30051515E+03 0.50498291E+03 -.53593980E+02 0.59007585E+03 0.32000000E+00 0.0000E+00 0.9000E+01
       -4  1    1    2    0  501 0.56782475E+02 0.12251375E+03 0.17066477E+03 0.21762981E+03 0.15500000E+01 0.0000E+00 0.9000E+01
#aMCatNLO 1  0  0  1  5 0.84178863D+02 0.00000000D+00  -5  6  0 0.00000000D+00 0.00000000D+00 0.00000000D+00 0.00000000D+00 0.00000000D+00
  <mgrwgt>
 0.4723222765D-04    7    4    0
 0.758823272761188D+03 0.000000000000000D+00 0.000000000000000D+00 0.758823272761188D+03
 0.758823272761188D+03 0.000000000000000D+00 0.000000000000000D+00 -.758823272761188D+03
 0.703231157320258D+03 0.244299525323965D+03 -.627465375810438D+03 0.159731038660433D+03
 0.644784695864867D+03 -.300686978514252D+03 0.505803926501277D+03 -.263622899061157D+03
 0.169630692337253D+03 0.563874531902866D+02 0.121661449309161D+03 0.103891860400723D+03
 0.000000000000000D+00 0.000000000000000D+00 -.000000000000000D+00 0.000000000000000D+00
 0.863453299836348D+03 0.000000000000000D+00 0.000000000000000D+00 0.863453299836348D+03
 0.777111809696904D+03 0.000000000000000D+00 0.000000000000000D+00 -.777111809696904D+03
 0.674944194565459D+03 0.211415914720971D+03 -.608041094062540D+03 0.159731038660433D+03
 0.674404517239416D+03 -.332163165006803D+03 0.524396845696257D+03 -.263622899061157D+03
 0.170630603204832D+03 0.482687330792596D+02 0.126457160728227D+03 0.103891860400723D+03
 0.120585794523545D+03 0.724785172065724D+02 -.428129123619440D+02 0.863414901394443D+02
 0.758823272761188D+03 0.000000000000000D+00 0.000000000000000D+00 0.758823272761188D+03
 0.758823272761188D+03 0.000000000000000D+00 0.000000000000000D+00 -.758823272761188D+03
 0.703231157320258D+03 0.244299525323965D+03 -.627465375810438D+03 0.159731038660433D+03
 0.644784695864867D+03 -.300686978514252D+03 0.505803926501277D+03 -.263622899061157D+03
 0.000000000000000D+00 0.000000000000000D+00 -.000000000000000D+00 0.000000000000000D+00
 0.169630692337253D+03 0.563874531902866D+02 0.121661449309161D+03 0.103891860400723D+03
 0.863453299836348D+03 0.000000000000000D+00 0.000000000000000D+00 0.863453299836348D+03
 0.777111809696904D+03 0.000000000000000D+00 0.000000000000000D+00 -.777111809696904D+03
 0.674944194565459D+03 0.211415914720971D+03 -.608041094062540D+03 0.159731038660433D+03
 0.674404517239416D+03 -.332163165006803D+03 0.524396845696257D+03 -.263622899061157D+03
 0.120585794523545D+03 0.724785172065724D+02 -.428129123619440D+02 0.863414901394443D+02
 0.170630603204832D+03 0.482687330792596D+02 0.126457160728227D+03 0.103891860400723D+03
0.420510960977D-04 0.000000000000D+00 0.000000000000D+00 0.186175908540D-07 0.000000000000D+00  6 -3 1 25 2 -4 21 0 0.16457071D+00 0.82813668D-01 0.49517552D+06 0.49517552D+06 0.49517552D+06 0.10688081D+01  1  2  2  1  6  1       -3 0.210498237815D-04 0.100000000000D+01
0.369133441353D-05 0.000000000000D+00 -.161487281323D-06 0.186175908540D-07 0.000000000000D+00  6 -3 1 25 2 -4 21 2 0.16457071D+00 0.82813668D-01 0.49517552D+06 0.49517552D+06 0.49517552D+06 0.10688081D+01  1  2  3  1  6  1       -3 0.211083373556D-05 0.100000000000D+01
-.212576025008D-04 0.000000000000D+00 0.000000000000D+00 0.186175908540D-07 0.000000000000D+00  6 -3 1 25 2 -4 21 2 0.16457071D+00 0.82813668D-01 0.49517552D+06 0.49517552D+06 0.49517552D+06 0.10688081D+01  1  2 15  1  6  1       -3 -.121558383687D-04 0.100000000000D+01
-.311616808765D-04 0.000000000000D+00 0.000000000000D+00 0.186175908540D-07 0.000000000000D+00  6 -3 1 25 2 -4 21 2 0.16457071D+00 0.82813668D-01 0.49517552D+06 0.49517552D+06 0.49517552D+06 0.10688081D+01  1  2  4  1  6  1       -3 -.178193357420D-04 0.100000000000D+01
-.404549432967D-03 0.000000000000D+00 -.643774234230D-04 0.186175908540D-07 0.000000000000D+00  6 -3 1 25 2 -4 21 2 0.18945975D+00 0.82813668D-01 0.49517552D+06 0.49517552D+06 0.49517552D+06 0.10688081D+01  1  2  5  1  6  1       -3 -.132455621582D-03 0.100000000000D+01
0.410174727053D-03 0.000000000000D+00 0.637441992273D-04 0.186175908540D-07 0.000000000000D+00  6 -3 1 25 2 -4 21 2 0.16457071D+00 0.82813668D-01 0.49517552D+06 0.49517552D+06 0.49517552D+06 0.10688081D+01  1  2  6  1  6  1       -3 0.234552211840D-03 0.100000000000D+01
-.836773226050D-05 0.000000000000D+00 -.139505128963D-05 0.186175908540D-07 0.000000000000D+00  6 21 1 25 2 3 -4 2 0.18945975D+00 0.82813668D-01 0.49517552D+06 0.49517552D+06 0.49517552D+06 0.10688081D+01  3  4  5  5  5  1       -3 -.480498460123D-04 0.100000000000D+01
  </mgrwgt>
  </event>
  <event>
  5     66 0.16453327E-05 0.21091753E+02 0.75467711E-02 0.95013804E-01
       -3 -1    0    0    0  501 0.00000000E+00 0.00000000E+00 0.82027845E+03 0.82027861E+03 0.50000000E+00 0.0000E+00 0.9000E+01
        1 -1    0    0  502    0 0.00000000E+00 0.00000000E+00 -.58418292E+03 0.58418301E+03 0.32000000E+00 0.0000E+00 0.9000E+01
       25  1    1    2    0    0 -.73810765E+02 -.45940243E+03 0.65709432E+01 0.48183690E+03 0.12500000E+03 0.0000E+00 0.9000E+01
        2  1    1    2  502    0 -.40369415E+01 0.20677973E+02 -.25989837E+03 0.26075111E+03 0.32000000E+00 0.0000E+00 0.9000E+01
       -4  1    1    2    0  501 0.77847707E+02 0.43872446E+03 0.48942297E+03 0.66187360E+03 0.15500000E+01 0.0000E+00 0.9000E+01
#aMCatNLO 1  0  0  1  5 0.14058858D+02 0.00000000D+00  -5  6  0 0.00000000D+00 0.00000000D+00 0.00000000D+00 0.00000000D+00 0.00000000D+00
  <mgrwgt>
 0.1520919690D-02    9    4    0
 0.692237553439325D+03 0.000000000000000D+00 0.000000000000000D+00 0.692237553439325D+03
 0.692237553439325D+03 0.000000000000000D+00 0.000000000000000D+00 -.692237553439325D+03
 0.487469028952351D+03 -.737806048526720D+02 -.459278454885994D+03 -.749718441340214D+02
 0.309238297951698D+03 -.404101342401258D+01 0.207010205562976D+02 -.308518172687603D+03
 0.587767779974601D+03 0.778216182766845D+02 0.438577434329696D+03 0.383490016821625D+03
 0.000000000000000D+00 -.000000000000000D+00 -.000000000000000D+00 0.000000000000000D+00
 0.104112858827952D+04 0.000000000000000D+00 0.000000000000000D+00 0.104112858827952D+04
 0.692414886088891D+03 0.000000000000000D+00 0.000000000000000D+00 -.692414886088891D+03
 0.482775093668574D+03 -.732131900312634D+02 -.454385125702075D+03 -.749718441340214D+02
 0.309458327197591D+03 -.367918939758423D+01 0.238213551002029D+02 -.308518172687603D+03
 0.592313065556792D+03 0.785117490866564D+02 0.444529054036728D+03 0.383490016821625D+03
 0.348996987945454D+03 -.161936965780874D+01 -.139652834348561D+02 0.348713702190629D+03
 0.692237553439325D+03 0.000000000000000D+00 0.000000000000000D+00 0.692237553439325D+03
 0.692237553439325D+03 0.000000000000000D+00 0.000000000000000D+00 -.692237553439325D+03
 0.487469028952351D+03 -.737806048526720D+02 -.459278454885994D+03 -.749718441340214D+02
 0.309238297951698D+03 -.404101342401258D+01 0.207010205562976D+02 -.308518172687603D+03
 0.000000000000000D+00 -.000000000000000D+00 -.000000000000000D+00 0.000000000000000D+00
 0.587767779974601D+03 0.778216182766845D+02 0.438577434329696D+03 0.383490016821625D+03
 0.104112858827952D+04 0.000000000000000D+00 0.000000000000000D+00 0.104112858827952D+04
 0.692414886088891D+03 0.000000000000000D+00 0.000000000000000D+00 -.692414886088891D+03
 0.482775093668574D+03 -.732131900312634D+02 -.454385125702075D+03 -.749718441340214D+02
 0.309458327197591D+03 -.367918939758423D+01 0.238213551002029D+02 -.308518172687603D+03
 0.348996987945454D+03 -.161936965780874D+01 -.139652834348561D+02 0.348713702190629D+03
 0.592313065556792D+03 0.785117490866564D+02 0.444529054036728D+03 0.383490016821625D+03
0.234445417417D-04 0.000000000000D+00 0.000000000000D+00 0.309711752889D-04 0.000000000000D+00  6 -3 1 25 2 -4 21 0 0.12619670D+00 0.89874314D-01 0.22476574D+06 0.22476574D+06 0.22476574D+06 0.10939526D+01  1  2  2  1  6  1       -3 0.255959543315D-04 0.100000000000D+01
0.138392834337D-04 0.000000000000D+00 -.900332133778D-07 0.309711752889D-04 0.000000000000D+00  6 -3 1 25 2 -4 21 2 0.12619670D+00 0.89874314D-01 0.22476574D+06 0.22476574D+06 0.22476574D+06 0.10939526D+01  1  2  3  1  6  1       -3 0.180817382491D-04 0.100000000000D+01
-.138529774926D-04 0.000000000000D+00 0.000000000000D+00 0.309711752889D-04 0.000000000000D+00  6 -3 1 25 2 -4 21 2 0.12619670D+00 0.89874314D-01 0.22476574D+06 0.22476574D+06 0.22476574D+06 0.10939526D+01  1  2 15  1  6  1       -3 -.180996302439D-04 0.100000000000D+01
0.129233426139D-01 0.000000000000D+00 0.000000000000D+00 0.309711752889D-04 0.000000000000D+00  6 -3 1 25 2 -4 21 2 0.18992217D+00 0.89874314D-01 0.23352573D+06 0.23352573D+06 0.23352573D+06 0.10926933D+01  1  2 12  1  6  1       -3 0.406662471150D-02 0.100000000000D+01
-.107553839599D-01 0.000000000000D+00 0.000000000000D+00 0.309711752889D-04 0.000000000000D+00  6 -3 1 25 2 -4 21 2 0.12619670D+00 0.89874314D-01 0.22476574D+06 0.22476574D+06 0.22476574D+06 0.10939526D+01  1  2  4  1  6  1       -3 -.140524643824D-01 0.100000000000D+01
-.129522801133D-01 0.000000000000D+00 -.158003261840D-04 0.309711752889D-04 0.000000000000D+00  6 -3 1 25 2 -4 21 2 0.18981620D+00 0.89874314D-01 0.22476574D+06 0.22476574D+06 0.22476574D+06 0.10939526D+01  1  2  5  1  6  1       -3 -.410427219338D-02 0.100000000000D+01
0.119503589769D-01 0.000000000000D+00 0.145694552035D-04 0.309711752889D-04 0.000000000000D+00  6 -3 1 25 2 -4 21 2 0.12619670D+00 0.89874314D-01 0.22476574D+06 0.22476574D+06 0.22476574D+06 0.10939526D+01  1  2  6  1  6  1       -3 0.156137609319D-01 0.100000000000D+01
0.625044481953D-03 0.000000000000D+00 0.000000000000D+00 0.309711752889D-04 0.000000000000D+00  6 21 1 25 2 3 -4 2 0.18992217D+00 0.89874314D-01 0.23352573D+06 0.23352573D+06 0.23352573D+06 0.10926933D+01  3  4 12  5  5  1       -3 0.353811732341D-02 0.100000000000D+01
-.625259042629D-03 0.000000000000D+00 -.763421918474D-06 0.309711752889D-04 0.000000000000D+00  6 21 1 25 2 3 -4 2 0.18981620D+00 0.89874314D-01 0.22476574D+06 0.22476574D+06 0.22476574D+06 0.10939526D+01  3  4  5  5  5  1       -3 -.356642476342D-02 0.100000000000D+01
  </mgrwgt>
  </event>
  <event>
  5     66 0.16453327E-05 0.25238990E+02 0.75467711E-02 0.91343761E-01
       -3 -1    0    0    0  501 0.00000000E+00 0.00000000E+00 0.47215311E+03 0.47215337E+03 0.50000000E+00 0.0000E+00 0.9000E+01
        1 -1    0    0  502    0 0.00000000E+00 0.00000000E+00 -.17138122E+04 0.17138122E+04 0.32000000E+00 0.0000E+00 0.9000E+01
       25  1    1    2    0    0 0.48291630E+03 -.36017803E+03 -.62288334E+03 0.87552556E+03 0.12500000E+03 0.0000E+00 0.9000E+01
        2  1    1    2  502    0 -.55125953E+01 0.24607937E+02 -.71806609E+03 0.71850884E+03 0.32000000E+00 0.0000E+00 0.9000E+01
       -4  1    1    2    0  501 -.47740370E+03 0.33557009E+03 0.99290328E+02 0.59193120E+03 0.15500000E+01 0.0000E+00 0.9000E+01
#aMCatNLO 1  0  0  2  4 0.41072491D+02 0.00000000D+00  -5  6  0 0.00000000D+00 0.00000000D+00 0.00000000D+00 0.00000000D+00 0.00000000D+00
  <mgrwgt>
 0.1164175311D-02    7    2    0
 0.899545483571446D+03 0.000000000000000D+00 0.000000000000000D+00 0.899545483571446D+03
 0.899545483571446D+03 0.000000000000000D+00 0.000000000000000D+00 -.899545483571446D+03
 0.633688039894594D+03 0.482821166417961D+03 -.360127861468317D+03 -.152076219569363D+03
 0.377824677639115D+03 -.551796110073354D+01 0.246284128105805D+02 -.376980742771860D+03
 0.787578249609184D+03 -.477303205317227D+03 0.335499448657736D+03 0.529056962341223D+03
 0.000000000000000D+00 -.000000000000000D+00 -.000000000000000D+00 -.000000000000000D+00
 0.907257361718396D+03 0.000000000000000D+00 0.000000000000000D+00 0.907257361718396D+03
 0.144415195051783D+04 0.000000000000000D+00 0.000000000000000D+00 -.144415195051783D+04
 0.649299107358791D+03 0.517427839588816D+03 -.339272140142489D+03 -.152076219569363D+03
 0.379078406886703D+03 0.148983756679342D+02 0.369323239100206D+02 -.376980742771860D+03
 0.774285726503083D+03 -.435174243796169D+03 0.360888479174823D+03 0.529056962341223D+03
 0.548746071487644D+03 -.971519714605813D+02 -.585486629423549D+02 -.536894588799429D+03
0.128139004453D-03 0.000000000000D+00 0.000000000000D+00 0.284830743993D-04 0.000000000000D+00  6 -3 1 25 2 -4 21 0 0.72638962D-01 0.26366344D+00 0.37443861D+06 0.37443861D+06 0.37443861D+06 0.10775012D+01  1  2  2  2  6  2        1 0.774839846098D-04 0.100000000000D+01
0.770024129733D-04 0.000000000000D+00 -.492087516873D-06 0.284830743993D-04 0.000000000000D+00  6 -3 1 25 2 -4 21 2 0.72638962D-01 0.26366344D+00 0.37443861D+06 0.37443861D+06 0.37443861D+06 0.10775012D+01  1  2  3  2  6  2        1 0.540593065153D-04 0.100000000000D+01
-.799222966666D-04 0.000000000000D+00 0.000000000000D+00 0.284830743993D-04 0.000000000000D+00  6 -3 1 25 2 -4 21 2 0.72638962D-01 0.26366344D+00 0.37443861D+06 0.37443861D+06 0.37443861D+06 0.10775012D+01  1  2 15  2  6  2        1 -.561092018558D-04 0.100000000000D+01
-.304157778182D-04 0.000000000000D+00 0.000000000000D+00 0.284830743993D-04 0.000000000000D+00  6 -3 1 25 2 -4 21 2 0.72638962D-01 0.26366344D+00 0.37443861D+06 0.37443861D+06 0.37443861D+06 0.10775012D+01  1  2  4  2  6  2        1 -.213533030003D-04 0.100000000000D+01
-.220366716227D-02 0.000000000000D+00 -.755306322796D-04 0.284830743993D-04 0.000000000000D+00  6 -3 1 25 2 -4 21 2 0.72638962D-01 0.42411191D+00 0.37443861D+06 0.37443861D+06 0.37443861D+06 0.10775012D+01  1  2  5  2  6  2        1 -.300491384969D-03 0.100000000000D+01
0.201537668646D-02 0.000000000000D+00 0.677338318465D-04 0.284830743993D-04 0.000000000000D+00  6 -3 1 25 2 -4 21 2 0.72638962D-01 0.26366344D+00 0.37443861D+06 0.37443861D+06 0.37443861D+06 0.10775012D+01  1  2  6  2  6  2        1 0.141488898633D-02 0.100000000000D+01
-.116206528618D-03 0.000000000000D+00 -.409309560857D-05 0.284830743993D-04 0.000000000000D+00  6 -3 21 25 2 -4 -1 2 0.72638962D-01 0.42411191D+00 0.37443861D+06 0.37443861D+06 0.37443861D+06 0.10775012D+01  1  2  5  6  6  2        1 -.430307692760D-05 0.100000000000D+01
  </mgrwgt>
  </event>
  <event>
  5     66 0.16453327E-05 0.19200008E+03 0.75467711E-02 0.90940552E-01
       -3 -1    0    0    0  501 0.00000000E+00 0.00000000E+00 0.29750929E+03 0.29750971E+03 0.50000000E+00 0.0000E+00 0.9000E+01
        1 -1    0    0  502    0 0.00000000E+00 0.00000000E+00 -.29779555E+04 0.29779555E+04 0.32000000E+00 0.0000E+00 0.9000E+01
       25  1    1    2    0    0 0.36068881E+03 -.34204428E+03 -.46498253E+03 0.69204368E+03 0.12500000E+03 0.0000E+00 0.9000E+01
        2  1    1    2  502    0 -.19179522E+03 0.25029725E+03 -.23355767E+04 0.23567674E+04 0.32000000E+00 0.0000E+00 0.9000E+01
       -4  1    1    2    0  501 -.16889359E+03 0.91747030E+02 0.12011300E+03 0.22665414E+03 0.15500000E+01 0.0000E+00 0.9000E+01
#aMCatNLO 1  0  0  1  1 0.91689978D+01 0.00000000D+00  -5  6  0 0.00000000D+00 0.00000000D+00 0.00000000D+00 0.00000000D+00 0.00000000D+00
  <mgrwgt>
 0.5435255848D-03    7    4    0
 0.941259877935074D+03 0.000000000000000D+00 0.000000000000000D+00 0.941259877935074D+03
 0.941259877935074D+03 0.000000000000000D+00 0.000000000000000D+00 -.941259877935074D+03
 0.542364644870464D+03 0.360693262142288D+03 -.342166433392141D+03 0.177078825697262D+03
 0.775370455691395D+03 -.191979285935855D+03 0.250516974092576D+03 -.708226336012818D+03
 0.564784655308288D+03 -.168713976206433D+03 0.916494592995648D+02 0.531147510315556D+03
 0.000000000000000D+00 -.000000000000000D+00 -.000000000000000D+00 0.000000000000000D+00
 0.169468671120108D+04 0.000000000000000D+00 0.000000000000000D+00 0.169468671120108D+04
 0.984660887895019D+03 0.000000000000000D+00 0.000000000000000D+00 -.984660887895019D+03
 0.526511490376973D+03 0.399552748257379D+03 -.265687862629507D+03 0.177078825697262D+03
 0.807455950438462D+03 -.134434900086727D+03 0.363768919116258D+03 -.708226336012818D+03
 0.572960858019200D+03 -.127350712007984D+03 0.173055665202687D+03 0.531147510315556D+03
 0.772419300261466D+03 -.137767136162668D+03 -.271136721689438D+03 0.710025823306065D+03
 0.941259877935074D+03 0.000000000000000D+00 0.000000000000000D+00 0.941259877935074D+03
 0.941259877935074D+03 0.000000000000000D+00 0.000000000000000D+00 -.941259877935074D+03
 0.542364644870464D+03 0.360693262142288D+03 -.342166433392141D+03 0.177078825697262D+03
 0.775370455691395D+03 -.191979285935855D+03 0.250516974092576D+03 -.708226336012818D+03
 0.000000000000000D+00 -.000000000000000D+00 -.000000000000000D+00 0.000000000000000D+00
 0.564784655308288D+03 -.168713976206433D+03 0.916494592995648D+02 0.531147510315556D+03
 0.169468671120108D+04 0.000000000000000D+00 0.000000000000000D+00 0.169468671120108D+04
 0.984660887895019D+03 0.000000000000000D+00 0.000000000000000D+00 -.984660887895019D+03
 0.526511490376973D+03 0.399552748257379D+03 -.265687862629507D+03 0.177078825697262D+03
 0.807455950438462D+03 -.134434900086727D+03 0.363768919116258D+03 -.708226336012818D+03
 0.772419300261466D+03 -.137767136162668D+03 -.271136721689438D+03 0.710025823306065D+03
 0.572960858019200D+03 -.127350712007984D+03 0.173055665202687D+03 0.531147510315556D+03
0.130539016277D-02 0.000000000000D+00 0.000000000000D+00 0.841823098951D-05 0.000000000000D+00  6 -3 1 25 2 -4 21 0 0.45770694D-01 0.45814703D+00 0.26023306D+06 0.26023306D+06 0.26023306D+06 0.10891508D+01  1  2  2  1  6  1       -3 0.297084326906D-03 0.100000000000D+01
0.126892830331D-03 0.000000000000D+00 -.501304194216D-05 0.841823098951D-05 0.000000000000D+00  6 -3 1 25 2 -4 21 2 0.45770694D-01 0.45814703D+00 0.26023306D+06 0.26023306D+06 0.26023306D+06 0.10891508D+01  1  2  3  1  6  1       -3 0.342572541846D-04 0.100000000000D+01
-.828680676384D-03 0.000000000000D+00 0.000000000000D+00 0.841823098951D-05 0.000000000000D+00  6 -3 1 25 2 -4 21 2 0.45770694D-01 0.45814703D+00 0.26023306D+06 0.26023306D+06 0.26023306D+06 0.10891508D+01  1  2 15  1  6  1       -3 -.223718901176D-03 0.100000000000D+01
-.650702891267D-03 0.000000000000D+00 0.000000000000D+00 0.841823098951D-05 0.000000000000D+00  6 -3 1 25 2 -4 21 2 0.45770694D-01 0.45814703D+00 0.26023306D+06 0.26023306D+06 0.26023306D+06 0.10891508D+01  1  2  4  1  6  1       -3 -.175670243045D-03 0.100000000000D+01
-.485531499945D-02 0.000000000000D+00 -.773977751159D-03 0.841823098951D-05 0.000000000000D+00  6 -3 1 25 2 -4 21 2 0.84408112D-01 0.45814703D+00 0.26023306D+06 0.26023306D+06 0.26023306D+06 0.10891508D+01  1  2  5  1  6  1       -3 -.335779279841D-03 0.100000000000D+01
0.457116310223D-02 0.000000000000D+00 0.648655399300D-03 0.841823098951D-05 0.000000000000D+00  6 -3 1 25 2 -4 21 2 0.45770694D-01 0.45814703D+00 0.26023306D+06 0.26023306D+06 0.26023306D+06 0.10891508D+01  1  2  6  1  6  1       -3 0.123407678672D-02 0.100000000000D+01
-.281732665759D-03 0.000000000000D+00 -.517007138434D-04 0.841823098951D-05 0.000000000000D+00  6 21 1 25 2 3 -4 2 0.84408112D-01 0.45814703D+00 0.26023306D+06 0.26023306D+06 0.26023306D+06 0.10891508D+01  3  4  5  5  5  1       -3 -.286724358917D-03 0.100000000000D+01
  </mgrwgt>
  </event>
  <event>
  6     66 -.16453327E-05 0.13126006E+03 0.75467711E-02 0.90393570E-01
       -3 -1    0    0    0  501 0.00000000E+00 0.00000000E+00 0.40567098E+03 0.40567129E+03 0.50000000E+00 0.0000E+00 0.9000E+01
        1 -1    0    0  502    0 -.00000000E+00 -.00000000E+00 -.27099027E+04 0.27099027E+04 0.32000000E+00 0.0000E+00 0.9000E+01
       25  1    1    2    0    0 0.28084742E+03 -.67424445E+03 -.13244846E+04 0.15176842E+04 0.12500000E+03 0.0000E+00 0.9000E+01
        2  1    1    2  502    0 -.19763242E+03 0.56440306E+03 -.11982113E+04 0.13391489E+04 0.32000000E+00 0.0000E+00 0.9000E+01
       -4  1    1    2    0  503 -.30634757E+02 0.49271198E+02 0.10132956E+03 0.11677423E+03 0.15500000E+01 0.0000E+00 0.9000E+01
       21  1    1    2  503  501 -.52580241E+02 0.60570192E+02 0.11713467E+03 0.14196663E+03 0.75000000E+00 0.0000E+00 0.9000E+01
#aMCatNLO 2  0  0  5  1 0.73620624D+01 0.00000000D+00  -5  6  0 0.00000000D+00 0.00000000D+00 0.00000000D+00 0.00000000D+00 0.00000000D+00
  <mgrwgt>
 -.1305171164D-03    2    2    0
 0.104848909966105D+04 0.000000000000000D+00 0.000000000000000D+00 0.104848909966105D+04
 0.104848909966105D+04 -.000000000000000D+00 -.000000000000000D+00 -.104848909966105D+04
 0.799800166529436D+03 0.281041117327595D+03 -.674833405383025D+03 -.299451284403523D+03
 0.673669592810459D+03 -.197930879995439D+03 0.565130295784457D+03 -.308677559612314D+03
 0.623508439982204D+03 -.831102373321561D+02 0.109703109598569D+03 0.608128844015837D+03
 0.000000000000000D+00 -.000000000000000D+00 0.000000000000000D+00 0.000000000000000D+00
 0.104848909966105D+04 0.000000000000000D+00 0.000000000000000D+00 0.104848909966105D+04
 0.104848909966105D+04 -.000000000000000D+00 -.000000000000000D+00 -.104848909966105D+04
 0.799762768162137D+03 0.281032222473347D+03 -.674821664432672D+03 -.299386199552307D+03
 0.673654973036130D+03 -.197938372201827D+03 0.565140185280202D+03 -.308622738125140D+03
 0.287152709423433D+03 -.310352882062322D+02 0.496895530754061D+02 0.281112855861024D+03
 0.336407748700399D+03 -.520585620652881D+02 0.599919260770635D+02 0.326896081816423D+03
-.466860436154D-02 0.000000000000D+00 0.000000000000D+00 0.748353963322D-06 0.000000000000D+00  6 -3 1 25 2 -4 21 2 0.62410946D-01 0.41690813D+00 0.54643784D+06 0.54643784D+06 0.54643784D+06 0.10657951D+01  1  2 13  4  6  5       -4 -.925787027158D-03 0.100000000000D+01
0.401042622683D-02 0.000000000000D+00 0.000000000000D+00 0.748353963322D-06 0.199575211430D-07  6 -3 1 25 2 -4 21 2 0.62410946D-01 0.41690813D+00 0.54643784D+06 0.54643784D+06 0.54643784D+06 0.10657951D+01  1  2  1  4  6  5       -4 0.795269910802D-03 0.100000000000D+01
  </mgrwgt>
  </event>
  <event>
  6     66 0.16453327E-05 0.13584277E+03 0.75467711E-02 0.91458230E-01
       -3 -1    0    0    0  501 0.00000000E+00 0.00000000E+00 0.83811490E+03 0.83811505E+03 0.50000000E+00 0.0000E+00 0.9000E+01
        1 -1    0    0  502    0 -.00000000E+00 -.00000000E+00 -.23336249E+04 0.23336249E+04 0.32000000E+00 0.0000E+00 0.9000E+01
       25  1    1    2    0    0 -.32837195E+03 0.47164670E+03 -.85188796E+03 0.10351893E+04 0.12500000E+03 0.0000E+00 0.9000E+01
        2  1    1    2  502    0 -.34536756E+02 -.28770417E+01 -.11939264E+04 0.11944293E+04 0.32000000E+00 0.0000E+00 0.9000E+01
       -4  1    1    2    0  503 0.14712232E+03 0.46814989E+02 -.46760179E+01 0.15446970E+03 0.15500000E+01 0.0000E+00 0.9000E+01
       21  1    1    2  503  501 0.21578639E+03 -.51558464E+03 0.55498041E+03 0.78765164E+03 0.75000000E+00 0.0000E+00 0.9000E+01
#aMCatNLO 2  0  0  5  5 0.14432099D+03 0.00000000D+00  -5  6  0 0.00000000D+00 0.00000000D+00 0.00000000D+00 0.00000000D+00 0.00000000D+00
  <mgrwgt>
 0.1362333567D-02    1    2    0
 0.139851565974309D+04 0.000000000000000D+00 0.000000000000000D+00 0.139851565974309D+04
 0.139851565974309D+04 -.000000000000000D+00 -.000000000000000D+00 -.139851565974309D+04
 0.738656346082569D+03 -.334983001199587D+03 0.480222320799470D+03 -.432621207433639D+03
 0.737622121749765D+03 -.412193176697464D+02 0.571870739718719D+01 -.736447322441443D+03
 0.132075285165385D+04 0.376202318869333D+03 -.485941028196657D+03 0.116906852987508D+04
 0.000000000000000D+00 0.000000000000000D+00 0.000000000000000D+00 0.000000000000000D+00
 0.139851565974309D+04 0.000000000000000D+00 0.000000000000000D+00 0.139851565974309D+04
 0.139851565974309D+04 -.000000000000000D+00 -.000000000000000D+00 -.139851565974309D+04
 0.718129214456357D+03 -.328363898830530D+03 0.471672417596785D+03 -.412051998028066D+03
 0.716753831160874D+03 -.346111636790874D+02 -.281705377077639D+01 -.715912135698665D+03
 0.171261207694839D+03 0.145967056342434D+03 0.465356680773332D+02 0.765405207743980D+02
 0.119088706617411D+04 0.217008006167184D+03 -.515391031903342D+03 0.105142361295233D+04
0.230837703353D-01 0.000000000000D+00 0.000000000000D+00 0.204322011842D-03 0.329960903506D-08  6 -3 1 25 2 -4 21 2 0.12894077D+00 0.35901922D+00 0.44575468D+06 0.44575468D+06 0.44575468D+06 0.10720532D+01  1  2  1  4  6  5       -4 0.136233356742D-02 0.100000000000D+01
  </mgrwgt>
  </event>
  <event>
  5     66 -.16453327E-05 0.53074797E+02 0.75467711E-02 0.90932082E-01
       -3 -1    0    0    0  501 0.00000000E+00 0.00000000E+00 0.20967594E+04 0.20967595E+04 0.50000000E+00 0.0000E+00 0.9000E+01
        1 -1    0    0  502    0 0.00000000E+00 0.00000000E+00 -.40718659E+03 0.40718672E+03 0.32000000E+00 0.0000E+00 0.9000E+01
       25  1    1    2    0    0 -.38011069E+03 0.56347631E+03 0.11392695E+04 0.13324975E+04 0.12500000E+03 0.0000E+00 0.9000E+01
        2  1    1    2  502    0 0.52131055E+02 0.97230331E+01 -.17951835E+03 0.18718741E+03 0.32000000E+00 0.0000E+00 0.9000E+01
       -4  1    1    2    0  501 0.32797964E+03 -.57319934E+03 0.72982168E+03 0.98426126E+03 0.15500000E+01 0.0000E+00 0.9000E+01
#aMCatNLO 1  0  0  2  4 0.39434034D+00 0.00000000D+00  -5  6  0 0.00000000D+00 0.00000000D+00 0.00000000D+00 0.00000000D+00 0.00000000D+00
  <mgrwgt>
 -.3929122971D-05    1    2    0
 0.923998137856396D+03 0.000000000000000D+00 0.000000000000000D+00 0.923998137856396D+03
 0.923998137856396D+03 0.000000000000000D+00 0.000000000000000D+00 -.923998137856396D+03
 0.763765810403219D+03 -.379953069253014D+03 0.563117573878697D+03 0.325956249050499D+03
 0.418272390737168D+03 0.521755741053750D+02 0.972849000071926D+01 -.414891381932749D+03
 0.665958074572404D+03 0.327777495147639D+03 -.572846063879416D+03 0.889351328822498D+02
 0.000000000000000D+00 0.000000000000000D+00 -.000000000000000D+00 -.000000000000000D+00
 0.111382668090786D+04 0.000000000000000D+00 0.000000000000000D+00 0.111382668090786D+04
 0.121253908387810D+04 0.000000000000000D+00 0.000000000000000D+00 -.121253908387810D+04
 0.888256726717621D+03 -.563026957594240D+03 0.591716301352434D+03 0.325956249050499D+03
 0.417560269710150D+03 -.404497573972845D+02 0.241978752134908D+02 -.414891381932749D+03
 0.589268441465010D+03 0.188675761438560D+03 -.551116408113021D+03 0.889351328822498D+02
 0.431280326893176D+03 0.414800953552965D+03 -.647977684529039D+02 -.987124029702448D+02
-.105046912391D-02 0.000000000000D+00 0.000000000000D+00 0.144982957361D-05 0.000000000000D+00  6 -3 1 25 2 -4 21 2 0.32257839D+00 0.62644105D-01 0.49265329D+06 0.49265329D+06 0.49265329D+06 0.10689650D+01  1  2 14  2  6  2        1 -.392912297110D-05 0.100000000000D+01
  </mgrwgt>
  </event>
  <event>
  5     66 0.16453327E-05 0.58665489E+02 0.75467711E-02 0.88009658E-01
       -3 -1    0    0    0  501 0.00000000E+00 0.00000000E+00 0.54177436E+03 0.54177459E+03 0.50000000E+00 0.0000E+00 0.9000E+01
        1 -1    0    0  502    0 0.00000000E+00 0.00000000E+00 -.13571718E+04 0.13571719E+04 0.32000000E+00 0.0000E+00 0.9000E+01
       25  1    1    2    0    0 -.10173707E+03 0.45894724E+03 -.28347552E+02 0.48724900E+03 0.12500000E+03 0.0000E+00 0.9000E+01
        2  1    1    2  502    0 -.58610293E+02 -.68226449E+00 -.90917526E+03 0.91106278E+03 0.32000000E+00 0.0000E+00 0.9000E+01
       -4  1    1    2    0  501 0.16034736E+03 -.45826498E+03 0.12212535E+03 0.50063467E+03 0.15500000E+01 0.0000E+00 0.9000E+01
#aMCatNLO 1  0  0  2  4 0.22478584D+02 0.00000000D+00  -5  6  0 0.00000000D+00 0.00000000D+00 0.00000000D+00 0.00000000D+00 0.00000000D+00
  <mgrwgt>
 0.2998082106D-02    6    2    0
 0.857485360162744D+03 0.000000000000000D+00 0.000000000000000D+00 0.857485360162744D+03
 0.857485360162744D+03 0.000000000000000D+00 0.000000000000000D+00 -.857485360162744D+03
 0.526008895028538D+03 -.101576007495167D+03 0.458636782245432D+03 0.200985010192407D+03
 0.576976989531486D+03 -.586614796700203D+02 -.685826901215762D+00 -.573986765433839D+03
 0.611984835765465D+03 0.160237487165188D+03 -.457950955344216D+03 0.373001755241433D+03
 0.000000000000000D+00 -.000000000000000D+00 0.000000000000000D+00 -.000000000000000D+00
 0.109441572916930D+04 0.000000000000000D+00 0.000000000000000D+00 0.109441572916930D+04
 0.147059672586103D+04 0.000000000000000D+00 0.000000000000000D+00 -.147059672586103D+04
 0.515124071868829D+03 0.843565601286679D+02 0.449685229755147D+03 0.200985010192407D+03
 0.593451732921265D+03 0.150361598558736D+03 -.107490507912395D+02 -.573986765433839D+03
 0.719661189804063D+03 0.398051841884997D+03 -.469400308765314D+03 0.373001755241433D+03
 0.736775460436175D+03 -.632770000572400D+03 0.304641298014072D+02 -.376180996691734D+03
0.293115068961D-02 0.000000000000D+00 0.000000000000D+00 0.179708339488D-04 0.000000000000D+00  6 -3 1 25 2 -4 21 0 0.83349921D-01 0.20879569D+00 0.26519304D+06 0.26519304D+06 0.26519304D+06 0.10885368D+01  1  2  2  2  6  2        1 0.226178271500D-02 0.100000000000D+01
0.105627944050D-02 0.000000000000D+00 -.112563904378D-04 0.179708339488D-04 0.000000000000D+00  6 -3 1 25 2 -4 21 2 0.83349921D-01 0.20879569D+00 0.26519304D+06 0.26519304D+06 0.26519304D+06 0.10885368D+01  1  2  3  2  6  2        1 0.965779052807D-03 0.100000000000D+01
-.202558422040D-02 0.000000000000D+00 0.000000000000D+00 0.179708339488D-04 0.000000000000D+00  6 -3 1 25 2 -4 21 2 0.83349921D-01 0.20879569D+00 0.26519304D+06 0.26519304D+06 0.26519304D+06 0.10885368D+01  1  2 15  2  6  2        1 -.185203529932D-02 0.100000000000D+01
-.102709768456D-02 0.000000000000D+00 -.161846207766D-02 0.179708339488D-04 0.000000000000D+00  6 -3 1 25 2 -4 21 2 0.83349921D-01 0.39433789D+00 0.26519304D+06 0.26519304D+06 0.26519304D+06 0.10885368D+01  1  2  5  2  6  2        1 -.144976699035D-03 0.100000000000D+01
0.193212274725D-02 0.000000000000D+00 0.133861483841D-02 0.179708339488D-04 0.000000000000D+00  6 -3 1 25 2 -4 21 2 0.83349921D-01 0.20879569D+00 0.26519304D+06 0.26519304D+06 0.26519304D+06 0.10885368D+01  1  2  6  2  6  2        1 0.176658146055D-02 0.100000000000D+01
0.207639101648D-04 0.000000000000D+00 -.111906584169D-03 0.179708339488D-04 0.000000000000D+00  6 -3 21 25 2 -4 -1 2 0.83349921D-01 0.39433789D+00 0.26519304D+06 0.26519304D+06 0.26519304D+06 0.10885368D+01  1  2  5  6  6  2        1 0.950875876679D-06 0.100000000000D+01
  </mgrwgt>
  </event>
  <event>
  5     66 -.16453327E-05 0.13035592E+03 0.75467711E-02 0.92600575E-01
       -3 -1    0    0    0  501 0.00000000E+00 0.00000000E+00 0.41096026E+03 0.41096056E+03 0.50000000E+00 0.0000E+00 0.9000E+01
        1 -1    0    0  502    0 -.00000000E+00 -.00000000E+00 -.24799984E+04 0.24799984E+04 0.32000000E+00 0.0000E+00 0.9000E+01
       25  1    1    2    0    0 0.43884411E+03 0.39550418E+03 -.54705813E+03 0.81480385E+03 0.12500000E+03 0.0000E+00 0.9000E+01
        2  1    1    2  502    0 -.31127077E+03 -.30973614E+03 -.17482759E+04 0.18025800E+04 0.32000000E+00 0.0000E+00 0.9000E+01
       -4  1    1    2    0  501 -.12757334E+03 -.85768039E+02 0.22629589E+03 0.27357512E+03 0.15500000E+01 0.0000E+00 0.9000E+01
#aMCatNLO 1  0  0  4  2 0.20649424D+02 0.00000000D+00  -5  6  0 0.00000000D+00 0.00000000D+00 0.00000000D+00 0.00000000D+00 0.00000000D+00
  <mgrwgt>
 -.4895166743D-03    7    2    0
 0.100954506834166D+04 0.000000000000000D+00 0.000000000000000D+00 0.100954506834166D+04
 0.100954506834166D+04 -.000000000000000D+00 -.000000000000000D+00 -.100954506834166D+04
 0.606342454146147D+03 0.438999674015443D+03 0.395685398905740D+03 0.523308991620910D+02
 0.789723208748495D+03 -.311544150591300D+03 -.309996570022130D+03 -.656128886151859D+03
 0.623024473788681D+03 -.127455523424143D+03 -.856888288836102D+02 0.603797986989768D+03
 0.000000000000000D+00 0.000000000000000D+00 0.000000000000000D+00 -.000000000000000D+00
 0.100954506834166D+04 0.000000000000000D+00 0.000000000000000D+00 0.100954506834166D+04
 0.100954506834166D+04 -.000000000000000D+00 -.000000000000000D+00 -.100954506834166D+04
 0.605464122389012D+03 0.438434191156356D+03 0.395122725055531D+03 0.511399615766281D+02
 0.741795151656518D+03 -.310525657526963D+03 -.293668353780896D+03 -.606294285826761D+03
 0.622037944411989D+03 -.128036524938426D+03 -.862669443008426D+02 0.602574366274388D+03
 0.497929182258042D+02 0.127991309032605D+00 -.151874269737929D+02 -.474200420242554D+02
0.396993292229D-03 0.000000000000D+00 0.000000000000D+00 0.580575402249D-05 0.000000000000D+00  6 -3 1 25 2 -4 21 0 0.63224680D-01 0.38153824D+00 0.35829754D+06 0.35829754D+06 0.35829754D+06 0.10788917D+01  1  2  2  3  6  4        2 0.100549630742D-03 0.100000000000D+01
0.589552569756D-04 0.000000000000D+00 -.152455877289D-05 0.580575402249D-05 0.000000000000D+00  6 -3 1 25 2 -4 21 2 0.63224680D-01 0.38153824D+00 0.35829754D+06 0.35829754D+06 0.35829754D+06 0.10788917D+01  1  2  3  3  6  4        2 0.173810317879D-04 0.100000000000D+01
-.280360724997D-03 0.000000000000D+00 0.000000000000D+00 0.580575402249D-05 0.000000000000D+00  6 -3 1 25 2 -4 21 2 0.63224680D-01 0.38153824D+00 0.35829754D+06 0.35829754D+06 0.35829754D+06 0.10788917D+01  1  2 15  3  6  4        2 -.826552019825D-04 0.100000000000D+01
0.709243280420D-02 0.000000000000D+00 0.000000000000D+00 0.580575402249D-05 0.000000000000D+00  6 -3 1 25 2 -4 21 2 0.63224680D-01 0.38153824D+00 0.36016285D+06 0.36016285D+06 0.36016285D+06 0.10787276D+01  1  2 12  3  6  4        2 0.208963456824D-02 0.100000000000D+01
-.999708652516D-02 0.000000000000D+00 0.000000000000D+00 0.580575402249D-05 0.000000000000D+00  6 -3 1 25 2 -4 21 2 0.63224680D-01 0.38153824D+00 0.35829754D+06 0.35829754D+06 0.35829754D+06 0.10788917D+01  1  2  4  3  6  4        2 -.294731441425D-02 0.100000000000D+01
-.173620170060D-01 0.000000000000D+00 0.000000000000D+00 0.580575402249D-05 0.000000000000D+00  6 -3 1 25 2 -4 21 2 0.63224680D-01 0.38153824D+00 0.35829754D+06 0.35829754D+06 0.35829754D+06 0.10788917D+01  1  2  5  3  6  4        2 -.511862359633D-02 0.100000000000D+01
0.184911490847D-01 0.000000000000D+00 -.000000000000D+00 0.580575402249D-05 0.000000000000D+00  6 -3 1 25 2 -4 21 2 0.63224680D-01 0.38153824D+00 0.35829754D+06 0.35829754D+06 0.35829754D+06 0.10788917D+01  1  2  6  3  6  4        2 0.545151130745D-02 0.100000000000D+01
  </mgrwgt>
  </event>
  <event>
  5     66 -.16453327E-05 0.33721520E+02 0.75467711E-02 0.92171885E-01
       -3 -1    0    0    0  501 0.00000000E+00 0.00000000E+00 0.41835505E+03 0.41835535E+03 0.50000000E+00 0.0000E+00 0.9000E+01
        1 -1    0    0  502    0 -.00000000E+00 -.00000000E+00 -.17257331E+04 0.17257331E+04 0.32000000E+00 0.0000E+00 0.9000E+01
       25  1    1    2    0    0 -.24149684E+03 0.56585282E+03 -.16068137E+03 0.64803831E+03 0.12500000E+03 0.0000E+00 0.9000E+01
        2  1    1    2  502    0 0.24570121E+03 -.53222188E+03 -.12536029E+04 0.13838893E+04 0.32000000E+00 0.0000E+00 0.9000E+01
       -4  1    1    2    0  501 -.42043689E+01 -.33630944E+02 0.10690624E+03 0.11216088E+03 0.15500000E+01 0.0000E+00 0.9000E+01
#aMCatNLO 1  0  0  5  1 0.24259509D+01 0.00000000D+00  -5  6  0 0.00000000D+00 0.00000000D+00 0.00000000D+00 0.00000000D+00 0.00000000D+00
  <mgrwgt>
 -.6742309591D-03    8    2    0
 0.849687886543595D+03 0.000000000000000D+00 0.000000000000000D+00 0.849687886543595D+03
 0.849687886543595D+03 -.000000000000000D+00 -.000000000000000D+00 -.849687886543595D+03
 0.694804234595910D+03 -.241738758663375D+03 0.566214665115285D+03 0.296801701445065D+03
 0.781948733177258D+03 0.245921889184028D+03 -.532753608182327D+03 -.516855723298475D+03
 0.222622805314021D+03 -.418313052065338D+01 -.334610569329574D+02 0.220054021853410D+03
 0.000000000000000D+00 0.000000000000000D+00 0.000000000000000D+00 0.000000000000000D+00
 0.849687886543595D+03 0.000000000000000D+00 0.000000000000000D+00 0.849687886543595D+03
 0.849687886543595D+03 -.000000000000000D+00 -.000000000000000D+00 -.849687886543595D+03
 0.694816169017371D+03 -.241739490741039D+03 0.566208809191768D+03 0.296840212467718D+03
 0.781924317793274D+03 0.245921065306855D+03 -.532760198414417D+03 -.516812383152968D+03
 0.370874073802969D+02 0.445129592770736D+00 -.768235905244063D+01 0.362802839739042D+02
 0.185547878896247D+03 -.462670415858722D+01 -.257662517249102D+02 0.183691886711346D+03
0.380846169744D-05 0.000000000000D+00 0.000000000000D+00 0.851055244255D-05 0.000000000000D+00  6 -3 1 25 2 -4 21 0 0.64362341D-01 0.26549742D+00 0.38982340D+06 0.38982340D+06 0.38982340D+06 0.10762354D+01  1  2  2  4  6  5       -4 0.297454583545D-05 0.100000000000D+01
0.145499358511D-05 0.000000000000D+00 -.146254957092D-07 0.851055244255D-05 0.000000000000D+00  6 -3 1 25 2 -4 21 2 0.64362341D-01 0.26549742D+00 0.38982340D+06 0.38982340D+06 0.38982340D+06 0.10762354D+01  1  2  3  4  6  5       -4 0.131627514674D-05 0.100000000000D+01
-.290864151525D-05 0.000000000000D+00 0.000000000000D+00 0.851055244255D-05 0.000000000000D+00  6 -3 1 25 2 -4 21 2 0.64362341D-01 0.26549742D+00 0.38982340D+06 0.38982340D+06 0.38982340D+06 0.10762354D+01  1  2 15  4  6  5       -4 -.263133293267D-05 0.100000000000D+01
0.880538432299D-06 0.000000000000D+00 0.000000000000D+00 0.851055244255D-05 0.000000000000D+00  6 -3 1 25 2 -4 21 2 0.64362341D-01 0.26549742D+00 0.38991875D+06 0.38991875D+06 0.38991875D+06 0.10762277D+01  1  2 12  4  6  5       -4 0.796567183305D-06 0.100000000000D+01
-.141377084947D-02 0.000000000000D+00 0.000000000000D+00 0.851055244255D-05 0.000000000000D+00  6 -3 1 25 2 -4 21 2 0.64362341D-01 0.26549742D+00 0.38982340D+06 0.38982340D+06 0.38982340D+06 0.10762354D+01  1  2  4  4  6  5       -4 -.127898256831D-02 0.100000000000D+01
-.212396162206D-03 0.000000000000D+00 0.000000000000D+00 0.851055244255D-05 0.000000000000D+00  6 -3 1 25 2 -4 21 2 0.64362341D-01 0.26549742D+00 0.38982340D+06 0.38982340D+06 0.38982340D+06 0.10762354D+01  1  2  5  4  6  5       -4 -.192146406993D-03 0.100000000000D+01
0.635955870684D-03 0.000000000000D+00 -.000000000000D+00 0.851055244255D-05 0.000000000000D+00  6 -3 1 25 2 -4 21 2 0.64362341D-01 0.26549742D+00 0.38982340D+06 0.38982340D+06 0.38982340D+06 0.10762354D+01  1  2  6  4  6  5       -4 0.575324122097D-03 0.100000000000D+01
0.242216453756D-03 0.000000000000D+00 0.000000000000D+00 0.851055244255D-05 0.876117150387D-06  6 -3 1 25 2 -4 21 2 0.64362341D-01 0.26549742D+00 0.38991875D+06 0.38991875D+06 0.38991875D+06 0.10762277D+01  1  2 11  4  6  5       -4 0.219117838860D-03 0.100000000000D+01
  </mgrwgt>
  </event>
  <event>
  5     66 0.16453327E-05 0.38676949E+02 0.75467711E-02 0.94396522E-01
       -1 -1    0    0    0  501 0.00000000E+00 0.00000000E+00 0.28122308E+04 0.28122309E+04 0.32000000E+00 0.0000E+00 0.9000E+01
        3 -1    0    0  502    0 0.00000000E+00 0.00000000E+00 -.76643707E+03 0.76643723E+03 0.50000000E+00 0.0000E+00 0.9000E+01
       25  1    1    2    0    0 0.31937163E+03 -.33688759E+03 0.52551882E+03 0.71224049E+03 0.12500000E+03 0.0000E+00 0.9000E+01
        4  1    1    2  502    0 0.16333338E+02 -.35059378E+02 -.64387346E+03 0.64503595E+03 0.15500000E+01 0.0000E+00 0.9000E+01
       -2  1    1    2    0  501 -.33570497E+03 0.37194697E+03 0.21641484E+04 0.22213916E+04 0.32000000E+00 0.0000E+00 0.9000E+01
#aMCatNLO 1  0  0  5  1 0.26360416D+02 0.00000000D+00  -5  6  0 0.00000000D+00 0.00000000D+00 0.00000000D+00 0.00000000D+00 0.00000000D+00
  <mgrwgt>
 0.2209749295D-02    4    2    0
 0.146812747422382D+04 0.000000000000000D+00 0.000000000000000D+00 0.146812747422382D+04
 0.146812747422382D+04 -.000000000000000D+00 -.000000000000000D+00 -.146812747422382D+04
 0.501922423215159D+03 0.319370975277145D+03 -.336886724042277D+03 0.144258913904014D+03
 0.123477351265665D+04 0.163329593646881D+02 -.350591042100720D+02 -.123416762281662D+04
 0.119955901257582D+04 -.335703934641833D+03 0.371945828252349D+03 0.108990870891261D+04
 0.000000000000000D+00 0.000000000000000D+00 0.000000000000000D+00 -.000000000000000D+00
 0.146812747422382D+04 0.000000000000000D+00 0.000000000000000D+00 0.146812747422382D+04
 0.146812747422382D+04 -.000000000000000D+00 -.000000000000000D+00 -.146812747422382D+04
 0.503890623355993D+03 0.280275611534158D+03 -.293570706719672D+03 0.271187355976191D+03
 0.961357633808552D+03 -.690293714293445D+02 0.595187650145235D+02 -.957027148294756D+03
 0.932962904691799D+03 -.330316025100997D+03 -.270598698297656D+03 0.829510367368636D+03
 0.538043786591292D+03 0.119069784996184D+03 0.504650640002805D+03 -.143670575050071D+03
0.469496753899D+01 0.000000000000D+00 0.000000000000D+00 0.834313731010D-03 0.000000000000D+00  6 -1 3 25 4 -2 21 0 0.43265091D+00 0.11791341D+00 0.26033538D+06 0.26033538D+06 0.26033538D+06 0.10891380D+01  1  2  2  4  6  5       -2 0.248045418453D-02 0.100000000000D+01
0.280890813604D+01 0.000000000000D+00 -.180299115630D-01 0.834313731010D-03 0.000000000000D+00  6 -1 3 25 4 -2 21 2 0.43265091D+00 0.11791341D+00 0.26033538D+06 0.26033538D+06 0.26033538D+06 0.10891380D+01  1  2  3  4  6  5       -2 0.176036209213D-02 0.100000000000D+01
-.323641174431D+01 0.000000000000D+00 0.000000000000D+00 0.834313731010D-03 0.000000000000D+00  6 -1 3 25 4 -2 21 2 0.43265091D+00 0.11791341D+00 0.26033538D+06 0.26033538D+06 0.26033538D+06 0.10891380D+01  1  2 15  4  6  5       -2 -.202828155044D-02 0.100000000000D+01
-.444455221048D-02 0.000000000000D+00 0.000000000000D+00 0.834313731010D-03 0.000000000000D+00  6 -1 3 25 4 -2 21 2 0.43265091D+00 0.11791341D+00 0.26033538D+06 0.26033538D+06 0.26033538D+06 0.10891380D+01  1  2  4  4  6  5       -2 -.278543150893D-05 0.100000000000D+01
  </mgrwgt>
  </event>
  <event>
  5     66 -.16453327E-05 0.10518901E+02 0.75467711E-02 0.94695911E-01
       -3 -1    0    0    0  501 0.00000000E+00 0.00000000E+00 0.67024669E+03 0.67024687E+03 0.50000000E+00 0.0000E+00 0.9000E+01
        1 -1    0    0  502    0 0.00000000E+00 0.00000000E+00 -.82668689E+03 0.82668695E+03 0.32000000E+00 0.0000E+00 0.9000E+01
       25  1    1    2    0    0 0.12012765E+03 0.46099806E+03 -.34695404E+03 0.60245495E+03 0.12500000E+03 0.0000E+00 0.9000E+01
        2  1    1    2  502    0 -.13216771E+01 0.10427686E+02 -.24292376E+03 0.24315127E+03 0.32000000E+00 0.0000E+00 0.9000E+01
       -4  1    1    2    0  501 -.11880597E+03 -.47142574E+03 0.43343760E+03 0.65132760E+03 0.15500000E+01 0.0000E+00 0.9000E+01
#aMCatNLO 1  0  0  1  5 0.47159834D+01 0.00000000D+00  -5  6  0 0.00000000D+00 0.00000000D+00 0.00000000D+00 0.00000000D+00 0.00000000D+00
  <mgrwgt>
 -.2906248112D-02   11    4    0
 0.744368413073817D+03 0.000000000000000D+00 0.000000000000000D+00 0.744368413073817D+03
 0.744368413073817D+03 0.000000000000000D+00 0.000000000000000D+00 -.744368413073817D+03
 0.569140975998441D+03 0.120119612468591D+03 0.460953517051010D+03 -.285288598403718D+03
 0.219191783024553D+03 -.132292417615135D+01 0.104353795733309D+02 -.218939239220080D+03
 0.700404067124639D+03 -.118796688292440D+03 -.471388896624341D+03 0.504227837623798D+03
 0.000000000000000D+00 -.000000000000000D+00 -.000000000000000D+00 0.000000000000000D+00
 0.831658127872824D+03 0.000000000000000D+00 0.000000000000000D+00 0.831658127872824D+03
 0.744435847950275D+03 0.000000000000000D+00 0.000000000000000D+00 -.744435847950275D+03
 0.570269361332227D+03 0.121622250627947D+03 0.461953015194512D+03 -.285288598403718D+03
 0.219207701489906D+03 -.744769166590140D+00 0.108199464466762D+02 -.218939239220080D+03
 0.699267232894223D+03 -.116950821674368D+03 -.470161095875087D+03 0.504227837623798D+03
 0.873496801067434D+02 -.392665978698890D+01 -.261186576610115D+01 0.872222799225491D+02
 0.744368413073817D+03 0.000000000000000D+00 0.000000000000000D+00 0.744368413073817D+03
 0.744368413073817D+03 0.000000000000000D+00 0.000000000000000D+00 -.744368413073817D+03
 0.569140975998441D+03 0.120119612468591D+03 0.460953517051010D+03 -.285288598403718D+03
 0.219191783024553D+03 -.132292417615135D+01 0.104353795733309D+02 -.218939239220080D+03
 0.000000000000000D+00 -.000000000000000D+00 -.000000000000000D+00 0.000000000000000D+00
 0.700404067124639D+03 -.118796688292440D+03 -.471388896624341D+03 0.504227837623798D+03
 0.831658127872824D+03 0.000000000000000D+00 0.000000000000000D+00 0.831658127872824D+03
 0.744435847950275D+03 0.000000000000000D+00 0.000000000000000D+00 -.744435847950275D+03
 0.570269361332227D+03 0.121622250627947D+03 0.461953015194512D+03 -.285288598403718D+03
 0.219207701489906D+03 -.744769166590140D+00 0.108199464466762D+02 -.218939239220080D+03
 0.873496801067434D+02 -.392665978698890D+01 -.261186576610115D+01 0.872222799225491D+02
 0.699267232894223D+03 -.116950821674368D+03 -.470161095875087D+03 0.504227837623798D+03
0.286481648401D-04 0.000000000000D+00 0.000000000000D+00 0.351915980985D-04 0.000000000000D+00  6 -3 1 25 2 -4 21 0 0.10311489D+00 0.12718262D+00 0.24459051D+06 0.24459051D+06 0.24459051D+06 0.10911745D+01  1  2  2  1  6  1       -3 0.321944819427D-04 0.100000000000D+01
0.218080094594D-04 0.000000000000D+00 -.110016496221D-06 0.351915980985D-04 0.000000000000D+00  6 -3 1 25 2 -4 21 2 0.10311489D+00 0.12718262D+00 0.24459051D+06 0.24459051D+06 0.24459051D+06 0.10911745D+01  1  2  3  1  6  1       -3 0.291802567899D-04 0.100000000000D+01
-.182653854640D-04 0.000000000000D+00 0.000000000000D+00 0.351915980985D-04 0.000000000000D+00  6 -3 1 25 2 -4 21 2 0.10311489D+00 0.12718262D+00 0.24459051D+06 0.24459051D+06 0.24459051D+06 0.10911745D+01  1  2 15  1  6  1       -3 -.244400406740D-04 0.100000000000D+01
0.103624642375D-01 0.000000000000D+00 0.000000000000D+00 0.351915980985D-04 0.000000000000D+00  6 -3 1 25 2 -4 21 2 0.11524367D+00 0.12718262D+00 0.24692389D+06 0.24692389D+06 0.24692389D+06 0.10908638D+01  1  2 12  1  6  1       -3 0.102499526568D-01 0.100000000000D+01
-.397756687282D-01 0.000000000000D+00 0.000000000000D+00 0.351915980985D-04 0.000000000000D+00  6 -3 1 25 2 -4 21 2 0.10311489D+00 0.12718262D+00 0.24459051D+06 0.24459051D+06 0.24459051D+06 0.10911745D+01  1  2  4  1  6  1       -3 -.532219242496D-01 0.100000000000D+01
-.361934347506D-01 0.000000000000D+00 -.586929676608D-04 0.351915980985D-04 0.000000000000D+00  6 -3 1 25 2 -4 21 2 0.11521122D+00 0.12718262D+00 0.24459051D+06 0.24459051D+06 0.24459051D+06 0.10911745D+01  1  2  5  1  6  1       -3 -.358638425274D-01 0.100000000000D+01
0.359787365611D-01 0.000000000000D+00 0.583337310603D-04 0.351915980985D-04 0.000000000000D+00  6 -3 1 25 2 -4 21 2 0.10311489D+00 0.12718262D+00 0.24459051D+06 0.24459051D+06 0.24459051D+06 0.10911745D+01  1  2  6  1  6  1       -3 0.481414305045D-01 0.100000000000D+01
0.281393840115D-01 0.000000000000D+00 0.000000000000D+00 0.351915980985D-04 0.110903001708D-04  6 -3 1 25 2 -4 21 2 0.11520685D+00 0.12719414D+00 0.24692389D+06 0.24692389D+06 0.24692389D+06 0.10908638D+01  1  2 11  1  6  1       -3 0.278544580377D-01 0.100000000000D+01
0.184355489176D-03 0.000000000000D+00 0.000000000000D+00 0.351915980985D-04 0.000000000000D+00  6 21 1 25 2 3 -4 2 0.11524367D+00 0.12718262D+00 0.24692389D+06 0.24692389D+06 0.24692389D+06 0.10908638D+01  3  4 12  5  5  1       -3 0.270332114717D-02 0.100000000000D+01
-.642284087429D-03 0.000000000000D+00 -.104193863683D-05 0.351915980985D-04 0.000000000000D+00  6 21 1 25 2 3 -4 2 0.11521122D+00 0.12718262D+00 0.24459051D+06 0.24459051D+06 0.24459051D+06 0.10911745D+01  3  4  5  5  5  1       -3 -.943804992213D-02 0.100000000000D+01
0.451916401346D-03 0.000000000000D+00 0.000000000000D+00 0.351915980985D-04 0.177981740524D-06  6 21 1 25 2 3 -4 2 0.11520685D+00 0.12719414D+00 0.24692389D+06 0.24692389D+06 0.24692389D+06 0.10908638D+01  3  4 11  5  5  1       -3 0.663147154276D-02 0.100000000000D+01
  </mgrwgt>
  </event>
  <event>
  6     66 -.16453327E-05 0.13676366E+03 0.75467711E-02 0.93772705E-01
       -3 -1    0    0    0  501 0.00000000E+00 0.00000000E+00 0.66480236E+03 0.66480255E+03 0.50000000E+00 0.0000E+00 0.9000E+01
        1 -1    0    0  502    0 -.00000000E+00 -.00000000E+00 -.73250157E+03 0.73250164E+03 0.32000000E+00 0.0000E+00 0.9000E+01
       25  1    1    2    0    0 0.18283647E+03 -.45603306E+03 -.17116343E+03 0.53508621E+03 0.12500000E+03 0.0000E+00 0.9000E+01
        2  1    1    2  502    0 -.26287218E+03 0.33636154E+03 -.23894122E+03 0.48921762E+03 0.32000000E+00 0.0000E+00 0.9000E+01
       -4  1    1    2    0  503 0.68040519E+02 0.10283937E+03 0.31761207E+03 0.34071289E+03 0.15500000E+01 0.0000E+00 0.9000E+01
       21  1    1    2  503  501 0.11995191E+02 0.16832151E+02 0.24793386E+02 0.32287465E+02 0.75000000E+00 0.0000E+00 0.9000E+01
#aMCatNLO 2  0  0  5  1 0.94467192D+01 0.00000000D+00  -5  6  0 0.00000000D+00 0.00000000D+00 0.00000000D+00 0.00000000D+00 0.00000000D+00
  <mgrwgt>
 -.1190039812D-02    5    2    0
 0.697831608619685D+03 0.000000000000000D+00 0.000000000000000D+00 0.697831608619685D+03
 0.697831608619685D+03 -.000000000000000D+00 -.000000000000000D+00 -.697831608619685D+03
 0.528031374658801D+03 0.183227202724885D+03 -.456664942548450D+03 -.145179389215201D+03
 0.478991543797445D+03 -.263280056128697D+03 0.336967791465471D+03 -.215799023605790D+03
 0.388640298783123D+03 0.800528534038119D+02 0.119697151082978D+03 0.360978412820991D+03
 0.000000000000000D+00 0.000000000000000D+00 0.000000000000000D+00 0.000000000000000D+00
 0.697831608619685D+03 0.000000000000000D+00 0.000000000000000D+00 0.697831608619685D+03
 0.697831608619685D+03 -.000000000000000D+00 -.000000000000000D+00 -.697831608619685D+03
 0.527778499266339D+03 0.183342995019206D+03 -.456491806836751D+03 -.144657252691096D+03
 0.478831140193672D+03 -.263175010240350D+03 0.337124858865739D+03 -.215325345324047D+03
 0.355561947613705D+03 0.678352349507993D+02 0.102534170510454D+03 0.333630669105456D+03
 0.334916301656519D+02 0.119967802703443D+02 0.168327774605582D+02 0.263519289096871D+02
-.121093303924D-02 0.000000000000D+00 0.000000000000D+00 0.448949633191D-06 0.000000000000D+00  6 -3 1 25 2 -4 21 2 0.10227731D+00 0.11269257D+00 0.29098736D+06 0.29098736D+06 0.29098736D+06 0.10855333D+01  1  2 13  4  6  5       -4 -.196997516481D-02 0.100000000000D+01
-.557710547046D-03 0.000000000000D+00 0.000000000000D+00 0.448949633191D-06 0.000000000000D+00  6 -3 1 25 2 -4 21 2 0.10227731D+00 0.11269257D+00 0.29122549D+06 0.29122549D+06 0.29122549D+06 0.10855070D+01  1  2  8  4  6  5       -4 -.907224921196D-03 0.100000000000D+01
-.883901681020D-03 0.000000000000D+00 0.000000000000D+00 0.448949633191D-06 0.000000000000D+00  6 -3 1 25 2 -4 21 2 0.10227731D+00 0.11269257D+00 0.29122549D+06 0.29122549D+06 0.29122549D+06 0.10855070D+01  1  2  9  4  6  5       -4 -.143783838616D-02 0.100000000000D+01
0.963341975381D-03 0.000000000000D+00 0.000000000000D+00 0.448949633191D-06 0.000000000000D+00  6 -3 1 25 2 -4 21 2 0.10227731D+00 0.11269257D+00 0.29122549D+06 0.29122549D+06 0.29122549D+06 0.10855070D+01  1  2 10  4  6  5       -4 0.156706351050D-02 0.100000000000D+01
0.957654278603D-03 0.000000000000D+00 0.000000000000D+00 0.448949633191D-06 0.845900780851D-08  6 -3 1 25 2 -4 21 2 0.10227731D+00 0.11269257D+00 0.29098736D+06 0.29098736D+06 0.29098736D+06 0.10855333D+01  1  2  1  4  6  5       -4 0.155793514933D-02 0.100000000000D+01
  </mgrwgt>
  </event>
  <event>
  5     66 0.16453327E-05 0.63489199E+02 0.75467711E-02 0.92758226E-01
       -3 -1    0    0    0  501 0.00000000E+00 0.00000000E+00 0.52171784E+03 0.52171808E+03 0.50000000E+00 0.0000E+00 0.9000E+01
        1 -1    0    0  502    0 0.00000000E+00 0.00000000E+00 -.13852897E+04 0.13852898E+04 0.32000000E+00 0.0000E+00 0.9000E+01
       25  1    1    2    0    0 0.45622341E+03 0.23830255E+03 -.74202708E+03 0.91167817E+03 0.12500000E+03 0.0000E+00 0.9000E+01
        2  1    1    2  502    0 -.59049696E+02 0.23172729E+02 -.42599903E+03 0.43069609E+03 0.32000000E+00 0.0000E+00 0.9000E+01
       -4  1    1    2    0  501 -.39717372E+03 -.26147528E+03 0.30445424E+03 0.56463357E+03 0.15500000E+01 0.0000E+00 0.9000E+01
#aMCatNLO 1  0  0  2  1 0.56989820D+02 0.00000000D+00  -5  6  0 0.00000000D+00 0.00000000D+00 0.00000000D+00 0.00000000D+00 0.00000000D+00
  <mgrwgt>
 0.7406896750D-03    7    2    0
 0.850135646637646D+03 0.000000000000000D+00 0.000000000000000D+00 0.850135646637646D+03
 0.850135646637646D+03 0.000000000000000D+00 0.000000000000000D+00 -.850135646637646D+03
 0.645444054459748D+03 0.456236246637766D+03 0.238262535447239D+03 -.368852923119193D+03
 0.266991147307867D+03 -.591043531825854D+02 0.231852075695442D+02 -.259332594028588D+03
 0.787836091507677D+03 -.397131893455181D+03 -.261447743016784D+03 0.628185517147782D+03
 0.000000000000000D+00 0.000000000000000D+00 -.000000000000000D+00 -.000000000000000D+00
 0.886043616325001D+03 0.000000000000000D+00 0.000000000000000D+00 0.886043616325001D+03
 0.914565734402326D+03 0.000000000000000D+00 0.000000000000000D+00 -.914565734402326D+03
 0.624309861410067D+03 0.421993557710706D+03 0.244962775561808D+03 -.368852923119193D+03
 0.270829801282666D+03 -.736082938366503D+02 0.260231822740624D+02 -.259332594028588D+03
 0.807701375805168D+03 -.440160304300630D+03 -.253028407577709D+03 0.628185517147782D+03
 0.977683122294264D+02 0.917750404265742D+02 -.179575502581609D+02 -.285221180773256D+02
0.340466919713D-03 0.000000000000D+00 0.000000000000D+00 0.922557664314D-05 0.000000000000D+00  6 -3 1 25 2 -4 21 0 0.80264304D-01 0.21312152D+00 0.28548797D+06 0.28548797D+06 0.28548797D+06 0.10861486D+01  1  2  2  2  6  2        1 0.274284765769D-03 0.100000000000D+01
0.686458782888D-04 0.000000000000D+00 -.130748261870D-05 0.922557664314D-05 0.000000000000D+00  6 -3 1 25 2 -4 21 2 0.80264304D-01 0.21312152D+00 0.28548797D+06 0.28548797D+06 0.28548797D+06 0.10861486D+01  1  2  3  2  6  2        1 0.652408680563D-04 0.100000000000D+01
-.281587778890D-03 0.000000000000D+00 0.000000000000D+00 0.922557664314D-05 0.000000000000D+00  6 -3 1 25 2 -4 21 2 0.80264304D-01 0.21312152D+00 0.28548797D+06 0.28548797D+06 0.28548797D+06 0.10861486D+01  1  2 15  2  6  2        1 -.267620308557D-03 0.100000000000D+01
-.199767225291D-04 0.000000000000D+00 0.000000000000D+00 0.922557664314D-05 0.000000000000D+00  6 -3 1 25 2 -4 21 2 0.80264304D-01 0.21312152D+00 0.28548797D+06 0.28548797D+06 0.28548797D+06 0.10861486D+01  1  2  4  2  6  2        1 -.189858262609D-04 0.100000000000D+01
-.352885597752D-02 0.000000000000D+00 -.795645471805D-03 0.922557664314D-05 0.000000000000D+00  6 -3 1 25 2 -4 21 2 0.80264304D-01 0.23468205D+00 0.28548797D+06 0.28548797D+06 0.28548797D+06 0.10861486D+01  1  2  5  2  6  2        1 -.269580821792D-02 0.100000000000D+01
0.359251718154D-02 0.000000000000D+00 0.791965133155D-03 0.922557664314D-05 0.000000000000D+00  6 -3 1 25 2 -4 21 2 0.80264304D-01 0.21312152D+00 0.28548797D+06 0.28548797D+06 0.28548797D+06 0.10861486D+01  1  2  6  2  6  2        1 0.341431918818D-02 0.100000000000D+01
-.530611783062D-04 0.000000000000D+00 -.125157393356D-04 0.922557664314D-05 0.000000000000D+00  6 -3 21 25 2 -4 -1 2 0.80264304D-01 0.23468205D+00 0.28548797D+06 0.28548797D+06 0.28548797D+06 0.10861486D+01  1  2  5  6  6  2        1 -.307407942958D-04 0.100000000000D+01
  </mgrwgt>
  </event>
  <event>
  5     66 -.16453327E-05 0.14810836E+02 0.75467711E-02 0.92170192E-01
       -1 -1    0    0    0  501 0.00000000E+00 0.00000000E+00 0.12167142E+04 0.12167143E+04 0.32000000E+00 0.0000E+00 0.9000E+01
        3 -1    0    0  502    0 0.00000000E+00 0.00000000E+00 -.91310466E+03 0.91310480E+03 0.50000000E+00 0.0000E+00 0.9000E+01
       25  1    1    2    0    0 -.61409971E+03 -.46784143E+02 -.14827430E+03 0.64569147E+03 0.12500000E+03 0.0000E+00 0.9000E+01
        4  1    1    2  502    0 0.11006633E+02 -.99127430E+01 -.42121144E+03 0.42147465E+03 0.15500000E+01 0.0000E+00 0.9000E+01
       -2  1    1    2    0  501 0.60309307E+03 0.56696886E+02 0.87309528E+03 0.10626529E+04 0.32000000E+00 0.0000E+00 0.9000E+01
#aMCatNLO 1  0  0  5  1 0.13476470D+02 0.00000000D+00  -5  6  0 0.00000000D+00 0.00000000D+00 0.00000000D+00 0.00000000D+00 0.00000000D+00
  <mgrwgt>
 -.8098901509D-04    1    2    0
 0.105403397414861D+04 0.000000000000000D+00 0.000000000000000D+00 0.105403397414861D+04
 0.105403397414861D+04 -.000000000000000D+00 -.000000000000000D+00 -.105403397414861D+04
 0.673808007893074D+03 -.614133397365608D+03 -.467901356653504D+02 -.242987828801008D+03
 0.486335777493242D+03 0.110070509022798D+02 -.990987883121422D+01 -.486110201088129D+03
 0.947924162910902D+03 0.603126346463328D+03 0.567000144965646D+02 0.729098029889137D+03
 0.000000000000000D+00 0.000000000000000D+00 0.000000000000000D+00 -.000000000000000D+00
 0.105403397414861D+04 0.000000000000000D+00 0.000000000000000D+00 0.105403397414861D+04
 0.105403397414861D+04 -.000000000000000D+00 -.000000000000000D+00 -.105403397414861D+04
 0.519655576786366D+03 -.493645050717238D+03 -.354630048880431D+02 -.973337437472599D+02
 0.391826691484484D+03 0.996635841505871D+02 -.157526246124300D+01 -.378936465257851D+03
 0.851547565850043D+03 0.283702558460848D+03 0.185131870395992D+02 0.802685104591794D+03
 0.345038114176324D+03 0.110278908105802D+03 0.185250803096868D+02 -.326414895586684D+03
-.155489000572D-02 0.000000000000D+00 0.000000000000D+00 0.862724610410D-04 0.000000000000D+00  6 -1 3 25 4 -2 21 2 0.18718682D+00 0.14047765D+00 0.39004159D+06 0.39004159D+06 0.39004159D+06 0.10762178D+01  1  2 14  4  6  5       -2 -.809890150870D-04 0.100000000000D+01
  </mgrwgt>
  </event>
</LesHouchesEvents>
