<event>
 5    0  0.2349231E+000  0.5424289E+03  0.7546771E-02  0.1003262E+00
         21   -1    0    0  502  501  0.00000000000E+00  0.00000000000E+00  0.22132850466E+04  0.22132850466E+04  0.00000000000E+00 0. -1.
         21   -1    0    0  504  502 -0.00000000000E+00 -0.00000000000E+00 -0.29078496719E+03  0.29078496719E+03  0.00000000000E+00 0. -1.
         25    1    1    2    0    0 -0.25059666628E+03  0.69905876946E+02  0.67090007832E+02  0.29633020422E+03  0.12500000000E+03 0.  0.
         21    1    1    2  503  501  0.31231155354E+02 -0.23534100444E+02  0.19599591775E+04  0.19603492588E+04  0.00000000000E+00 0. -1.
         21    1    1    2  504  503  0.21936551093E+03 -0.46371776502E+02 -0.10454910596E+03  0.24739055075E+03  0.00000000000E+00 0. -1.
<mgrwt>
<rscale>  4 0.54242887E+03</rscale>
<asrwt>0</asrwt>
<pdfrwt beam="1">  1       21 0.34050538E+00 0.54242887E+03</pdfrwt>
<pdfrwt beam="2">  1       21 0.44736150E-01 0.54242887E+03</pdfrwt>
<totfact> 0.68324645E+01</totfact>
</mgrwt>
</event>
<event>
 5    0  0.2349231E+000  0.4603864E+03  0.7546771E-02  0.1024669E+00
         21   -1    0    0  502  501  0.00000000000E+00  0.00000000000E+00  0.67792791724E+03  0.67792791724E+03  0.00000000000E+00 0.  1.
         21   -1    0    0  503  502 -0.00000000000E+00 -0.00000000000E+00 -0.14408188059E+03  0.14408188059E+03  0.00000000000E+00 0.  1.
         25    1    1    2    0    0 -0.21260273791E+03  0.39858988575E+02  0.21394696410E+03  0.32891787209E+03  0.12500000000E+03 0.  0.
         21    1    1    2  503  504  0.12462072875E+03 -0.16520626586E+03  0.11330492508E+03  0.23592677330E+03  0.00000000000E+00 0.  1.
         21    1    1    2  504  501  0.87982009155E+02  0.12534727728E+03  0.20659414747E+03  0.25716515243E+03  0.00000000000E+00 0.  1.
<mgrwt>
<rscale>  4 0.46038644E+03</rscale>
<asrwt>0</asrwt>
<pdfrwt beam="1">  1       21 0.10429660E+00 0.46038644E+03</pdfrwt>
<pdfrwt beam="2">  1       21 0.22166443E-01 0.46038644E+03</pdfrwt>
<totfact> 0.12585154E+04</totfact>
</mgrwt>
</event>
<event>
 5    0  0.2349231E+000  0.7687782E+03  0.7546771E-02  0.9606342E-01
         21   -1    0    0  503  501  0.00000000000E+00  0.00000000000E+00  0.48860771017E+03  0.48860771017E+03  0.00000000000E+00 0. -1.
         21   -1    0    0  504  502 -0.00000000000E+00 -0.00000000000E+00 -0.94869483904E+03  0.94869483904E+03  0.00000000000E+00 0.  1.
         25    1    1    2    0    0 -0.23224642851E+03  0.15567925050E+03 -0.81391264402E+03  0.86962821061E+03  0.12500000000E+03 0.  0.
         21    1    1    2  503  502  0.21032562231E+02 -0.62822371302E+02  0.32901642100E+03  0.33562005944E+03  0.00000000000E+00 0. -1.
         21    1    1    2  504  501  0.21121386628E+03 -0.92856879196E+02  0.24809094149E+02  0.23205427916E+03  0.00000000000E+00 0. -1.
<mgrwt>
<rscale>  4 0.76877818E+03</rscale>
<asrwt>0</asrwt>
<pdfrwt beam="1">  1       21 0.75170419E-01 0.76877818E+03</pdfrwt>
<pdfrwt beam="2">  1       21 0.14595305E+00 0.76877818E+03</pdfrwt>
<totfact> 0.37746284E+02</totfact>
</mgrwt>
</event>
