<event>
 5    0  0.1911311E+001  0.3312448E+03  0.7546771E-02  0.1070587E+00
         21   -1    0    0  503  501  0.00000000000E+00  0.00000000000E+00  0.17857709233E+03  0.17857709233E+03  0.00000000000E+00 0. -1.
         21   -1    0    0  504  502 -0.00000000000E+00 -0.00000000000E+00 -0.78154174223E+03  0.78154174223E+03  0.00000000000E+00 0. -1.
         25    1    1    2    0    0 -0.77832808282E+02  0.29591451525E+03 -0.99461244795E+02  0.34516790928E+03  0.12500000000E+03 0.  0.
         21    1    1    2  503  502 -0.21555323411E+02 -0.35694755499E+01 -0.12299255802E+03  0.12491814301E+03  0.00000000000E+00 0. -1.
         21    1    1    2  504  501  0.99388131693E+02 -0.29234503970E+03 -0.38051084708E+03  0.49003278228E+03  0.00000000000E+00 0. -1.
<mgrwt>
<rscale>  4 0.33124478E+03</rscale>
<asrwt>0</asrwt>
<pdfrwt beam="1">  1       21 0.27473399E-01 0.33124478E+03</pdfrwt>
<pdfrwt beam="2">  1       21 0.12023719E+00 0.33124478E+03</pdfrwt>
<totfact> 0.61109730E+03</totfact>
</mgrwt>
</event>
<event>
 5    0  0.1911311E+001  0.2687156E+03  0.7546771E-02  0.1102017E+00
         21   -1    0    0  504  501  0.00000000000E+00  0.00000000000E+00  0.34088604968E+03  0.34088604968E+03  0.00000000000E+00 0. -1.
         21   -1    0    0  503  502 -0.00000000000E+00 -0.00000000000E+00 -0.70241848764E+03  0.70241848764E+03  0.00000000000E+00 0. -1.
         25    1    1    2    0    0  0.63032671644E+02  0.19132719512E+03  0.45652224238E+02  0.24142978040E+03  0.12500000000E+03 0.  0.
         21    1    1    2  503  501 -0.26718863027E+02 -0.24343537708E+03 -0.57363193400E+03  0.62372131290E+03  0.00000000000E+00 0. -1.
         21    1    1    2  504  502 -0.36313808617E+02  0.52108181962E+02  0.16644727180E+03  0.17815344402E+03  0.00000000000E+00 0. -1.
<mgrwt>
<rscale>  4 0.26871563E+03</rscale>
<asrwt>0</asrwt>
<pdfrwt beam="1">  1       21 0.52444008E-01 0.26871563E+03</pdfrwt>
<pdfrwt beam="2">  1       21 0.10806438E+00 0.26871563E+03</pdfrwt>
<totfact> 0.22159569E+03</totfact>
</mgrwt>
</event>
<event>
 5    0  0.1933550E+001  0.2468591E+03  0.7546771E-02  0.1115306E+00
         21   -1    0    0  504  501  0.00000000000E+00  0.00000000000E+00  0.12341840701E+03  0.12341840701E+03  0.00000000000E+00 0. -1.
         21   -1    0    0  503  502 -0.00000000000E+00 -0.00000000000E+00 -0.49000338199E+03  0.49000338199E+03  0.00000000000E+00 0. -1.
         25    1    1    2    0    0  0.20179562915E+03 -0.11852144796E+02 -0.22416663061E+03  0.32670725055E+03  0.12500000000E+03 0.  0.
         21    1    1    2  503  501  0.16235981637E+02 -0.17481883927E+02 -0.33781609013E+02  0.41357229995E+02  0.00000000000E+00 0.  1.
         21    1    1    2  504  502 -0.21803161079E+03  0.29334028723E+02 -0.10863673536E+03  0.24535730846E+03  0.00000000000E+00 0. -1.
<mgrwt>
<rscale>  4 0.24685909E+03</rscale>
<asrwt>0</asrwt>
<pdfrwt beam="1">  1       21 0.18987447E-01 0.24685909E+03</pdfrwt>
<pdfrwt beam="2">  1       21 0.75385136E-01 0.24685909E+03</pdfrwt>
<totfact> 0.38938718E+04</totfact>
</mgrwt>
</event>
<event>
 5    0  0.1911311E+001  0.2172004E+03  0.7546771E-02  0.1135988E+00
         21   -1    0    0  503  501  0.00000000000E+00  0.00000000000E+00  0.95763544307E+03  0.95763544307E+03  0.00000000000E+00 0.  1.
         21   -1    0    0  504  502 -0.00000000000E+00 -0.00000000000E+00 -0.19061716648E+03  0.19061716648E+03  0.00000000000E+00 0.  1.
         25    1    1    2    0    0  0.21998148202E+03  0.14371152888E+03  0.47360664159E+03  0.55585349412E+03  0.12500000000E+03 0.  0.
         21    1    1    2  503  502 -0.16280862662E+03 -0.49256848913E+02 -0.90676507406E+02  0.19275662132E+03  0.00000000000E+00 0.  1.
         21    1    1    2  504  501 -0.57172855398E+02 -0.94454679966E+02  0.38408814241E+03  0.39964249411E+03  0.00000000000E+00 0.  1.
<mgrwt>
<rscale>  4 0.21720036E+03</rscale>
<asrwt>0</asrwt>
<pdfrwt beam="1">  1       21 0.14732853E+00 0.21720036E+03</pdfrwt>
<pdfrwt beam="2">  1       21 0.29325718E-01 0.21720036E+03</pdfrwt>
<totfact> 0.34175089E+03</totfact>
</mgrwt>
</event>
