<event>
 5    0  0.2159162E+000  0.2656448E+03  0.7546771E-02  0.1103798E+00
         21   -1    0    0  502  501  0.00000000000E+00  0.00000000000E+00  0.57980453509E+02  0.57980453509E+02  0.00000000000E+00 0. -1.
         21   -1    0    0  503  502 -0.00000000000E+00 -0.00000000000E+00 -0.20364631402E+04  0.20364631402E+04  0.00000000000E+00 0. -1.
         25    1    1    2    0    0  0.14447005964E+03 -0.21786656969E+03 -0.45887843196E+03  0.54270789163E+03  0.12500000000E+03 0.  0.
         21    1    1    2  503  504 -0.77190466272E+02  0.21618142127E+03 -0.13480177097E+04  0.13674225831E+04  0.00000000000E+00 0. -1.
         21    1    1    2  504  501 -0.67279593371E+02  0.16851484197E+01 -0.17158654506E+03  0.18431311905E+03  0.00000000000E+00 0. -1.
<mgrwt>
<rscale>  4 0.26564476E+03</rscale>
<asrwt>0</asrwt>
<pdfrwt beam="1">  1       21 0.89200709E-02 0.26564476E+03</pdfrwt>
<pdfrwt beam="2">  1       21 0.31330198E+00 0.26564476E+03</pdfrwt>
<totfact> 0.26245991E+03</totfact>
</mgrwt>
</event>
<event>
 5    0  0.5218063E+000  0.2557888E+03  0.7546771E-02  0.1109700E+00
         21   -1    0    0  502  501  0.00000000000E+00  0.00000000000E+00  0.25494003486E+03  0.25494003486E+03  0.00000000000E+00 0. -1.
         21   -1    0    0  503  502 -0.00000000000E+00 -0.00000000000E+00 -0.28182902554E+03  0.28182902554E+03  0.00000000000E+00 0. -1.
         25    1    1    2    0    0  0.13017681647E+03  0.18126478911E+03  0.96976713870E+02  0.27355513220E+03  0.12500000000E+03 0.  0.
         21    1    1    2  503  504 -0.10132328915E+02 -0.23205437214E+02  0.60036928596E+01  0.26023080784E+02  0.00000000000E+00 0. -1.
         21    1    1    2  504  501 -0.12004448756E+03 -0.15805935189E+03 -0.12986939741E+03  0.23719084742E+03  0.00000000000E+00 0. -1.
<mgrwt>
<rscale>  4 0.25578883E+03</rscale>
<asrwt>0</asrwt>
<pdfrwt beam="1">  1       21 0.39221544E-01 0.25578883E+03</pdfrwt>
<pdfrwt beam="2">  1       21 0.43358311E-01 0.25578883E+03</pdfrwt>
<totfact> 0.31071061E+04</totfact>
</mgrwt>
</event>
<event>
 5    0  0.2159162E+000  0.4859227E+03  0.7546771E-02  0.1017520E+00
         21   -1    0    0  502  501  0.00000000000E+00  0.00000000000E+00  0.11588480260E+04  0.11588480260E+04  0.00000000000E+00 0.  1.
         21   -1    0    0  503  502 -0.00000000000E+00 -0.00000000000E+00 -0.53385537049E+03  0.53385537049E+03  0.00000000000E+00 0.  1.
         25    1    1    2    0    0 -0.33359027175E+03 -0.50439389288E+03  0.70044211681E+03  0.93377718305E+03  0.12500000000E+03 0.  0.
         21    1    1    2  503  504  0.25438197284E+01  0.20056138447E+03  0.15542094642E+03  0.25374595670E+03  0.00000000000E+00 0.  1.
         21    1    1    2  504  501  0.33104645203E+03  0.30383250841E+03 -0.23087040777E+03  0.50518025669E+03  0.00000000000E+00 0.  1.
<mgrwt>
<rscale>  4 0.48592272E+03</rscale>
<asrwt>0</asrwt>
<pdfrwt beam="1">  1       21 0.17828431E+00 0.48592272E+03</pdfrwt>
<pdfrwt beam="2">  1       21 0.82131596E-01 0.48592272E+03</pdfrwt>
<totfact> 0.19314762E+02</totfact>
</mgrwt>
</event>
<event>
 5    0  0.2159162E+000  0.2363811E+03  0.7546771E-02  0.1122227E+00
         21   -1    0    0  502  501  0.00000000000E+00  0.00000000000E+00  0.15927050036E+04  0.15927050036E+04  0.00000000000E+00 0. -1.
         21   -1    0    0  503  502 -0.00000000000E+00 -0.00000000000E+00 -0.11125979417E+04  0.11125979417E+04  0.00000000000E+00 0. -1.
         25    1    1    2    0    0 -0.89555510198E+02  0.18047294758E+03  0.15672308111E+04  0.15850640648E+04  0.12500000000E+03 0.  0.
         21    1    1    2  503  504  0.66927135432E+02 -0.91091781099E+02 -0.93889160215E+03  0.94567139886E+03  0.00000000000E+00 0. -1.
         21    1    1    2  504  501  0.22628374766E+02 -0.89381166486E+02 -0.14823214702E+03  0.17456748173E+03  0.00000000000E+00 0. -1.
<mgrwt>
<rscale>  4 0.23638105E+03</rscale>
<asrwt>0</asrwt>
<pdfrwt beam="1">  1       21 0.24503154E+00 0.23638105E+03</pdfrwt>
<pdfrwt beam="2">  1       21 0.17116891E+00 0.23638105E+03</pdfrwt>
<totfact> 0.13830222E+01</totfact>
</mgrwt>
</event>
<event>
 5    0  0.2159162E+000  0.2929452E+03  0.7546771E-02  0.1088821E+00
         21   -1    0    0  502  501  0.00000000000E+00  0.00000000000E+00  0.81169430552E+02  0.81169430552E+02  0.00000000000E+00 0. -1.
         21   -1    0    0  503  502 -0.00000000000E+00 -0.00000000000E+00 -0.18394482775E+04  0.18394482775E+04  0.00000000000E+00 0. -1.
         25    1    1    2    0    0 -0.26348753888E+03  0.27679947468E+02 -0.24618009898E+03  0.38265062886E+03  0.12500000000E+03 0.  0.
         21    1    1    2  503  504  0.16774330477E+03 -0.61239179063E+02 -0.90502513661E+03  0.92247414665E+03  0.00000000000E+00 0. -1.
         21    1    1    2  504  501  0.95744234115E+02  0.33559231595E+02 -0.60707361131E+03  0.61549293249E+03  0.00000000000E+00 0. -1.
<mgrwt>
<rscale>  4 0.29294515E+03</rscale>
<asrwt>0</asrwt>
<pdfrwt beam="1">  1       21 0.12487605E-01 0.29294515E+03</pdfrwt>
<pdfrwt beam="2">  1       21 0.28299204E+00 0.29294515E+03</pdfrwt>
<totfact> 0.21176824E+03</totfact>
</mgrwt>
</event>
<event>
 5    0  0.2159162E+000  0.2730072E+03  0.7546771E-02  0.1099571E+00
         21   -1    0    0  502  501  0.00000000000E+00  0.00000000000E+00  0.10206312163E+03  0.10206312163E+03  0.00000000000E+00 0. -1.
         21   -1    0    0  503  502 -0.00000000000E+00 -0.00000000000E+00 -0.80278107504E+03  0.80278107504E+03  0.00000000000E+00 0.  1.
         25    1    1    2    0    0  0.17309274509E+03 -0.17013764003E+03 -0.17406955072E+03  0.32377943642E+03  0.12500000000E+03 0.  0.
         21    1    1    2  503  504 -0.15125530548E+03  0.16236864247E+03 -0.46597258541E+03  0.51611257865E+03  0.00000000000E+00 0.  1.
         21    1    1    2  504  501 -0.21837439610E+02  0.77689975659E+01 -0.60675817277E+02  0.64952181597E+02  0.00000000000E+00 0.  1.
<mgrwt>
<rscale>  4 0.27300717E+03</rscale>
<asrwt>0</asrwt>
<pdfrwt beam="1">  1       21 0.15702019E-01 0.27300717E+03</pdfrwt>
<pdfrwt beam="2">  1       21 0.12350478E+00 0.27300717E+03</pdfrwt>
<totfact> 0.16943584E+04</totfact>
</mgrwt>
</event>
<event>
 5    0  0.2159162E+000  0.2776808E+03  0.7546771E-02  0.1096962E+00
         21   -1    0    0  502  501  0.00000000000E+00  0.00000000000E+00  0.95030723656E+03  0.95030723656E+03  0.00000000000E+00 0. -1.
         21   -1    0    0  503  502 -0.00000000000E+00 -0.00000000000E+00 -0.92490662865E+02  0.92490662865E+02  0.00000000000E+00 0. -1.
         25    1    1    2    0    0 -0.16222205256E+03 -0.18752503241E+03  0.67658219493E+03  0.73134813777E+03  0.12500000000E+03 0.  0.
         21    1    1    2  503  504  0.30791396732E+02  0.50627238425E+02  0.69070587214E+02  0.91005348202E+02  0.00000000000E+00 0. -1.
         21    1    1    2  504  501  0.13143065582E+03  0.13689779399E+03  0.11216379155E+03  0.22044441345E+03  0.00000000000E+00 0. -1.
<mgrwt>
<rscale>  4 0.27768081E+03</rscale>
<asrwt>0</asrwt>
<pdfrwt beam="1">  1       21 0.14620111E+00 0.27768081E+03</pdfrwt>
<pdfrwt beam="2">  1       21 0.14229333E-01 0.27768081E+03</pdfrwt>
<totfact> 0.13099959E+04</totfact>
</mgrwt>
</event>
<event>
 5    0  0.2159162E+000  0.3399153E+03  0.7546771E-02  0.1066832E+00
         21   -1    0    0  502  501  0.00000000000E+00  0.00000000000E+00  0.59050327493E+03  0.59050327493E+03  0.00000000000E+00 0.  1.
         21   -1    0    0  503  502 -0.00000000000E+00 -0.00000000000E+00 -0.45135424986E+03  0.45135424986E+03  0.00000000000E+00 0.  1.
         25    1    1    2    0    0  0.30916793292E+03  0.65822353160E+02  0.46790208461E+03  0.57833792345E+03  0.12500000000E+03 0.  0.
         21    1    1    2  503  504 -0.26358640579E+02 -0.16637637017E+02 -0.62892861923E+01  0.31798490837E+02  0.00000000000E+00 0.  1.
         21    1    1    2  504  501 -0.28280929234E+03 -0.49184716143E+02 -0.32246377334E+03  0.43172111050E+03  0.00000000000E+00 0.  1.
<mgrwt>
<rscale>  4 0.33991527E+03</rscale>
<asrwt>0</asrwt>
<pdfrwt beam="1">  1       21 0.90846658E-01 0.33991527E+03</pdfrwt>
<pdfrwt beam="2">  1       21 0.69439115E-01 0.33991527E+03</pdfrwt>
<totfact> 0.17508432E+03</totfact>
</mgrwt>
</event>
