<event>
 5    0  0.3387552E+000  0.5923559E+03  0.7546771E-02  0.9921393E-01
         21   -1    0    0  503  501  0.00000000000E+00  0.00000000000E+00  0.22749864190E+04  0.22749864190E+04  0.00000000000E+00 0.  1.
         21   -1    0    0  501  502 -0.00000000000E+00 -0.00000000000E+00 -0.25252364380E+03  0.25252364380E+03  0.00000000000E+00 0.  1.
         25    1    1    2    0    0  0.40638277947E+03 -0.40503470728E+03  0.25737873723E+03  0.64114654482E+03  0.12500000000E+03 0.  0.
         21    1    1    2  503  504  0.14334036973E+02 -0.17509569666E+02  0.35067699023E+03  0.35140631913E+03  0.00000000000E+00 0. -1.
         21    1    1    2  504  502 -0.42071681644E+03  0.42254427695E+03  0.14144070477E+04  0.15349571988E+04  0.00000000000E+00 0.  1.
<mgrwt>
<rscale>  4 0.59235595E+03</rscale>
<asrwt>0</asrwt>
<pdfrwt beam="1">  1       21 0.34999790E+00 0.59235595E+03</pdfrwt>
<pdfrwt beam="2">  1       21 0.38849793E-01 0.59235595E+03</pdfrwt>
<totfact> 0.77957686E+01</totfact>
</mgrwt>
</event>
<event>
 5    0  0.3387552E+000  0.2786839E+03  0.7546771E-02  0.1096410E+00
         21   -1    0    0  502  501  0.00000000000E+00  0.00000000000E+00  0.12791960645E+04  0.12791960645E+04  0.00000000000E+00 0. -1.
         21   -1    0    0  503  502 -0.00000000000E+00 -0.00000000000E+00 -0.67178843020E+02  0.67178843020E+02  0.00000000000E+00 0. -1.
         25    1    1    2    0    0 -0.13831885416E+03  0.19986866163E+03  0.38005128169E+03  0.46812772192E+03  0.12500000000E+03 0.  0.
         21    1    1    2  503  504 -0.53531762690E+00  0.20159682731E+02  0.81577603534E+02  0.84033355111E+02  0.00000000000E+00 0.  1.
         21    1    1    2  504  501  0.13885417178E+03 -0.22002834436E+03  0.75038833621E+03  0.79421383044E+03  0.00000000000E+00 0. -1.
<mgrwt>
<rscale>  4 0.27868394E+03</rscale>
<asrwt>0</asrwt>
<pdfrwt beam="1">  1       21 0.19679938E+00 0.27868394E+03</pdfrwt>
<pdfrwt beam="2">  1       21 0.10335208E-01 0.27868394E+03</pdfrwt>
<totfact> 0.10142170E+04</totfact>
</mgrwt>
</event>
<event>
 5    0  0.3387552E+000  0.2618062E+03  0.7546771E-02  0.1106063E+00
         21   -1    0    0  502  501  0.00000000000E+00  0.00000000000E+00  0.31058566598E+03  0.31058566598E+03  0.00000000000E+00 0. -1.
         21   -1    0    0  504  502 -0.00000000000E+00 -0.00000000000E+00 -0.29221079141E+03  0.29221079141E+03  0.00000000000E+00 0. -1.
         25    1    1    2    0    0 -0.85192153085E+02 -0.20770919796E+03 -0.13983168309E+03  0.29253839656E+03  0.12500000000E+03 0.  0.
         21    1    1    2  503  501  0.90857920718E+02  0.22794896641E+03  0.14042792062E+03  0.28272936518E+03  0.00000000000E+00 0. -1.
         21    1    1    2  504  503 -0.56657676325E+01 -0.20239768447E+02  0.17778637042E+02  0.27528695659E+02  0.00000000000E+00 0.  1.
<mgrwt>
<rscale>  4 0.26180619E+03</rscale>
<asrwt>0</asrwt>
<pdfrwt beam="1">  1       21 0.47782410E-01 0.26180619E+03</pdfrwt>
<pdfrwt beam="2">  1       21 0.44955506E-01 0.26180619E+03</pdfrwt>
<totfact> 0.19158386E+04</totfact>
</mgrwt>
</event>
<event>
 5    0  0.3387552E+000  0.3332883E+03  0.7546771E-02  0.1069691E+00
         21   -1    0    0  503  501  0.00000000000E+00  0.00000000000E+00  0.38703387054E+03  0.38703387054E+03  0.00000000000E+00 0. -1.
         21   -1    0    0  504  502 -0.00000000000E+00 -0.00000000000E+00 -0.43285784875E+03  0.43285784875E+03  0.00000000000E+00 0. -1.
         25    1    1    2    0    0  0.11213192538E+03  0.29389041213E+03 -0.16353629191E+03  0.37591789237E+03  0.12500000000E+03 0.  0.
         21    1    1    2  503  502 -0.20664075176E+03 -0.23247549523E+03  0.11377345367E+03  0.33119428578E+03  0.00000000000E+00 0. -1.
         21    1    1    2  504  501  0.94508826386E+02 -0.61414916897E+02  0.39388600422E+01  0.11277954114E+03  0.00000000000E+00 0.  1.
<mgrwt>
<rscale>  4 0.33328825E+03</rscale>
<asrwt>0</asrwt>
<pdfrwt beam="1">  1       21 0.59543672E-01 0.33328825E+03</pdfrwt>
<pdfrwt beam="2">  1       21 0.66593515E-01 0.33328825E+03</pdfrwt>
<totfact> 0.50082228E+03</totfact>
</mgrwt>
</event>
<event>
 5    0  0.3387552E+000  0.3145414E+03  0.7546771E-02  0.1078189E+00
         21   -1    0    0  502  501  0.00000000000E+00  0.00000000000E+00  0.11169730455E+03  0.11169730455E+03  0.00000000000E+00 0. -1.
         21   -1    0    0  504  502 -0.00000000000E+00 -0.00000000000E+00 -0.14772547391E+04  0.14772547391E+04  0.00000000000E+00 0. -1.
         25    1    1    2    0    0 -0.30370661684E+03  0.34397251339E+01 -0.95607832203E+03  0.10109205205E+04  0.12500000000E+03 0.  0.
         21    1    1    2  503  501  0.27546741887E+03  0.81802505267E+02 -0.19996830540E+03  0.35008752034E+03  0.00000000000E+00 0. -1.
         21    1    1    2  504  503  0.28239197961E+02 -0.85242230401E+02 -0.20951080711E+03  0.22794400286E+03  0.00000000000E+00 0. -1.
<mgrwt>
<rscale>  4 0.31454140E+03</rscale>
<asrwt>0</asrwt>
<pdfrwt beam="1">  1       21 0.17184199E-01 0.31454140E+03</pdfrwt>
<pdfrwt beam="2">  1       21 0.22726998E+00 0.31454140E+03</pdfrwt>
<totfact> 0.25106585E+03</totfact>
</mgrwt>
</event>
<event>
 5    0  0.3387552E+000  0.2890175E+03  0.7546771E-02  0.1090863E+00
         21   -1    0    0  503  501  0.00000000000E+00  0.00000000000E+00  0.21113967073E+03  0.21113967073E+03  0.00000000000E+00 0. -1.
         21   -1    0    0  504  502 -0.00000000000E+00 -0.00000000000E+00 -0.17170725660E+04  0.17170725660E+04  0.00000000000E+00 0.  1.
         25    1    1    2    0    0  0.46248935014E+02 -0.25738925952E+03 -0.15835859012E+04  0.16098936304E+04  0.12500000000E+03 0.  0.
         21    1    1    2  503  502  0.45358132657E+02  0.22025094392E+02 -0.91674217745E+01  0.51249454661E+02  0.00000000000E+00 0. -1.
         21    1    1    2  504  501 -0.91607067671E+02  0.23536416512E+03  0.86820427716E+02  0.26706915161E+03  0.00000000000E+00 0. -1.
<mgrwt>
<rscale>  4 0.28901755E+03</rscale>
<asrwt>0</asrwt>
<pdfrwt beam="1">  1       21 0.32483027E-01 0.28901755E+03</pdfrwt>
<pdfrwt beam="2">  1       21 0.26416501E+00 0.28901755E+03</pdfrwt>
<totfact> 0.45045265E+02</totfact>
</mgrwt>
</event>
<event>
 5    0  0.3387552E+000  0.3092654E+03  0.7546771E-02  0.1080699E+00
         21   -1    0    0  503  501  0.00000000000E+00  0.00000000000E+00  0.10154389406E+04  0.10154389406E+04  0.00000000000E+00 0.  1.
         21   -1    0    0  501  502 -0.00000000000E+00 -0.00000000000E+00 -0.12044470538E+03  0.12044470538E+03  0.00000000000E+00 0.  1.
         25    1    1    2    0    0 -0.28173289229E+03  0.39887931683E+02  0.24434385097E+03  0.39533958466E+03  0.12500000000E+03 0.  0.
         21    1    1    2  503  504 -0.15172962964E+01 -0.56522117883E+02  0.20146042529E+03  0.20924472504E+03  0.00000000000E+00 0.  1.
         21    1    1    2  504  502  0.28325018859E+03  0.16634186200E+02  0.44918995891E+03  0.53129933622E+03  0.00000000000E+00 0.  1.
<mgrwt>
<rscale>  4 0.30926541E+03</rscale>
<asrwt>0</asrwt>
<pdfrwt beam="1">  1       21 0.15622137E+00 0.30926541E+03</pdfrwt>
<pdfrwt beam="2">  1       21 0.18529955E-01 0.30926541E+03</pdfrwt>
<totfact> 0.66188740E+03</totfact>
</mgrwt>
</event>
<event>
 5    0  0.3387552E+000  0.2631659E+03  0.7546771E-02  0.1105256E+00
         21   -1    0    0  503  501  0.00000000000E+00  0.00000000000E+00  0.24761299502E+03  0.24761299502E+03  0.00000000000E+00 0.  1.
         21   -1    0    0  504  502 -0.00000000000E+00 -0.00000000000E+00 -0.38394499245E+03  0.38394499245E+03  0.00000000000E+00 0.  1.
         25    1    1    2    0    0 -0.17321993101E+03 -0.10307343482E+03 -0.65741630804E+02  0.24612240752E+03  0.12500000000E+03 0.  0.
         21    1    1    2  503  502  0.26842307340E+03  0.63603961271E+02 -0.51398456889E+02  0.28060329932E+03  0.00000000000E+00 0.  1.
         21    1    1    2  504  501 -0.95203142384E+02  0.39469473545E+02 -0.19191909741E+02  0.10483228063E+03  0.00000000000E+00 0.  1.
<mgrwt>
<rscale>  4 0.26316592E+03</rscale>
<asrwt>0</asrwt>
<pdfrwt beam="1">  1       21 0.38094307E-01 0.26316592E+03</pdfrwt>
<pdfrwt beam="2">  1       21 0.59068460E-01 0.26316592E+03</pdfrwt>
<totfact> 0.17133145E+04</totfact>
</mgrwt>
</event>
<event>
 5    0  0.3387552E+000  0.3440285E+03  0.7546771E-02  0.1065093E+00
         21   -1    0    0  502  501  0.00000000000E+00  0.00000000000E+00  0.73976404868E+03  0.73976404868E+03  0.00000000000E+00 0. -1.
         21   -1    0    0  503  502 -0.00000000000E+00 -0.00000000000E+00 -0.27477363187E+03  0.27477363187E+03  0.00000000000E+00 0. -1.
         25    1    1    2    0    0  0.20031915969E+03  0.20683837315E+03  0.13359901564E+03  0.34115037055E+03  0.12500000000E+03 0.  0.
         21    1    1    2  503  504 -0.94419205501E+02  0.15283903232E+03  0.21630091861E+03  0.28117760145E+03  0.00000000000E+00 0. -1.
         21    1    1    2  504  501 -0.10589995419E+03 -0.35967740547E+03  0.11509048256E+03  0.39220970855E+03  0.00000000000E+00 0. -1.
<mgrwt>
<rscale>  4 0.34402853E+03</rscale>
<asrwt>0</asrwt>
<pdfrwt beam="1">  1       21 0.11380985E+00 0.34402853E+03</pdfrwt>
<pdfrwt beam="2">  1       21 0.42272867E-01 0.34402853E+03</pdfrwt>
<totfact> 0.29347305E+03</totfact>
</mgrwt>
</event>
<event>
 5    0  0.3387552E+000  0.3617396E+03  0.7546771E-02  0.1057897E+00
         21   -1    0    0  503  501  0.00000000000E+00  0.00000000000E+00  0.12595688620E+04  0.12595688620E+04  0.00000000000E+00 0. -1.
         21   -1    0    0  504  502 -0.00000000000E+00 -0.00000000000E+00 -0.56172307540E+03  0.56172307540E+03  0.00000000000E+00 0. -1.
         25    1    1    2    0    0 -0.29283586058E+03 -0.88152244924E+02 -0.75322258122E+02  0.33885410149E+03  0.12500000000E+03 0.  0.
         21    1    1    2  503  502  0.33986336912E+03  0.12941418437E+03 -0.26020613603E+03  0.44717152639E+03  0.00000000000E+00 0. -1.
         21    1    1    2  504  501 -0.47027508543E+02 -0.41261939448E+02  0.10333741808E+04  0.10352663095E+04  0.00000000000E+00 0. -1.
<mgrwt>
<rscale>  4 0.36173959E+03</rscale>
<asrwt>0</asrwt>
<pdfrwt beam="1">  1       21 0.19377982E+00 0.36173959E+03</pdfrwt>
<pdfrwt beam="2">  1       21 0.86418935E-01 0.36173959E+03</pdfrwt>
<totfact> 0.14416061E+02</totfact>
</mgrwt>
</event>
<event>
 5    0  0.3387552E+000  0.2534492E+03  0.7546771E-02  0.1111144E+00
         21   -1    0    0  503  501  0.00000000000E+00  0.00000000000E+00  0.23151944132E+03  0.23151944132E+03  0.00000000000E+00 0. -1.
         21   -1    0    0  501  502 -0.00000000000E+00 -0.00000000000E+00 -0.37715544310E+03  0.37715544310E+03  0.00000000000E+00 0.  1.
         25    1    1    2    0    0  0.15654457080E+03 -0.14941345568E+03 -0.20420881735E+03  0.32273336436E+03  0.12500000000E+03 0.  0.
         21    1    1    2  503  504 -0.85774324783E+01 -0.26147015234E+02  0.48933396314E+02  0.56140146316E+02  0.00000000000E+00 0.  1.
         21    1    1    2  504  502 -0.14796713832E+03  0.17556047091E+03  0.96394192553E+01  0.22980137374E+03  0.00000000000E+00 0. -1.
<mgrwt>
<rscale>  4 0.25344919E+03</rscale>
<asrwt>0</asrwt>
<pdfrwt beam="1">  1       21 0.35618376E-01 0.25344919E+03</pdfrwt>
<pdfrwt beam="2">  1       21 0.58023914E-01 0.25344919E+03</pdfrwt>
<totfact> 0.20475561E+04</totfact>
</mgrwt>
</event>
<event>
 5    0  0.3387552E+000  0.2475795E+03  0.7546771E-02  0.1114844E+00
         21   -1    0    0  503  501  0.00000000000E+00  0.00000000000E+00  0.37204966811E+03  0.37204966811E+03  0.00000000000E+00 0.  1.
         21   -1    0    0  504  502 -0.00000000000E+00 -0.00000000000E+00 -0.31627777885E+03  0.31627777885E+03  0.00000000000E+00 0.  1.
         25    1    1    2    0    0  0.20105969380E+03 -0.62291208049E+02 -0.20935217820E+03  0.32211570838E+03  0.12500000000E+03 0.  0.
         21    1    1    2  503  502 -0.22219991166E+03  0.58410257521E+02  0.23040608768E+03  0.32537904691E+03  0.00000000000E+00 0.  1.
         21    1    1    2  504  501  0.21140217867E+02  0.38809505283E+01  0.34717979784E+02  0.40832691667E+02  0.00000000000E+00 0.  1.
<mgrwt>
<rscale>  4 0.24757953E+03</rscale>
<asrwt>0</asrwt>
<pdfrwt beam="1">  1       21 0.57238410E-01 0.24757953E+03</pdfrwt>
<pdfrwt beam="2">  1       21 0.48658120E-01 0.24757953E+03</pdfrwt>
<totfact> 0.11173733E+04</totfact>
</mgrwt>
</event>
<event>
 5    0  0.3387552E+000  0.4448398E+03  0.7546771E-02  0.1029272E+00
         21   -1    0    0  503  501  0.00000000000E+00  0.00000000000E+00  0.13540396964E+04  0.13540396964E+04  0.00000000000E+00 0. -1.
         21   -1    0    0  501  502 -0.00000000000E+00 -0.00000000000E+00 -0.61728712340E+03  0.61728712340E+03  0.00000000000E+00 0. -1.
         25    1    1    2    0    0 -0.29341978522E+03  0.34346967194E+03 -0.77540276652E+02  0.47508323524E+03  0.12500000000E+03 0.  0.
         21    1    1    2  503  504 -0.23528539107E+02 -0.77864139696E+02  0.10276900023E+04  0.10309040485E+04  0.00000000000E+00 0. -1.
         21    1    1    2  504  502  0.31694832433E+03 -0.26560553224E+03 -0.21339715265E+03  0.46533953605E+03  0.00000000000E+00 0. -1.
<mgrwt>
<rscale>  4 0.44483982E+03</rscale>
<asrwt>0</asrwt>
<pdfrwt beam="1">  1       21 0.20831380E+00 0.44483982E+03</pdfrwt>
<pdfrwt beam="2">  1       21 0.94967250E-01 0.44483982E+03</pdfrwt>
<totfact> 0.87575494E+01</totfact>
</mgrwt>
</event>
<event>
 5    0  0.3387552E+000  0.3111594E+03  0.7546771E-02  0.1079791E+00
         21   -1    0    0  502  501  0.00000000000E+00  0.00000000000E+00  0.95283743030E+03  0.95283743030E+03  0.00000000000E+00 0. -1.
         21   -1    0    0  504  502 -0.00000000000E+00 -0.00000000000E+00 -0.12025242304E+04  0.12025242304E+04  0.00000000000E+00 0. -1.
         25    1    1    2    0    0  0.23291373295E+03 -0.19618941727E+03 -0.11245718139E+04  0.11717618610E+04  0.12500000000E+03 0.  0.
         21    1    1    2  503  501 -0.24309564686E+03  0.14806088520E+03  0.88815272481E+03  0.93264826266E+03  0.00000000000E+00 0. -1.
         21    1    1    2  504  503  0.10181913914E+02  0.48128532070E+02 -0.13267711092E+02  0.50951537050E+02  0.00000000000E+00 0. -1.
<mgrwt>
<rscale>  4 0.31115945E+03</rscale>
<asrwt>0</asrwt>
<pdfrwt beam="1">  1       21 0.14659037E+00 0.31115945E+03</pdfrwt>
<pdfrwt beam="2">  1       21 0.18500373E+00 0.31115945E+03</pdfrwt>
<totfact> 0.46342761E+01</totfact>
</mgrwt>
</event>
<event>
 5    0  0.3387552E+000  0.2585613E+03  0.7546771E-02  0.1108011E+00
         21   -1    0    0  503  501  0.00000000000E+00  0.00000000000E+00  0.46781869703E+02  0.46781869703E+02  0.00000000000E+00 0. -1.
         21   -1    0    0  504  502 -0.00000000000E+00 -0.00000000000E+00 -0.16229340283E+04  0.16229340283E+04  0.00000000000E+00 0. -1.
         25    1    1    2    0    0 -0.21369426306E+03 -0.26296214499E+02 -0.92379931746E+03  0.95675854211E+03  0.12500000000E+03 0.  0.
         21    1    1    2  503  502  0.24071559344E+03  0.17186043454E+02 -0.63562812492E+03  0.67989886763E+03  0.00000000000E+00 0. -1.
         21    1    1    2  504  501 -0.27021330388E+02  0.91101710450E+01 -0.16724716181E+02  0.33058488225E+02  0.00000000000E+00 0.  1.
<mgrwt>
<rscale>  4 0.25856125E+03</rscale>
<asrwt>0</asrwt>
<pdfrwt beam="1">  1       21 0.71972097E-02 0.25856125E+03</pdfrwt>
<pdfrwt beam="2">  1       21 0.24968219E+00 0.25856125E+03</pdfrwt>
<totfact> 0.91072581E+03</totfact>
</mgrwt>
</event>
<event>
 5    0  0.3387552E+000  0.3137160E+03  0.7546771E-02  0.1078578E+00
         21   -1    0    0  503  501  0.00000000000E+00  0.00000000000E+00  0.83993720530E+03  0.83993720530E+03  0.00000000000E+00 0. -1.
         21   -1    0    0  501  502 -0.00000000000E+00 -0.00000000000E+00 -0.20166157203E+03  0.20166157203E+03  0.00000000000E+00 0. -1.
         25    1    1    2    0    0  0.27380896258E+03  0.99378087980E+02  0.98404171379E+01  0.31712645139E+03  0.12500000000E+03 0.  0.
         21    1    1    2  503  504 -0.18084377329E+02  0.12857973999E+02  0.26599611111E+03  0.26692003171E+03  0.00000000000E+00 0. -1.
         21    1    1    2  504  502 -0.25572458525E+03 -0.11223606198E+03  0.36243910502E+03  0.45755229424E+03  0.00000000000E+00 0. -1.
<mgrwt>
<rscale>  4 0.31371600E+03</rscale>
<asrwt>0</asrwt>
<pdfrwt beam="1">  1       21 0.12922111E+00 0.31371600E+03</pdfrwt>
<pdfrwt beam="2">  1       21 0.31024858E-01 0.31371600E+03</pdfrwt>
<totfact> 0.40403759E+03</totfact>
</mgrwt>
</event>
<event>
 5    0  0.3387552E+000  0.2783406E+03  0.7546771E-02  0.1096599E+00
         21   -1    0    0  503  501  0.00000000000E+00  0.00000000000E+00  0.40808537297E+03  0.40808537297E+03  0.00000000000E+00 0. -1.
         21   -1    0    0  501  502 -0.00000000000E+00 -0.00000000000E+00 -0.34866752888E+03  0.34866752888E+03  0.00000000000E+00 0. -1.
         25    1    1    2    0    0  0.25046875303E+03 -0.37994361089E+02 -0.22716478414E+03  0.36250104396E+03  0.12500000000E+03 0.  0.
         21    1    1    2  503  504 -0.25882736288E+02 -0.17568390534E+02  0.72837266353E+02  0.79270623521E+02  0.00000000000E+00 0. -1.
         21    1    1    2  504  502 -0.22458601674E+03  0.55562751623E+02  0.21374536188E+03  0.31498123437E+03  0.00000000000E+00 0. -1.
<mgrwt>
<rscale>  4 0.27834059E+03</rscale>
<asrwt>0</asrwt>
<pdfrwt beam="1">  1       21 0.62782364E-01 0.27834059E+03</pdfrwt>
<pdfrwt beam="2">  1       21 0.53641159E-01 0.27834059E+03</pdfrwt>
<totfact> 0.73277172E+03</totfact>
</mgrwt>
</event>
<event>
 5    0  0.3387552E+000  0.2633625E+03  0.7546771E-02  0.1105140E+00
         21   -1    0    0  503  501  0.00000000000E+00  0.00000000000E+00  0.53328929308E+03  0.53328929308E+03  0.00000000000E+00 0.  1.
         21   -1    0    0  504  502 -0.00000000000E+00 -0.00000000000E+00 -0.31358827172E+03  0.31358827172E+03  0.00000000000E+00 0. -1.
         25    1    1    2    0    0 -0.75473936829E+02  0.22205025298E+03  0.18274262222E+03  0.32252518656E+03  0.12500000000E+03 0.  0.
         21    1    1    2  503  502  0.12050944633E+03 -0.19849403687E+03 -0.18484550154E+03  0.29680004846E+03  0.00000000000E+00 0. -1.
         21    1    1    2  504  501 -0.45035509501E+02 -0.23556216112E+02  0.22180390068E+03  0.22755232979E+03  0.00000000000E+00 0.  1.
<mgrwt>
<rscale>  4 0.26336248E+03</rscale>
<asrwt>0</asrwt>
<pdfrwt beam="1">  1       21 0.82044507E-01 0.26336248E+03</pdfrwt>
<pdfrwt beam="2">  1       21 0.48244349E-01 0.26336248E+03</pdfrwt>
<totfact> 0.50799961E+03</totfact>
</mgrwt>
</event>
<event>
 5    0  0.3387552E+000  0.2489204E+03  0.7546771E-02  0.1113989E+00
         21   -1    0    0  503  501  0.00000000000E+00  0.00000000000E+00  0.48031835341E+02  0.48031835341E+02  0.00000000000E+00 0.  1.
         21   -1    0    0  501  502 -0.00000000000E+00 -0.00000000000E+00 -0.20963199325E+04  0.20963199325E+04  0.00000000000E+00 0.  1.
         25    1    1    2    0    0 -0.70500412762E+02 -0.20031074384E+03 -0.14389781870E+04  0.14599239449E+04  0.12500000000E+03 0.  0.
         21    1    1    2  503  504  0.25061674997E+02 -0.16863677849E+02  0.55917653601E+01  0.30720335677E+02  0.00000000000E+00 0. -1.
         21    1    1    2  504  502  0.45438737765E+02  0.21717442168E+03 -0.61490167558E+03  0.65370748730E+03  0.00000000000E+00 0.  1.
<mgrwt>
<rscale>  4 0.24892042E+03</rscale>
<asrwt>0</asrwt>
<pdfrwt beam="1">  1       21 0.73895144E-02 0.24892042E+03</pdfrwt>
<pdfrwt beam="2">  1       21 0.32251070E+00 0.24892042E+03</pdfrwt>
<totfact> 0.32749768E+03</totfact>
</mgrwt>
</event>
<event>
 5    0  0.3387552E+000  0.3790752E+03  0.7546771E-02  0.1051276E+00
         21   -1    0    0  503  501  0.00000000000E+00  0.00000000000E+00  0.17604566669E+04  0.17604566669E+04  0.00000000000E+00 0.  1.
         21   -1    0    0  501  502 -0.00000000000E+00 -0.00000000000E+00 -0.15360199892E+03  0.15360199892E+03  0.00000000000E+00 0.  1.
         25    1    1    2    0    0  0.30088792576E+03  0.18508009751E+03  0.16848830475E+03  0.41085459131E+03  0.12500000000E+03 0.  0.
         21    1    1    2  503  504  0.86127128572E+01  0.28421494349E+02  0.35894103924E+03  0.36016750244E+03  0.00000000000E+00 0.  1.
         21    1    1    2  504  502 -0.30950063861E+03 -0.21350159185E+03  0.10794253240E+04  0.11430365721E+04  0.00000000000E+00 0.  1.
<mgrwt>
<rscale>  4 0.37907515E+03</rscale>
<asrwt>0</asrwt>
<pdfrwt beam="1">  1       21 0.27083947E+00 0.37907515E+03</pdfrwt>
<pdfrwt beam="2">  1       21 0.23631078E-01 0.37907515E+03</pdfrwt>
<totfact> 0.71540977E+02</totfact>
</mgrwt>
</event>
<event>
 5    0  0.3387552E+000  0.1885907E+03  0.7546771E-02  0.1159739E+00
         21   -1    0    0  503  501  0.00000000000E+00  0.00000000000E+00  0.19976338031E+04  0.19976338031E+04  0.00000000000E+00 0.  1.
         21   -1    0    0  501  502 -0.00000000000E+00 -0.00000000000E+00 -0.21666838353E+03  0.21666838353E+03  0.00000000000E+00 0. -1.
         25    1    1    2    0    0 -0.40364360784E+02  0.22662421750E+03  0.16157410941E+03  0.30776453728E+03  0.12500000000E+03 0.  0.
         21    1    1    2  503  504  0.75321945130E+02 -0.11622769514E+03  0.17364003883E+04  0.17419152049E+04  0.00000000000E+00 0.  1.
         21    1    1    2  504  502 -0.34957584346E+02 -0.11039652236E+03 -0.11700907814E+03  0.16462244446E+03  0.00000000000E+00 0. -1.
<mgrwt>
<rscale>  4 0.18859066E+03</rscale>
<asrwt>0</asrwt>
<pdfrwt beam="1">  1       21 0.30732827E+00 0.18859066E+03</pdfrwt>
<pdfrwt beam="2">  1       21 0.33333599E-01 0.18859066E+03</pdfrwt>
<totfact> 0.27016620E+02</totfact>
</mgrwt>
</event>
<event>
 5    0  0.3387552E+000  0.2560506E+03  0.7546771E-02  0.1109540E+00
         21   -1    0    0  503  501  0.00000000000E+00  0.00000000000E+00  0.73837244017E+03  0.73837244017E+03  0.00000000000E+00 0. -1.
         21   -1    0    0  501  502 -0.00000000000E+00 -0.00000000000E+00 -0.13837589017E+03  0.13837589017E+03  0.00000000000E+00 0. -1.
         25    1    1    2    0    0 -0.54408495069E+02 -0.20581644649E+03  0.91707094702E+02  0.26335505540E+03  0.12500000000E+03 0.  0.
         21    1    1    2  503  504  0.56981001887E+01 -0.29488170874E+02  0.28111031903E+03  0.28271015551E+03  0.00000000000E+00 0.  1.
         21    1    1    2  504  502  0.48710394881E+02  0.23530461737E+03  0.22717913627E+03  0.33068311944E+03  0.00000000000E+00 0. -1.
<mgrwt>
<rscale>  4 0.25605060E+03</rscale>
<asrwt>0</asrwt>
<pdfrwt beam="1">  1       21 0.11359576E+00 0.25605060E+03</pdfrwt>
<pdfrwt beam="2">  1       21 0.21288599E-01 0.25605060E+03</pdfrwt>
<totfact> 0.11926061E+04</totfact>
</mgrwt>
</event>
<event>
 5    0  0.3387552E+000  0.3267627E+03  0.7546771E-02  0.1072578E+00
         21   -1    0    0  503  501  0.00000000000E+00  0.00000000000E+00  0.42765351277E+03  0.42765351277E+03  0.00000000000E+00 0.  1.
         21   -1    0    0  504  502 -0.00000000000E+00 -0.00000000000E+00 -0.35884072115E+03  0.35884072115E+03  0.00000000000E+00 0.  1.
         25    1    1    2    0    0 -0.32948123479E+02 -0.30310366611E+03  0.20253271346E+03  0.38678406284E+03  0.12500000000E+03 0.  0.
         21    1    1    2  503  502  0.73294034529E+02  0.29263432437E+03 -0.16839502945E+03  0.34549059212E+03  0.00000000000E+00 0.  1.
         21    1    1    2  504  501 -0.40345911049E+02  0.10469341733E+02  0.34675107610E+02  0.54219578959E+02  0.00000000000E+00 0.  1.
<mgrwt>
<rscale>  4 0.32676273E+03</rscale>
<asrwt>0</asrwt>
<pdfrwt beam="1">  1       21 0.65792848E-01 0.32676273E+03</pdfrwt>
<pdfrwt beam="2">  1       21 0.55206265E-01 0.32676273E+03</pdfrwt>
<totfact> 0.60745703E+03</totfact>
</mgrwt>
</event>
<event>
 5    0  0.3387552E+000  0.2777576E+03  0.7546771E-02  0.1096920E+00
         21   -1    0    0  503  501  0.00000000000E+00  0.00000000000E+00  0.27731180656E+03  0.27731180656E+03  0.00000000000E+00 0. -1.
         21   -1    0    0  501  502 -0.00000000000E+00 -0.00000000000E+00 -0.60110344969E+03  0.60110344969E+03  0.00000000000E+00 0. -1.
         25    1    1    2    0    0 -0.18521387880E+03 -0.13904555494E+03  0.88755666216E+02  0.27774163450E+03  0.12500000000E+03 0.  0.
         21    1    1    2  503  504 -0.73774307564E+01 -0.21739622775E+02  0.60777509222E+02  0.64968787200E+02  0.00000000000E+00 0. -1.
         21    1    1    2  504  502  0.19259130956E+03  0.16078517771E+03 -0.47332481857E+03  0.53570483455E+03  0.00000000000E+00 0. -1.
<mgrwt>
<rscale>  4 0.27775764E+03</rscale>
<asrwt>0</asrwt>
<pdfrwt beam="1">  1       21 0.42663355E-01 0.27775764E+03</pdfrwt>
<pdfrwt beam="2">  1       21 0.92477453E-01 0.27775764E+03</pdfrwt>
<totfact> 0.49237634E+03</totfact>
</mgrwt>
</event>
<event>
 5    0  0.3387552E+000  0.3318654E+03  0.7546771E-02  0.1070314E+00
         21   -1    0    0  503  501  0.00000000000E+00  0.00000000000E+00  0.61039033894E+03  0.61039033894E+03  0.00000000000E+00 0.  1.
         21   -1    0    0  501  502 -0.00000000000E+00 -0.00000000000E+00 -0.39092115632E+03  0.39092115632E+03  0.00000000000E+00 0.  1.
         25    1    1    2    0    0  0.17270598117E+03 -0.23031638919E+03 -0.88319314457E+02  0.32603419509E+03  0.12500000000E+03 0.  0.
         21    1    1    2  503  504  0.30647571299E+02 -0.32573939797E+02  0.33855373915E+03  0.34149519686E+03  0.00000000000E+00 0.  1.
         21    1    1    2  504  502 -0.20335355247E+03  0.26289032899E+03 -0.30765242076E+02  0.33378210332E+03  0.00000000000E+00 0.  1.
<mgrwt>
<rscale>  4 0.33186545E+03</rscale>
<asrwt>0</asrwt>
<pdfrwt beam="1">  1       21 0.93906205E-01 0.33186545E+03</pdfrwt>
<pdfrwt beam="2">  1       21 0.60141717E-01 0.33186545E+03</pdfrwt>
<totfact> 0.22322099E+03</totfact>
</mgrwt>
</event>
<event>
 5    0  0.3387552E+000  0.2446478E+03  0.7546771E-02  0.1116735E+00
         21   -1    0    0  503  501  0.00000000000E+00  0.00000000000E+00  0.19062185832E+03  0.19062185832E+03  0.00000000000E+00 0. -1.
         21   -1    0    0  501  502 -0.00000000000E+00 -0.00000000000E+00 -0.52153995109E+03  0.52153995109E+03  0.00000000000E+00 0. -1.
         25    1    1    2    0    0 -0.17629191382E+03 -0.15704046409E+03 -0.12391327803E+03  0.29448267642E+03  0.12500000000E+03 0.  0.
         21    1    1    2  503  504 -0.19986876344E+02  0.97133160258E+02  0.30541170020E+02  0.10376458507E+03  0.00000000000E+00 0.  1.
         21    1    1    2  504  502  0.19627879016E+03  0.59907303828E+02 -0.23754598477E+03  0.31391454792E+03  0.00000000000E+00 0. -1.
<mgrwt>
<rscale>  4 0.24464780E+03</rscale>
<asrwt>0</asrwt>
<pdfrwt beam="1">  1       21 0.29326440E-01 0.24464780E+03</pdfrwt>
<pdfrwt beam="2">  1       21 0.80236914E-01 0.24464780E+03</pdfrwt>
<totfact> 0.14754700E+04</totfact>
</mgrwt>
</event>
<event>
 5    0  0.3387552E+000  0.3065008E+03  0.7546771E-02  0.1082035E+00
         21   -1    0    0  503  501  0.00000000000E+00  0.00000000000E+00  0.59259182046E+03  0.59259182046E+03  0.00000000000E+00 0. -1.
         21   -1    0    0  504  502 -0.00000000000E+00 -0.00000000000E+00 -0.11098254376E+04  0.11098254376E+04  0.00000000000E+00 0.  1.
         25    1    1    2    0    0 -0.13977013016E+03 -0.25244132179E+03 -0.64037257047E+03  0.71341736679E+03  0.12500000000E+03 0.  0.
         21    1    1    2  503  502  0.18265029230E+03  0.20343705065E+03 -0.38749194932E+03  0.47423388074E+03  0.00000000000E+00 0.  1.
         21    1    1    2  504  501 -0.42880162139E+02  0.49004271138E+02  0.51063090263E+03  0.51476601055E+03  0.00000000000E+00 0. -1.
<mgrwt>
<rscale>  4 0.30650079E+03</rscale>
<asrwt>0</asrwt>
<pdfrwt beam="1">  1       21 0.91167973E-01 0.30650079E+03</pdfrwt>
<pdfrwt beam="2">  1       21 0.17074237E+00 0.30650079E+03</pdfrwt>
<totfact> 0.19137095E+02</totfact>
</mgrwt>
</event>
<event>
 5    0  0.3387552E+000  0.2710502E+03  0.7546771E-02  0.1100680E+00
         21   -1    0    0  503  501  0.00000000000E+00  0.00000000000E+00  0.13260138225E+03  0.13260138225E+03  0.00000000000E+00 0. -1.
         21   -1    0    0  504  502 -0.00000000000E+00 -0.00000000000E+00 -0.11236907886E+04  0.11236907886E+04  0.00000000000E+00 0. -1.
         25    1    1    2    0    0  0.15831588980E+03  0.17639158501E+03 -0.88518157943E+03  0.92485098302E+03  0.12500000000E+03 0.  0.
         21    1    1    2  503  502 -0.19985175462E+03 -0.16214810864E+03 -0.12182499692E+03  0.28473507483E+03  0.00000000000E+00 0. -1.
         21    1    1    2  504  501  0.41535864826E+02 -0.14243476363E+02  0.15917170046E+02  0.46706112962E+02  0.00000000000E+00 0. -1.
<mgrwt>
<rscale>  4 0.27105024E+03</rscale>
<asrwt>0</asrwt>
<pdfrwt beam="1">  1       21 0.20400212E-01 0.27105024E+03</pdfrwt>
<pdfrwt beam="2">  1       21 0.17287551E+00 0.27105024E+03</pdfrwt>
<totfact> 0.42667276E+03</totfact>
</mgrwt>
</event>
<event>
 5    0  0.3387552E+000  0.2865788E+03  0.7546771E-02  0.1092149E+00
         21   -1    0    0  503  501  0.00000000000E+00  0.00000000000E+00  0.89805222278E+03  0.89805222278E+03  0.00000000000E+00 0.  1.
         21   -1    0    0  501  502 -0.00000000000E+00 -0.00000000000E+00 -0.90024282914E+02  0.90024282914E+02  0.00000000000E+00 0.  1.
         25    1    1    2    0    0  0.21784848376E+03  0.13800163079E+03  0.34901078523E+03  0.45159267064E+03  0.12500000000E+03 0.  0.
         21    1    1    2  503  504 -0.47365622807E+02 -0.37304344034E+02  0.20920624108E+03  0.21772084791E+03  0.00000000000E+00 0. -1.
         21    1    1    2  504  502 -0.17048286095E+03 -0.10069728675E+03  0.24981091355E+03  0.31876298713E+03  0.00000000000E+00 0.  1.
<mgrwt>
<rscale>  4 0.28657881E+03</rscale>
<asrwt>0</asrwt>
<pdfrwt beam="1">  1       21 0.13816187E+00 0.28657881E+03</pdfrwt>
<pdfrwt beam="2">  1       21 0.13849890E-01 0.28657881E+03</pdfrwt>
<totfact> 0.15901912E+04</totfact>
</mgrwt>
</event>
<event>
 5    0  0.3387552E+000  0.4953363E+03  0.7546771E-02  0.1015022E+00
         21   -1    0    0  503  501  0.00000000000E+00  0.00000000000E+00  0.19248247258E+03  0.19248247258E+03  0.00000000000E+00 0.  1.
         21   -1    0    0  504  502 -0.00000000000E+00 -0.00000000000E+00 -0.13537711679E+04  0.13537711679E+04  0.00000000000E+00 0.  1.
         25    1    1    2    0    0 -0.47720168004E+03  0.41626499771E+02 -0.76818643718E+03  0.91388708886E+03  0.12500000000E+03 0.  0.
         21    1    1    2  503  502  0.41547501190E+03 -0.31127842462E+01 -0.29210626630E+03  0.50789294714E+03  0.00000000000E+00 0.  1.
         21    1    1    2  504  501  0.61726668137E+02 -0.38513715525E+02 -0.10099599182E+03  0.12447360446E+03  0.00000000000E+00 0.  1.
<mgrwt>
<rscale>  4 0.49526591E+03</rscale>
<asrwt>0</asrwt>
<pdfrwt beam="1">  1       21 0.29612688E-01 0.49533632E+03</pdfrwt>
<pdfrwt beam="2">  1       21 0.20827249E+00 0.49533632E+03</pdfrwt>
<totfact> 0.10625998E+03</totfact>
</mgrwt>
</event>
<event>
 5    0  0.3387552E+000  0.3128222E+03  0.7546771E-02  0.1079001E+00
         21   -1    0    0  503  501  0.00000000000E+00  0.00000000000E+00  0.36247596600E+03  0.36247596600E+03  0.00000000000E+00 0.  1.
         21   -1    0    0  501  502 -0.00000000000E+00 -0.00000000000E+00 -0.50017530312E+03  0.50017530312E+03  0.00000000000E+00 0.  1.
         25    1    1    2    0    0  0.25752757357E+03 -0.10771610561E+03 -0.29656667157E+03  0.42602816954E+03  0.12500000000E+03 0.  0.
         21    1    1    2  503  504  0.40378928851E+02  0.24180733292E+02  0.11483865115E+03  0.12410915178E+03  0.00000000000E+00 0.  1.
         21    1    1    2  504  502 -0.29790650242E+03  0.83535372317E+02  0.44028683296E+02  0.31251394779E+03  0.00000000000E+00 0.  1.
<mgrwt>
<rscale>  4 0.31282221E+03</rscale>
<asrwt>0</asrwt>
<pdfrwt beam="1">  1       21 0.55765533E-01 0.31282221E+03</pdfrwt>
<pdfrwt beam="2">  1       21 0.76950047E-01 0.31282221E+03</pdfrwt>
<totfact> 0.42128124E+03</totfact>
</mgrwt>
</event>
<event>
 5    0  0.3387552E+000  0.2679564E+03  0.7546771E-02  0.1102455E+00
         21   -1    0    0  503  501  0.00000000000E+00  0.00000000000E+00  0.57635518950E+03  0.57635518950E+03  0.00000000000E+00 0. -1.
         21   -1    0    0  504  502 -0.00000000000E+00 -0.00000000000E+00 -0.10450346733E+04  0.10450346733E+04  0.00000000000E+00 0.  1.
         25    1    1    2    0    0 -0.95888182311E+02 -0.20251052037E+03 -0.18109728827E+03  0.31404821634E+03  0.12500000000E+03 0.  0.
         21    1    1    2  503  502  0.17299810048E+03  0.17158485035E+03 -0.77525438212E+03  0.81264325545E+03  0.00000000000E+00 0.  1.
         21    1    1    2  504  501 -0.77109918172E+02  0.30925670017E+02  0.48767218656E+03  0.49469839103E+03  0.00000000000E+00 0. -1.
<mgrwt>
<rscale>  4 0.26795636E+03</rscale>
<asrwt>0</asrwt>
<pdfrwt beam="1">  1       21 0.88670030E-01 0.26795636E+03</pdfrwt>
<pdfrwt beam="2">  1       21 0.16077456E+00 0.26795636E+03</pdfrwt>
<totfact> 0.24930825E+02</totfact>
</mgrwt>
</event>
<event>
 5    0  0.3387552E+000  0.2595019E+03  0.7546771E-02  0.1107443E+00
         21   -1    0    0  503  501  0.00000000000E+00  0.00000000000E+00  0.28061492775E+03  0.28061492775E+03  0.00000000000E+00 0.  1.
         21   -1    0    0  504  502 -0.00000000000E+00 -0.00000000000E+00 -0.32893075369E+03  0.32893075369E+03  0.00000000000E+00 0. -1.
         25    1    1    2    0    0  0.73231621244E+02 -0.21374000540E+03 -0.12998112665E+03  0.28908087717E+03  0.12500000000E+03 0.  0.
         21    1    1    2  503  502 -0.44211906024E+02  0.22652891304E+03 -0.21897539229E+01  0.23081342270E+03  0.00000000000E+00 0.  1.
         21    1    1    2  504  501 -0.29019715220E+02 -0.12788907642E+02  0.83855054635E+02  0.89651381573E+02  0.00000000000E+00 0. -1.
<mgrwt>
<rscale>  4 0.25950194E+03</rscale>
<asrwt>0</asrwt>
<pdfrwt beam="1">  1       21 0.43171528E-01 0.25950194E+03</pdfrwt>
<pdfrwt beam="2">  1       21 0.50604731E-01 0.25950194E+03</pdfrwt>
<totfact> 0.18487209E+04</totfact>
</mgrwt>
</event>
<event>
 5    0  0.3387552E+000  0.3521345E+03  0.7546771E-02  0.1061742E+00
         21   -1    0    0  503  501  0.00000000000E+00  0.00000000000E+00  0.32682004008E+03  0.32682004008E+03  0.00000000000E+00 0. -1.
         21   -1    0    0  504  502 -0.00000000000E+00 -0.00000000000E+00 -0.67867885493E+03  0.67867885493E+03  0.00000000000E+00 0.  1.
         25    1    1    2    0    0 -0.34210894152E+03 -0.15866501824E+03 -0.35051274944E+03  0.52980874228E+03  0.12500000000E+03 0.  0.
         21    1    1    2  503  502  0.25898529873E+03  0.11088115533E+03 -0.13403706525E+03  0.31198389450E+03  0.00000000000E+00 0.  1.
         21    1    1    2  504  501  0.83123642793E+02  0.47783862910E+02  0.13269099984E+03  0.16370625823E+03  0.00000000000E+00 0. -1.
<mgrwt>
<rscale>  4 0.35213452E+03</rscale>
<asrwt>0</asrwt>
<pdfrwt beam="1">  1       21 0.50280006E-01 0.35213452E+03</pdfrwt>
<pdfrwt beam="2">  1       21 0.10441213E+00 0.35213452E+03</pdfrwt>
<totfact> 0.25146584E+03</totfact>
</mgrwt>
</event>
<event>
 5    0  0.3387552E+000  0.2984480E+03  0.7546771E-02  0.1086019E+00
         21   -1    0    0  503  501  0.00000000000E+00  0.00000000000E+00  0.20391033485E+04  0.20391033485E+04  0.00000000000E+00 0.  1.
         21   -1    0    0  504  502 -0.00000000000E+00 -0.00000000000E+00 -0.13751749933E+03  0.13751749933E+03  0.00000000000E+00 0.  1.
         25    1    1    2    0    0 -0.16246137083E+03 -0.20399237834E+03  0.35108923062E+03  0.45485737907E+03  0.12500000000E+03 0.  0.
         21    1    1    2  503  502  0.19553035806E+03  0.19662891174E+03  0.13959327388E+03  0.31045342963E+03  0.00000000000E+00 0.  1.
         21    1    1    2  504  501 -0.33068987225E+02  0.73634665990E+01  0.14109033446E+04  0.14113100391E+04  0.00000000000E+00 0.  1.
<mgrwt>
<rscale>  4 0.29844805E+03</rscale>
<asrwt>0</asrwt>
<pdfrwt beam="1">  1       21 0.31370819E+00 0.29844805E+03</pdfrwt>
<pdfrwt beam="2">  1       21 0.21156540E-01 0.29844805E+03</pdfrwt>
<totfact> 0.52321756E+02</totfact>
</mgrwt>
</event>
