<event>
 4    0  0.1005289E-001  0.2890216E+03  0.7546771E-02  0.1090861E+00
         21   -1    0    0  502  501  0.00000000000E+00  0.00000000000E+00  0.35137533047E+04  0.35137533047E+04  0.00000000000E+00 0. -1.
         21   -1    0    0  503  502 -0.00000000000E+00 -0.00000000000E+00 -0.21937113965E+02  0.21937113965E+02  0.00000000000E+00 0. -1.
         25    1    1    2    0    0  0.52590036321E+02  0.25523079769E+03  0.15830027112E+04  0.16091709218E+04  0.12500000000E+03 0.  0.
         21    1    1    2  503  501 -0.52590036321E+02 -0.25523079769E+03  0.19088134795E+04  0.19265194968E+04  0.00000000000E+00 0. -1.
<mgrwt>
<rscale>  3 0.28902158E+03</rscale>
<asrwt>0</asrwt>
<pdfrwt beam="1">  1       21 0.54057698E+00 0.28902158E+03</pdfrwt>
<pdfrwt beam="2">  1       21 0.33749434E-02 0.28902158E+03</pdfrwt>
<totfact> 0.44195833E+02</totfact>
</mgrwt>
</event>
<event>
 4    0  0.1030459E-001  0.3199927E+03  0.7546771E-02  0.1075653E+00
         21   -1    0    0  503  501  0.00000000000E+00  0.00000000000E+00  0.41900183873E+03  0.41900183873E+03  0.00000000000E+00 0.  1.
         21   -1    0    0  501  502 -0.00000000000E+00 -0.00000000000E+00 -0.28379044994E+03  0.28379044994E+03  0.00000000000E+00 0.  1.
         25    1    1    2    0    0  0.95325712373E+02  0.27871732878E+03  0.22918203849E+03  0.39359845981E+03  0.12500000000E+03 0.  0.
         21    1    1    2  503  502 -0.95325712373E+02 -0.27871732878E+03 -0.93970649706E+02  0.30919382886E+03  0.00000000000E+00 0.  1.
<mgrwt>
<rscale>  3 0.31999272E+03</rscale>
<asrwt>0</asrwt>
<pdfrwt beam="1">  1       21 0.64461821E-01 0.31999272E+03</pdfrwt>
<pdfrwt beam="2">  1       21 0.43660069E-01 0.31999272E+03</pdfrwt>
<totfact> 0.10447453E+04</totfact>
</mgrwt>
</event>
<event>
 4    0  0.1005289E-001  0.2407910E+03  0.7546771E-02  0.1119267E+00
         21   -1    0    0  503  501  0.00000000000E+00  0.00000000000E+00  0.13077977398E+04  0.13077977398E+04  0.00000000000E+00 0. -1.
         21   -1    0    0  501  502 -0.00000000000E+00 -0.00000000000E+00 -0.66771037622E+02  0.66771037622E+02  0.00000000000E+00 0.  1.
         25    1    1    2    0    0  0.12027410123E+03 -0.16700137253E+03  0.19890444175E+03  0.31231921939E+03  0.12500000000E+03 0.  0.
         21    1    1    2  503  502 -0.12027410123E+03  0.16700137253E+03  0.10421222604E+04  0.10622495580E+04  0.00000000000E+00 0. -1.
<mgrwt>
<rscale>  3 0.24079103E+03</rscale>
<asrwt>0</asrwt>
<pdfrwt beam="1">  1       21 0.20119963E+00 0.24079103E+03</pdfrwt>
<pdfrwt beam="2">  1       21 0.10272468E-01 0.24079103E+03</pdfrwt>
<totfact> 0.98323449E+03</totfact>
</mgrwt>
</event>
<event>
 4    0  0.1005289E-001  0.2646752E+03  0.7546771E-02  0.1104366E+00
         21   -1    0    0  503  501  0.00000000000E+00  0.00000000000E+00  0.20764303114E+04  0.20764303114E+04  0.00000000000E+00 0.  1.
         21   -1    0    0  501  502 -0.00000000000E+00 -0.00000000000E+00 -0.39612845364E+02  0.39612845364E+02  0.00000000000E+00 0.  1.
         25    1    1    2    0    0 -0.64935322891E+02  0.22407893997E+03  0.54247832714E+03  0.60360227212E+03  0.12500000000E+03 0.  0.
         21    1    1    2  503  502  0.64935322891E+02 -0.22407893997E+03  0.14943391389E+04  0.15124408846E+04  0.00000000000E+00 0.  1.
<mgrwt>
<rscale>  3 0.26467521E+03</rscale>
<asrwt>0</asrwt>
<pdfrwt beam="1">  1       21 0.31945073E+00 0.26467521E+03</pdfrwt>
<pdfrwt beam="2">  1       21 0.60942855E-02 0.26467521E+03</pdfrwt>
<totfact> 0.46989267E+03</totfact>
</mgrwt>
</event>
<event>
 4    0  0.1189551E-001  0.4221616E+03  0.7546771E-02  0.1036365E+00
         21   -1    0    0  503  501  0.00000000000E+00  0.00000000000E+00  0.11233738125E+04  0.11233738125E+04  0.00000000000E+00 0. -1.
         21   -1    0    0  501  502 -0.00000000000E+00 -0.00000000000E+00 -0.44420013548E+03  0.44420013548E+03  0.00000000000E+00 0.  1.
         25    1    1    2    0    0  0.18952314896E+03  0.35591625740E+03 -0.29381348564E+03  0.51434110337E+03  0.12500000000E+03 0.  0.
         21    1    1    2  503  502 -0.18952314896E+03 -0.35591625740E+03  0.97298716267E+03  0.10532328446E+04  0.00000000000E+00 0. -1.
<mgrwt>
<rscale>  3 0.42216159E+03</rscale>
<asrwt>0</asrwt>
<pdfrwt beam="1">  1       21 0.17282674E+00 0.42216159E+03</pdfrwt>
<pdfrwt beam="2">  1       21 0.68338483E-01 0.42216159E+03</pdfrwt>
<totfact> 0.33204742E+02</totfact>
</mgrwt>
</event>
<event>
 4    0  0.1141219E-001  0.2522922E+03  0.7546771E-02  0.1111865E+00
         21   -1    0    0  502  501  0.00000000000E+00  0.00000000000E+00  0.10680740103E+04  0.10680740103E+04  0.00000000000E+00 0. -1.
         21   -1    0    0  503  502 -0.00000000000E+00 -0.00000000000E+00 -0.86031026459E+02  0.86031026459E+02  0.00000000000E+00 0. -1.
         25    1    1    2    0    0 -0.13974043694E+03 -0.16881633574E+03  0.14962766972E+03  0.29332539009E+03  0.12500000000E+03 0.  0.
         21    1    1    2  503  501  0.13974043694E+03  0.16881633574E+03  0.83241531416E+03  0.86077964670E+03  0.00000000000E+00 0. -1.
<mgrwt>
<rscale>  3 0.25229218E+03</rscale>
<asrwt>0</asrwt>
<pdfrwt beam="1">  1       21 0.16431907E+00 0.25229218E+03</pdfrwt>
<pdfrwt beam="2">  1       21 0.13235543E-01 0.25229218E+03</pdfrwt>
<totfact> 0.11061113E+04</totfact>
</mgrwt>
</event>
<event>
 4    0  0.1005289E-001  0.2446824E+03  0.7546771E-02  0.1116712E+00
         21   -1    0    0  503  501  0.00000000000E+00  0.00000000000E+00  0.39114008430E+03  0.39114008430E+03  0.00000000000E+00 0.  1.
         21   -1    0    0  501  502 -0.00000000000E+00 -0.00000000000E+00 -0.21845723532E+04  0.21845723532E+04  0.00000000000E+00 0.  1.
         25    1    1    2    0    0  0.18968999216E+02 -0.20948660498E+03 -0.21488392570E+04  0.21627250433E+04  0.12500000000E+03 0.  0.
         21    1    1    2  503  502 -0.18968999216E+02  0.20948660498E+03  0.35540698808E+03  0.41298739421E+03  0.00000000000E+00 0.  1.
<mgrwt>
<rscale>  3 0.24468237E+03</rscale>
<asrwt>0</asrwt>
<pdfrwt beam="1">  1       21 0.60175398E-01 0.24468237E+03</pdfrwt>
<pdfrwt beam="2">  1       21 0.33608805E+00 0.24468237E+03</pdfrwt>
<totfact> 0.49997434E+01</totfact>
</mgrwt>
</event>
<event>
 4    0  0.1005289E-001  0.2490693E+03  0.7546771E-02  0.1113894E+00
         21   -1    0    0  502  501  0.00000000000E+00  0.00000000000E+00  0.19241227700E+03  0.19241227700E+03  0.00000000000E+00 0.  1.
         21   -1    0    0  503  502 -0.00000000000E+00 -0.00000000000E+00 -0.28864871653E+03  0.28864871653E+03  0.00000000000E+00 0. -1.
         25    1    1    2    0    0 -0.45896088722E+02  0.21048535970E+03 -0.92216063098E+02  0.26559243194E+03  0.12500000000E+03 0.  0.
         21    1    1    2  503  501  0.45896088722E+02 -0.21048535970E+03 -0.40203764399E+01  0.21546856159E+03  0.00000000000E+00 0.  1.
<mgrwt>
<rscale>  3 0.24906934E+03</rscale>
<asrwt>0</asrwt>
<pdfrwt beam="1">  1       21 0.29601889E-01 0.24906934E+03</pdfrwt>
<pdfrwt beam="2">  1       21 0.44407495E-01 0.24906934E+03</pdfrwt>
<totfact> 0.51947664E+04</totfact>
</mgrwt>
</event>
<event>
 4    0  0.1634821E-001  0.2560376E+03  0.7546771E-02  0.1109548E+00
         21   -1    0    0  503  501  0.00000000000E+00  0.00000000000E+00  0.10854558812E+03  0.10854558812E+03  0.00000000000E+00 0.  1.
         21   -1    0    0  501  502 -0.00000000000E+00 -0.00000000000E+00 -0.56440348830E+03  0.56440348830E+03  0.00000000000E+00 0.  1.
         25    1    1    2    0    0 -0.19905612978E+03  0.10152283722E+03 -0.32592871417E+03  0.41446924615E+03  0.12500000000E+03 0.  0.
         21    1    1    2  503  502  0.19905612978E+03 -0.10152283722E+03 -0.12992918601E+03  0.25847983027E+03  0.00000000000E+00 0.  1.
<mgrwt>
<rscale>  3 0.25603755E+03</rscale>
<asrwt>0</asrwt>
<pdfrwt beam="1">  1       21 0.16699321E-01 0.25603755E+03</pdfrwt>
<pdfrwt beam="2">  1       21 0.86831306E-01 0.25603755E+03</pdfrwt>
<totfact> 0.35665346E+04</totfact>
</mgrwt>
</event>
<event>
 4    0  0.1152487E-001  0.4034586E+03  0.7546771E-02  0.1042589E+00
         21   -1    0    0  502  501  0.00000000000E+00  0.00000000000E+00  0.25979917533E+03  0.25979917533E+03  0.00000000000E+00 0. -1.
         21   -1    0    0  503  502 -0.00000000000E+00 -0.00000000000E+00 -0.10745939431E+04  0.10745939431E+04  0.00000000000E+00 0.  1.
         25    1    1    2    0    0  0.98301992208E+02  0.37079717844E+03 -0.85823142355E+03  0.94833538666E+03  0.12500000000E+03 0.  0.
         21    1    1    2  503  501 -0.98301992208E+02 -0.37079717844E+03  0.43436655755E+02  0.38605773179E+03  0.00000000000E+00 0. -1.
<mgrwt>
<rscale>  3 0.40345858E+03</rscale>
<asrwt>0</asrwt>
<pdfrwt beam="1">  1       21 0.39969105E-01 0.40345858E+03</pdfrwt>
<pdfrwt beam="2">  1       21 0.16532214E+00 0.40345858E+03</pdfrwt>
<totfact> 0.11985909E+03</totfact>
</mgrwt>
</event>
<event>
 4    0  0.1164522E-001  0.2422130E+03  0.7546771E-02  0.1118327E+00
         21   -1    0    0  503  501  0.00000000000E+00  0.00000000000E+00  0.63110792265E+03  0.63110792265E+03  0.00000000000E+00 0. -1.
         21   -1    0    0  501  502 -0.00000000000E+00 -0.00000000000E+00 -0.18828877524E+03  0.18828877524E+03  0.00000000000E+00 0. -1.
         25    1    1    2    0    0  0.11742526571E+03  0.17103641720E+03 -0.81473331800E+02  0.25554853322E+03  0.12500000000E+03 0.  0.
         21    1    1    2  503  502 -0.11742526571E+03 -0.17103641720E+03  0.52429247922E+03  0.56384816467E+03  0.00000000000E+00 0. -1.
<mgrwt>
<rscale>  3 0.24221302E+03</rscale>
<asrwt>0</asrwt>
<pdfrwt beam="1">  1       21 0.97093526E-01 0.24221302E+03</pdfrwt>
<pdfrwt beam="2">  1       21 0.28967504E-01 0.24221302E+03</pdfrwt>
<totfact> 0.97216871E+03</totfact>
</mgrwt>
</event>
<event>
 4    0  0.1062826E-001  0.2591349E+03  0.7546771E-02  0.1107664E+00
         21   -1    0    0  502  501  0.00000000000E+00  0.00000000000E+00  0.21412419258E+03  0.21412419258E+03  0.00000000000E+00 0.  1.
         21   -1    0    0  503  502 -0.00000000000E+00 -0.00000000000E+00 -0.39287389953E+03  0.39287389953E+03  0.00000000000E+00 0. -1.
         25    1    1    2    0    0  0.80606555264E+02  0.21219909075E+03 -0.25886552698E+03  0.36628162925E+03  0.12500000000E+03 0.  0.
         21    1    1    2  503  501 -0.80606555264E+02 -0.21219909075E+03  0.80115820029E+02  0.24071646285E+03  0.00000000000E+00 0.  1.
<mgrwt>
<rscale>  3 0.25913485E+03</rscale>
<asrwt>0</asrwt>
<pdfrwt beam="1">  1       21 0.32942184E-01 0.25913485E+03</pdfrwt>
<pdfrwt beam="2">  1       21 0.60442138E-01 0.25913485E+03</pdfrwt>
<totfact> 0.21849170E+04</totfact>
</mgrwt>
</event>
<event>
 4    0  0.1212080E-001  0.2466977E+03  0.7546771E-02  0.1115410E+00
         21   -1    0    0  502  501  0.00000000000E+00  0.00000000000E+00  0.63191128573E+03  0.63191128573E+03  0.00000000000E+00 0.  1.
         21   -1    0    0  503  502 -0.00000000000E+00 -0.00000000000E+00 -0.26796534993E+03  0.26796534993E+03  0.00000000000E+00 0.  1.
         25    1    1    2    0    0  0.12400114920E+03 -0.17279603737E+03 -0.18683190941E+03  0.30946068879E+03  0.12500000000E+03 0.  0.
         21    1    1    2  503  501 -0.12400114920E+03  0.17279603737E+03  0.55077784521E+03  0.59041594686E+03  0.00000000000E+00 0.  1.
<mgrwt>
<rscale>  3 0.24669770E+03</rscale>
<asrwt>0</asrwt>
<pdfrwt beam="1">  1       21 0.97217121E-01 0.24669770E+03</pdfrwt>
<pdfrwt beam="2">  1       21 0.41225439E-01 0.24669770E+03</pdfrwt>
<totfact> 0.47821750E+03</totfact>
</mgrwt>
</event>
<event>
 4    0  0.1244771E-001  0.2498645E+03  0.7546771E-02  0.1113390E+00
         21   -1    0    0  503  501  0.00000000000E+00  0.00000000000E+00  0.15071748093E+04  0.15071748093E+04  0.00000000000E+00 0. -1.
         21   -1    0    0  501  502 -0.00000000000E+00 -0.00000000000E+00 -0.43699857049E+02  0.43699857049E+02  0.00000000000E+00 0. -1.
         25    1    1    2    0    0 -0.62593642592E+02 -0.20709737440E+03  0.45146360861E+03  0.51599581053E+03  0.12500000000E+03 0.  0.
         21    1    1    2  503  502  0.62593642592E+02  0.20709737440E+03  0.10120113436E+04  0.10348788558E+04  0.00000000000E+00 0. -1.
<mgrwt>
<rscale>  3 0.24986454E+03</rscale>
<asrwt>0</asrwt>
<pdfrwt beam="1">  1       21 0.23187301E+00 0.24986454E+03</pdfrwt>
<pdfrwt beam="2">  1       21 0.67230561E-02 0.24986454E+03</pdfrwt>
<totfact> 0.13210584E+04</totfact>
</mgrwt>
</event>
<event>
 4    0  0.1301195E-001  0.2661996E+03  0.7546771E-02  0.1103475E+00
         21   -1    0    0  502  501  0.00000000000E+00  0.00000000000E+00  0.48265300129E+03  0.48265300129E+03  0.00000000000E+00 0.  1.
         21   -1    0    0  503  502 -0.00000000000E+00 -0.00000000000E+00 -0.24019402010E+03  0.24019402010E+03  0.00000000000E+00 0. -1.
         25    1    1    2    0    0  0.15275986147E+03  0.17861026209E+03 -0.11908843886E+03  0.29162348546E+03  0.12500000000E+03 0.  0.
         21    1    1    2  503  501 -0.15275986147E+03 -0.17861026209E+03  0.36154742004E+03  0.43122353593E+03  0.00000000000E+00 0.  1.
<mgrwt>
<rscale>  3 0.26619955E+03</rscale>
<asrwt>0</asrwt>
<pdfrwt beam="1">  1       21 0.74254308E-01 0.26619955E+03</pdfrwt>
<pdfrwt beam="2">  1       21 0.36952926E-01 0.26619955E+03</pdfrwt>
<totfact> 0.10991212E+04</totfact>
</mgrwt>
</event>
<event>
 4    0  0.1297906E-001  0.2537458E+03  0.7546771E-02  0.1110960E+00
         21   -1    0    0  502  501  0.00000000000E+00  0.00000000000E+00  0.93725859767E+02  0.93725859767E+02  0.00000000000E+00 0. -1.
         21   -1    0    0  503  502 -0.00000000000E+00 -0.00000000000E+00 -0.63409697031E+03  0.63409697031E+03  0.00000000000E+00 0. -1.
         25    1    1    2    0    0 -0.37931750386E+02  0.21753873731E+03 -0.20464883063E+03  0.32598782768E+03  0.12500000000E+03 0.  0.
         21    1    1    2  503  501  0.37931750386E+02 -0.21753873731E+03 -0.33572227991E+03  0.40183500239E+03  0.00000000000E+00 0. -1.
<mgrwt>
<rscale>  3 0.25374578E+03</rscale>
<asrwt>0</asrwt>
<pdfrwt beam="1">  1       21 0.14419363E-01 0.25374578E+03</pdfrwt>
<pdfrwt beam="2">  1       21 0.97553381E-01 0.25374578E+03</pdfrwt>
<totfact> 0.35587694E+04</totfact>
</mgrwt>
</event>
<event>
 4    0  0.1023609E-001  0.2774061E+03  0.7546771E-02  0.1097114E+00
         21   -1    0    0  503  501  0.00000000000E+00  0.00000000000E+00  0.23940192633E+03  0.23940192633E+03  0.00000000000E+00 0.  1.
         21   -1    0    0  501  502 -0.00000000000E+00 -0.00000000000E+00 -0.12827220247E+04  0.12827220247E+04  0.00000000000E+00 0.  1.
         25    1    1    2    0    0 -0.13680798578E+03  0.20642850112E+03 -0.11982931011E+04  0.12299839459E+04  0.12500000000E+03 0.  0.
         21    1    1    2  503  502  0.13680798578E+03 -0.20642850112E+03  0.15497300269E+03  0.29214000515E+03  0.00000000000E+00 0.  1.
<mgrwt>
<rscale>  3 0.27740611E+03</rscale>
<asrwt>0</asrwt>
<pdfrwt beam="1">  1       21 0.36831065E-01 0.27740611E+03</pdfrwt>
<pdfrwt beam="2">  1       21 0.19734185E+00 0.27740611E+03</pdfrwt>
<totfact> 0.91623146E+02</totfact>
</mgrwt>
</event>
<event>
 4    0  0.1760743E-001  0.2720779E+03  0.7546771E-02  0.1100096E+00
         21   -1    0    0  503  501  0.00000000000E+00  0.00000000000E+00  0.46063999403E+03  0.46063999403E+03  0.00000000000E+00 0. -1.
         21   -1    0    0  501  502 -0.00000000000E+00 -0.00000000000E+00 -0.15869540016E+03  0.15869540016E+03  0.00000000000E+00 0. -1.
         25    1    1    2    0    0  0.19499151106E+02  0.24087580564E+03  0.62556995632E+02  0.27917691226E+03  0.12500000000E+03 0.  0.
         21    1    1    2  503  502 -0.19499151106E+02 -0.24087580564E+03  0.23938759823E+03  0.34015848193E+03  0.00000000000E+00 0. -1.
<mgrwt>
<rscale>  3 0.27207788E+03</rscale>
<asrwt>0</asrwt>
<pdfrwt beam="1">  1       21 0.70867691E-01 0.27207788E+03</pdfrwt>
<pdfrwt beam="2">  1       21 0.24414677E-01 0.27207788E+03</pdfrwt>
<totfact> 0.27479445E+04</totfact>
</mgrwt>
</event>
<event>
 4    0  0.1216473E-001  0.3873577E+03  0.7546771E-02  0.1048247E+00
         21   -1    0    0  502  501  0.00000000000E+00  0.00000000000E+00  0.29710348175E+03  0.29710348175E+03  0.00000000000E+00 0. -1.
         21   -1    0    0  503  502 -0.00000000000E+00 -0.00000000000E+00 -0.70473807320E+03  0.70473807320E+03  0.00000000000E+00 0. -1.
         25    1    1    2    0    0  0.10214888987E+03 -0.35211734673E+03 -0.49144363142E+03  0.62574984174E+03  0.12500000000E+03 0.  0.
         21    1    1    2  503  501 -0.10214888987E+03  0.35211734673E+03  0.83809039973E+02  0.37609171322E+03  0.00000000000E+00 0. -1.
<mgrwt>
<rscale>  3 0.38735774E+03</rscale>
<asrwt>0</asrwt>
<pdfrwt beam="1">  1       21 0.45708228E-01 0.38735774E+03</pdfrwt>
<pdfrwt beam="2">  1       21 0.10842124E+00 0.38735774E+03</pdfrwt>
<totfact> 0.27577199E+03</totfact>
</mgrwt>
</event>
<event>
 4    0  0.1005289E-001  0.2359864E+03  0.7546771E-02  0.1122496E+00
         21   -1    0    0  503  501  0.00000000000E+00  0.00000000000E+00  0.44123583831E+03  0.44123583831E+03  0.00000000000E+00 0. -1.
         21   -1    0    0  501  502 -0.00000000000E+00 -0.00000000000E+00 -0.11032166974E+04  0.11032166974E+04  0.00000000000E+00 0. -1.
         25    1    1    2    0    0  0.18277086703E+03 -0.81605044377E+02 -0.10669401231E+04  0.10927263149E+04  0.12500000000E+03 0.  0.
         21    1    1    2  503  502 -0.18277086703E+03  0.81605044377E+02  0.40495926396E+03  0.45172622081E+03  0.00000000000E+00 0. -1.
<mgrwt>
<rscale>  3 0.23598638E+03</rscale>
<asrwt>0</asrwt>
<pdfrwt beam="1">  1       21 0.67882438E-01 0.23598638E+03</pdfrwt>
<pdfrwt beam="2">  1       21 0.16972564E+00 0.23598638E+03</pdfrwt>
<totfact> 0.40514892E+02</totfact>
</mgrwt>
</event>
<event>
 4    0  0.1291588E-001  0.2401073E+03  0.7546771E-02  0.1119721E+00
         21   -1    0    0  502  501  0.00000000000E+00  0.00000000000E+00  0.28165903415E+03  0.28165903415E+03  0.00000000000E+00 0.  1.
         21   -1    0    0  503  502 -0.00000000000E+00 -0.00000000000E+00 -0.98236368940E+03  0.98236368940E+03  0.00000000000E+00 0.  1.
         25    1    1    2    0    0 -0.47872880367E+02  0.19933570193E+03 -0.92763511015E+03  0.95820584026E+03  0.12500000000E+03 0.  0.
         21    1    1    2  503  501  0.47872880367E+02 -0.19933570193E+03  0.22693045490E+03  0.30581688328E+03  0.00000000000E+00 0.  1.
<mgrwt>
<rscale>  3 0.24010734E+03</rscale>
<asrwt>0</asrwt>
<pdfrwt beam="1">  1       21 0.43332159E-01 0.24010734E+03</pdfrwt>
<pdfrwt beam="2">  1       21 0.15113288E+00 0.24010734E+03</pdfrwt>
<totfact> 0.14364802E+03</totfact>
</mgrwt>
</event>
<event>
 4    0  0.1052406E-001  0.2772585E+03  0.7546771E-02  0.1097196E+00
         21   -1    0    0  502  501  0.00000000000E+00  0.00000000000E+00  0.97691750300E+02  0.97691750300E+02  0.00000000000E+00 0.  1.
         21   -1    0    0  503  502 -0.00000000000E+00 -0.00000000000E+00 -0.12113820011E+04  0.12113820011E+04  0.00000000000E+00 0.  1.
         25    1    1    2    0    0  0.22577546221E+03  0.10135438530E+03 -0.99816411885E+03  0.10359555391E+04  0.12500000000E+03 0.  0.
         21    1    1    2  503  501 -0.22577546221E+03 -0.10135438530E+03 -0.11552613197E+03  0.27311821236E+03  0.00000000000E+00 0.  1.
<mgrwt>
<rscale>  3 0.27725849E+03</rscale>
<asrwt>0</asrwt>
<pdfrwt beam="1">  1       21 0.15029502E-01 0.27725849E+03</pdfrwt>
<pdfrwt beam="2">  1       21 0.18636644E+00 0.27725849E+03</pdfrwt>
<totfact> 0.60511913E+03</totfact>
</mgrwt>
</event>
<event>
 4    0  0.1212218E-001  0.2527679E+03  0.7546771E-02  0.1111568E+00
         21   -1    0    0  503  501  0.00000000000E+00  0.00000000000E+00  0.46279691208E+02  0.46279691208E+02  0.00000000000E+00 0. -1.
         21   -1    0    0  501  502 -0.00000000000E+00 -0.00000000000E+00 -0.15145664753E+04  0.15145664753E+04  0.00000000000E+00 0. -1.
         25    1    1    2    0    0 -0.18751950211E+03 -0.11446859687E+03 -0.11267199664E+04  0.11547248616E+04  0.12500000000E+03 0.  0.
         21    1    1    2  503  502  0.18751950211E+03  0.11446859687E+03 -0.34156681769E+03  0.40612130489E+03  0.00000000000E+00 0. -1.
<mgrwt>
<rscale>  3 0.25276792E+03</rscale>
<asrwt>0</asrwt>
<pdfrwt beam="1">  1       21 0.71199531E-02 0.25276792E+03</pdfrwt>
<pdfrwt beam="2">  1       21 0.23301021E+00 0.25276792E+03</pdfrwt>
<totfact> 0.11745341E+04</totfact>
</mgrwt>
</event>
<event>
 4    0  0.1501378E-001  0.2390247E+03  0.7546771E-02  0.1120444E+00
         21   -1    0    0  503  501  0.00000000000E+00  0.00000000000E+00  0.22678548395E+04  0.22678548395E+04  0.00000000000E+00 0.  1.
         21   -1    0    0  501  502 -0.00000000000E+00 -0.00000000000E+00 -0.15098094008E+03  0.15098094008E+03  0.00000000000E+00 0. -1.
         25    1    1    2    0    0  0.16861922810E+03 -0.11434746595E+03 -0.48502523400E+02  0.24389604718E+03  0.12500000000E+03 0.  0.
         21    1    1    2  503  502 -0.16861922810E+03  0.11434746595E+03  0.21653764228E+04  0.21749397323E+04  0.00000000000E+00 0.  1.
<mgrwt>
<rscale>  3 0.23902466E+03</rscale>
<asrwt>0</asrwt>
<pdfrwt beam="1">  1       21 0.34890072E+00 0.23902466E+03</pdfrwt>
<pdfrwt beam="2">  1       21 0.23227839E-01 0.23902466E+03</pdfrwt>
<totfact> 0.28909672E+02</totfact>
</mgrwt>
</event>
<event>
 4    0  0.1533715E-001  0.2564958E+03  0.7546771E-02  0.1109267E+00
         21   -1    0    0  502  501  0.00000000000E+00  0.00000000000E+00  0.32236453637E+03  0.32236453637E+03  0.00000000000E+00 0. -1.
         21   -1    0    0  503  502 -0.00000000000E+00 -0.00000000000E+00 -0.17903096114E+03  0.17903096114E+03  0.00000000000E+00 0. -1.
         25    1    1    2    0    0 -0.15497874724E+03  0.16169932847E+03  0.76315003291E+02  0.26760804295E+03  0.12500000000E+03 0.  0.
         21    1    1    2  503  501  0.15497874724E+03 -0.16169932847E+03  0.67018571944E+02  0.23378745456E+03  0.00000000000E+00 0. -1.
<mgrwt>
<rscale>  3 0.25649578E+03</rscale>
<asrwt>0</asrwt>
<pdfrwt beam="1">  1       21 0.49594544E-01 0.25649578E+03</pdfrwt>
<pdfrwt beam="2">  1       21 0.27543225E-01 0.25649578E+03</pdfrwt>
<totfact> 0.47379241E+04</totfact>
</mgrwt>
</event>
<event>
 4    0  0.1139860E-001  0.3970854E+03  0.7546771E-02  0.1044794E+00
         21   -1    0    0  503  501  0.00000000000E+00  0.00000000000E+00  0.10590747424E+03  0.10590747424E+03  0.00000000000E+00 0. -1.
         21   -1    0    0  501  502 -0.00000000000E+00 -0.00000000000E+00 -0.14902730067E+04  0.14902730067E+04  0.00000000000E+00 0. -1.
         25    1    1    2    0    0  0.36324456609E+03  0.10052459007E+03 -0.52892275948E+03  0.66138951722E+03  0.12500000000E+03 0.  0.
         21    1    1    2  503  502 -0.36324456609E+03 -0.10052459007E+03 -0.85544277301E+03  0.93479096374E+03  0.00000000000E+00 0. -1.
<mgrwt>
<rscale>  3 0.39708539E+03</rscale>
<asrwt>0</asrwt>
<pdfrwt beam="1">  1       21 0.16293458E-01 0.39708539E+03</pdfrwt>
<pdfrwt beam="2">  1       21 0.22927276E+00 0.39708539E+03</pdfrwt>
<totfact> 0.25698527E+03</totfact>
</mgrwt>
</event>
<event>
 4    0  0.1021106E-001  0.3513676E+03  0.7546771E-02  0.1062055E+00
         21   -1    0    0  502  501  0.00000000000E+00  0.00000000000E+00  0.60327372813E+02  0.60327372813E+02  0.00000000000E+00 0.  1.
         21   -1    0    0  503  502 -0.00000000000E+00 -0.00000000000E+00 -0.19608458319E+04  0.19608458319E+04  0.00000000000E+00 0.  1.
         25    1    1    2    0    0  0.92612212285E+02 -0.31505105773E+03 -0.82685519035E+03  0.89841454610E+03  0.12500000000E+03 0.  0.
         21    1    1    2  503  501 -0.92612212285E+02  0.31505105773E+03 -0.10736632687E+04  0.11227586586E+04  0.00000000000E+00 0.  1.
<mgrwt>
<rscale>  3 0.35136760E+03</rscale>
<asrwt>0</asrwt>
<pdfrwt beam="1">  1       21 0.92811341E-02 0.35136760E+03</pdfrwt>
<pdfrwt beam="2">  1       21 0.30166860E+00 0.35136760E+03</pdfrwt>
<totfact> 0.26827823E+03</totfact>
</mgrwt>
</event>
<event>
 4    0  0.1934535E-001  0.2423434E+03  0.7546771E-02  0.1118241E+00
         21   -1    0    0  503  501  0.00000000000E+00  0.00000000000E+00  0.38246131014E+03  0.38246131014E+03  0.00000000000E+00 0.  1.
         21   -1    0    0  501  502 -0.00000000000E+00 -0.00000000000E+00 -0.44635224400E+03  0.44635224400E+03  0.00000000000E+00 0. -1.
         25    1    1    2    0    0 -0.40350904276E+02 -0.20365937814E+03 -0.37995251830E+03  0.45065979846E+03  0.12500000000E+03 0.  0.
         21    1    1    2  503  502  0.40350904276E+02  0.20365937814E+03  0.31606158444E+03  0.37815375569E+03  0.00000000000E+00 0.  1.
<mgrwt>
<rscale>  3 0.24234343E+03</rscale>
<asrwt>0</asrwt>
<pdfrwt beam="1">  1       21 0.58840202E-01 0.24234343E+03</pdfrwt>
<pdfrwt beam="2">  1       21 0.68669575E-01 0.24234343E+03</pdfrwt>
<totfact> 0.50404323E+03</totfact>
</mgrwt>
</event>
<event>
 4    0  0.1005289E-001  0.2362565E+03  0.7546771E-02  0.1122312E+00
         21   -1    0    0  502  501  0.00000000000E+00  0.00000000000E+00  0.17352614989E+03  0.17352614989E+03  0.00000000000E+00 0.  1.
         21   -1    0    0  503  502 -0.00000000000E+00 -0.00000000000E+00 -0.32860106603E+03  0.32860106603E+03  0.00000000000E+00 0. -1.
         25    1    1    2    0    0 -0.14012497796E+02  0.19998947178E+03 -0.18415414698E+03  0.29954947632E+03  0.12500000000E+03 0.  0.
         21    1    1    2  503  501  0.14012497796E+02 -0.19998947178E+03  0.29079230834E+02  0.20257773960E+03  0.00000000000E+00 0.  1.
<mgrwt>
<rscale>  3 0.23625651E+03</rscale>
<asrwt>0</asrwt>
<pdfrwt beam="1">  1       21 0.26696331E-01 0.23625651E+03</pdfrwt>
<pdfrwt beam="2">  1       21 0.50554010E-01 0.23625651E+03</pdfrwt>
<totfact> 0.48747357E+04</totfact>
</mgrwt>
</event>
<event>
 4    0  0.1160123E-001  0.4336884E+03  0.7546771E-02  0.1032701E+00
         21   -1    0    0  503  501  0.00000000000E+00  0.00000000000E+00  0.34062292091E+03  0.34062292091E+03  0.00000000000E+00 0. -1.
         21   -1    0    0  501  502 -0.00000000000E+00 -0.00000000000E+00 -0.74660636690E+03  0.74660636690E+03  0.00000000000E+00 0. -1.
         25    1    1    2    0    0  0.39993920836E+03  0.11184467948E+03 -0.49954477043E+03  0.66153652989E+03  0.12500000000E+03 0.  0.
         21    1    1    2  503  502 -0.39993920836E+03 -0.11184467948E+03  0.93561324449E+02  0.42569275792E+03  0.00000000000E+00 0. -1.
<mgrwt>
<rscale>  3 0.43368837E+03</rscale>
<asrwt>0</asrwt>
<pdfrwt beam="1">  1       21 0.52403526E-01 0.43368837E+03</pdfrwt>
<pdfrwt beam="2">  1       21 0.11486252E+00 0.43368837E+03</pdfrwt>
<totfact> 0.17553039E+03</totfact>
</mgrwt>
</event>
<event>
 4    0  0.1013320E-001  0.2854470E+03  0.7546771E-02  0.1092751E+00
         21   -1    0    0  503  501  0.00000000000E+00  0.00000000000E+00  0.33341707820E+03  0.33341707820E+03  0.00000000000E+00 0. -1.
         21   -1    0    0  501  502 -0.00000000000E+00 -0.00000000000E+00 -0.10416044305E+04  0.10416044305E+04  0.00000000000E+00 0. -1.
         25    1    1    2    0    0  0.17134741634E+03 -0.19103674931E+03 -0.96837724955E+03  0.10095714309E+04  0.12500000000E+03 0.  0.
         21    1    1    2  503  502 -0.17134741634E+03  0.19103674931E+03  0.26018989729E+03  0.36545007775E+03  0.00000000000E+00 0. -1.
<mgrwt>
<rscale>  3 0.28544698E+03</rscale>
<asrwt>0</asrwt>
<pdfrwt beam="1">  1       21 0.51294935E-01 0.28544698E+03</pdfrwt>
<pdfrwt beam="2">  1       21 0.16024683E+00 0.28544698E+03</pdfrwt>
<totfact> 0.83321795E+02</totfact>
</mgrwt>
</event>
<event>
 4    0  0.1161753E-001  0.2434224E+03  0.7546771E-02  0.1117534E+00
         21   -1    0    0  503  501  0.00000000000E+00  0.00000000000E+00  0.23009706479E+03  0.23009706479E+03  0.00000000000E+00 0. -1.
         21   -1    0    0  501  502 -0.00000000000E+00 -0.00000000000E+00 -0.10604521252E+04  0.10604521252E+04  0.00000000000E+00 0. -1.
         25    1    1    2    0    0  0.18561128031E+03  0.95801362357E+02 -0.99515134289E+03  0.10244904312E+04  0.12500000000E+03 0.  0.
         21    1    1    2  503  502 -0.18561128031E+03 -0.95801362357E+02  0.16479628247E+03  0.26605875878E+03  0.00000000000E+00 0. -1.
<mgrwt>
<rscale>  3 0.24342237E+03</rscale>
<asrwt>0</asrwt>
<pdfrwt beam="1">  1       21 0.35399548E-01 0.24342237E+03</pdfrwt>
<pdfrwt beam="2">  1       21 0.16314648E+00 0.24342237E+03</pdfrwt>
<totfact> 0.17550495E+03</totfact>
</mgrwt>
</event>
<event>
 4    0  0.1005289E-001  0.2592444E+03  0.7546771E-02  0.1107598E+00
         21   -1    0    0  503  501  0.00000000000E+00  0.00000000000E+00  0.17810142996E+04  0.17810142996E+04  0.00000000000E+00 0.  1.
         21   -1    0    0  501  502 -0.00000000000E+00 -0.00000000000E+00 -0.24253226432E+03  0.24253226432E+03  0.00000000000E+00 0.  1.
         25    1    1    2    0    0 -0.15428801154E+03  0.16666690355E+03 -0.16348788873E+03  0.30648970130E+03  0.12500000000E+03 0.  0.
         21    1    1    2  503  502  0.15428801154E+03 -0.16666690355E+03  0.17019699241E+04  0.17170568627E+04  0.00000000000E+00 0.  1.
<mgrwt>
<rscale>  3 0.25924438E+03</rscale>
<asrwt>0</asrwt>
<pdfrwt beam="1">  1       21 0.27400219E+00 0.25924438E+03</pdfrwt>
<pdfrwt beam="2">  1       21 0.37312657E-01 0.25924438E+03</pdfrwt>
<totfact> 0.30743864E+02</totfact>
</mgrwt>
</event>
<event>
 4    0  0.1211758E-001  0.2537539E+03  0.7546771E-02  0.1110955E+00
         21   -1    0    0  502  501  0.00000000000E+00  0.00000000000E+00  0.52538126677E+02  0.52538126677E+02  0.00000000000E+00 0.  1.
         21   -1    0    0  503  502 -0.00000000000E+00 -0.00000000000E+00 -0.13765941839E+04  0.13765941839E+04  0.00000000000E+00 0.  1.
         25    1    1    2    0    0  0.85867427562E+02  0.20345223234E+03 -0.10334186473E+04  0.10641170643E+04  0.12500000000E+03 0.  0.
         21    1    1    2  503  501 -0.85867427562E+02 -0.20345223234E+03 -0.29063740992E+03  0.36501524627E+03  0.00000000000E+00 0.  1.
<mgrwt>
<rscale>  3 0.25375387E+03</rscale>
<asrwt>0</asrwt>
<pdfrwt beam="1">  1       21 0.80827894E-02 0.25375387E+03</pdfrwt>
<pdfrwt beam="2">  1       21 0.21178370E+00 0.25375387E+03</pdfrwt>
<totfact> 0.12736575E+04</totfact>
</mgrwt>
</event>
<event>
 4    0  0.1567336E-001  0.3796458E+03  0.7546771E-02  0.1051065E+00
         21   -1    0    0  503  501  0.00000000000E+00  0.00000000000E+00  0.24672418435E+03  0.24672418435E+03  0.00000000000E+00 0. -1.
         21   -1    0    0  501  502 -0.00000000000E+00 -0.00000000000E+00 -0.59409383758E+03  0.59409383758E+03  0.00000000000E+00 0. -1.
         25    1    1    2    0    0 -0.29949597955E+03  0.19699769706E+03 -0.29009784368E+03  0.47779461416E+03  0.12500000000E+03 0.  0.
         21    1    1    2  503  502  0.29949597955E+03 -0.19699769706E+03 -0.57271809548E+02  0.36302340776E+03  0.00000000000E+00 0. -1.
<mgrwt>
<rscale>  3 0.37964580E+03</rscale>
<asrwt>0</asrwt>
<pdfrwt beam="1">  1       21 0.37957567E-01 0.37964580E+03</pdfrwt>
<pdfrwt beam="2">  1       21 0.91399051E-01 0.37964580E+03</pdfrwt>
<totfact> 0.61348149E+03</totfact>
</mgrwt>
</event>
<event>
 4    0  0.1135693E-001  0.2604208E+03  0.7546771E-02  0.1106891E+00
         21   -1    0    0  502  501  0.00000000000E+00  0.00000000000E+00  0.22381880295E+04  0.22381880295E+04  0.00000000000E+00 0. -1.
         21   -1    0    0  503  502 -0.00000000000E+00 -0.00000000000E+00 -0.30786991357E+02  0.30786991357E+02  0.00000000000E+00 0. -1.
         25    1    1    2    0    0 -0.21312339693E+03  0.82294664240E+02  0.75349285446E+03  0.79722674052E+03  0.12500000000E+03 0.  0.
         21    1    1    2  503  501  0.21312339693E+03 -0.82294664240E+02  0.14539081837E+04  0.14717482803E+04  0.00000000000E+00 0. -1.
<mgrwt>
<rscale>  3 0.26042080E+03</rscale>
<asrwt>0</asrwt>
<pdfrwt beam="1">  1       21 0.34433649E+00 0.26042080E+03</pdfrwt>
<pdfrwt beam="2">  1       21 0.47364620E-02 0.26042080E+03</pdfrwt>
<totfact> 0.51748067E+03</totfact>
</mgrwt>
</event>
<event>
 4    0  0.1005289E-001  0.6051599E+03  0.7546771E-02  0.9894758E-01
         21   -1    0    0  502  501  0.00000000000E+00  0.00000000000E+00  0.41780717554E+03  0.41780717554E+03  0.00000000000E+00 0.  1.
         21   -1    0    0  503  502 -0.00000000000E+00 -0.00000000000E+00 -0.10929799105E+04  0.10929799105E+04  0.00000000000E+00 0.  1.
         25    1    1    2    0    0 -0.19324815728E+03 -0.55968626160E+03 -0.69091651887E+03  0.91846839781E+03  0.12500000000E+03 0.  0.
         21    1    1    2  503  501  0.19324815728E+03  0.55968626160E+03  0.15743783891E+02  0.59231868825E+03  0.00000000000E+00 0.  1.
<mgrwt>
<rscale>  3 0.60515995E+03</rscale>
<asrwt>0</asrwt>
<pdfrwt beam="1">  1       21 0.64278029E-01 0.60515995E+03</pdfrwt>
<pdfrwt beam="2">  1       21 0.16815075E+00 0.60515995E+03</pdfrwt>
<totfact> 0.38067358E+02</totfact>
</mgrwt>
</event>
<event>
 4    0  0.1153506E-001  0.2945012E+03  0.7546771E-02  0.1088022E+00
         21   -1    0    0  503  501  0.00000000000E+00  0.00000000000E+00  0.87458602081E+03  0.87458602081E+03  0.00000000000E+00 0. -1.
         21   -1    0    0  501  502 -0.00000000000E+00 -0.00000000000E+00 -0.24366435102E+03  0.24366435102E+03  0.00000000000E+00 0. -1.
         25    1    1    2    0    0 -0.26048493414E+03 -0.57039847347E+02 -0.12255216876E+03  0.31898272550E+03  0.12500000000E+03 0.  0.
         21    1    1    2  503  502  0.26048493414E+03  0.57039847347E+02  0.75347383855E+03  0.79926764634E+03  0.00000000000E+00 0. -1.
<mgrwt>
<rscale>  3 0.29450118E+03</rscale>
<asrwt>0</asrwt>
<pdfrwt beam="1">  1       21 0.13455169E+00 0.29450118E+03</pdfrwt>
<pdfrwt beam="2">  1       21 0.37486824E-01 0.29450118E+03</pdfrwt>
<totfact> 0.25210690E+03</totfact>
</mgrwt>
</event>
<event>
 4    0  0.1223142E-001  0.2541709E+03  0.7546771E-02  0.1110697E+00
         21   -1    0    0  502  501  0.00000000000E+00  0.00000000000E+00  0.90554955579E+02  0.90554955579E+02  0.00000000000E+00 0.  1.
         21   -1    0    0  503  502 -0.00000000000E+00 -0.00000000000E+00 -0.69014812748E+03  0.69014812748E+03  0.00000000000E+00 0.  1.
         25    1    1    2    0    0  0.21938727900E+03  0.29104063995E+02 -0.19808878067E+03  0.32224523232E+03  0.12500000000E+03 0.  0.
         21    1    1    2  503  501 -0.21938727900E+03 -0.29104063995E+02 -0.40150439123E+03  0.45845785073E+03  0.00000000000E+00 0.  1.
<mgrwt>
<rscale>  3 0.25417086E+03</rscale>
<asrwt>0</asrwt>
<pdfrwt beam="1">  1       21 0.13931531E-01 0.25417086E+03</pdfrwt>
<pdfrwt beam="2">  1       21 0.10617664E+00 0.25417086E+03</pdfrwt>
<totfact> 0.30908909E+04</totfact>
</mgrwt>
</event>
<event>
 4    0  0.1005289E-001  0.2361955E+03  0.7546771E-02  0.1122354E+00
         21   -1    0    0  502  501  0.00000000000E+00  0.00000000000E+00  0.16506231024E+04  0.16506231024E+04  0.00000000000E+00 0. -1.
         21   -1    0    0  503  502 -0.00000000000E+00 -0.00000000000E+00 -0.31314766727E+02  0.31314766727E+02  0.00000000000E+00 0.  1.
         25    1    1    2    0    0  0.11473457980E+03  0.16431456024E+03  0.63665580734E+03  0.67905737279E+03  0.12500000000E+03 0.  0.
         21    1    1    2  503  501 -0.11473457980E+03 -0.16431456024E+03  0.98265252837E+03  0.10028804964E+04  0.00000000000E+00 0. -1.
<mgrwt>
<rscale>  3 0.23619547E+03</rscale>
<asrwt>0</asrwt>
<pdfrwt beam="1">  1       21 0.25394195E+00 0.23619547E+03</pdfrwt>
<pdfrwt beam="2">  1       21 0.48176577E-02 0.23619547E+03</pdfrwt>
<totfact> 0.17416300E+04</totfact>
</mgrwt>
</event>
<event>
 4    0  0.1235950E-001  0.2512137E+03  0.7546771E-02  0.1112540E+00
         21   -1    0    0  502  501  0.00000000000E+00  0.00000000000E+00  0.85164828380E+02  0.85164828380E+02  0.00000000000E+00 0. -1.
         21   -1    0    0  503  502 -0.00000000000E+00 -0.00000000000E+00 -0.70950121901E+03  0.70950121901E+03  0.00000000000E+00 0. -1.
         25    1    1    2    0    0  0.11023974096E+02 -0.21762765155E+03 -0.21377479828E+03  0.32986055706E+03  0.12500000000E+03 0.  0.
         21    1    1    2  503  501 -0.11023974096E+02  0.21762765155E+03 -0.41056159236E+03  0.46480549033E+03  0.00000000000E+00 0. -1.
<mgrwt>
<rscale>  3 0.25121370E+03</rscale>
<asrwt>0</asrwt>
<pdfrwt beam="1">  1       21 0.13102281E-01 0.25121370E+03</pdfrwt>
<pdfrwt beam="2">  1       21 0.10915404E+00 0.25121370E+03</pdfrwt>
<totfact> 0.32351784E+04</totfact>
</mgrwt>
</event>
<event>
 4    0  0.1298559E-001  0.2437476E+03  0.7546771E-02  0.1117321E+00
         21   -1    0    0  503  501  0.00000000000E+00  0.00000000000E+00  0.37710254258E+03  0.37710254258E+03  0.00000000000E+00 0. -1.
         21   -1    0    0  501  502 -0.00000000000E+00 -0.00000000000E+00 -0.30135008798E+03  0.30135008798E+03  0.00000000000E+00 0. -1.
         25    1    1    2    0    0  0.20773012667E+03 -0.25221220395E+02 -0.21173740838E+03  0.32287094262E+03  0.12500000000E+03 0.  0.
         21    1    1    2  503  502 -0.20773012667E+03  0.25221220395E+02  0.28748986298E+03  0.35558168794E+03  0.00000000000E+00 0. -1.
<mgrwt>
<rscale>  3 0.24374765E+03</rscale>
<asrwt>0</asrwt>
<pdfrwt beam="1">  1       21 0.58015776E-01 0.24374765E+03</pdfrwt>
<pdfrwt beam="2">  1       21 0.46361552E-01 0.24374765E+03</pdfrwt>
<totfact> 0.12029332E+04</totfact>
</mgrwt>
</event>
<event>
 4    0  0.1496808E-001  0.3693427E+03  0.7546771E-02  0.1054945E+00
         21   -1    0    0  502  501  0.00000000000E+00  0.00000000000E+00  0.63533115697E+03  0.63533115697E+03  0.00000000000E+00 0.  1.
         21   -1    0    0  503  502 -0.00000000000E+00 -0.00000000000E+00 -0.20742893901E+03  0.20742893901E+03  0.00000000000E+00 0.  1.
         25    1    1    2    0    0 -0.14894823236E+03  0.31401191534E+03  0.15360974364E+03  0.40001251511E+03  0.12500000000E+03 0.  0.
         21    1    1    2  503  501  0.14894823236E+03 -0.31401191534E+03  0.27429247432E+03  0.44274758087E+03  0.00000000000E+00 0.  1.
<mgrwt>
<rscale>  3 0.36934274E+03</rscale>
<asrwt>0</asrwt>
<pdfrwt beam="1">  1       21 0.97743254E-01 0.36934274E+03</pdfrwt>
<pdfrwt beam="2">  1       21 0.31912145E-01 0.36934274E+03</pdfrwt>
<totfact> 0.74451075E+03</totfact>
</mgrwt>
</event>
<event>
 4    0  0.1421095E-001  0.3177117E+03  0.7546771E-02  0.1076707E+00
         21   -1    0    0  503  501  0.00000000000E+00  0.00000000000E+00  0.17321982850E+03  0.17321982850E+03  0.00000000000E+00 0.  1.
         21   -1    0    0  501  502 -0.00000000000E+00 -0.00000000000E+00 -0.88668382692E+03  0.88668382692E+03  0.00000000000E+00 0. -1.
         25    1    1    2    0    0 -0.29179931600E+03 -0.12996374014E+02 -0.69858256323E+03  0.76743621507E+03  0.12500000000E+03 0.  0.
         21    1    1    2  503  502  0.29179931600E+03  0.12996374014E+02 -0.14881435186E+02  0.29246744035E+03  0.00000000000E+00 0.  1.
<mgrwt>
<rscale>  3 0.31771173E+03</rscale>
<asrwt>0</asrwt>
<pdfrwt beam="1">  1       21 0.26649205E-01 0.31771173E+03</pdfrwt>
<pdfrwt beam="2">  1       21 0.13641290E+00 0.31771173E+03</pdfrwt>
<totfact> 0.47253712E+03</totfact>
</mgrwt>
</event>
<event>
 4    0  0.1022248E-001  0.3456677E+03  0.7546771E-02  0.1064407E+00
         21   -1    0    0  503  501  0.00000000000E+00  0.00000000000E+00  0.15665010286E+03  0.15665010286E+03  0.00000000000E+00 0. -1.
         21   -1    0    0  501  502 -0.00000000000E+00 -0.00000000000E+00 -0.14316661335E+04  0.14316661335E+04  0.00000000000E+00 0. -1.
         25    1    1    2    0    0 -0.16636975367E+03 -0.27601130877E+03 -0.12114912669E+04  0.12598401594E+04  0.12500000000E+03 0.  0.
         21    1    1    2  503  502  0.16636975367E+03  0.27601130877E+03 -0.63524763708E+02  0.32847607692E+03  0.00000000000E+00 0. -1.
<mgrwt>
<rscale>  3 0.34566767E+03</rscale>
<asrwt>0</asrwt>
<pdfrwt beam="1">  1       21 0.24100017E-01 0.34566767E+03</pdfrwt>
<pdfrwt beam="2">  1       21 0.22025632E+00 0.34566767E+03</pdfrwt>
<totfact> 0.14351242E+03</totfact>
</mgrwt>
</event>
<event>
 4    0  0.1022505E-001  0.2471533E+03  0.7546771E-02  0.1115117E+00
         21   -1    0    0  502  501  0.00000000000E+00  0.00000000000E+00  0.10021667513E+04  0.10021667513E+04  0.00000000000E+00 0. -1.
         21   -1    0    0  503  502 -0.00000000000E+00 -0.00000000000E+00 -0.12707689658E+03  0.12707689658E+03  0.00000000000E+00 0. -1.
         25    1    1    2    0    0  0.81177034006E+02  0.19715488877E+03  0.19987043373E+02  0.24796016398E+03  0.12500000000E+03 0.  0.
         21    1    1    2  503  501 -0.81177034006E+02 -0.19715488877E+03  0.85510281132E+03  0.88128348387E+03  0.00000000000E+00 0. -1.
<mgrwt>
<rscale>  3 0.24715331E+03</rscale>
<asrwt>0</asrwt>
<pdfrwt beam="1">  1       21 0.15417950E+00 0.24715331E+03</pdfrwt>
<pdfrwt beam="2">  1       21 0.19550292E-01 0.24715331E+03</pdfrwt>
<totfact> 0.64298417E+03</totfact>
</mgrwt>
</event>
<event>
 4    0  0.1348565E-001  0.2461187E+03  0.7546771E-02  0.1115783E+00
         21   -1    0    0  502  501  0.00000000000E+00  0.00000000000E+00  0.25170845126E+03  0.25170845126E+03  0.00000000000E+00 0. -1.
         21   -1    0    0  503  502 -0.00000000000E+00 -0.00000000000E+00 -0.33803193606E+03  0.33803193606E+03  0.00000000000E+00 0. -1.
         25    1    1    2    0    0 -0.16767592774E+03  0.12974671811E+03 -0.22739187694E+03  0.33508430775E+03  0.12500000000E+03 0.  0.
         21    1    1    2  503  501  0.16767592774E+03 -0.12974671811E+03  0.14106839214E+03  0.25465607957E+03  0.00000000000E+00 0. -1.
<mgrwt>
<rscale>  3 0.24611873E+03</rscale>
<asrwt>0</asrwt>
<pdfrwt beam="1">  1       21 0.38724377E-01 0.24611873E+03</pdfrwt>
<pdfrwt beam="2">  1       21 0.52004913E-01 0.24611873E+03</pdfrwt>
<totfact> 0.21925977E+04</totfact>
</mgrwt>
</event>
<event>
 4    0  0.1278225E-001  0.2940143E+03  0.7546771E-02  0.1088272E+00
         21   -1    0    0  502  501  0.00000000000E+00  0.00000000000E+00  0.55305767988E+02  0.55305767988E+02  0.00000000000E+00 0. -1.
         21   -1    0    0  503  502 -0.00000000000E+00 -0.00000000000E+00 -0.14378472092E+04  0.14378472092E+04  0.00000000000E+00 0. -1.
         25    1    1    2    0    0  0.16612629451E+03 -0.20789776443E+03 -0.63817393785E+03  0.70264528828E+03  0.12500000000E+03 0.  0.
         21    1    1    2  503  501 -0.16612629451E+03  0.20789776443E+03 -0.74436750341E+03  0.79050768896E+03  0.00000000000E+00 0. -1.
<mgrwt>
<rscale>  3 0.29401433E+03</rscale>
<asrwt>0</asrwt>
<pdfrwt beam="1">  1       21 0.85085797E-02 0.29401433E+03</pdfrwt>
<pdfrwt beam="2">  1       21 0.22120726E+00 0.29401433E+03</pdfrwt>
<totfact> 0.99017676E+03</totfact>
</mgrwt>
</event>
<event>
 4    0  0.1005289E-001  0.2626484E+03  0.7546771E-02  0.1105562E+00
         21   -1    0    0  503  501  0.00000000000E+00  0.00000000000E+00  0.58008820632E+03  0.58008820632E+03  0.00000000000E+00 0.  1.
         21   -1    0    0  501  502 -0.00000000000E+00 -0.00000000000E+00 -0.12639477240E+03  0.12639477240E+03  0.00000000000E+00 0. -1.
         25    1    1    2    0    0 -0.78551605998E+02  0.21722992795E+03  0.93918848487E+02  0.27893538051E+03  0.12500000000E+03 0.  0.
         21    1    1    2  503  502  0.78551605998E+02 -0.21722992795E+03  0.35977458544E+03  0.42754759820E+03  0.00000000000E+00 0.  1.
<mgrwt>
<rscale>  3 0.26264843E+03</rscale>
<asrwt>0</asrwt>
<pdfrwt beam="1">  1       21 0.89244338E-01 0.26264843E+03</pdfrwt>
<pdfrwt beam="2">  1       21 0.19445350E-01 0.26264843E+03</pdfrwt>
<totfact> 0.25130625E+04</totfact>
</mgrwt>
</event>
<event>
 4    0  0.1005289E-001  0.2388162E+03  0.7546771E-02  0.1120584E+00
         21   -1    0    0  502  501  0.00000000000E+00  0.00000000000E+00  0.48284331354E+03  0.48284331354E+03  0.00000000000E+00 0. -1.
         21   -1    0    0  503  502 -0.00000000000E+00 -0.00000000000E+00 -0.11290959034E+03  0.11290959034E+03  0.00000000000E+00 0.  1.
         25    1    1    2    0    0 -0.17660209438E+03  0.10109333639E+03  0.29349138475E+03  0.37837858730E+03  0.12500000000E+03 0.  0.
         21    1    1    2  503  501  0.17660209438E+03 -0.10109333639E+03  0.76442338450E+02  0.21737431658E+03  0.00000000000E+00 0. -1.
<mgrwt>
<rscale>  3 0.23881617E+03</rscale>
<asrwt>0</asrwt>
<pdfrwt beam="1">  1       21 0.74283586E-01 0.23881617E+03</pdfrwt>
<pdfrwt beam="2">  1       21 0.17370706E-01 0.23881617E+03</pdfrwt>
<totfact> 0.47657908E+04</totfact>
</mgrwt>
</event>
<event>
 4    0  0.1454090E-001  0.3051535E+03  0.7546771E-02  0.1082692E+00
         21   -1    0    0  503  501  0.00000000000E+00  0.00000000000E+00  0.12801081470E+03  0.12801081470E+03  0.00000000000E+00 0.  1.
         21   -1    0    0  501  502 -0.00000000000E+00 -0.00000000000E+00 -0.80904165710E+03  0.80904165710E+03  0.00000000000E+00 0.  1.
         25    1    1    2    0    0  0.24300324826E+03  0.13580539956E+03 -0.55088256902E+03  0.62975415050E+03  0.12500000000E+03 0.  0.
         21    1    1    2  503  502 -0.24300324826E+03 -0.13580539956E+03 -0.13014827338E+03  0.30729832131E+03  0.00000000000E+00 0.  1.
<mgrwt>
<rscale>  3 0.30515354E+03</rscale>
<asrwt>0</asrwt>
<pdfrwt beam="1">  1       21 0.19693971E-01 0.30515354E+03</pdfrwt>
<pdfrwt beam="2">  1       21 0.12446795E+00 0.30515354E+03</pdfrwt>
<totfact> 0.10730347E+04</totfact>
</mgrwt>
</event>
<event>
 4    0  0.1484143E-001  0.2822327E+03  0.7546771E-02  0.1094476E+00
         21   -1    0    0  502  501  0.00000000000E+00  0.00000000000E+00  0.41002556396E+03  0.41002556396E+03  0.00000000000E+00 0.  1.
         21   -1    0    0  503  502 -0.00000000000E+00 -0.00000000000E+00 -0.26290684977E+03  0.26290684977E+03  0.00000000000E+00 0.  1.
         25    1    1    2    0    0 -0.90277681991E+01  0.25288102250E+03 -0.11847790073E+03  0.30609202064E+03  0.12500000000E+03 0.  0.
         21    1    1    2  503  501  0.90277681991E+01 -0.25288102250E+03  0.26559661491E+03  0.36684039308E+03  0.00000000000E+00 0.  1.
<mgrwt>
<rscale>  3 0.28223273E+03</rscale>
<asrwt>0</asrwt>
<pdfrwt beam="1">  1       21 0.63080856E-01 0.28223273E+03</pdfrwt>
<pdfrwt beam="2">  1       21 0.40447208E-01 0.28223273E+03</pdfrwt>
<totfact> 0.13034037E+04</totfact>
</mgrwt>
</event>
<event>
 4    0  0.1306721E-001  0.3441802E+03  0.7546771E-02  0.1065029E+00
         21   -1    0    0  503  501  0.00000000000E+00  0.00000000000E+00  0.97809105025E+03  0.97809105025E+03  0.00000000000E+00 0. -1.
         21   -1    0    0  501  502 -0.00000000000E+00 -0.00000000000E+00 -0.14378572108E+03  0.14378572108E+03  0.00000000000E+00 0. -1.
         25    1    1    2    0    0 -0.28594109568E+02  0.31940164937E+03  0.16924642589E+03  0.38354190045E+03  0.12500000000E+03 0.  0.
         21    1    1    2  503  502  0.28594109568E+02 -0.31940164937E+03  0.66505890328E+03  0.73833487088E+03  0.00000000000E+00 0. -1.
<mgrwt>
<rscale>  3 0.34418024E+03</rscale>
<asrwt>0</asrwt>
<pdfrwt beam="1">  1       21 0.15047554E+00 0.34418024E+03</pdfrwt>
<pdfrwt beam="2">  1       21 0.22120881E-01 0.34418024E+03</pdfrwt>
<totfact> 0.51486803E+03</totfact>
</mgrwt>
</event>
<event>
 4    0  0.1549571E-001  0.2537297E+03  0.7546771E-02  0.1110970E+00
         21   -1    0    0  502  501  0.00000000000E+00  0.00000000000E+00  0.23347001407E+03  0.23347001407E+03  0.00000000000E+00 0.  1.
         21   -1    0    0  503  502 -0.00000000000E+00 -0.00000000000E+00 -0.32101921681E+03  0.32101921681E+03  0.00000000000E+00 0.  1.
         25    1    1    2    0    0  0.16670617808E+03 -0.14478543567E+03 -0.18411718137E+03  0.31349307595E+03  0.12500000000E+03 0.  0.
         21    1    1    2  503  501 -0.16670617808E+03  0.14478543567E+03  0.96567978637E+02  0.24099615493E+03  0.00000000000E+00 0.  1.
<mgrwt>
<rscale>  3 0.25372972E+03</rscale>
<asrwt>0</asrwt>
<pdfrwt beam="1">  1       21 0.35918464E-01 0.25372972E+03</pdfrwt>
<pdfrwt beam="2">  1       21 0.49387571E-01 0.25372972E+03</pdfrwt>
<totfact> 0.28338099E+04</totfact>
</mgrwt>
</event>
<event>
 4    0  0.1444836E-001  0.4563627E+03  0.7546771E-02  0.1025841E+00
         21   -1    0    0  503  501  0.00000000000E+00  0.00000000000E+00  0.77317701538E+03  0.77317701538E+03  0.00000000000E+00 0.  1.
         21   -1    0    0  501  502 -0.00000000000E+00 -0.00000000000E+00 -0.27758690799E+03  0.27758690799E+03  0.00000000000E+00 0.  1.
         25    1    1    2    0    0 -0.69577807259E+02  0.43335990319E+03  0.11697338970E+03  0.47111532649E+03  0.12500000000E+03 0.  0.
         21    1    1    2  503  502  0.69577807259E+02 -0.43335990319E+03  0.37861671769E+03  0.57964859688E+03  0.00000000000E+00 0.  1.
<mgrwt>
<rscale>  3 0.45636266E+03</rscale>
<asrwt>0</asrwt>
<pdfrwt beam="1">  1       21 0.11895031E+00 0.45636266E+03</pdfrwt>
<pdfrwt beam="2">  1       21 0.42705678E-01 0.45636266E+03</pdfrwt>
<totfact> 0.24542808E+03</totfact>
</mgrwt>
</event>
<event>
 4    0  0.1005289E-001  0.3739033E+03  0.7546771E-02  0.1053210E+00
         21   -1    0    0  503  501  0.00000000000E+00  0.00000000000E+00  0.11764836826E+03  0.11764836826E+03  0.00000000000E+00 0.  1.
         21   -1    0    0  501  502 -0.00000000000E+00 -0.00000000000E+00 -0.14361314916E+04  0.14361314916E+04  0.00000000000E+00 0.  1.
         25    1    1    2    0    0 -0.21632840066E+03 -0.27817381542E+03 -0.31064449214E+03  0.48611073740E+03  0.12500000000E+03 0.  0.
         21    1    1    2  503  502  0.21632840066E+03  0.27817381542E+03 -0.10078386312E+04  0.10676691225E+04  0.00000000000E+00 0.  1.
<mgrwt>
<rscale>  3 0.37390326E+03</rscale>
<asrwt>0</asrwt>
<pdfrwt beam="1">  1       21 0.18099749E-01 0.37390326E+03</pdfrwt>
<pdfrwt beam="2">  1       21 0.22094330E+00 0.37390326E+03</pdfrwt>
<totfact> 0.24108953E+03</totfact>
</mgrwt>
</event>
<event>
 4    0  0.1835570E-001  0.2636837E+03  0.7546771E-02  0.1104950E+00
         21   -1    0    0  502  501  0.00000000000E+00  0.00000000000E+00  0.31355015497E+03  0.31355015497E+03  0.00000000000E+00 0.  1.
         21   -1    0    0  503  502 -0.00000000000E+00 -0.00000000000E+00 -0.20678285583E+03  0.20678285583E+03  0.00000000000E+00 0.  1.
         25    1    1    2    0    0  0.21699198886E+03 -0.82574691387E+02 -0.25864654518E+01  0.26369640250E+03  0.12500000000E+03 0.  0.
         21    1    1    2  503  501 -0.21699198886E+03  0.82574691387E+02  0.10935376459E+03  0.25663660830E+03  0.00000000000E+00 0.  1.
<mgrwt>
<rscale>  3 0.26368372E+03</rscale>
<asrwt>0</asrwt>
<pdfrwt beam="1">  1       21 0.48238486E-01 0.26368372E+03</pdfrwt>
<pdfrwt beam="2">  1       21 0.31812747E-01 0.26368372E+03</pdfrwt>
<totfact> 0.37747916E+04</totfact>
</mgrwt>
</event>
<event>
 4    0  0.1005289E-001  0.2529813E+03  0.7546771E-02  0.1111435E+00
         21   -1    0    0  502  501  0.00000000000E+00  0.00000000000E+00  0.22465025179E+04  0.22465025179E+04  0.00000000000E+00 0. -1.
         21   -1    0    0  503  502 -0.00000000000E+00 -0.00000000000E+00 -0.11891323224E+03  0.11891323224E+03  0.00000000000E+00 0. -1.
         25    1    1    2    0    0  0.21533399479E+03 -0.44786278699E+02  0.28212878315E+02  0.25454961516E+03  0.12500000000E+03 0.  0.
         21    1    1    2  503  501 -0.21533399479E+03  0.44786278699E+02  0.20993764073E+04  0.21108661349E+04  0.00000000000E+00 0. -1.
<mgrwt>
<rscale>  3 0.25298130E+03</rscale>
<asrwt>0</asrwt>
<pdfrwt beam="1">  1       21 0.34561574E+00 0.25298130E+03</pdfrwt>
<pdfrwt beam="2">  1       21 0.18294345E-01 0.25298130E+03</pdfrwt>
<totfact> 0.46630700E+02</totfact>
</mgrwt>
</event>
<event>
 4    0  0.1448053E-001  0.3137100E+03  0.7546771E-02  0.1078581E+00
         21   -1    0    0  503  501  0.00000000000E+00  0.00000000000E+00  0.99288641261E+02  0.99288641261E+02  0.00000000000E+00 0. -1.
         21   -1    0    0  501  502 -0.00000000000E+00 -0.00000000000E+00 -0.10337391888E+04  0.10337391888E+04  0.00000000000E+00 0. -1.
         25    1    1    2    0    0 -0.26930658818E+03 -0.10130607821E+03 -0.68020792731E+03  0.74906393872E+03  0.12500000000E+03 0.  0.
         21    1    1    2  503  502  0.26930658818E+03  0.10130607821E+03 -0.25424262026E+03  0.38396389137E+03  0.00000000000E+00 0. -1.
<mgrwt>
<rscale>  3 0.31370999E+03</rscale>
<asrwt>0</asrwt>
<pdfrwt beam="1">  1       21 0.15275177E-01 0.31370999E+03</pdfrwt>
<pdfrwt beam="2">  1       21 0.15903679E+00 0.31370999E+03</pdfrwt>
<totfact> 0.90054467E+03</totfact>
</mgrwt>
</event>
<event>
 4    0  0.1005289E-001  0.3601969E+03  0.7546771E-02  0.1058506E+00
         21   -1    0    0  502  501  0.00000000000E+00  0.00000000000E+00  0.20803682212E+04  0.20803682212E+04  0.00000000000E+00 0. -1.
         21   -1    0    0  503  502 -0.00000000000E+00 -0.00000000000E+00 -0.12723403190E+03  0.12723403190E+03  0.00000000000E+00 0.  1.
         25    1    1    2    0    0  0.86248763668E+02  0.32661588590E+03  0.18017350500E+03  0.40274592246E+03  0.12500000000E+03 0.  0.
         21    1    1    2  503  501 -0.86248763668E+02 -0.32661588590E+03  0.17729606843E+04  0.18048563306E+04  0.00000000000E+00 0. -1.
<mgrwt>
<rscale>  3 0.36019687E+03</rscale>
<asrwt>0</asrwt>
<pdfrwt beam="1">  1       21 0.32005662E+00 0.36019687E+03</pdfrwt>
<pdfrwt beam="2">  1       21 0.19574468E-01 0.36019687E+03</pdfrwt>
<totfact> 0.52808391E+02</totfact>
</mgrwt>
</event>
<event>
 4    0  0.1433242E-001  0.2569295E+03  0.7546771E-02  0.1109002E+00
         21   -1    0    0  502  501  0.00000000000E+00  0.00000000000E+00  0.62337344853E+03  0.62337344853E+03  0.00000000000E+00 0.  1.
         21   -1    0    0  503  502 -0.00000000000E+00 -0.00000000000E+00 -0.93639519886E+02  0.93639519886E+02  0.00000000000E+00 0.  1.
         25    1    1    2    0    0  0.40444864781E+02  0.22079851091E+03  0.25169585440E+03  0.35967147875E+03  0.12500000000E+03 0.  0.
         21    1    1    2  503  501 -0.40444864781E+02 -0.22079851091E+03  0.27803807425E+03  0.35734148967E+03  0.00000000000E+00 0.  1.
<mgrwt>
<rscale>  3 0.25692950E+03</rscale>
<asrwt>0</asrwt>
<pdfrwt beam="1">  1       21 0.95903605E-01 0.25692950E+03</pdfrwt>
<pdfrwt beam="2">  1       21 0.14406080E-01 0.25692950E+03</pdfrwt>
<totfact> 0.37066976E+04</totfact>
</mgrwt>
</event>
<event>
 4    0  0.1218257E-001  0.2461787E+03  0.7546771E-02  0.1115744E+00
         21   -1    0    0  503  501  0.00000000000E+00  0.00000000000E+00  0.48519229890E+03  0.48519229890E+03  0.00000000000E+00 0.  1.
         21   -1    0    0  501  502 -0.00000000000E+00 -0.00000000000E+00 -0.29517068966E+03  0.29517068966E+03  0.00000000000E+00 0.  1.
         25    1    1    2    0    0  0.21122436215E+03  0.19058986651E+02 -0.21261675894E+03  0.32528427924E+03  0.12500000000E+03 0.  0.
         21    1    1    2  503  502 -0.21122436215E+03 -0.19058986651E+02  0.40263836819E+03  0.45507870932E+03  0.00000000000E+00 0.  1.
<mgrwt>
<rscale>  3 0.24617875E+03</rscale>
<asrwt>0</asrwt>
<pdfrwt beam="1">  1       21 0.74644969E-01 0.24617875E+03</pdfrwt>
<pdfrwt beam="2">  1       21 0.45410875E-01 0.24617875E+03</pdfrwt>
<totfact> 0.72109835E+03</totfact>
</mgrwt>
</event>
<event>
 4    0  0.1429855E-001  0.2422039E+03  0.7546771E-02  0.1118333E+00
         21   -1    0    0  502  501  0.00000000000E+00  0.00000000000E+00  0.21298839158E+03  0.21298839158E+03  0.00000000000E+00 0.  1.
         21   -1    0    0  503  502 -0.00000000000E+00 -0.00000000000E+00 -0.34066802268E+03  0.34066802268E+03  0.00000000000E+00 0.  1.
         25    1    1    2    0    0  0.10174149019E+03 -0.18079377301E+03 -0.21942644087E+03  0.32681903576E+03  0.12500000000E+03 0.  0.
         21    1    1    2  503  501 -0.10174149019E+03  0.18079377301E+03  0.91746809761E+02  0.22683737850E+03  0.00000000000E+00 0.  1.
<mgrwt>
<rscale>  3 0.24220388E+03</rscale>
<asrwt>0</asrwt>
<pdfrwt beam="1">  1       21 0.32767445E-01 0.24220388E+03</pdfrwt>
<pdfrwt beam="2">  1       21 0.52410465E-01 0.24220388E+03</pdfrwt>
<totfact> 0.30183644E+04</totfact>
</mgrwt>
</event>
<event>
 4    0  0.1318319E-001  0.2635342E+03  0.7546771E-02  0.1105038E+00
         21   -1    0    0  503  501  0.00000000000E+00  0.00000000000E+00  0.75925796523E+03  0.75925796523E+03  0.00000000000E+00 0.  1.
         21   -1    0    0  501  502 -0.00000000000E+00 -0.00000000000E+00 -0.12252097202E+03  0.12252097202E+03  0.00000000000E+00 0.  1.
         25    1    1    2    0    0 -0.51397485115E+02  0.22623786531E+03  0.74970757327E+02  0.27399067070E+03  0.12500000000E+03 0.  0.
         21    1    1    2  503  502  0.51397485115E+02 -0.22623786531E+03  0.56176623588E+03  0.60778826655E+03  0.00000000000E+00 0.  1.
<mgrwt>
<rscale>  3 0.26353420E+03</rscale>
<asrwt>0</asrwt>
<pdfrwt beam="1">  1       21 0.11680892E+00 0.26353420E+03</pdfrwt>
<pdfrwt beam="2">  1       21 0.18849381E-01 0.26353420E+03</pdfrwt>
<totfact> 0.13944170E+04</totfact>
</mgrwt>
</event>
<event>
 4    0  0.1365025E-001  0.3058613E+03  0.7546771E-02  0.1082347E+00
         21   -1    0    0  502  501  0.00000000000E+00  0.00000000000E+00  0.85973625605E+02  0.85973625605E+02  0.00000000000E+00 0.  1.
         21   -1    0    0  503  502 -0.00000000000E+00 -0.00000000000E+00 -0.99854175366E+03  0.99854175366E+03  0.00000000000E+00 0.  1.
         25    1    1    2    0    0 -0.18548513204E+03 -0.20861777464E+03 -0.50842002854E+03  0.59333130334E+03  0.12500000000E+03 0.  0.
         21    1    1    2  503  501  0.18548513204E+03  0.20861777464E+03 -0.40414809952E+03  0.49118407593E+03  0.00000000000E+00 0.  1.
<mgrwt>
<rscale>  3 0.30586126E+03</rscale>
<asrwt>0</asrwt>
<pdfrwt beam="1">  1       21 0.13226712E-01 0.30586126E+03</pdfrwt>
<pdfrwt beam="2">  1       21 0.15362181E+00 0.30586126E+03</pdfrwt>
<totfact> 0.12933878E+04</totfact>
</mgrwt>
</event>
<event>
 4    0  0.1214240E-001  0.2909968E+03  0.7546771E-02  0.1089830E+00
         21   -1    0    0  503  501  0.00000000000E+00  0.00000000000E+00  0.13194818590E+04  0.13194818590E+04  0.00000000000E+00 0. -1.
         21   -1    0    0  501  502 -0.00000000000E+00 -0.00000000000E+00 -0.59352310277E+02  0.59352310277E+02  0.00000000000E+00 0. -1.
         25    1    1    2    0    0  0.20455216630E+03  0.16496230962E+03  0.76133361676E+03  0.81505093604E+03  0.12500000000E+03 0.  0.
         21    1    1    2  503  502 -0.20455216630E+03 -0.16496230962E+03  0.49879593194E+03  0.56378323321E+03  0.00000000000E+00 0. -1.
<mgrwt>
<rscale>  3 0.29099683E+03</rscale>
<asrwt>0</asrwt>
<pdfrwt beam="1">  1       21 0.20299719E+00 0.29099683E+03</pdfrwt>
<pdfrwt beam="2">  1       21 0.91311256E-02 0.29099683E+03</pdfrwt>
<totfact> 0.11435042E+04</totfact>
</mgrwt>
</event>
<event>
 4    0  0.1247592E-001  0.2400953E+03  0.7546771E-02  0.1119729E+00
         21   -1    0    0  502  501  0.00000000000E+00  0.00000000000E+00  0.11256190583E+04  0.11256190583E+04  0.00000000000E+00 0. -1.
         21   -1    0    0  503  502 -0.00000000000E+00 -0.00000000000E+00 -0.68358478297E+02  0.68358478297E+02  0.00000000000E+00 0. -1.
         25    1    1    2    0    0 -0.48982550972E+02 -0.19905137658E+03  0.19980250491E+03  0.31235681806E+03  0.12500000000E+03 0.  0.
         21    1    1    2  503  501  0.48982550972E+02  0.19905137658E+03  0.85745807507E+03  0.88162071852E+03  0.00000000000E+00 0. -1.
<mgrwt>
<rscale>  3 0.24009527E+03</rscale>
<asrwt>0</asrwt>
<pdfrwt beam="1">  1       21 0.17317215E+00 0.24009527E+03</pdfrwt>
<pdfrwt beam="2">  1       21 0.10516690E-01 0.24009527E+03</pdfrwt>
<totfact> 0.14564379E+04</totfact>
</mgrwt>
</event>
<event>
 4    0  0.1437392E-001  0.3134569E+03  0.7546771E-02  0.1078701E+00
         21   -1    0    0  502  501  0.00000000000E+00  0.00000000000E+00  0.45296655922E+03  0.45296655922E+03  0.00000000000E+00 0. -1.
         21   -1    0    0  503  502 -0.00000000000E+00 -0.00000000000E+00 -0.20052582677E+03  0.20052582677E+03  0.00000000000E+00 0. -1.
         25    1    1    2    0    0 -0.28676470881E+03 -0.19904781646E+02  0.10606643092E+03  0.33091582966E+03  0.12500000000E+03 0.  0.
         21    1    1    2  503  501  0.28676470881E+03  0.19904781646E+02  0.14637430153E+03  0.32257655634E+03  0.00000000000E+00 0. -1.
<mgrwt>
<rscale>  3 0.31345685E+03</rscale>
<asrwt>0</asrwt>
<pdfrwt beam="1">  1       21 0.69687163E-01 0.31345685E+03</pdfrwt>
<pdfrwt beam="2">  1       21 0.30850127E-01 0.31345685E+03</pdfrwt>
<totfact> 0.17786102E+04</totfact>
</mgrwt>
</event>
<event>
 4    0  0.1447276E-001  0.2395247E+03  0.7546771E-02  0.1120110E+00
         21   -1    0    0  503  501  0.00000000000E+00  0.00000000000E+00  0.33475181979E+03  0.33475181979E+03  0.00000000000E+00 0.  1.
         21   -1    0    0  501  502 -0.00000000000E+00 -0.00000000000E+00 -0.17427166335E+03  0.17427166335E+03  0.00000000000E+00 0.  1.
         25    1    1    2    0    0  0.15143852857E+03 -0.13716215816E+03 -0.14573954025E+02  0.23996767637E+03  0.12500000000E+03 0.  0.
         21    1    1    2  503  502 -0.15143852857E+03  0.13716215816E+03  0.17505411046E+03  0.26905580677E+03  0.00000000000E+00 0.  1.
<mgrwt>
<rscale>  3 0.23952471E+03</rscale>
<asrwt>0</asrwt>
<pdfrwt beam="1">  1       21 0.51500280E-01 0.23952471E+03</pdfrwt>
<pdfrwt beam="2">  1       21 0.26811025E-01 0.23952471E+03</pdfrwt>
<totfact> 0.46432920E+04</totfact>
</mgrwt>
</event>
<event>
 4    0  0.1413402E-001  0.5009279E+03  0.7546771E-02  0.1013537E+00
         21   -1    0    0  503  501  0.00000000000E+00  0.00000000000E+00  0.85790803679E+03  0.85790803679E+03  0.00000000000E+00 0.  1.
         21   -1    0    0  501  502 -0.00000000000E+00 -0.00000000000E+00 -0.30514443565E+03  0.30514443565E+03  0.00000000000E+00 0.  1.
         25    1    1    2    0    0  0.48480259252E+03 -0.16437865006E+02  0.12496634838E+03  0.51628029726E+03  0.12500000000E+03 0.  0.
         21    1    1    2  503  502 -0.48480259252E+03  0.16437865006E+02  0.42779725276E+03  0.64677217518E+03  0.00000000000E+00 0.  1.
<mgrwt>
<rscale>  3 0.50092790E+03</rscale>
<asrwt>0</asrwt>
<pdfrwt beam="1">  1       21 0.13198585E+00 0.50092790E+03</pdfrwt>
<pdfrwt beam="2">  1       21 0.46945298E-01 0.50092790E+03</pdfrwt>
<totfact> 0.15145721E+03</totfact>
</mgrwt>
</event>
<event>
 4    0  0.1427946E-001  0.2501628E+03  0.7546771E-02  0.1113202E+00
         21   -1    0    0  503  501  0.00000000000E+00  0.00000000000E+00  0.99546333496E+03  0.99546333496E+03  0.00000000000E+00 0.  1.
         21   -1    0    0  501  502 -0.00000000000E+00 -0.00000000000E+00 -0.58255303130E+02  0.58255303130E+02  0.00000000000E+00 0.  1.
         25    1    1    2    0    0 -0.20997193186E+03  0.53555552247E+02  0.37100834768E+03  0.44746910887E+03  0.12500000000E+03 0.  0.
         21    1    1    2  503  502  0.20997193186E+03 -0.53555552247E+02  0.56619968415E+03  0.60624952922E+03  0.00000000000E+00 0.  1.
<mgrwt>
<rscale>  3 0.25016277E+03</rscale>
<asrwt>0</asrwt>
<pdfrwt beam="1">  1       21 0.15314819E+00 0.25016277E+03</pdfrwt>
<pdfrwt beam="2">  1       21 0.89623551E-02 0.25016277E+03</pdfrwt>
<totfact> 0.26923328E+04</totfact>
</mgrwt>
</event>
<event>
 4    0  0.1071655E-001  0.2625991E+03  0.7546771E-02  0.1105592E+00
         21   -1    0    0  503  501  0.00000000000E+00  0.00000000000E+00  0.39116861312E+02  0.39116861312E+02  0.00000000000E+00 0.  1.
         21   -1    0    0  501  502 -0.00000000000E+00 -0.00000000000E+00 -0.20305241708E+04  0.20305241708E+04  0.00000000000E+00 0.  1.
         25    1    1    2    0    0 -0.29133951133E+02 -0.22909494074E+03 -0.15437407793E+04  0.15659163044E+04  0.12500000000E+03 0.  0.
         21    1    1    2  503  502  0.29133951133E+02  0.22909494074E+03 -0.44766653027E+03  0.50372472771E+03  0.00000000000E+00 0.  1.
<mgrwt>
<rscale>  3 0.26259908E+03</rscale>
<asrwt>0</asrwt>
<pdfrwt beam="1">  1       21 0.60179773E-02 0.26259908E+03</pdfrwt>
<pdfrwt beam="2">  1       21 0.31238840E+00 0.26259908E+03</pdfrwt>
<totfact> 0.52931360E+03</totfact>
</mgrwt>
</event>
<event>
 4    0  0.1519395E-001  0.2412250E+03  0.7546771E-02  0.1118979E+00
         21   -1    0    0  503  501  0.00000000000E+00  0.00000000000E+00  0.20325413791E+03  0.20325413791E+03  0.00000000000E+00 0. -1.
         21   -1    0    0  501  502 -0.00000000000E+00 -0.00000000000E+00 -0.30123817318E+03  0.30123817318E+03  0.00000000000E+00 0. -1.
         25    1    1    2    0    0  0.12131265327E+03 -0.16687642488E+03 -0.15951994963E+03  0.28919909294E+03  0.12500000000E+03 0.  0.
         21    1    1    2  503  502 -0.12131265327E+03  0.16687642488E+03  0.61535914371E+02  0.21529321815E+03  0.00000000000E+00 0. -1.
<mgrwt>
<rscale>  3 0.24122500E+03</rscale>
<asrwt>0</asrwt>
<pdfrwt beam="1">  1       21 0.31269867E-01 0.24122500E+03</pdfrwt>
<pdfrwt beam="2">  1       21 0.46344334E-01 0.24122500E+03</pdfrwt>
<totfact> 0.42841122E+04</totfact>
</mgrwt>
</event>
<event>
 4    0  0.1005289E-001  0.3865357E+03  0.7546771E-02  0.1048544E+00
         21   -1    0    0  503  501  0.00000000000E+00  0.00000000000E+00  0.20505346535E+04  0.20505346535E+04  0.00000000000E+00 0.  1.
         21   -1    0    0  501  502 -0.00000000000E+00 -0.00000000000E+00 -0.17548839684E+03  0.17548839684E+03  0.00000000000E+00 0.  1.
         25    1    1    2    0    0 -0.71827066078E+02 -0.35864428573E+03  0.80820426008E+02  0.39489465984E+03  0.12500000000E+03 0.  0.
         21    1    1    2  503  502  0.71827066078E+02  0.35864428573E+03  0.17942258307E+04  0.18311283905E+04  0.00000000000E+00 0.  1.
<mgrwt>
<rscale>  3 0.38653570E+03</rscale>
<asrwt>0</asrwt>
<pdfrwt beam="1">  1       21 0.31546685E+00 0.38653570E+03</pdfrwt>
<pdfrwt beam="2">  1       21 0.26998216E-01 0.38653570E+03</pdfrwt>
<totfact> 0.29738992E+02</totfact>
</mgrwt>
</event>
<event>
 4    0  0.1133435E-001  0.2505054E+03  0.7546771E-02  0.1112986E+00
         21   -1    0    0  503  501  0.00000000000E+00  0.00000000000E+00  0.10127999891E+04  0.10127999891E+04  0.00000000000E+00 0. -1.
         21   -1    0    0  501  502 -0.00000000000E+00 -0.00000000000E+00 -0.10548619442E+03  0.10548619442E+03  0.00000000000E+00 0. -1.
         25    1    1    2    0    0  0.15177395025E+02 -0.21655855887E+03  0.80008344388E+02  0.26297204777E+03  0.12500000000E+03 0.  0.
         21    1    1    2  503  502 -0.15177395025E+02  0.21655855887E+03  0.82730545029E+03  0.85531413576E+03  0.00000000000E+00 0. -1.
<mgrwt>
<rscale>  3 0.25050541E+03</rscale>
<asrwt>0</asrwt>
<pdfrwt beam="1">  1       21 0.15581538E+00 0.25050541E+03</pdfrwt>
<pdfrwt beam="2">  1       21 0.16228646E-01 0.25050541E+03</pdfrwt>
<totfact> 0.88158528E+03</totfact>
</mgrwt>
</event>
<event>
 4    0  0.1069884E-001  0.2486960E+03  0.7546771E-02  0.1114132E+00
         21   -1    0    0  503  501  0.00000000000E+00  0.00000000000E+00  0.89083653346E+02  0.89083653346E+02  0.00000000000E+00 0.  1.
         21   -1    0    0  501  502 -0.00000000000E+00 -0.00000000000E+00 -0.11682251529E+04  0.11682251529E+04  0.00000000000E+00 0.  1.
         25    1    1    2    0    0  0.20774109643E+03 -0.55392417816E+02 -0.99635093660E+03  0.10269200903E+04  0.12500000000E+03 0.  0.
         21    1    1    2  503  502 -0.20774109643E+03  0.55392417816E+02 -0.82790562943E+02  0.23038871589E+03  0.00000000000E+00 0.  1.
<mgrwt>
<rscale>  3 0.24869597E+03</rscale>
<asrwt>0</asrwt>
<pdfrwt beam="1">  1       21 0.13705178E-01 0.24869597E+03</pdfrwt>
<pdfrwt beam="2">  1       21 0.17972694E+00 0.24869597E+03</pdfrwt>
<totfact> 0.80976781E+03</totfact>
</mgrwt>
</event>
<event>
 4    0  0.1135187E-001  0.2496379E+03  0.7546771E-02  0.1113534E+00
         21   -1    0    0  502  501  0.00000000000E+00  0.00000000000E+00  0.91785391718E+02  0.91785391718E+02  0.00000000000E+00 0.  1.
         21   -1    0    0  503  502 -0.00000000000E+00 -0.00000000000E+00 -0.11669155305E+04  0.11669155305E+04  0.00000000000E+00 0. -1.
         25    1    1    2    0    0  0.20707931236E+03 -0.61743514693E+02 -0.99880504510E+03  0.10295293203E+04  0.12500000000E+03 0.  0.
         21    1    1    2  503  501 -0.20707931236E+03  0.61743514693E+02 -0.76325093708E+02  0.22917160196E+03  0.00000000000E+00 0.  1.
<mgrwt>
<rscale>  3 0.24963794E+03</rscale>
<asrwt>0</asrwt>
<pdfrwt beam="1">  1       21 0.14120828E-01 0.24963794E+03</pdfrwt>
<pdfrwt beam="2">  1       21 0.17952548E+00 0.24963794E+03</pdfrwt>
<totfact> 0.76887089E+03</totfact>
</mgrwt>
</event>
<event>
 4    0  0.1304442E-001  0.3737313E+03  0.7546771E-02  0.1053275E+00
         21   -1    0    0  503  501  0.00000000000E+00  0.00000000000E+00  0.30096263087E+03  0.30096263087E+03  0.00000000000E+00 0. -1.
         21   -1    0    0  501  502 -0.00000000000E+00 -0.00000000000E+00 -0.10745133218E+04  0.10745133218E+04  0.00000000000E+00 0.  1.
         25    1    1    2    0    0 -0.35097030725E+03  0.29494313731E+02 -0.92077899035E+03  0.99373488425E+03  0.12500000000E+03 0.  0.
         21    1    1    2  503  502  0.35097030725E+03 -0.29494313731E+02  0.14722829946E+03  0.38174106837E+03  0.00000000000E+00 0. -1.
<mgrwt>
<rscale>  3 0.37373128E+03</rscale>
<asrwt>0</asrwt>
<pdfrwt beam="1">  1       21 0.46301942E-01 0.37373128E+03</pdfrwt>
<pdfrwt beam="2">  1       21 0.16530974E+00 0.37373128E+03</pdfrwt>
<totfact> 0.89719518E+02</totfact>
</mgrwt>
</event>
<event>
 4    0  0.1005289E-001  0.2379213E+03  0.7546771E-02  0.1121185E+00
         21   -1    0    0  503  501  0.00000000000E+00  0.00000000000E+00  0.14859181088E+03  0.14859181088E+03  0.00000000000E+00 0.  1.
         21   -1    0    0  501  502 -0.00000000000E+00 -0.00000000000E+00 -0.81223830209E+03  0.81223830209E+03  0.00000000000E+00 0.  1.
         25    1    1    2    0    0 -0.20113787629E+03 -0.22915415573E+02  0.28559436538E+02  0.23962930323E+03  0.12500000000E+03 0.  0.
         21    1    1    2  503  502  0.20113787629E+03  0.22915415573E+02 -0.69220592775E+03  0.72120080974E+03  0.00000000000E+00 0.  1.
<mgrwt>
<rscale>  3 0.23792133E+03</rscale>
<asrwt>0</asrwt>
<pdfrwt beam="1">  1       21 0.22860279E-01 0.23792133E+03</pdfrwt>
<pdfrwt beam="2">  1       21 0.12495974E+00 0.23792133E+03</pdfrwt>
<totfact> 0.83056481E+03</totfact>
</mgrwt>
</event>
<event>
 4    0  0.1037080E-001  0.2810608E+03  0.7546771E-02  0.1095111E+00
         21   -1    0    0  503  501  0.00000000000E+00  0.00000000000E+00  0.14079721660E+04  0.14079721660E+04  0.00000000000E+00 0.  1.
         21   -1    0    0  501  502 -0.00000000000E+00 -0.00000000000E+00 -0.10381063895E+03  0.10381063895E+03  0.00000000000E+00 0.  1.
         25    1    1    2    0    0 -0.20604322489E+03 -0.14462492610E+03  0.12773690040E+03  0.30872624685E+03  0.12500000000E+03 0.  0.
         21    1    1    2  503  502  0.20604322489E+03  0.14462492610E+03  0.11764246266E+04  0.12030565581E+04  0.00000000000E+00 0.  1.
<mgrwt>
<rscale>  3 0.28106081E+03</rscale>
<asrwt>0</asrwt>
<pdfrwt beam="1">  1       21 0.21661109E+00 0.28106081E+03</pdfrwt>
<pdfrwt beam="2">  1       21 0.15970869E-01 0.28106081E+03</pdfrwt>
<totfact> 0.34279429E+03</totfact>
</mgrwt>
</event>
<event>
 4    0  0.1005289E-001  0.6453815E+03  0.7546771E-02  0.9815484E-01
         21   -1    0    0  502  501  0.00000000000E+00  0.00000000000E+00  0.82538596048E+03  0.82538596048E+03  0.00000000000E+00 0. -1.
         21   -1    0    0  503  502 -0.00000000000E+00 -0.00000000000E+00 -0.14690520634E+04  0.14690520634E+04  0.00000000000E+00 0.  1.
         25    1    1    2    0    0  0.32362551397E+03 -0.54420473758E+03 -0.12569513236E+04  0.14129557317E+04  0.12500000000E+03 0.  0.
         21    1    1    2  503  501 -0.32362551397E+03  0.54420473758E+03  0.61328522066E+03  0.88148229226E+03  0.00000000000E+00 0. -1.
<mgrwt>
<rscale>  3 0.64538149E+03</rscale>
<asrwt>0</asrwt>
<pdfrwt beam="1">  1       21 0.12698246E+00 0.64538149E+03</pdfrwt>
<pdfrwt beam="2">  1       21 0.22600801E+00 0.64538149E+03</pdfrwt>
<totfact> 0.29382901E+01</totfact>
</mgrwt>
</event>
<event>
 4    0  0.1005289E-001  0.2647690E+03  0.7546771E-02  0.1104311E+00
         21   -1    0    0  503  501  0.00000000000E+00  0.00000000000E+00  0.69968975500E+03  0.69968975500E+03  0.00000000000E+00 0.  1.
         21   -1    0    0  501  502 -0.00000000000E+00 -0.00000000000E+00 -0.68605470282E+03  0.68605470282E+03  0.00000000000E+00 0.  1.
         25    1    1    2    0    0  0.19012900009E+03 -0.13538309926E+03 -0.63950735168E+03  0.69215046998E+03  0.12500000000E+03 0.  0.
         21    1    1    2  503  502 -0.19012900009E+03  0.13538309926E+03  0.65314240386E+03  0.69359398783E+03  0.00000000000E+00 0.  1.
<mgrwt>
<rscale>  3 0.26476899E+03</rscale>
<asrwt>0</asrwt>
<pdfrwt beam="1">  1       21 0.10764458E+00 0.26476899E+03</pdfrwt>
<pdfrwt beam="2">  1       21 0.10554688E+00 0.26476899E+03</pdfrwt>
<totfact> 0.46307501E+02</totfact>
</mgrwt>
</event>
<event>
 4    0  0.1143954E-001  0.2869670E+03  0.7546771E-02  0.1091943E+00
         21   -1    0    0  503  501  0.00000000000E+00  0.00000000000E+00  0.16021078622E+04  0.16021078622E+04  0.00000000000E+00 0. -1.
         21   -1    0    0  501  502 -0.00000000000E+00 -0.00000000000E+00 -0.48273634062E+02  0.48273634062E+02  0.00000000000E+00 0. -1.
         25    1    1    2    0    0  0.11212244878E+03  0.23270926328E+03  0.65365316685E+03  0.71387149213E+03  0.12500000000E+03 0.  0.
         21    1    1    2  503  502 -0.11212244878E+03 -0.23270926328E+03  0.90018106125E+03  0.93651000409E+03  0.00000000000E+00 0. -1.
<mgrwt>
<rscale>  3 0.28696697E+03</rscale>
<asrwt>0</asrwt>
<pdfrwt beam="1">  1       21 0.24647809E+00 0.28696697E+03</pdfrwt>
<pdfrwt beam="2">  1       21 0.74267141E-02 0.28696697E+03</pdfrwt>
<totfact> 0.88371771E+03</totfact>
</mgrwt>
</event>
<event>
 4    0  0.1634578E-001  0.2410920E+03  0.7546771E-02  0.1119067E+00
         21   -1    0    0  502  501  0.00000000000E+00  0.00000000000E+00  0.24657510756E+03  0.24657510756E+03  0.00000000000E+00 0. -1.
         21   -1    0    0  503  502 -0.00000000000E+00 -0.00000000000E+00 -0.23214147415E+03  0.23214147415E+03  0.00000000000E+00 0. -1.
         25    1    1    2    0    0 -0.20611372757E+03 -0.41827959959E+01 -0.77146825833E+02  0.25313434617E+03  0.12500000000E+03 0.  0.
         21    1    1    2  503  501  0.20611372757E+03  0.41827959959E+01  0.91580459238E+02  0.22558223554E+03  0.00000000000E+00 0. -1.
<mgrwt>
<rscale>  3 0.24109202E+03</rscale>
<asrwt>0</asrwt>
<pdfrwt beam="1">  1       21 0.37934632E-01 0.24109202E+03</pdfrwt>
<pdfrwt beam="2">  1       21 0.35714073E-01 0.24109202E+03</pdfrwt>
<totfact> 0.49563690E+04</totfact>
</mgrwt>
</event>
<event>
 4    0  0.1006385E-001  0.3288584E+03  0.7546771E-02  0.1071643E+00
         21   -1    0    0  502  501  0.00000000000E+00  0.00000000000E+00  0.35308568103E+03  0.35308568103E+03  0.00000000000E+00 0.  1.
         21   -1    0    0  503  502 -0.00000000000E+00 -0.00000000000E+00 -0.38563024082E+03  0.38563024082E+03  0.00000000000E+00 0. -1.
         25    1    1    2    0    0  0.17665658231E+03  0.24761922827E+03 -0.20649457376E+03  0.38831409873E+03  0.12500000000E+03 0.  0.
         21    1    1    2  503  501 -0.17665658231E+03 -0.24761922827E+03  0.17395001398E+03  0.35040182312E+03  0.00000000000E+00 0.  1.
<mgrwt>
<rscale>  3 0.32885837E+03</rscale>
<asrwt>0</asrwt>
<pdfrwt beam="1">  1       21 0.54320874E-01 0.32885837E+03</pdfrwt>
<pdfrwt beam="2">  1       21 0.59327729E-01 0.32885837E+03</pdfrwt>
<totfact> 0.78808067E+03</totfact>
</mgrwt>
</event>
<event>
 4    0  0.1005289E-001  0.3294645E+03  0.7546771E-02  0.1071374E+00
         21   -1    0    0  503  501  0.00000000000E+00  0.00000000000E+00  0.10680624773E+03  0.10680624773E+03  0.00000000000E+00 0.  1.
         21   -1    0    0  501  502 -0.00000000000E+00 -0.00000000000E+00 -0.31163102459E+04  0.31163102459E+04  0.00000000000E+00 0.  1.
         25    1    1    2    0    0  0.95805635956E+02  0.28938408695E+03 -0.28683167625E+04  0.28871764615E+04  0.12500000000E+03 0.  0.
         21    1    1    2  503  502 -0.95805635956E+02 -0.28938408695E+03 -0.14118723562E+03  0.33594003210E+03  0.00000000000E+00 0.  1.
<mgrwt>
<rscale>  3 0.32946452E+03</rscale>
<asrwt>0</asrwt>
<pdfrwt beam="1">  1       21 0.16431731E-01 0.32946452E+03</pdfrwt>
<pdfrwt beam="2">  1       21 0.47943234E+00 0.32946452E+03</pdfrwt>
<totfact> 0.72160353E+01</totfact>
</mgrwt>
</event>
<event>
 4    0  0.1590135E-001  0.2796755E+03  0.7546771E-02  0.1095866E+00
         21   -1    0    0  502  501  0.00000000000E+00  0.00000000000E+00  0.52978633159E+03  0.52978633159E+03  0.00000000000E+00 0.  1.
         21   -1    0    0  503  502 -0.00000000000E+00 -0.00000000000E+00 -0.14134318958E+03  0.14134318958E+03  0.00000000000E+00 0.  1.
         25    1    1    2    0    0 -0.18221950969E+03  0.17143345596E+03  0.12046676016E+03  0.30451702717E+03  0.12500000000E+03 0.  0.
         21    1    1    2  503  501  0.18221950969E+03 -0.17143345596E+03  0.26797638185E+03  0.36661249401E+03  0.00000000000E+00 0.  1.
<mgrwt>
<rscale>  3 0.27967549E+03</rscale>
<asrwt>0</asrwt>
<pdfrwt beam="1">  1       21 0.81505589E-01 0.27967549E+03</pdfrwt>
<pdfrwt beam="2">  1       21 0.21745106E-01 0.27967549E+03</pdfrwt>
<totfact> 0.24910853E+04</totfact>
</mgrwt>
</event>
<event>
 4    0  0.1764799E-001  0.2458427E+03  0.7546771E-02  0.1115961E+00
         21   -1    0    0  502  501  0.00000000000E+00  0.00000000000E+00  0.11712969786E+04  0.11712969786E+04  0.00000000000E+00 0. -1.
         21   -1    0    0  503  502 -0.00000000000E+00 -0.00000000000E+00 -0.20087187984E+03  0.20087187984E+03  0.00000000000E+00 0.  1.
         25    1    1    2    0    0  0.12706370638E+03 -0.16931758870E+03 -0.11134368236E+03  0.26988154239E+03  0.12500000000E+03 0.  0.
         21    1    1    2  503  501 -0.12706370638E+03  0.16931758870E+03  0.10817687811E+04  0.11022873160E+04  0.00000000000E+00 0. -1.
<mgrwt>
<rscale>  3 0.24584270E+03</rscale>
<asrwt>0</asrwt>
<pdfrwt beam="1">  1       21 0.18019953E+00 0.24584270E+03</pdfrwt>
<pdfrwt beam="2">  1       21 0.30903367E-01 0.24584270E+03</pdfrwt>
<totfact> 0.17371048E+03</totfact>
</mgrwt>
</event>
<event>
 4    0  0.1462492E-001  0.4940371E+03  0.7546771E-02  0.1015347E+00
         21   -1    0    0  502  501  0.00000000000E+00  0.00000000000E+00  0.96977563847E+03  0.96977563847E+03  0.00000000000E+00 0.  1.
         21   -1    0    0  503  502 -0.00000000000E+00 -0.00000000000E+00 -0.24424198019E+03  0.24424198019E+03  0.00000000000E+00 0.  1.
         25    1    1    2    0    0 -0.27699947718E+02 -0.47715866685E+03  0.33660650320E+03  0.59780985142E+03  0.12500000000E+03 0.  0.
         21    1    1    2  503  501  0.27699947718E+02  0.47715866685E+03  0.38892715507E+03  0.61620776724E+03  0.00000000000E+00 0.  1.
<mgrwt>
<rscale>  3 0.49403712E+03</rscale>
<asrwt>0</asrwt>
<pdfrwt beam="1">  1       21 0.14919625E+00 0.49403712E+03</pdfrwt>
<pdfrwt beam="2">  1       21 0.37575690E-01 0.49403712E+03</pdfrwt>
<totfact> 0.17391930E+03</totfact>
</mgrwt>
</event>
<event>
 4    0  0.1005289E-001  0.3111611E+03  0.7546771E-02  0.1079791E+00
         21   -1    0    0  503  501  0.00000000000E+00  0.00000000000E+00  0.17899836676E+04  0.17899836676E+04  0.00000000000E+00 0.  1.
         21   -1    0    0  501  502 -0.00000000000E+00 -0.00000000000E+00 -0.67371752552E+02  0.67371752552E+02  0.00000000000E+00 0.  1.
         25    1    1    2    0    0  0.25518736540E+03  0.12678969524E+03  0.41297766184E+03  0.51708003970E+03  0.12500000000E+03 0.  0.
         21    1    1    2  503  502 -0.25518736540E+03 -0.12678969524E+03  0.13096342532E+04  0.13402753805E+04  0.00000000000E+00 0.  1.
<mgrwt>
<rscale>  3 0.31116108E+03</rscale>
<asrwt>0</asrwt>
<pdfrwt beam="1">  1       21 0.27538207E+00 0.31116108E+03</pdfrwt>
<pdfrwt beam="2">  1       21 0.10364886E-01 0.31116108E+03</pdfrwt>
<totfact> 0.32410073E+03</totfact>
</mgrwt>
</event>
<event>
 4    0  0.1005289E-001  0.2516187E+03  0.7546771E-02  0.1112286E+00
         21   -1    0    0  503  501  0.00000000000E+00  0.00000000000E+00  0.45420956079E+02  0.45420956079E+02  0.00000000000E+00 0.  1.
         21   -1    0    0  501  502 -0.00000000000E+00 -0.00000000000E+00 -0.16718148599E+04  0.16718148599E+04  0.00000000000E+00 0. -1.
         25    1    1    2    0    0  0.12154423204E+03  0.18142209926E+03 -0.13026393292E+04  0.13267182068E+04  0.12500000000E+03 0.  0.
         21    1    1    2  503  502 -0.12154423204E+03 -0.18142209926E+03 -0.32375457462E+03  0.39051760912E+03  0.00000000000E+00 0.  1.
<mgrwt>
<rscale>  3 0.25161872E+03</rscale>
<asrwt>0</asrwt>
<pdfrwt beam="1">  1       21 0.69878398E-02 0.25161872E+03</pdfrwt>
<pdfrwt beam="2">  1       21 0.25720227E+00 0.25161872E+03</pdfrwt>
<totfact> 0.86929191E+03</totfact>
</mgrwt>
</event>
<event>
 4    0  0.1337115E-001  0.3901099E+03  0.7546771E-02  0.1047259E+00
         21   -1    0    0  502  501  0.00000000000E+00  0.00000000000E+00  0.99356740779E+02  0.99356740779E+02  0.00000000000E+00 0.  1.
         21   -1    0    0  503  502 -0.00000000000E+00 -0.00000000000E+00 -0.14717160528E+04  0.14717160528E+04  0.00000000000E+00 0.  1.
         25    1    1    2    0    0 -0.74583636169E+02  0.36193645244E+03 -0.79536451506E+03  0.88588398011E+03  0.12500000000E+03 0.  0.
         21    1    1    2  503  501  0.74583636169E+02 -0.36193645244E+03 -0.57699479698E+03  0.68518881349E+03  0.00000000000E+00 0.  1.
<mgrwt>
<rscale>  3 0.39010987E+03</rscale>
<asrwt>0</asrwt>
<pdfrwt beam="1">  1       21 0.15285652E-01 0.39010987E+03</pdfrwt>
<pdfrwt beam="2">  1       21 0.22641786E+00 0.39010987E+03</pdfrwt>
<totfact> 0.30259714E+03</totfact>
</mgrwt>
</event>
<event>
 4    0  0.1141789E-001  0.4099176E+03  0.7546771E-02  0.1040399E+00
         21   -1    0    0  502  501  0.00000000000E+00  0.00000000000E+00  0.82903615254E+03  0.82903615254E+03  0.00000000000E+00 0. -1.
         21   -1    0    0  503  502 -0.00000000000E+00 -0.00000000000E+00 -0.28627444106E+03  0.28627444106E+03  0.00000000000E+00 0. -1.
         25    1    1    2    0    0 -0.38264758014E+03  0.77384105557E+02 -0.42154193971E+02  0.41207941765E+03  0.12500000000E+03 0.  0.
         21    1    1    2  503  501  0.38264758014E+03 -0.77384105557E+02  0.58491590545E+03  0.70323117595E+03  0.00000000000E+00 0. -1.
<mgrwt>
<rscale>  3 0.40991764E+03</rscale>
<asrwt>0</asrwt>
<pdfrwt beam="1">  1       21 0.12754402E+00 0.40991764E+03</pdfrwt>
<pdfrwt beam="2">  1       21 0.44042222E-01 0.40991764E+03</pdfrwt>
<totfact> 0.19609069E+03</totfact>
</mgrwt>
</event>
<event>
 4    0  0.1005289E-001  0.2791172E+03  0.7546771E-02  0.1096172E+00
         21   -1    0    0  502  501  0.00000000000E+00  0.00000000000E+00  0.23857675082E+04  0.23857675082E+04  0.00000000000E+00 0.  1.
         21   -1    0    0  503  502 -0.00000000000E+00 -0.00000000000E+00 -0.51999205064E+02  0.51999205064E+02  0.00000000000E+00 0.  1.
         25    1    1    2    0    0  0.24825818207E+03  0.25481131429E+02  0.39881021376E+03  0.48678126466E+03  0.12500000000E+03 0.  0.
         21    1    1    2  503  501 -0.24825818207E+03 -0.25481131429E+02  0.19349580894E+04  0.19509854486E+04  0.00000000000E+00 0.  1.
<mgrwt>
<rscale>  3 0.27911720E+03</rscale>
<asrwt>0</asrwt>
<pdfrwt beam="1">  1       21 0.36704107E+00 0.27911720E+03</pdfrwt>
<pdfrwt beam="2">  1       21 0.79998795E-02 0.27911720E+03</pdfrwt>
<totfact> 0.14992082E+03</totfact>
</mgrwt>
</event>
<event>
 4    0  0.1280168E-001  0.4553635E+03  0.7546771E-02  0.1026135E+00
         21   -1    0    0  502  501  0.00000000000E+00  0.00000000000E+00  0.34164596046E+03  0.34164596046E+03  0.00000000000E+00 0. -1.
         21   -1    0    0  503  502 -0.00000000000E+00 -0.00000000000E+00 -0.72008864304E+03  0.72008864304E+03  0.00000000000E+00 0. -1.
         25    1    1    2    0    0  0.20684654055E+02 -0.43738209435E+03 -0.42310766617E+03  0.62159154478E+03  0.12500000000E+03 0.  0.
         21    1    1    2  503  501 -0.20684654055E+02  0.43738209435E+03  0.44664983591E+02  0.44014305871E+03  0.00000000000E+00 0. -1.
<mgrwt>
<rscale>  3 0.45536354E+03</rscale>
<asrwt>0</asrwt>
<pdfrwt beam="1">  1       21 0.52560917E-01 0.45536354E+03</pdfrwt>
<pdfrwt beam="2">  1       21 0.11078287E+00 0.45536354E+03</pdfrwt>
<totfact> 0.18924190E+03</totfact>
</mgrwt>
</event>
<event>
 4    0  0.1005289E-001  0.4904014E+03  0.7546771E-02  0.1016315E+00
         21   -1    0    0  502  501  0.00000000000E+00  0.00000000000E+00  0.43634803730E+03  0.43634803730E+03  0.00000000000E+00 0.  1.
         21   -1    0    0  503  502 -0.00000000000E+00 -0.00000000000E+00 -0.19969183610E+04  0.19969183610E+04  0.00000000000E+00 0.  1.
         25    1    1    2    0    0 -0.25250327858E+03  0.40138592060E+03 -0.18253984002E+04  0.18901250970E+04  0.12500000000E+03 0.  0.
         21    1    1    2  503  501  0.25250327858E+03 -0.40138592060E+03  0.26482807655E+03  0.54314130121E+03  0.00000000000E+00 0.  1.
<mgrwt>
<rscale>  3 0.49040143E+03</rscale>
<asrwt>0</asrwt>
<pdfrwt beam="1">  1       21 0.67130468E-01 0.49040143E+03</pdfrwt>
<pdfrwt beam="2">  1       21 0.30721821E+00 0.49040143E+03</pdfrwt>
<totfact> 0.46606558E+01</totfact>
</mgrwt>
</event>
<event>
 4    0  0.1005289E-001  0.3219955E+03  0.7546771E-02  0.1074735E+00
         21   -1    0    0  503  501  0.00000000000E+00  0.00000000000E+00  0.13701256243E+04  0.13701256243E+04  0.00000000000E+00 0. -1.
         21   -1    0    0  501  502 -0.00000000000E+00 -0.00000000000E+00 -0.24699405227E+03  0.24699405227E+03  0.00000000000E+00 0. -1.
         25    1    1    2    0    0 -0.95673289844E+02 -0.28089627557E+03 -0.11653277818E+03  0.34243391247E+03  0.12500000000E+03 0.  0.
         21    1    1    2  503  502  0.95673289844E+02  0.28089627557E+03  0.12396643502E+04  0.12746857641E+04  0.00000000000E+00 0. -1.
<mgrwt>
<rscale>  3 0.32199549E+03</rscale>
<asrwt>0</asrwt>
<pdfrwt beam="1">  1       21 0.21078855E+00 0.32199549E+03</pdfrwt>
<pdfrwt beam="2">  1       21 0.37999086E-01 0.32199549E+03</pdfrwt>
<totfact> 0.68079279E+02</totfact>
</mgrwt>
</event>
<event>
 4    0  0.1005289E-001  0.2943811E+03  0.7546771E-02  0.1088084E+00
         21   -1    0    0  503  501  0.00000000000E+00  0.00000000000E+00  0.13523937039E+04  0.13523937039E+04  0.00000000000E+00 0.  1.
         21   -1    0    0  501  502 -0.00000000000E+00 -0.00000000000E+00 -0.53369968777E+03  0.53369968777E+03  0.00000000000E+00 0.  1.
         25    1    1    2    0    0 -0.16362134453E+03 -0.21038841912E+03 -0.47849954641E+03  0.56180249840E+03  0.12500000000E+03 0.  0.
         21    1    1    2  503  502  0.16362134453E+03  0.21038841912E+03  0.12971935625E+04  0.13242908932E+04  0.00000000000E+00 0.  1.
<mgrwt>
<rscale>  3 0.29438110E+03</rscale>
<asrwt>0</asrwt>
<pdfrwt beam="1">  1       21 0.20806057E+00 0.29438110E+03</pdfrwt>
<pdfrwt beam="2">  1       21 0.82107645E-01 0.29438110E+03</pdfrwt>
<totfact> 0.13798365E+02</totfact>
</mgrwt>
</event>
<event>
 4    0  0.1333636E-001  0.3172715E+03  0.7546771E-02  0.1076912E+00
         21   -1    0    0  503  501  0.00000000000E+00  0.00000000000E+00  0.31023249353E+03  0.31023249353E+03  0.00000000000E+00 0.  1.
         21   -1    0    0  501  502 -0.00000000000E+00 -0.00000000000E+00 -0.38979244634E+03  0.38979244634E+03  0.00000000000E+00 0.  1.
         25    1    1    2    0    0  0.13994559035E+03  0.25583478268E+03 -0.21009999415E+03  0.38053017203E+03  0.12500000000E+03 0.  0.
         21    1    1    2  503  502 -0.13994559035E+03 -0.25583478268E+03  0.13054004134E+03  0.31949476784E+03  0.00000000000E+00 0.  1.
<mgrwt>
<rscale>  3 0.31727150E+03</rscale>
<asrwt>0</asrwt>
<pdfrwt beam="1">  1       21 0.47728076E-01 0.31727150E+03</pdfrwt>
<pdfrwt beam="2">  1       21 0.59968069E-01 0.31727150E+03</pdfrwt>
<totfact> 0.10175855E+04</totfact>
</mgrwt>
</event>
<event>
 4    0  0.1005289E-001  0.2990941E+03  0.7546771E-02  0.1085694E+00
         21   -1    0    0  503  501  0.00000000000E+00  0.00000000000E+00  0.24950413971E+03  0.24950413971E+03  0.00000000000E+00 0. -1.
         21   -1    0    0  501  502 -0.00000000000E+00 -0.00000000000E+00 -0.39678999495E+03  0.39678999495E+03  0.00000000000E+00 0.  1.
         25    1    1    2    0    0 -0.27167124383E+03  0.51986845820E+01 -0.21245040294E+03  0.36686845702E+03  0.12500000000E+03 0.  0.
         21    1    1    2  503  502  0.27167124383E+03 -0.51986845820E+01  0.65164547703E+02  0.27942567764E+03  0.00000000000E+00 0. -1.
<mgrwt>
<rscale>  3 0.29909412E+03</rscale>
<asrwt>0</asrwt>
<pdfrwt beam="1">  1       21 0.38385253E-01 0.29909412E+03</pdfrwt>
<pdfrwt beam="2">  1       21 0.61044614E-01 0.29909412E+03</pdfrwt>
<totfact> 0.15460915E+04</totfact>
</mgrwt>
</event>
<event>
 4    0  0.1285654E-001  0.2873714E+03  0.7546771E-02  0.1091730E+00
         21   -1    0    0  503  501  0.00000000000E+00  0.00000000000E+00  0.94742841176E+02  0.94742841176E+02  0.00000000000E+00 0.  1.
         21   -1    0    0  501  502 -0.00000000000E+00 -0.00000000000E+00 -0.16498182229E+04  0.16498182229E+04  0.00000000000E+00 0. -1.
         25    1    1    2    0    0  0.12267691235E+03 -0.22783264727E+03 -0.14273546907E+04  0.14559957943E+04  0.12500000000E+03 0.  0.
         21    1    1    2  503  502 -0.12267691235E+03  0.22783264727E+03 -0.12772069098E+03  0.28856526972E+03  0.00000000000E+00 0.  1.
<mgrwt>
<rscale>  3 0.28737143E+03</rscale>
<asrwt>0</asrwt>
<pdfrwt beam="1">  1       21 0.14575822E-01 0.28737143E+03</pdfrwt>
<pdfrwt beam="2">  1       21 0.25381819E+00 0.28737143E+03</pdfrwt>
<totfact> 0.23899096E+03</totfact>
</mgrwt>
</event>
<event>
 4    0  0.1238672E-001  0.2407531E+03  0.7546771E-02  0.1119292E+00
         21   -1    0    0  503  501  0.00000000000E+00  0.00000000000E+00  0.76855638476E+02  0.76855638476E+02  0.00000000000E+00 0.  1.
         21   -1    0    0  501  502 -0.00000000000E+00 -0.00000000000E+00 -0.69471342080E+03  0.69471342080E+03  0.00000000000E+00 0.  1.
         25    1    1    2    0    0  0.13269712174E+03 -0.15725311698E+03 -0.23235103541E+03  0.33458791457E+03  0.12500000000E+03 0.  0.
         21    1    1    2  503  502 -0.13269712174E+03  0.15725311698E+03 -0.38550674691E+03  0.43698114471E+03  0.00000000000E+00 0.  1.
<mgrwt>
<rscale>  3 0.24075313E+03</rscale>
<asrwt>0</asrwt>
<pdfrwt beam="1">  1       21 0.11823944E-01 0.24075313E+03</pdfrwt>
<pdfrwt beam="2">  1       21 0.10687899E+00 0.24075313E+03</pdfrwt>
<totfact> 0.41174717E+04</totfact>
</mgrwt>
</event>
<event>
 4    0  0.1359679E-001  0.3261947E+03  0.7546771E-02  0.1072833E+00
         21   -1    0    0  502  501  0.00000000000E+00  0.00000000000E+00  0.15641188690E+03  0.15641188690E+03  0.00000000000E+00 0.  1.
         21   -1    0    0  503  502 -0.00000000000E+00 -0.00000000000E+00 -0.83949205651E+03  0.83949205651E+03  0.00000000000E+00 0.  1.
         25    1    1    2    0    0 -0.80999046334E+02 -0.29020188769E+03 -0.60069792219E+03  0.68355027237E+03  0.12500000000E+03 0.  0.
         21    1    1    2  503  501  0.80999046334E+02  0.29020188769E+03 -0.82382247417E+02  0.31235367105E+03  0.00000000000E+00 0.  1.
<mgrwt>
<rscale>  3 0.32619470E+03</rscale>
<asrwt>0</asrwt>
<pdfrwt beam="1">  1       21 0.24063367E-01 0.32619470E+03</pdfrwt>
<pdfrwt beam="2">  1       21 0.12915263E+00 0.32619470E+03</pdfrwt>
<totfact> 0.66016737E+03</totfact>
</mgrwt>
</event>
<event>
 4    0  0.1340771E-001  0.3727820E+03  0.7546771E-02  0.1053634E+00
         21   -1    0    0  503  501  0.00000000000E+00  0.00000000000E+00  0.80007876925E+03  0.80007876925E+03  0.00000000000E+00 0.  1.
         21   -1    0    0  501  502 -0.00000000000E+00 -0.00000000000E+00 -0.16497679272E+03  0.16497679272E+03  0.00000000000E+00 0.  1.
         25    1    1    2    0    0 -0.26861014785E+03 -0.22625204571E+03  0.36801658416E+03  0.52383452152E+03  0.12500000000E+03 0.  0.
         21    1    1    2  503  502  0.26861014785E+03  0.22625204571E+03  0.26708539238E+03  0.44122104045E+03  0.00000000000E+00 0.  1.
<mgrwt>
<rscale>  3 0.37278197E+03</rscale>
<asrwt>0</asrwt>
<pdfrwt beam="1">  1       21 0.12308904E+00 0.37278197E+03</pdfrwt>
<pdfrwt beam="2">  1       21 0.25381046E-01 0.37278197E+03</pdfrwt>
<totfact> 0.66000879E+03</totfact>
</mgrwt>
</event>
<event>
 4    0  0.1005289E-001  0.2633545E+03  0.7546771E-02  0.1105144E+00
         21   -1    0    0  502  501  0.00000000000E+00  0.00000000000E+00  0.16489066209E+04  0.16489066209E+04  0.00000000000E+00 0.  1.
         21   -1    0    0  503  502 -0.00000000000E+00 -0.00000000000E+00 -0.39209482408E+02  0.39209482408E+02  0.00000000000E+00 0. -1.
         25    1    1    2    0    0  0.23134154034E+03  0.14549908895E+02  0.66146797622E+03  0.71196593437E+03  0.12500000000E+03 0.  0.
         21    1    1    2  503  501 -0.23134154034E+03 -0.14549908895E+02  0.94822916227E+03  0.97615016894E+03  0.00000000000E+00 0.  1.
<mgrwt>
<rscale>  3 0.26335453E+03</rscale>
<asrwt>0</asrwt>
<pdfrwt beam="1">  1       21 0.25367789E+00 0.26335453E+03</pdfrwt>
<pdfrwt beam="2">  1       21 0.60322293E-02 0.26335453E+03</pdfrwt>
<totfact> 0.11665813E+04</totfact>
</mgrwt>
</event>
<event>
 4    0  0.1350863E-001  0.2375366E+03  0.7546771E-02  0.1121445E+00
         21   -1    0    0  502  501  0.00000000000E+00  0.00000000000E+00  0.79488322816E+03  0.79488322816E+03  0.00000000000E+00 0. -1.
         21   -1    0    0  503  502 -0.00000000000E+00 -0.00000000000E+00 -0.74625712955E+02  0.74625712955E+02  0.00000000000E+00 0. -1.
         25    1    1    2    0    0  0.81560390822E+01 -0.20182195698E+03  0.19692671878E+03  0.30855105876E+03  0.12500000000E+03 0.  0.
         21    1    1    2  503  501 -0.81560390822E+01  0.20182195698E+03  0.52333079642E+03  0.56095788235E+03  0.00000000000E+00 0. -1.
<mgrwt>
<rscale>  3 0.23753657E+03</rscale>
<asrwt>0</asrwt>
<pdfrwt beam="1">  1       21 0.12228972E+00 0.23753657E+03</pdfrwt>
<pdfrwt beam="2">  1       21 0.11480879E-01 0.23753657E+03</pdfrwt>
<totfact> 0.31217502E+04</totfact>
</mgrwt>
</event>
<event>
 4    0  0.1366547E-001  0.2833306E+03  0.7546771E-02  0.1093884E+00
         21   -1    0    0  503  501  0.00000000000E+00  0.00000000000E+00  0.60889363057E+03  0.60889363057E+03  0.00000000000E+00 0. -1.
         21   -1    0    0  501  502 -0.00000000000E+00 -0.00000000000E+00 -0.26411759592E+03  0.26411759592E+03  0.00000000000E+00 0.  1.
         25    1    1    2    0    0 -0.24709530005E+03  0.59959422228E+02 -0.14714586723E+03  0.31926184530E+03  0.12500000000E+03 0.  0.
         21    1    1    2  503  502  0.24709530005E+03 -0.59959422228E+02  0.49192190187E+03  0.55374938119E+03  0.00000000000E+00 0. -1.
<mgrwt>
<rscale>  3 0.28333058E+03</rscale>
<asrwt>0</asrwt>
<pdfrwt beam="1">  1       21 0.93675942E-01 0.28333058E+03</pdfrwt>
<pdfrwt beam="2">  1       21 0.40633477E-01 0.28333058E+03</pdfrwt>
<totfact> 0.52625346E+03</totfact>
</mgrwt>
</event>
<event>
 4    0  0.1200621E-001  0.3239321E+03  0.7546771E-02  0.1073854E+00
         21   -1    0    0  502  501  0.00000000000E+00  0.00000000000E+00  0.70988221532E+02  0.70988221532E+02  0.00000000000E+00 0. -1.
         21   -1    0    0  503  502 -0.00000000000E+00 -0.00000000000E+00 -0.14669722935E+04  0.14669722935E+04  0.00000000000E+00 0. -1.
         25    1    1    2    0    0 -0.23618535377E+03 -0.18309424199E+03 -0.92587674598E+03  0.98090762641E+03  0.12500000000E+03 0.  0.
         21    1    1    2  503  501  0.23618535377E+03  0.18309424199E+03 -0.47010732601E+03  0.55705288865E+03  0.00000000000E+00 0. -1.
<mgrwt>
<rscale>  3 0.32393213E+03</rscale>
<asrwt>0</asrwt>
<pdfrwt beam="1">  1       21 0.10921265E-01 0.32393213E+03</pdfrwt>
<pdfrwt beam="2">  1       21 0.22568804E+00 0.32393213E+03</pdfrwt>
<totfact> 0.58499385E+03</totfact>
</mgrwt>
</event>
<event>
 4    0  0.1255290E-001  0.2600932E+03  0.7546771E-02  0.1107087E+00
         21   -1    0    0  502  501  0.00000000000E+00  0.00000000000E+00  0.19506251607E+03  0.19506251607E+03  0.00000000000E+00 0. -1.
         21   -1    0    0  503  502 -0.00000000000E+00 -0.00000000000E+00 -0.47274149444E+03  0.47274149444E+03  0.00000000000E+00 0. -1.
         25    1    1    2    0    0 -0.20266703608E+03 -0.10464013334E+03 -0.34308043582E+03  0.43052603924E+03  0.12500000000E+03 0.  0.
         21    1    1    2  503  501  0.20266703608E+03  0.10464013334E+03  0.65401457454E+02  0.23727797128E+03  0.00000000000E+00 0. -1.
<mgrwt>
<rscale>  3 0.26009322E+03</rscale>
<asrwt>0</asrwt>
<pdfrwt beam="1">  1       21 0.30009618E-01 0.26009322E+03</pdfrwt>
<pdfrwt beam="2">  1       21 0.72729460E-01 0.26009322E+03</pdfrwt>
<totfact> 0.17468384E+04</totfact>
</mgrwt>
</event>
<event>
 4    0  0.1277223E-001  0.2629558E+03  0.7546771E-02  0.1105380E+00
         21   -1    0    0  502  501  0.00000000000E+00  0.00000000000E+00  0.32628787479E+03  0.32628787479E+03  0.00000000000E+00 0.  1.
         21   -1    0    0  503  502 -0.00000000000E+00 -0.00000000000E+00 -0.33426168020E+03  0.33426168020E+03  0.00000000000E+00 0.  1.
         25    1    1    2    0    0 -0.18855383480E+03  0.13404553636E+03 -0.22294276832E+03  0.34474517021E+03  0.12500000000E+03 0.  0.
         21    1    1    2  503  501  0.18855383480E+03 -0.13404553636E+03  0.21496896290E+03  0.31580438478E+03  0.00000000000E+00 0.  1.
<mgrwt>
<rscale>  3 0.26295580E+03</rscale>
<asrwt>0</asrwt>
<pdfrwt beam="1">  1       21 0.50198135E-01 0.26295580E+03</pdfrwt>
<pdfrwt beam="2">  1       21 0.51424874E-01 0.26295580E+03</pdfrwt>
<totfact> 0.13039676E+04</totfact>
</mgrwt>
</event>
<event>
 4    0  0.1363499E-001  0.2397727E+03  0.7546771E-02  0.1119944E+00
         21   -1    0    0  503  501  0.00000000000E+00  0.00000000000E+00  0.41337800348E+03  0.41337800348E+03  0.00000000000E+00 0. -1.
         21   -1    0    0  501  502 -0.00000000000E+00 -0.00000000000E+00 -0.12029774247E+03  0.12029774247E+03  0.00000000000E+00 0. -1.
         25    1    1    2    0    0  0.11621397465E+03 -0.16840508659E+03  0.18065433903E+03  0.30021151094E+03  0.12500000000E+03 0.  0.
         21    1    1    2  503  502 -0.11621397465E+03  0.16840508659E+03  0.11242592198E+03  0.23346423501E+03  0.00000000000E+00 0. -1.
<mgrwt>
<rscale>  3 0.23977273E+03</rscale>
<asrwt>0</asrwt>
<pdfrwt beam="1">  1       21 0.63596615E-01 0.23977273E+03</pdfrwt>
<pdfrwt beam="2">  1       21 0.18507345E-01 0.23977273E+03</pdfrwt>
<totfact> 0.59696146E+04</totfact>
</mgrwt>
</event>
<event>
 4    0  0.1386757E-001  0.4795529E+03  0.7546771E-02  0.1019258E+00
         21   -1    0    0  502  501  0.00000000000E+00  0.00000000000E+00  0.36404459206E+03  0.36404459206E+03  0.00000000000E+00 0. -1.
         21   -1    0    0  503  502 -0.00000000000E+00 -0.00000000000E+00 -0.75879673832E+03  0.75879673832E+03  0.00000000000E+00 0. -1.
         25    1    1    2    0    0 -0.42708158721E+03  0.17873812293E+03 -0.44869656800E+03  0.65673404728E+03  0.12500000000E+03 0.  0.
         21    1    1    2  503  501  0.42708158721E+03 -0.17873812293E+03  0.53944421733E+02  0.46610728310E+03  0.00000000000E+00 0. -1.
<mgrwt>
<rscale>  3 0.47955292E+03</rscale>
<asrwt>0</asrwt>
<pdfrwt beam="1">  1       21 0.56006861E-01 0.47955292E+03</pdfrwt>
<pdfrwt beam="2">  1       21 0.11673796E+00 0.47955292E+03</pdfrwt>
<totfact> 0.14347589E+03</totfact>
</mgrwt>
</event>
<event>
 4    0  0.1031936E-001  0.2435029E+03  0.7546771E-02  0.1117481E+00
         21   -1    0    0  503  501  0.00000000000E+00  0.00000000000E+00  0.72276332997E+02  0.72276332997E+02  0.00000000000E+00 0. -1.
         21   -1    0    0  501  502 -0.00000000000E+00 -0.00000000000E+00 -0.12676967836E+04  0.12676967836E+04  0.00000000000E+00 0.  1.
         25    1    1    2    0    0 -0.26717774546E+02 -0.20725550179E+03 -0.10675841344E+04  0.10950020851E+04  0.12500000000E+03 0.  0.
         21    1    1    2  503  502  0.26717774546E+02  0.20725550179E+03 -0.12783631621E+03  0.24497103143E+03  0.00000000000E+00 0. -1.
<mgrwt>
<rscale>  3 0.24350294E+03</rscale>
<asrwt>0</asrwt>
<pdfrwt beam="1">  1       21 0.11119436E-01 0.24350294E+03</pdfrwt>
<pdfrwt beam="2">  1       21 0.19503027E+00 0.24350294E+03</pdfrwt>
<totfact> 0.93480776E+03</totfact>
</mgrwt>
</event>
<event>
 4    0  0.1005289E-001  0.2710655E+03  0.7546771E-02  0.1100671E+00
         21   -1    0    0  503  501  0.00000000000E+00  0.00000000000E+00  0.20377941798E+04  0.20377941798E+04  0.00000000000E+00 0. -1.
         21   -1    0    0  501  502 -0.00000000000E+00 -0.00000000000E+00 -0.32391439853E+02  0.32391439853E+02  0.00000000000E+00 0. -1.
         25    1    1    2    0    0 -0.94016679398E+02 -0.22138732088E+03  0.11585886120E+04  0.11898756464E+04  0.12500000000E+03 0.  0.
         21    1    1    2  503  502  0.94016679398E+02  0.22138732088E+03  0.84681412788E+03  0.88030997326E+03  0.00000000000E+00 0. -1.
<mgrwt>
<rscale>  3 0.27106546E+03</rscale>
<asrwt>0</asrwt>
<pdfrwt beam="1">  1       21 0.31350670E+00 0.27106546E+03</pdfrwt>
<pdfrwt beam="2">  1       21 0.49833000E-02 0.27106546E+03</pdfrwt>
<totfact> 0.71544489E+03</totfact>
</mgrwt>
</event>
<event>
 4    0  0.1500654E-001  0.3312857E+03  0.7546771E-02  0.1070569E+00
         21   -1    0    0  502  501  0.00000000000E+00  0.00000000000E+00  0.55988640611E+03  0.55988640611E+03  0.00000000000E+00 0. -1.
         21   -1    0    0  503  502 -0.00000000000E+00 -0.00000000000E+00 -0.20874604737E+03  0.20874604737E+03  0.00000000000E+00 0. -1.
         25    1    1    2    0    0  0.48829542421E+02 -0.30288758740E+03  0.43450051992E+02  0.33412291426E+03  0.12500000000E+03 0.  0.
         21    1    1    2  503  501 -0.48829542421E+02  0.30288758740E+03  0.30769030674E+03  0.43450953923E+03  0.00000000000E+00 0. -1.
<mgrwt>
<rscale>  3 0.33128570E+03</rscale>
<asrwt>0</asrwt>
<pdfrwt beam="1">  1       21 0.86136369E-01 0.33128570E+03</pdfrwt>
<pdfrwt beam="2">  1       21 0.32114777E-01 0.33128570E+03</pdfrwt>
<totfact> 0.10062853E+04</totfact>
</mgrwt>
</event>
<event>
 4    0  0.1248646E-001  0.2439671E+03  0.7546771E-02  0.1117178E+00
         21   -1    0    0  503  501  0.00000000000E+00  0.00000000000E+00  0.12522510121E+04  0.12522510121E+04  0.00000000000E+00 0. -1.
         21   -1    0    0  501  502 -0.00000000000E+00 -0.00000000000E+00 -0.54764268862E+02  0.54764268862E+02  0.00000000000E+00 0. -1.
         25    1    1    2    0    0 -0.10601909988E+03  0.18070661093E+03  0.30658014987E+03  0.39180520296E+03  0.12500000000E+03 0.  0.
         21    1    1    2  503  502  0.10601909988E+03 -0.18070661093E+03  0.89090659335E+03  0.91521007799E+03  0.00000000000E+00 0. -1.
<mgrwt>
<rscale>  3 0.24396706E+03</rscale>
<asrwt>0</asrwt>
<pdfrwt beam="1">  1       21 0.19265398E+00 0.24396706E+03</pdfrwt>
<pdfrwt beam="2">  1       21 0.84252731E-02 0.24396706E+03</pdfrwt>
<totfact> 0.15842730E+04</totfact>
</mgrwt>
</event>
<event>
 4    0  0.1354191E-001  0.3705361E+03  0.7546771E-02  0.1054488E+00
         21   -1    0    0  503  501  0.00000000000E+00  0.00000000000E+00  0.60724801058E+03  0.60724801058E+03  0.00000000000E+00 0.  1.
         21   -1    0    0  501  502 -0.00000000000E+00 -0.00000000000E+00 -0.23883875603E+03  0.23883875603E+03  0.00000000000E+00 0.  1.
         25    1    1    2    0    0 -0.13172027655E+03 -0.32298877053E+03  0.32815384176E+03  0.49495648395E+03  0.12500000000E+03 0.  0.
         21    1    1    2  503  502  0.13172027655E+03  0.32298877053E+03  0.40255412799E+02  0.35113028266E+03  0.00000000000E+00 0.  1.
<mgrwt>
<rscale>  3 0.37053607E+03</rscale>
<asrwt>0</asrwt>
<pdfrwt beam="1">  1       21 0.93422770E-01 0.37053607E+03</pdfrwt>
<pdfrwt beam="2">  1       21 0.36744424E-01 0.37053607E+03</pdfrwt>
<totfact> 0.62440770E+03</totfact>
</mgrwt>
</event>
<event>
 4    0  0.1005289E-001  0.3618881E+03  0.7546771E-02  0.1057839E+00
         21   -1    0    0  503  501  0.00000000000E+00  0.00000000000E+00  0.93482091657E+02  0.93482091657E+02  0.00000000000E+00 0. -1.
         21   -1    0    0  501  502 -0.00000000000E+00 -0.00000000000E+00 -0.21014635898E+04  0.21014635898E+04  0.00000000000E+00 0. -1.
         25    1    1    2    0    0 -0.26323870882E+03 -0.21457718563E+03 -0.16946829866E+04  0.17328916330E+04  0.12500000000E+03 0.  0.
         21    1    1    2  503  502  0.26323870882E+03  0.21457718563E+03 -0.31329851151E+03  0.46205404849E+03  0.00000000000E+00 0. -1.
<mgrwt>
<rscale>  3 0.36188809E+03</rscale>
<asrwt>0</asrwt>
<pdfrwt beam="1">  1       21 0.14381860E-01 0.36188809E+03</pdfrwt>
<pdfrwt beam="2">  1       21 0.32330209E+00 0.36188809E+03</pdfrwt>
<totfact> 0.89610846E+02</totfact>
</mgrwt>
</event>
<event>
 4    0  0.1005289E-001  0.5154434E+03  0.7546771E-02  0.1009825E+00
         21   -1    0    0  503  501  0.00000000000E+00  0.00000000000E+00  0.84807549168E+03  0.84807549168E+03  0.00000000000E+00 0.  1.
         21   -1    0    0  501  502 -0.00000000000E+00 -0.00000000000E+00 -0.95659862705E+03  0.95659862705E+03  0.00000000000E+00 0.  1.
         25    1    1    2    0    0  0.25338563123E+02 -0.49941448581E+03 -0.79979177761E+03  0.95149816550E+03  0.12500000000E+03 0.  0.
         21    1    1    2  503  502 -0.25338563123E+02  0.49941448581E+03  0.69126864225E+03  0.85317595323E+03  0.00000000000E+00 0.  1.
<mgrwt>
<rscale>  3 0.51544337E+03</rscale>
<asrwt>0</asrwt>
<pdfrwt beam="1">  1       21 0.13047315E+00 0.51544337E+03</pdfrwt>
<pdfrwt beam="2">  1       21 0.14716902E+00 0.51544337E+03</pdfrwt>
<totfact> 0.10459985E+02</totfact>
</mgrwt>
</event>
<event>
 4    0  0.1057288E-001  0.2726409E+03  0.7546771E-02  0.1099778E+00
         21   -1    0    0  502  501  0.00000000000E+00  0.00000000000E+00  0.22315021518E+03  0.22315021518E+03  0.00000000000E+00 0.  1.
         21   -1    0    0  503  502 -0.00000000000E+00 -0.00000000000E+00 -0.40543330358E+03  0.40543330358E+03  0.00000000000E+00 0. -1.
         25    1    1    2    0    0  0.76268311115E+02 -0.22998090587E+03 -0.25735810038E+03  0.37492167739E+03  0.12500000000E+03 0.  0.
         21    1    1    2  503  501 -0.76268311115E+02  0.22998090587E+03  0.75075011989E+02  0.25366184137E+03  0.00000000000E+00 0.  1.
<mgrwt>
<rscale>  3 0.27264092E+03</rscale>
<asrwt>0</asrwt>
<pdfrwt beam="1">  1       21 0.34330802E-01 0.27264092E+03</pdfrwt>
<pdfrwt beam="2">  1       21 0.62374354E-01 0.27264092E+03</pdfrwt>
<totfact> 0.18680410E+04</totfact>
</mgrwt>
</event>
<event>
 4    0  0.1005289E-001  0.2788149E+03  0.7546771E-02  0.1096338E+00
         21   -1    0    0  503  501  0.00000000000E+00  0.00000000000E+00  0.21846871238E+04  0.21846871238E+04  0.00000000000E+00 0. -1.
         21   -1    0    0  501  502 -0.00000000000E+00 -0.00000000000E+00 -0.32544008470E+02  0.32544008470E+02  0.00000000000E+00 0. -1.
         25    1    1    2    0    0  0.16550165931E+02 -0.24867417262E+03  0.12900813641E+04  0.13198665380E+04  0.12500000000E+03 0.  0.
         21    1    1    2  503  502 -0.16550165931E+02  0.24867417262E+03  0.86206175119E+03  0.89736459424E+03  0.00000000000E+00 0. -1.
<mgrwt>
<rscale>  3 0.27881491E+03</rscale>
<asrwt>0</asrwt>
<pdfrwt beam="1">  1       21 0.33610560E+00 0.27881491E+03</pdfrwt>
<pdfrwt beam="2">  1       21 0.50067722E-02 0.27881491E+03</pdfrwt>
<totfact> 0.51836330E+03</totfact>
</mgrwt>
</event>
<event>
 4    0  0.1099434E-001  0.3005276E+03  0.7546771E-02  0.1084977E+00
         21   -1    0    0  503  501  0.00000000000E+00  0.00000000000E+00  0.14353787393E+04  0.14353787393E+04  0.00000000000E+00 0.  1.
         21   -1    0    0  501  502 -0.00000000000E+00 -0.00000000000E+00 -0.81486122174E+02  0.81486122174E+02  0.00000000000E+00 0.  1.
         25    1    1    2    0    0 -0.27189473000E+03  0.27659905093E+02  0.28711085139E+03  0.41563139383E+03  0.12500000000E+03 0.  0.
         21    1    1    2  503  502  0.27189473000E+03 -0.27659905093E+02  0.10667817658E+04  0.11012334677E+04  0.00000000000E+00 0.  1.
<mgrwt>
<rscale>  3 0.30052756E+03</rscale>
<asrwt>0</asrwt>
<pdfrwt beam="1">  1       21 0.22082748E+00 0.30052756E+03</pdfrwt>
<pdfrwt beam="2">  1       21 0.12536328E-01 0.30052756E+03</pdfrwt>
<totfact> 0.49597861E+03</totfact>
</mgrwt>
</event>
<event>
 4    0  0.1430834E-001  0.3265598E+03  0.7546771E-02  0.1072669E+00
         21   -1    0    0  503  501  0.00000000000E+00  0.00000000000E+00  0.52044671341E+03  0.52044671341E+03  0.00000000000E+00 0. -1.
         21   -1    0    0  501  502 -0.00000000000E+00 -0.00000000000E+00 -0.29353055467E+03  0.29353055467E+03  0.00000000000E+00 0. -1.
         25    1    1    2    0    0 -0.95323307864E+02  0.28623377026E+03 -0.12569771057E+03  0.34991601664E+03  0.12500000000E+03 0.  0.
         21    1    1    2  503  502  0.95323307864E+02 -0.28623377026E+03  0.35261386932E+03  0.46406125144E+03  0.00000000000E+00 0. -1.
<mgrwt>
<rscale>  3 0.32655980E+03</rscale>
<asrwt>0</asrwt>
<pdfrwt beam="1">  1       21 0.80068725E-01 0.32655980E+03</pdfrwt>
<pdfrwt beam="2">  1       21 0.45158547E-01 0.32655980E+03</pdfrwt>
<totfact> 0.59690521E+03</totfact>
</mgrwt>
</event>
<event>
 4    0  0.1440541E-001  0.3427777E+03  0.7546771E-02  0.1065619E+00
         21   -1    0    0  503  501  0.00000000000E+00  0.00000000000E+00  0.33523181987E+03  0.33523181987E+03  0.00000000000E+00 0. -1.
         21   -1    0    0  501  502 -0.00000000000E+00 -0.00000000000E+00 -0.38279966561E+03  0.38279966561E+03  0.00000000000E+00 0. -1.
         25    1    1    2    0    0 -0.26431182356E+03 -0.17891572250E+03 -0.16178193832E+03  0.37903821892E+03  0.12500000000E+03 0.  0.
         21    1    1    2  503  502  0.26431182356E+03  0.17891572250E+03  0.11421409259E+03  0.33899326657E+03  0.00000000000E+00 0. -1.
<mgrwt>
<rscale>  3 0.34277774E+03</rscale>
<asrwt>0</asrwt>
<pdfrwt beam="1">  1       21 0.51574126E-01 0.34277774E+03</pdfrwt>
<pdfrwt beam="2">  1       21 0.58892256E-01 0.34277774E+03</pdfrwt>
<totfact> 0.88930398E+03</totfact>
</mgrwt>
</event>
<event>
 4    0  0.1005289E-001  0.6145247E+03  0.7546771E-02  0.9875722E-01
         21   -1    0    0  502  501  0.00000000000E+00  0.00000000000E+00  0.18558076581E+04  0.18558076581E+04  0.00000000000E+00 0.  1.
         21   -1    0    0  503  502 -0.00000000000E+00 -0.00000000000E+00 -0.20002995703E+03  0.20002995703E+03  0.00000000000E+00 0.  1.
         25    1    1    2    0    0  0.54581400435E+03  0.25318496962E+03  0.77279783036E+03  0.98734849106E+03  0.12500000000E+03 0.  0.
         21    1    1    2  503  501 -0.54581400435E+03 -0.25318496962E+03  0.88297987075E+03  0.10684891241E+04  0.00000000000E+00 0.  1.
<mgrwt>
<rscale>  3 0.61452466E+03</rscale>
<asrwt>0</asrwt>
<pdfrwt beam="1">  1       21 0.28550886E+00 0.61452466E+03</pdfrwt>
<pdfrwt beam="2">  1       21 0.30773841E-01 0.61452466E+03</pdfrwt>
<totfact> 0.30777377E+02</totfact>
</mgrwt>
</event>
<event>
 4    0  0.1125759E-001  0.2428411E+03  0.7546771E-02  0.1117914E+00
         21   -1    0    0  502  501  0.00000000000E+00  0.00000000000E+00  0.85222168095E+03  0.85222168095E+03  0.00000000000E+00 0.  1.
         21   -1    0    0  503  502 -0.00000000000E+00 -0.00000000000E+00 -0.20357264264E+03  0.20357264264E+03  0.00000000000E+00 0.  1.
         25    1    1    2    0    0  0.20387357639E+03  0.42218250276E+02 -0.11181354957E+03  0.26734637771E+03  0.12500000000E+03 0.  0.
         21    1    1    2  503  501 -0.20387357639E+03 -0.42218250276E+02  0.76046258788E+03  0.78844794588E+03  0.00000000000E+00 0.  1.
<mgrwt>
<rscale>  3 0.24284113E+03</rscale>
<asrwt>0</asrwt>
<pdfrwt beam="1">  1       21 0.13111103E+00 0.24284113E+03</pdfrwt>
<pdfrwt beam="2">  1       21 0.31318868E-01 0.24284113E+03</pdfrwt>
<totfact> 0.39867997E+03</totfact>
</mgrwt>
</event>
<event>
 4    0  0.1559317E-001  0.2874521E+03  0.7546771E-02  0.1091687E+00
         21   -1    0    0  503  501  0.00000000000E+00  0.00000000000E+00  0.23134378240E+03  0.23134378240E+03  0.00000000000E+00 0.  1.
         21   -1    0    0  501  502 -0.00000000000E+00 -0.00000000000E+00 -0.38088095392E+03  0.38088095392E+03  0.00000000000E+00 0.  1.
         25    1    1    2    0    0  0.24663638866E+03  0.78575929678E+02 -0.19777491481E+03  0.34891775803E+03  0.12500000000E+03 0.  0.
         21    1    1    2  503  502 -0.24663638866E+03 -0.78575929678E+02  0.48237743293E+02  0.26330697829E+03  0.00000000000E+00 0.  1.
<mgrwt>
<rscale>  3 0.28745206E+03</rscale>
<asrwt>0</asrwt>
<pdfrwt beam="1">  1       21 0.35591351E-01 0.28745206E+03</pdfrwt>
<pdfrwt beam="2">  1       21 0.58597070E-01 0.28745206E+03</pdfrwt>
<totfact> 0.19775767E+04</totfact>
</mgrwt>
</event>
<event>
 4    0  0.1315233E-001  0.2857279E+03  0.7546771E-02  0.1092601E+00
         21   -1    0    0  503  501  0.00000000000E+00  0.00000000000E+00  0.16728439394E+03  0.16728439394E+03  0.00000000000E+00 0. -1.
         21   -1    0    0  501  502 -0.00000000000E+00 -0.00000000000E+00 -0.19712533178E+04  0.19712533178E+04  0.00000000000E+00 0.  1.
         25    1    1    2    0    0  0.17508883689E+03 -0.18804075320E+03 -0.18547529208E+04  0.18766323089E+04  0.12500000000E+03 0.  0.
         21    1    1    2  503  502 -0.17508883689E+03  0.18804075320E+03  0.50783996962E+02  0.26190540279E+03  0.00000000000E+00 0. -1.
<mgrwt>
<rscale>  3 0.28572789E+03</rscale>
<asrwt>0</asrwt>
<pdfrwt beam="1">  1       21 0.25736060E-01 0.28572789E+03</pdfrwt>
<pdfrwt beam="2">  1       21 0.30326975E+00 0.28572789E+03</pdfrwt>
<totfact> 0.41919811E+02</totfact>
</mgrwt>
</event>
<event>
 4    0  0.1501104E-001  0.2933289E+03  0.7546771E-02  0.1088624E+00
         21   -1    0    0  503  501  0.00000000000E+00  0.00000000000E+00  0.26364028064E+03  0.26364028064E+03  0.00000000000E+00 0. -1.
         21   -1    0    0  501  502 -0.00000000000E+00 -0.00000000000E+00 -0.32346462815E+03  0.32346462815E+03  0.00000000000E+00 0. -1.
         25    1    1    2    0    0  0.19531136558E+03 -0.17963946799E+03 -0.11674402288E+03  0.31570719799E+03  0.12500000000E+03 0.  0.
         21    1    1    2  503  502 -0.19531136558E+03  0.17963946799E+03  0.56919675375E+02  0.27139771080E+03  0.00000000000E+00 0. -1.
<mgrwt>
<rscale>  3 0.29332894E+03</rscale>
<asrwt>0</asrwt>
<pdfrwt beam="1">  1       21 0.40560043E-01 0.29332894E+03</pdfrwt>
<pdfrwt beam="2">  1       21 0.49763789E-01 0.29332894E+03</pdfrwt>
<totfact> 0.21448104E+04</totfact>
</mgrwt>
</event>
<event>
 4    0  0.1214442E-001  0.2541561E+03  0.7546771E-02  0.1110706E+00
         21   -1    0    0  503  501  0.00000000000E+00  0.00000000000E+00  0.80720996244E+03  0.80720996244E+03  0.00000000000E+00 0.  1.
         21   -1    0    0  501  502 -0.00000000000E+00 -0.00000000000E+00 -0.12538817983E+03  0.12538817983E+03  0.00000000000E+00 0. -1.
         25    1    1    2    0    0 -0.58283486163E+01  0.22121564944E+03  0.44593141357E+02  0.25803852709E+03  0.12500000000E+03 0.  0.
         21    1    1    2  503  502  0.58283486163E+01 -0.22121564944E+03  0.63722864126E+03  0.67455961519E+03  0.00000000000E+00 0.  1.
<mgrwt>
<rscale>  3 0.25415612E+03</rscale>
<asrwt>0</asrwt>
<pdfrwt beam="1">  1       21 0.12418614E+00 0.25415612E+03</pdfrwt>
<pdfrwt beam="2">  1       21 0.19290490E-01 0.25415612E+03</pdfrwt>
<totfact> 0.11513629E+04</totfact>
</mgrwt>
</event>
<event>
 4    0  0.1125556E-001  0.3266967E+03  0.7546771E-02  0.1072608E+00
         21   -1    0    0  503  501  0.00000000000E+00  0.00000000000E+00  0.81720565831E+02  0.81720565831E+02  0.00000000000E+00 0. -1.
         21   -1    0    0  501  502 -0.00000000000E+00 -0.00000000000E+00 -0.15914583093E+04  0.15914583093E+04  0.00000000000E+00 0. -1.
         25    1    1    2    0    0  0.29901597643E+03 -0.41172673208E+02 -0.11876527940E+04  0.12317669837E+04  0.12500000000E+03 0.  0.
         21    1    1    2  503  502 -0.29901597643E+03  0.41172673208E+02 -0.32208494950E+03  0.44141189140E+03  0.00000000000E+00 0. -1.
<mgrwt>
<rscale>  3 0.32669671E+03</rscale>
<asrwt>0</asrwt>
<pdfrwt beam="1">  1       21 0.12572396E-01 0.32669671E+03</pdfrwt>
<pdfrwt beam="2">  1       21 0.24483972E+00 0.32669671E+03</pdfrwt>
<totfact> 0.34521561E+03</totfact>
</mgrwt>
</event>
<event>
 4    0  0.1254524E-001  0.2704585E+03  0.7546771E-02  0.1101017E+00
         21   -1    0    0  503  501  0.00000000000E+00  0.00000000000E+00  0.66718367201E+02  0.66718367201E+02  0.00000000000E+00 0.  1.
         21   -1    0    0  501  502 -0.00000000000E+00 -0.00000000000E+00 -0.12697530156E+04  0.12697530156E+04  0.00000000000E+00 0.  1.
         25    1    1    2    0    0 -0.18601420359E+03 -0.15139852803E+03 -0.95035246229E+03  0.98808785076E+03  0.12500000000E+03 0.  0.
         21    1    1    2  503  502  0.18601420359E+03  0.15139852803E+03 -0.25268218614E+03  0.34838353208E+03  0.00000000000E+00 0.  1.
<mgrwt>
<rscale>  3 0.27045850E+03</rscale>
<asrwt>0</asrwt>
<pdfrwt beam="1">  1       21 0.10264365E-01 0.27045850E+03</pdfrwt>
<pdfrwt beam="2">  1       21 0.19534661E+00 0.27045850E+03</pdfrwt>
<totfact> 0.10548773E+04</totfact>
</mgrwt>
</event>
<event>
 4    0  0.1005289E-001  0.4939135E+03  0.7546771E-02  0.1015380E+00
         21   -1    0    0  502  501  0.00000000000E+00  0.00000000000E+00  0.18201156798E+04  0.18201156798E+04  0.00000000000E+00 0. -1.
         21   -1    0    0  503  502 -0.00000000000E+00 -0.00000000000E+00 -0.25073467541E+03  0.25073467541E+03  0.00000000000E+00 0.  1.
         25    1    1    2    0    0  0.42064339467E+03 -0.22668191289E+03  0.72071826215E+02  0.49914417080E+03  0.12500000000E+03 0.  0.
         21    1    1    2  503  501 -0.42064339467E+03  0.22668191289E+03  0.14973091782E+04  0.15717061845E+04  0.00000000000E+00 0. -1.
<mgrwt>
<rscale>  3 0.49391351E+03</rscale>
<asrwt>0</asrwt>
<pdfrwt beam="1">  1       21 0.28001779E+00 0.49391351E+03</pdfrwt>
<pdfrwt beam="2">  1       21 0.38574567E-01 0.49391351E+03</pdfrwt>
<totfact> 0.22230680E+02</totfact>
</mgrwt>
</event>
<event>
 4    0  0.1292772E-001  0.2700577E+03  0.7546771E-02  0.1101247E+00
         21   -1    0    0  503  501  0.00000000000E+00  0.00000000000E+00  0.81404543022E+03  0.81404543022E+03  0.00000000000E+00 0.  1.
         21   -1    0    0  501  502 -0.00000000000E+00 -0.00000000000E+00 -0.15414362631E+03  0.15414362631E+03  0.00000000000E+00 0. -1.
         25    1    1    2    0    0 -0.12869701224E+03 -0.20184951924E+03  0.41295945164E+01  0.27008924993E+03  0.12500000000E+03 0.  0.
         21    1    1    2  503  502  0.12869701224E+03  0.20184951924E+03  0.65577220939E+03  0.69809980660E+03  0.00000000000E+00 0.  1.
<mgrwt>
<rscale>  3 0.27005768E+03</rscale>
<asrwt>0</asrwt>
<pdfrwt beam="1">  1       21 0.12523776E+00 0.27005768E+03</pdfrwt>
<pdfrwt beam="2">  1       21 0.23714404E-01 0.27005768E+03</pdfrwt>
<totfact> 0.75563333E+03</totfact>
</mgrwt>
</event>
<event>
 4    0  0.1005289E-001  0.2922483E+03  0.7546771E-02  0.1089181E+00
         21   -1    0    0  503  501  0.00000000000E+00  0.00000000000E+00  0.19034946421E+04  0.19034946421E+04  0.00000000000E+00 0. -1.
         21   -1    0    0  501  502 -0.00000000000E+00 -0.00000000000E+00 -0.43465517104E+02  0.43465517104E+02  0.00000000000E+00 0.  1.
         25    1    1    2    0    0  0.25249803958E+03 -0.77645423931E+02  0.72697448019E+03  0.78351832569E+03  0.12500000000E+03 0.  0.
         21    1    1    2  503  502 -0.25249803958E+03  0.77645423931E+02  0.11330546448E+04  0.11634418335E+04  0.00000000000E+00 0. -1.
<mgrwt>
<rscale>  3 0.29224831E+03</rscale>
<asrwt>0</asrwt>
<pdfrwt beam="1">  1       21 0.29284526E+00 0.29224831E+03</pdfrwt>
<pdfrwt beam="2">  1       21 0.66870041E-02 0.29224831E+03</pdfrwt>
<totfact> 0.56100775E+03</totfact>
</mgrwt>
</event>
<event>
 4    0  0.1159202E-001  0.2436968E+03  0.7546771E-02  0.1117354E+00
         21   -1    0    0  502  501  0.00000000000E+00  0.00000000000E+00  0.15160626252E+04  0.15160626252E+04  0.00000000000E+00 0. -1.
         21   -1    0    0  503  502 -0.00000000000E+00 -0.00000000000E+00 -0.41967714307E+02  0.41967714307E+02  0.00000000000E+00 0. -1.
         25    1    1    2    0    0  0.18751689517E+03  0.92739039365E+02  0.43992164154E+03  0.50291069395E+03  0.12500000000E+03 0.  0.
         21    1    1    2  503  501 -0.18751689517E+03 -0.92739039365E+02  0.10341732694E+04  0.10551196456E+04  0.00000000000E+00 0. -1.
<mgrwt>
<rscale>  3 0.24369677E+03</rscale>
<asrwt>0</asrwt>
<pdfrwt beam="1">  1       21 0.23324036E+00 0.24369677E+03</pdfrwt>
<pdfrwt beam="2">  1       21 0.64565726E-02 0.24369677E+03</pdfrwt>
<totfact> 0.13958828E+04</totfact>
</mgrwt>
</event>
<event>
 4    0  0.1512584E-001  0.2993797E+03  0.7546771E-02  0.1085551E+00
         21   -1    0    0  503  501  0.00000000000E+00  0.00000000000E+00  0.10937948217E+03  0.10937948217E+03  0.00000000000E+00 0.  1.
         21   -1    0    0  501  502 -0.00000000000E+00 -0.00000000000E+00 -0.75057735686E+03  0.75057735686E+03  0.00000000000E+00 0.  1.
         25    1    1    2    0    0  0.23794938910E+02  0.27099259712E+03 -0.36831514204E+03  0.47464115990E+03  0.12500000000E+03 0.  0.
         21    1    1    2  503  502 -0.23794938910E+02 -0.27099259712E+03 -0.27288273264E+03  0.38531567913E+03  0.00000000000E+00 0.  1.
<mgrwt>
<rscale>  3 0.29937967E+03</rscale>
<asrwt>0</asrwt>
<pdfrwt beam="1">  1       21 0.16827613E-01 0.29937967E+03</pdfrwt>
<pdfrwt beam="2">  1       21 0.11547344E+00 0.29937967E+03</pdfrwt>
<totfact> 0.17427747E+04</totfact>
</mgrwt>
</event>
<event>
 4    0  0.1005289E-001  0.2836923E+03  0.7546771E-02  0.1093689E+00
         21   -1    0    0  502  501  0.00000000000E+00  0.00000000000E+00  0.15032159518E+04  0.15032159518E+04  0.00000000000E+00 0.  1.
         21   -1    0    0  503  502 -0.00000000000E+00 -0.00000000000E+00 -0.55322608224E+02  0.55322608224E+02  0.00000000000E+00 0.  1.
         25    1    1    2    0    0 -0.16064051699E+03 -0.19761316717E+03  0.10371670784E+04  0.10752659615E+04  0.12500000000E+03 0.  0.
         21    1    1    2  503  501  0.16064051699E+03  0.19761316717E+03  0.41072626520E+03  0.48327259850E+03  0.00000000000E+00 0.  1.
<mgrwt>
<rscale>  3 0.28369233E+03</rscale>
<asrwt>0</asrwt>
<pdfrwt beam="1">  1       21 0.23126396E+00 0.28369233E+03</pdfrwt>
<pdfrwt beam="2">  1       21 0.85111716E-02 0.28369233E+03</pdfrwt>
<totfact> 0.86268486E+03</totfact>
</mgrwt>
</event>
<event>
 4    0  0.1593627E-001  0.2390473E+03  0.7546771E-02  0.1120429E+00
         21   -1    0    0  503  501  0.00000000000E+00  0.00000000000E+00  0.19204698045E+04  0.19204698045E+04  0.00000000000E+00 0. -1.
         21   -1    0    0  501  502 -0.00000000000E+00 -0.00000000000E+00 -0.12715276653E+03  0.12715276653E+03  0.00000000000E+00 0.  1.
         25    1    1    2    0    0 -0.17793939632E+03 -0.99278321306E+02 -0.37142672662E+01  0.23907615863E+03  0.12500000000E+03 0.  0.
         21    1    1    2  503  502  0.17793939632E+03  0.99278321306E+02  0.17970313052E+04  0.18085464124E+04  0.00000000000E+00 0. -1.
<mgrwt>
<rscale>  3 0.23904730E+03</rscale>
<asrwt>0</asrwt>
<pdfrwt beam="1">  1       21 0.29545687E+00 0.23904730E+03</pdfrwt>
<pdfrwt beam="2">  1       21 0.19561965E-01 0.23904730E+03</pdfrwt>
<totfact> 0.82360755E+02</totfact>
</mgrwt>
</event>
<event>
 4    0  0.1163725E-001  0.2805942E+03  0.7546771E-02  0.1095365E+00
         21   -1    0    0  503  501  0.00000000000E+00  0.00000000000E+00  0.10553503445E+04  0.10553503445E+04  0.00000000000E+00 0.  1.
         21   -1    0    0  501  502 -0.00000000000E+00 -0.00000000000E+00 -0.28281084310E+03  0.28281084310E+03  0.00000000000E+00 0.  1.
         25    1    1    2    0    0 -0.85155772291E+02  0.23633998526E+03 -0.19294468121E+03  0.34053009293E+03  0.12500000000E+03 0.  0.
         21    1    1    2  503  502  0.85155772291E+02 -0.23633998526E+03  0.96548418260E+03  0.99763109466E+03  0.00000000000E+00 0.  1.
<mgrwt>
<rscale>  3 0.28059418E+03</rscale>
<asrwt>0</asrwt>
<pdfrwt beam="1">  1       21 0.16236159E+00 0.28059418E+03</pdfrwt>
<pdfrwt beam="2">  1       21 0.43509361E-01 0.28059418E+03</pdfrwt>
<totfact> 0.11373197E+03</totfact>
</mgrwt>
</event>
<event>
 4    0  0.1118768E-001  0.2705538E+03  0.7546771E-02  0.1100963E+00
         21   -1    0    0  503  501  0.00000000000E+00  0.00000000000E+00  0.11273250903E+03  0.11273250903E+03  0.00000000000E+00 0.  1.
         21   -1    0    0  501  502 -0.00000000000E+00 -0.00000000000E+00 -0.12022460099E+04  0.12022460099E+04  0.00000000000E+00 0.  1.
         25    1    1    2    0    0 -0.23969448899E+03  0.10997109696E+02 -0.10338430595E+04  0.10686584375E+04  0.12500000000E+03 0.  0.
         21    1    1    2  503  502  0.23969448899E+03 -0.10997109696E+02 -0.55670441424E+02  0.24632008144E+03  0.00000000000E+00 0.  1.
<mgrwt>
<rscale>  3 0.27055385E+03</rscale>
<asrwt>0</asrwt>
<pdfrwt beam="1">  1       21 0.17343462E-01 0.27055385E+03</pdfrwt>
<pdfrwt beam="2">  1       21 0.18496094E+00 0.27055385E+03</pdfrwt>
<totfact> 0.47686591E+03</totfact>
</mgrwt>
</event>
<event>
 4    0  0.1167968E-001  0.2376080E+03  0.7546771E-02  0.1121397E+00
         21   -1    0    0  503  501  0.00000000000E+00  0.00000000000E+00  0.20038402398E+03  0.20038402398E+03  0.00000000000E+00 0.  1.
         21   -1    0    0  501  502 -0.00000000000E+00 -0.00000000000E+00 -0.25617489932E+03  0.25617489932E+03  0.00000000000E+00 0.  1.
         25    1    1    2    0    0  0.13856383150E+03  0.14708040158E+03  0.25034389776E+02  0.23892321068E+03  0.12500000000E+03 0.  0.
         21    1    1    2  503  502 -0.13856383150E+03 -0.14708040158E+03 -0.80825265111E+02  0.21763571262E+03  0.00000000000E+00 0.  1.
<mgrwt>
<rscale>  3 0.23760804E+03</rscale>
<asrwt>0</asrwt>
<pdfrwt beam="1">  1       21 0.30828312E-01 0.23760804E+03</pdfrwt>
<pdfrwt beam="2">  1       21 0.39411523E-01 0.23760804E+03</pdfrwt>
<totfact> 0.61506025E+04</totfact>
</mgrwt>
</event>
<event>
 4    0  0.1508465E-001  0.2383481E+03  0.7546771E-02  0.1120898E+00
         21   -1    0    0  503  501  0.00000000000E+00  0.00000000000E+00  0.15075343354E+03  0.15075343354E+03  0.00000000000E+00 0.  1.
         21   -1    0    0  501  502 -0.00000000000E+00 -0.00000000000E+00 -0.33733195312E+03  0.33733195312E+03  0.00000000000E+00 0.  1.
         25    1    1    2    0    0 -0.11519438380E+03  0.16707800762E+03 -0.15071224095E+03  0.28199997565E+03  0.12500000000E+03 0.  0.
         21    1    1    2  503  502  0.11519438380E+03 -0.16707800762E+03 -0.35866278630E+02  0.20608541102E+03  0.00000000000E+00 0.  1.
<mgrwt>
<rscale>  3 0.23834808E+03</rscale>
<asrwt>0</asrwt>
<pdfrwt beam="1">  1       21 0.23192836E-01 0.23834808E+03</pdfrwt>
<pdfrwt beam="2">  1       21 0.51897223E-01 0.23834808E+03</pdfrwt>
<totfact> 0.60366826E+04</totfact>
</mgrwt>
</event>
<event>
 4    0  0.1005289E-001  0.3320565E+03  0.7546771E-02  0.1070231E+00
         21   -1    0    0  502  501  0.00000000000E+00  0.00000000000E+00  0.25566059822E+04  0.25566059822E+04  0.00000000000E+00 0. -1.
         21   -1    0    0  503  502 -0.00000000000E+00 -0.00000000000E+00 -0.44488984137E+02  0.44488984137E+02  0.00000000000E+00 0. -1.
         25    1    1    2    0    0  0.19500188687E+02 -0.30701178215E+03  0.17114020626E+04  0.17433182474E+04  0.12500000000E+03 0.  0.
         21    1    1    2  503  501 -0.19500188687E+02  0.30701178215E+03  0.80071493551E+03  0.85777671901E+03  0.00000000000E+00 0. -1.
<mgrwt>
<rscale>  3 0.33205646E+03</rscale>
<asrwt>0</asrwt>
<pdfrwt beam="1">  1       21 0.39332388E+00 0.33205646E+03</pdfrwt>
<pdfrwt beam="2">  1       21 0.68444611E-02 0.33205646E+03</pdfrwt>
<totfact> 0.12906775E+03</totfact>
</mgrwt>
</event>
<event>
 4    0  0.1153614E-001  0.3083921E+03  0.7546771E-02  0.1081119E+00
         21   -1    0    0  502  501  0.00000000000E+00  0.00000000000E+00  0.10344581379E+04  0.10344581379E+04  0.00000000000E+00 0.  1.
         21   -1    0    0  503  502 -0.00000000000E+00 -0.00000000000E+00 -0.97883091250E+02  0.97883091250E+02  0.00000000000E+00 0.  1.
         25    1    1    2    0    0 -0.28164273465E+03 -0.12572268906E+02  0.69772821007E+03  0.76284359278E+03  0.12500000000E+03 0.  0.
         21    1    1    2  503  501  0.28164273465E+03  0.12572268906E+02  0.23884683655E+03  0.36949763633E+03  0.00000000000E+00 0.  1.
<mgrwt>
<rscale>  3 0.30839211E+03</rscale>
<asrwt>0</asrwt>
<pdfrwt beam="1">  1       21 0.15914740E+00 0.30839211E+03</pdfrwt>
<pdfrwt beam="2">  1       21 0.15058938E-01 0.30839211E+03</pdfrwt>
<totfact> 0.92517010E+03</totfact>
</mgrwt>
</event>
<event>
 4    0  0.1632036E-001  0.2719247E+03  0.7546771E-02  0.1100183E+00
         21   -1    0    0  502  501  0.00000000000E+00  0.00000000000E+00  0.97679202663E+02  0.97679202663E+02  0.00000000000E+00 0.  1.
         21   -1    0    0  503  502 -0.00000000000E+00 -0.00000000000E+00 -0.74065134365E+03  0.74065134365E+03  0.00000000000E+00 0.  1.
         25    1    1    2    0    0 -0.23814765942E+03  0.40046921532E+02 -0.46377451726E+03  0.53761497977E+03  0.12500000000E+03 0.  0.
         21    1    1    2  503  501  0.23814765942E+03 -0.40046921532E+02 -0.17919762373E+03  0.30071556655E+03  0.00000000000E+00 0.  1.
<mgrwt>
<rscale>  3 0.27192474E+03</rscale>
<asrwt>0</asrwt>
<pdfrwt beam="1">  1       21 0.15027570E-01 0.27192474E+03</pdfrwt>
<pdfrwt beam="2">  1       21 0.11394636E+00 0.27192474E+03</pdfrwt>
<totfact> 0.22463672E+04</totfact>
</mgrwt>
</event>
<event>
 4    0  0.1274724E-001  0.3741791E+03  0.7546771E-02  0.1053106E+00
         21   -1    0    0  503  501  0.00000000000E+00  0.00000000000E+00  0.51469289715E+03  0.51469289715E+03  0.00000000000E+00 0.  1.
         21   -1    0    0  501  502 -0.00000000000E+00 -0.00000000000E+00 -0.34672254422E+03  0.34672254422E+03  0.00000000000E+00 0.  1.
         25    1    1    2    0    0  0.28947983598E+03 -0.20146067031E+03 -0.13366541826E+03  0.39733665972E+03  0.12500000000E+03 0.  0.
         21    1    1    2  503  502 -0.28947983598E+03  0.20146067031E+03  0.30163577119E+03  0.46407878165E+03  0.00000000000E+00 0.  1.
<mgrwt>
<rscale>  3 0.37417907E+03</rscale>
<asrwt>0</asrwt>
<pdfrwt beam="1">  1       21 0.79183522E-01 0.37417907E+03</pdfrwt>
<pdfrwt beam="2">  1       21 0.53341930E-01 0.37417907E+03</pdfrwt>
<totfact> 0.42217168E+03</totfact>
</mgrwt>
</event>
<event>
 4    0  0.1130177E-001  0.2541273E+03  0.7546771E-02  0.1110724E+00
         21   -1    0    0  502  501  0.00000000000E+00  0.00000000000E+00  0.28375010792E+03  0.28375010792E+03  0.00000000000E+00 0. -1.
         21   -1    0    0  503  502 -0.00000000000E+00 -0.00000000000E+00 -0.33542611473E+03  0.33542611473E+03  0.00000000000E+00 0.  1.
         25    1    1    2    0    0  0.22086664344E+03  0.13175825515E+02 -0.22397679533E+03  0.33874220494E+03  0.12500000000E+03 0.  0.
         21    1    1    2  503  501 -0.22086664344E+03 -0.13175825515E+02  0.17230078853E+03  0.28043401771E+03  0.00000000000E+00 0. -1.
<mgrwt>
<rscale>  3 0.25412728E+03</rscale>
<asrwt>0</asrwt>
<pdfrwt beam="1">  1       21 0.43653863E-01 0.25412728E+03</pdfrwt>
<pdfrwt beam="2">  1       21 0.51604018E-01 0.25412728E+03</pdfrwt>
<totfact> 0.17384602E+04</totfact>
</mgrwt>
</event>
<event>
 4    0  0.1005289E-001  0.2908872E+03  0.7546771E-02  0.1089887E+00
         21   -1    0    0  502  501  0.00000000000E+00  0.00000000000E+00  0.38848700796E+03  0.38848700796E+03  0.00000000000E+00 0. -1.
         21   -1    0    0  503  502 -0.00000000000E+00 -0.00000000000E+00 -0.19842700275E+03  0.19842700275E+03  0.00000000000E+00 0.  1.
         25    1    1    2    0    0 -0.25362435001E+03 -0.68301050025E+02  0.76654791557E+02  0.30081772126E+03  0.12500000000E+03 0.  0.
         21    1    1    2  503  501  0.25362435001E+03  0.68301050025E+02  0.11340521366E+03  0.28609628945E+03  0.00000000000E+00 0. -1.
<mgrwt>
<rscale>  3 0.29088717E+03</rscale>
<asrwt>0</asrwt>
<pdfrwt beam="1">  1       21 0.59767232E-01 0.29088717E+03</pdfrwt>
<pdfrwt beam="2">  1       21 0.30527231E-01 0.29088717E+03</pdfrwt>
<totfact> 0.25679053E+04</totfact>
</mgrwt>
</event>
<event>
 4    0  0.1037915E-001  0.4093837E+03  0.7546771E-02  0.1040578E+00
         21   -1    0    0  503  501  0.00000000000E+00  0.00000000000E+00  0.16006374256E+03  0.16006374256E+03  0.00000000000E+00 0. -1.
         21   -1    0    0  501  502 -0.00000000000E+00 -0.00000000000E+00 -0.12028880957E+04  0.12028880957E+04  0.00000000000E+00 0. -1.
         25    1    1    2    0    0  0.27048212399E+03  0.28073020630E+03 -0.25056531863E+03  0.47997709010E+03  0.12500000000E+03 0.  0.
         21    1    1    2  503  502 -0.27048212399E+03 -0.28073020630E+03 -0.79225903448E+03  0.88297474813E+03  0.00000000000E+00 0. -1.
<mgrwt>
<rscale>  3 0.40938372E+03</rscale>
<asrwt>0</asrwt>
<pdfrwt beam="1">  1       21 0.24625191E-01 0.40938372E+03</pdfrwt>
<pdfrwt beam="2">  1       21 0.18505971E+00 0.40938372E+03</pdfrwt>
<totfact> 0.22703222E+03</totfact>
</mgrwt>
</event>
<event>
 4    0  0.1005289E-001  0.2590200E+03  0.7546771E-02  0.1107733E+00
         21   -1    0    0  503  501  0.00000000000E+00  0.00000000000E+00  0.16636659311E+04  0.16636659311E+04  0.00000000000E+00 0.  1.
         21   -1    0    0  501  502 -0.00000000000E+00 -0.00000000000E+00 -0.10299803026E+03  0.10299803026E+03  0.00000000000E+00 0.  1.
         25    1    1    2    0    0 -0.55944617378E+02 -0.21985580408E+03  0.83455058180E+02  0.27213254406E+03  0.12500000000E+03 0.  0.
         21    1    1    2  503  502  0.55944617378E+02  0.21985580408E+03  0.14772128426E+04  0.14945314173E+04  0.00000000000E+00 0.  1.
<mgrwt>
<rscale>  3 0.25902003E+03</rscale>
<asrwt>0</asrwt>
<pdfrwt beam="1">  1       21 0.25594859E+00 0.25902003E+03</pdfrwt>
<pdfrwt beam="2">  1       21 0.15845852E-01 0.25902003E+03</pdfrwt>
<totfact> 0.20371375E+03</totfact>
</mgrwt>
</event>
<event>
 4    0  0.1165734E-001  0.2652685E+03  0.7546771E-02  0.1104019E+00
         21   -1    0    0  503  501  0.00000000000E+00  0.00000000000E+00  0.21998348883E+04  0.21998348883E+04  0.00000000000E+00 0.  1.
         21   -1    0    0  501  502 -0.00000000000E+00 -0.00000000000E+00 -0.33074699640E+02  0.33074699640E+02  0.00000000000E+00 0.  1.
         25    1    1    2    0    0 -0.19578167318E+03  0.12810895169E+03  0.71916619924E+03  0.76652944443E+03  0.12500000000E+03 0.  0.
         21    1    1    2  503  502  0.19578167318E+03 -0.12810895169E+03  0.14475939894E+04  0.14663801435E+04  0.00000000000E+00 0.  1.
<mgrwt>
<rscale>  3 0.26526848E+03</rscale>
<asrwt>0</asrwt>
<pdfrwt beam="1">  1       21 0.33843602E+00 0.26526848E+03</pdfrwt>
<pdfrwt beam="2">  1       21 0.50884171E-02 0.26526848E+03</pdfrwt>
<totfact> 0.49432936E+03</totfact>
</mgrwt>
</event>
<event>
 4    0  0.1248197E-001  0.3606601E+03  0.7546771E-02  0.1058323E+00
         21   -1    0    0  503  501  0.00000000000E+00  0.00000000000E+00  0.11140244647E+04  0.11140244647E+04  0.00000000000E+00 0.  1.
         21   -1    0    0  501  502 -0.00000000000E+00 -0.00000000000E+00 -0.11264908737E+03  0.11264908737E+03  0.00000000000E+00 0.  1.
         25    1    1    2    0    0 -0.32768186988E+03 -0.84114612028E+02  0.61651610768E+03  0.71426030747E+03  0.12500000000E+03 0.  0.
         21    1    1    2  503  502  0.32768186988E+03  0.84114612028E+02  0.38485926962E+03  0.51241324458E+03  0.00000000000E+00 0.  1.
<mgrwt>
<rscale>  3 0.36066006E+03</rscale>
<asrwt>0</asrwt>
<pdfrwt beam="1">  1       21 0.17138837E+00 0.36066006E+03</pdfrwt>
<pdfrwt beam="2">  1       21 0.17330630E-01 0.36066006E+03</pdfrwt>
<totfact> 0.56565784E+03</totfact>
</mgrwt>
</event>
<event>
 4    0  0.1350136E-001  0.2582756E+03  0.7546771E-02  0.1108184E+00
         21   -1    0    0  503  501  0.00000000000E+00  0.00000000000E+00  0.72081467131E+03  0.72081467131E+03  0.00000000000E+00 0. -1.
         21   -1    0    0  501  502 -0.00000000000E+00 -0.00000000000E+00 -0.19352521535E+03  0.19352521535E+03  0.00000000000E+00 0.  1.
         25    1    1    2    0    0  0.22052262502E+03  0.49507901615E+02 -0.76720514868E+02  0.26942957869E+03  0.12500000000E+03 0.  0.
         21    1    1    2  503  502 -0.22052262502E+03 -0.49507901615E+02  0.60400997082E+03  0.64491030797E+03  0.00000000000E+00 0. -1.
<mgrwt>
<rscale>  3 0.25827555E+03</rscale>
<asrwt>0</asrwt>
<pdfrwt beam="1">  1       21 0.11089456E+00 0.25827555E+03</pdfrwt>
<pdfrwt beam="2">  1       21 0.29773110E-01 0.25827555E+03</pdfrwt>
<totfact> 0.66249609E+03</totfact>
</mgrwt>
</event>
<event>
 4    0  0.1405224E-001  0.3360473E+03  0.7546771E-02  0.1068492E+00
         21   -1    0    0  503  501  0.00000000000E+00  0.00000000000E+00  0.23919965392E+03  0.23919965392E+03  0.00000000000E+00 0.  1.
         21   -1    0    0  501  502 -0.00000000000E+00 -0.00000000000E+00 -0.47272538799E+03  0.47272538799E+03  0.00000000000E+00 0.  1.
         25    1    1    2    0    0 -0.30967345604E+03 -0.37484866909E+02 -0.21604088672E+03  0.39950147604E+03  0.12500000000E+03 0.  0.
         21    1    1    2  503  502  0.30967345604E+03  0.37484866909E+02 -0.17484847355E+02  0.31242356587E+03  0.00000000000E+00 0.  1.
<mgrwt>
<rscale>  3 0.33604727E+03</rscale>
<asrwt>0</asrwt>
<pdfrwt beam="1">  1       21 0.36799947E-01 0.33604727E+03</pdfrwt>
<pdfrwt beam="2">  1       21 0.72726983E-01 0.33604727E+03</pdfrwt>
<totfact> 0.11257575E+04</totfact>
</mgrwt>
</event>
<event>
 4    0  0.1005289E-001  0.5872583E+03  0.7546771E-02  0.9932199E-01
         21   -1    0    0  502  501  0.00000000000E+00  0.00000000000E+00  0.23556486446E+04  0.23556486446E+04  0.00000000000E+00 0. -1.
         21   -1    0    0  503  502 -0.00000000000E+00 -0.00000000000E+00 -0.15152273751E+03  0.15152273751E+03  0.00000000000E+00 0. -1.
         25    1    1    2    0    0 -0.26143493113E+03 -0.51078276962E+03  0.81799864510E+03  0.10069727128E+04  0.12500000000E+03 0.  0.
         21    1    1    2  503  501  0.26143493113E+03  0.51078276962E+03  0.13861272620E+04  0.15001986693E+04  0.00000000000E+00 0. -1.
<mgrwt>
<rscale>  3 0.58725826E+03</rscale>
<asrwt>0</asrwt>
<pdfrwt beam="1">  1       21 0.36240746E+00 0.58725826E+03</pdfrwt>
<pdfrwt beam="2">  1       21 0.23311192E-01 0.58725826E+03</pdfrwt>
<totfact> 0.18166534E+02</totfact>
</mgrwt>
</event>
<event>
 4    0  0.1005289E-001  0.2443783E+03  0.7546771E-02  0.1116910E+00
         21   -1    0    0  503  501  0.00000000000E+00  0.00000000000E+00  0.81561098622E+02  0.81561098622E+02  0.00000000000E+00 0.  1.
         21   -1    0    0  501  502 -0.00000000000E+00 -0.00000000000E+00 -0.78843840954E+03  0.78843840954E+03  0.00000000000E+00 0. -1.
         25    1    1    2    0    0  0.49876333834E+02 -0.20398063261E+03 -0.56772737988E+03  0.61808990044E+03  0.12500000000E+03 0.  0.
         21    1    1    2  503  502 -0.49876333834E+02  0.20398063261E+03 -0.13914993104E+03  0.25190960773E+03  0.00000000000E+00 0.  1.
<mgrwt>
<rscale>  3 0.24437829E+03</rscale>
<asrwt>0</asrwt>
<pdfrwt beam="1">  1       21 0.12547861E-01 0.24437829E+03</pdfrwt>
<pdfrwt beam="2">  1       21 0.12129822E+00 0.24437829E+03</pdfrwt>
<totfact> 0.27063978E+04</totfact>
</mgrwt>
</event>
<event>
 4    0  0.1206803E-001  0.3832817E+03  0.7546771E-02  0.1049727E+00
         21   -1    0    0  502  501  0.00000000000E+00  0.00000000000E+00  0.28173770921E+03  0.28173770921E+03  0.00000000000E+00 0.  1.
         21   -1    0    0  503  502 -0.00000000000E+00 -0.00000000000E+00 -0.69265461788E+03  0.69265461788E+03  0.00000000000E+00 0.  1.
         25    1    1    2    0    0  0.30603703126E+03 -0.19396183939E+03 -0.47086616428E+03  0.60714067918E+03  0.12500000000E+03 0.  0.
         21    1    1    2  503  501 -0.30603703126E+03  0.19396183939E+03  0.59949255620E+02  0.36725164791E+03  0.00000000000E+00 0.  1.
<mgrwt>
<rscale>  3 0.38328170E+03</rscale>
<asrwt>0</asrwt>
<pdfrwt beam="1">  1       21 0.43344263E-01 0.38328170E+03</pdfrwt>
<pdfrwt beam="2">  1       21 0.10656225E+00 0.38328170E+03</pdfrwt>
<totfact> 0.32200717E+03</totfact>
</mgrwt>
</event>
<event>
 4    0  0.1300195E-001  0.2423954E+03  0.7546771E-02  0.1118207E+00
         21   -1    0    0  502  501  0.00000000000E+00  0.00000000000E+00  0.14774729119E+03  0.14774729119E+03  0.00000000000E+00 0. -1.
         21   -1    0    0  503  502 -0.00000000000E+00 -0.00000000000E+00 -0.34572485655E+03  0.34572485655E+03  0.00000000000E+00 0. -1.
         25    1    1    2    0    0  0.20753634595E+03 -0.76928017813E+01 -0.83773107405E+02  0.25646334556E+03  0.12500000000E+03 0.  0.
         21    1    1    2  503  501 -0.20753634595E+03  0.76928017813E+01 -0.11420445796E+03  0.23700880218E+03  0.00000000000E+00 0. -1.
<mgrwt>
<rscale>  3 0.24239537E+03</rscale>
<asrwt>0</asrwt>
<pdfrwt beam="1">  1       21 0.22730353E-01 0.24239537E+03</pdfrwt>
<pdfrwt beam="2">  1       21 0.53188439E-01 0.24239537E+03</pdfrwt>
<totfact> 0.59457677E+04</totfact>
</mgrwt>
</event>
<event>
 4    0  0.1399580E-001  0.2710092E+03  0.7546771E-02  0.1100703E+00
         21   -1    0    0  503  501  0.00000000000E+00  0.00000000000E+00  0.61701549330E+02  0.61701549330E+02  0.00000000000E+00 0.  1.
         21   -1    0    0  501  502 -0.00000000000E+00 -0.00000000000E+00 -0.10662102377E+04  0.10662102377E+04  0.00000000000E+00 0.  1.
         25    1    1    2    0    0 -0.81314349610E+02  0.22629398061E+03 -0.57523501048E+03  0.63587837390E+03  0.12500000000E+03 0.  0.
         21    1    1    2  503  502  0.81314349610E+02 -0.22629398061E+03 -0.42927367793E+03  0.49203341317E+03  0.00000000000E+00 0.  1.
<mgrwt>
<rscale>  3 0.27100920E+03</rscale>
<asrwt>0</asrwt>
<pdfrwt beam="1">  1       21 0.94925471E-02 0.27100920E+03</pdfrwt>
<pdfrwt beam="2">  1       21 0.16403233E+00 0.27100920E+03</pdfrwt>
<totfact> 0.19962672E+04</totfact>
</mgrwt>
</event>
<event>
 4    0  0.1005289E-001  0.2840679E+03  0.7546771E-02  0.1093488E+00
         21   -1    0    0  502  501  0.00000000000E+00  0.00000000000E+00  0.57987193264E+02  0.57987193264E+02  0.00000000000E+00 0.  1.
         21   -1    0    0  503  502 -0.00000000000E+00 -0.00000000000E+00 -0.17267177637E+04  0.17267177637E+04  0.00000000000E+00 0.  1.
         25    1    1    2    0    0  0.14189341577E+03  0.21198069499E+03 -0.13337023446E+04  0.13636188985E+04  0.12500000000E+03 0.  0.
         21    1    1    2  503  501 -0.14189341577E+03 -0.21198069499E+03 -0.33502822585E+03  0.42108605843E+03  0.00000000000E+00 0.  1.
<mgrwt>
<rscale>  3 0.28406787E+03</rscale>
<asrwt>0</asrwt>
<pdfrwt beam="1">  1       21 0.89211055E-02 0.28406787E+03</pdfrwt>
<pdfrwt beam="2">  1       21 0.26564892E+00 0.28406787E+03</pdfrwt>
<totfact> 0.49273877E+03</totfact>
</mgrwt>
</event>
<event>
 4    0  0.1194563E-001  0.2851009E+03  0.7546771E-02  0.1092935E+00
         21   -1    0    0  503  501  0.00000000000E+00  0.00000000000E+00  0.34521228942E+03  0.34521228942E+03  0.00000000000E+00 0. -1.
         21   -1    0    0  501  502 -0.00000000000E+00 -0.00000000000E+00 -0.34298638220E+03  0.34298638220E+03  0.00000000000E+00 0.  1.
         25    1    1    2    0    0  0.10025936293E+03  0.23580832246E+03 -0.21112951379E+03  0.35476495936E+03  0.12500000000E+03 0.  0.
         21    1    1    2  503  502 -0.10025936293E+03 -0.23580832246E+03  0.21335542101E+03  0.33343371226E+03  0.00000000000E+00 0. -1.
<mgrwt>
<rscale>  3 0.28510087E+03</rscale>
<asrwt>0</asrwt>
<pdfrwt beam="1">  1       21 0.53109583E-01 0.28510087E+03</pdfrwt>
<pdfrwt beam="2">  1       21 0.52767136E-01 0.28510087E+03</pdfrwt>
<totfact> 0.10843870E+04</totfact>
</mgrwt>
</event>
<event>
 4    0  0.1187083E-001  0.2484505E+03  0.7546771E-02  0.1114288E+00
         21   -1    0    0  502  501  0.00000000000E+00  0.00000000000E+00  0.32574476015E+03  0.32574476015E+03  0.00000000000E+00 0.  1.
         21   -1    0    0  503  502 -0.00000000000E+00 -0.00000000000E+00 -0.52091272145E+03  0.52091272145E+03  0.00000000000E+00 0.  1.
         25    1    1    2    0    0 -0.19308924339E+03  0.93910502733E+02 -0.44963231246E+03  0.51370892034E+03  0.12500000000E+03 0.  0.
         21    1    1    2  503  501  0.19308924339E+03 -0.93910502733E+02  0.25446435116E+03  0.33294856126E+03  0.00000000000E+00 0.  1.
<mgrwt>
<rscale>  3 0.24845047E+03</rscale>
<asrwt>0</asrwt>
<pdfrwt beam="1">  1       21 0.50114579E-01 0.24845047E+03</pdfrwt>
<pdfrwt beam="2">  1       21 0.80140418E-01 0.24845047E+03</pdfrwt>
<totfact> 0.49941225E+03</totfact>
</mgrwt>
</event>
<event>
 4    0  0.1647652E-001  0.3354946E+03  0.7546771E-02  0.1068731E+00
         21   -1    0    0  502  501  0.00000000000E+00  0.00000000000E+00  0.43799138384E+03  0.43799138384E+03  0.00000000000E+00 0.  1.
         21   -1    0    0  503  502 -0.00000000000E+00 -0.00000000000E+00 -0.27102738665E+03  0.27102738665E+03  0.00000000000E+00 0.  1.
         25    1    1    2    0    0  0.31086517124E+03  0.17159600155E+02 -0.35916028406E+02  0.33741157014E+03  0.12500000000E+03 0.  0.
         21    1    1    2  503  501 -0.31086517124E+03 -0.17159600155E+02  0.20288002560E+03  0.37160720035E+03  0.00000000000E+00 0.  1.
<mgrwt>
<rscale>  3 0.33549457E+03</rscale>
<asrwt>0</asrwt>
<pdfrwt beam="1">  1       21 0.67383290E-01 0.33549457E+03</pdfrwt>
<pdfrwt beam="2">  1       21 0.41696521E-01 0.33549457E+03</pdfrwt>
<totfact> 0.10349875E+04</totfact>
</mgrwt>
</event>
<event>
 4    0  0.1307732E-001  0.2909212E+03  0.7546771E-02  0.1089869E+00
         21   -1    0    0  502  501  0.00000000000E+00  0.00000000000E+00  0.77107164180E+03  0.77107164180E+03  0.00000000000E+00 0.  1.
         21   -1    0    0  503  502 -0.00000000000E+00 -0.00000000000E+00 -0.14589976993E+03  0.14589976993E+03  0.00000000000E+00 0.  1.
         25    1    1    2    0    0  0.24204341411E+03 -0.10210355433E+03  0.64757588207E+02  0.29804143228E+03  0.12500000000E+03 0.  0.
         21    1    1    2  503  501 -0.24204341411E+03  0.10210355433E+03  0.56041428367E+03  0.61892997945E+03  0.00000000000E+00 0.  1.
<mgrwt>
<rscale>  3 0.29092121E+03</rscale>
<asrwt>0</asrwt>
<pdfrwt beam="1">  1       21 0.11862640E+00 0.29092121E+03</pdfrwt>
<pdfrwt beam="2">  1       21 0.22446119E-01 0.29092121E+03</pdfrwt>
<totfact> 0.95174603E+03</totfact>
</mgrwt>
</event>
<event>
 4    0  0.1023965E-001  0.2809134E+03  0.7546771E-02  0.1095191E+00
         21   -1    0    0  502  501  0.00000000000E+00  0.00000000000E+00  0.81433959563E+03  0.81433959563E+03  0.00000000000E+00 0. -1.
         21   -1    0    0  503  502 -0.00000000000E+00 -0.00000000000E+00 -0.17408801308E+03  0.17408801308E+03  0.00000000000E+00 0. -1.
         25    1    1    2    0    0 -0.25060633707E+03 -0.21995607014E+02 -0.20247004341E+02  0.28164212060E+03  0.12500000000E+03 0.  0.
         21    1    1    2  503  501  0.25060633707E+03  0.21995607014E+02  0.66049858689E+03  0.70678548811E+03  0.00000000000E+00 0. -1.
<mgrwt>
<rscale>  3 0.28091341E+03</rscale>
<asrwt>0</asrwt>
<pdfrwt beam="1">  1       21 0.12528301E+00 0.28091341E+03</pdfrwt>
<pdfrwt beam="2">  1       21 0.26782772E-01 0.28091341E+03</pdfrwt>
<totfact> 0.59353188E+03</totfact>
</mgrwt>
</event>
<event>
 4    0  0.1152136E-001  0.3188946E+03  0.7546771E-02  0.1076159E+00
         21   -1    0    0  502  501  0.00000000000E+00  0.00000000000E+00  0.41211843322E+03  0.41211843322E+03  0.00000000000E+00 0.  1.
         21   -1    0    0  503  502 -0.00000000000E+00 -0.00000000000E+00 -0.32832840865E+03  0.32832840865E+03  0.00000000000E+00 0. -1.
         25    1    1    2    0    0 -0.27384277498E+03 -0.10525648820E+03 -0.16203091422E+03  0.35769793245E+03  0.12500000000E+03 0.  0.
         21    1    1    2  503  501  0.27384277498E+03  0.10525648820E+03  0.24582093879E+03  0.38274890943E+03  0.00000000000E+00 0.  1.
<mgrwt>
<rscale>  3 0.31889464E+03</rscale>
<asrwt>0</asrwt>
<pdfrwt beam="1">  1       21 0.63402836E-01 0.31889464E+03</pdfrwt>
<pdfrwt beam="2">  1       21 0.50512063E-01 0.31889464E+03</pdfrwt>
<totfact> 0.79910094E+03</totfact>
</mgrwt>
</event>
<event>
 4    0  0.1236032E-001  0.3222094E+03  0.7546771E-02  0.1074637E+00
         21   -1    0    0  502  501  0.00000000000E+00  0.00000000000E+00  0.63931088466E+02  0.63931088466E+02  0.00000000000E+00 0.  1.
         21   -1    0    0  503  502 -0.00000000000E+00 -0.00000000000E+00 -0.15448008527E+04  0.15448008527E+04  0.00000000000E+00 0.  1.
         25    1    1    2    0    0  0.28854330048E+03  0.70261309384E+02 -0.90776800295E+03  0.96325574746E+03  0.12500000000E+03 0.  0.
         21    1    1    2  503  501 -0.28854330048E+03 -0.70261309384E+02 -0.57310176129E+03  0.64547619371E+03  0.00000000000E+00 0.  1.
<mgrwt>
<rscale>  3 0.32220939E+03</rscale>
<asrwt>0</asrwt>
<pdfrwt beam="1">  1       21 0.98355525E-02 0.32220939E+03</pdfrwt>
<pdfrwt beam="2">  1       21 0.23766166E+00 0.32220939E+03</pdfrwt>
<totfact> 0.59570192E+03</totfact>
</mgrwt>
</event>
<event>
 4    0  0.1398848E-001  0.3521776E+03  0.7546771E-02  0.1061725E+00
         21   -1    0    0  502  501  0.00000000000E+00  0.00000000000E+00  0.36582372975E+03  0.36582372975E+03  0.00000000000E+00 0. -1.
         21   -1    0    0  503  502 -0.00000000000E+00 -0.00000000000E+00 -0.32168931500E+03  0.32168931500E+03  0.00000000000E+00 0. -1.
         25    1    1    2    0    0  0.12355816224E+03  0.30518422774E+03  0.62816104744E+02  0.35773578984E+03  0.12500000000E+03 0.  0.
         21    1    1    2  503  501 -0.12355816224E+03 -0.30518422774E+03 -0.18681689997E+02  0.32977725491E+03  0.00000000000E+00 0. -1.
<mgrwt>
<rscale>  3 0.35217756E+03</rscale>
<asrwt>0</asrwt>
<pdfrwt beam="1">  1       21 0.56280574E-01 0.35217756E+03</pdfrwt>
<pdfrwt beam="2">  1       21 0.49490664E-01 0.35217756E+03</pdfrwt>
<totfact> 0.10666694E+04</totfact>
</mgrwt>
</event>
<event>
 4    0  0.1539808E-001  0.2494916E+03  0.7546771E-02  0.1113627E+00
         21   -1    0    0  503  501  0.00000000000E+00  0.00000000000E+00  0.18593687793E+03  0.18593687793E+03  0.00000000000E+00 0. -1.
         21   -1    0    0  501  502 -0.00000000000E+00 -0.00000000000E+00 -0.29368981665E+03  0.29368981665E+03  0.00000000000E+00 0. -1.
         25    1    1    2    0    0  0.11071750520E+03 -0.18537174781E+03 -0.79588022104E+02  0.26187841474E+03  0.12500000000E+03 0.  0.
         21    1    1    2  503  502 -0.11071750520E+03  0.18537174781E+03 -0.28164916612E+02  0.21774827984E+03  0.00000000000E+00 0. -1.
<mgrwt>
<rscale>  3 0.24949158E+03</rscale>
<asrwt>0</asrwt>
<pdfrwt beam="1">  1       21 0.28605674E-01 0.24949158E+03</pdfrwt>
<pdfrwt beam="2">  1       21 0.45183049E-01 0.24949158E+03</pdfrwt>
<totfact> 0.53582067E+04</totfact>
</mgrwt>
</event>
<event>
 4    0  0.1005289E-001  0.3465877E+03  0.7546771E-02  0.1064024E+00
         21   -1    0    0  503  501  0.00000000000E+00  0.00000000000E+00  0.17746778163E+04  0.17746778163E+04  0.00000000000E+00 0.  1.
         21   -1    0    0  501  502 -0.00000000000E+00 -0.00000000000E+00 -0.71409838227E+02  0.71409838227E+02  0.00000000000E+00 0. -1.
         25    1    1    2    0    0  0.91630321584E+02  0.31000308866E+03  0.56523630959E+03  0.66303477773E+03  0.12500000000E+03 0.  0.
         21    1    1    2  503  502 -0.91630321584E+02 -0.31000308866E+03  0.11380316685E+04  0.11830528768E+04  0.00000000000E+00 0.  1.
<mgrwt>
<rscale>  3 0.34658770E+03</rscale>
<asrwt>0</asrwt>
<pdfrwt beam="1">  1       21 0.27302732E+00 0.34658770E+03</pdfrwt>
<pdfrwt beam="2">  1       21 0.10986130E-01 0.34658770E+03</pdfrwt>
<totfact> 0.29447990E+03</totfact>
</mgrwt>
</event>
<event>
 4    0  0.1166754E-001  0.2752175E+03  0.7546771E-02  0.1098330E+00
         21   -1    0    0  503  501  0.00000000000E+00  0.00000000000E+00  0.17937927922E+03  0.17937927922E+03  0.00000000000E+00 0.  1.
         21   -1    0    0  501  502 -0.00000000000E+00 -0.00000000000E+00 -0.99735250944E+03  0.99735250944E+03  0.00000000000E+00 0.  1.
         25    1    1    2    0    0  0.24371345707E+03 -0.26896263358E+02 -0.88148190057E+03  0.92344734510E+03  0.12500000000E+03 0.  0.
         21    1    1    2  503  502 -0.24371345707E+03  0.26896263358E+02  0.63508670346E+02  0.25328444356E+03  0.00000000000E+00 0.  1.
<mgrwt>
<rscale>  3 0.27521747E+03</rscale>
<asrwt>0</asrwt>
<pdfrwt beam="1">  1       21 0.27596812E-01 0.27521747E+03</pdfrwt>
<pdfrwt beam="2">  1       21 0.15343885E+00 0.27521747E+03</pdfrwt>
<totfact> 0.33120754E+03</totfact>
</mgrwt>
</event>
<event>
 4    0  0.1775771E-001  0.3304037E+03  0.7546771E-02  0.1070958E+00
         21   -1    0    0  503  501  0.00000000000E+00  0.00000000000E+00  0.88462412464E+03  0.88462412464E+03  0.00000000000E+00 0.  1.
         21   -1    0    0  501  502 -0.00000000000E+00 -0.00000000000E+00 -0.40914860113E+03  0.40914860113E+03  0.00000000000E+00 0. -1.
         25    1    1    2    0    0 -0.27306859632E+03 -0.13775036678E+03 -0.30863144361E+03  0.45212828912E+03  0.12500000000E+03 0.  0.
         21    1    1    2  503  502  0.27306859632E+03  0.13775036678E+03  0.78410696713E+03  0.84164443665E+03  0.00000000000E+00 0.  1.
<mgrwt>
<rscale>  3 0.33040373E+03</rscale>
<asrwt>0</asrwt>
<pdfrwt beam="1">  1       21 0.13609602E+00 0.33040373E+03</pdfrwt>
<pdfrwt beam="2">  1       21 0.62945939E-01 0.33040373E+03</pdfrwt>
<totfact> 0.80517502E+02</totfact>
</mgrwt>
</event>
<event>
 4    0  0.1312742E-001  0.2920505E+03  0.7546771E-02  0.1089283E+00
         21   -1    0    0  502  501  0.00000000000E+00  0.00000000000E+00  0.57002223515E+03  0.57002223515E+03  0.00000000000E+00 0.  1.
         21   -1    0    0  503  502 -0.00000000000E+00 -0.00000000000E+00 -0.21707116419E+03  0.21707116419E+03  0.00000000000E+00 0.  1.
         25    1    1    2    0    0  0.71394532667E+02  0.25410884896E+03 -0.58890526431E+02  0.29792881787E+03  0.12500000000E+03 0.  0.
         21    1    1    2  503  501 -0.71394532667E+02 -0.25410884896E+03  0.41184159739E+03  0.48916458146E+03  0.00000000000E+00 0.  1.
<mgrwt>
<rscale>  3 0.29205049E+03</rscale>
<asrwt>0</asrwt>
<pdfrwt beam="1">  1       21 0.87695728E-01 0.29205049E+03</pdfrwt>
<pdfrwt beam="2">  1       21 0.33395564E-01 0.29205049E+03</pdfrwt>
<totfact> 0.90848100E+03</totfact>
</mgrwt>
</event>
<event>
 4    0  0.1271667E-001  0.3751769E+03  0.7546771E-02  0.1052731E+00
         21   -1    0    0  503  501  0.00000000000E+00  0.00000000000E+00  0.10125646056E+04  0.10125646056E+04  0.00000000000E+00 0. -1.
         21   -1    0    0  501  502 -0.00000000000E+00 -0.00000000000E+00 -0.13678131875E+03  0.13678131875E+03  0.00000000000E+00 0. -1.
         25    1    1    2    0    0  0.78505753590E+02  0.34491958004E+03  0.33401867759E+03  0.50232076109E+03  0.12500000000E+03 0.  0.
         21    1    1    2  503  502 -0.78505753590E+02 -0.34491958004E+03  0.54176460924E+03  0.64702516324E+03  0.00000000000E+00 0. -1.
<mgrwt>
<rscale>  3 0.37517685E+03</rscale>
<asrwt>0</asrwt>
<pdfrwt beam="1">  1       21 0.15577916E+00 0.37517685E+03</pdfrwt>
<pdfrwt beam="2">  1       21 0.21043281E-01 0.37517685E+03</pdfrwt>
<totfact> 0.50844544E+03</totfact>
</mgrwt>
</event>
<event>
 4    0  0.1364733E-001  0.2547220E+03  0.7546771E-02  0.1110356E+00
         21   -1    0    0  502  501  0.00000000000E+00  0.00000000000E+00  0.61884479245E+03  0.61884479245E+03  0.00000000000E+00 0.  1.
         21   -1    0    0  503  502 -0.00000000000E+00 -0.00000000000E+00 -0.12904629967E+03  0.12904629967E+03  0.00000000000E+00 0.  1.
         25    1    1    2    0    0  0.18172230375E+03  0.12741782386E+03  0.56283831906E+02  0.26086618648E+03  0.12500000000E+03 0.  0.
         21    1    1    2  503  501 -0.18172230375E+03 -0.12741782386E+03  0.43351466087E+03  0.48702490563E+03  0.00000000000E+00 0.  1.
<mgrwt>
<rscale>  3 0.25472200E+03</rscale>
<asrwt>0</asrwt>
<pdfrwt beam="1">  1       21 0.95206890E-01 0.25472200E+03</pdfrwt>
<pdfrwt beam="2">  1       21 0.19853277E-01 0.25472200E+03</pdfrwt>
<totfact> 0.20844054E+04</totfact>
</mgrwt>
</event>
<event>
 4    0  0.1730415E-001  0.2745550E+03  0.7546771E-02  0.1098701E+00
         21   -1    0    0  503  501  0.00000000000E+00  0.00000000000E+00  0.18087146783E+03  0.18087146783E+03  0.00000000000E+00 0.  1.
         21   -1    0    0  501  502 -0.00000000000E+00 -0.00000000000E+00 -0.40202649468E+03  0.40202649468E+03  0.00000000000E+00 0.  1.
         25    1    1    2    0    0  0.23864907554E+03 -0.52934653513E+02 -0.19562406411E+03  0.33711901943E+03  0.12500000000E+03 0.  0.
         21    1    1    2  503  502 -0.23864907554E+03  0.52934653513E+02 -0.25530962741E+02  0.24577894308E+03  0.00000000000E+00 0.  1.
<mgrwt>
<rscale>  3 0.27455502E+03</rscale>
<asrwt>0</asrwt>
<pdfrwt beam="1">  1       21 0.27826380E-01 0.27455502E+03</pdfrwt>
<pdfrwt beam="2">  1       21 0.61850230E-01 0.27455502E+03</pdfrwt>
<totfact> 0.28770366E+04</totfact>
</mgrwt>
</event>
<event>
 4    0  0.1282511E-001  0.2513882E+03  0.7546771E-02  0.1112431E+00
         21   -1    0    0  503  501  0.00000000000E+00  0.00000000000E+00  0.11563755254E+03  0.11563755254E+03  0.00000000000E+00 0.  1.
         21   -1    0    0  501  502 -0.00000000000E+00 -0.00000000000E+00 -0.48581306486E+03  0.48581306486E+03  0.00000000000E+00 0.  1.
         25    1    1    2    0    0  0.12311844679E+03  0.18003570090E+03 -0.15652565139E+03  0.29613558564E+03  0.12500000000E+03 0.  0.
         21    1    1    2  503  502 -0.12311844679E+03 -0.18003570090E+03 -0.21364986093E+03  0.30531503176E+03  0.00000000000E+00 0.  1.
<mgrwt>
<rscale>  3 0.25138816E+03</rscale>
<asrwt>0</asrwt>
<pdfrwt beam="1">  1       21 0.17790393E-01 0.25138816E+03</pdfrwt>
<pdfrwt beam="2">  1       21 0.74740471E-01 0.25138816E+03</pdfrwt>
<totfact> 0.44735458E+04</totfact>
</mgrwt>
</event>
<event>
 4    0  0.1005289E-001  0.2892119E+03  0.7546771E-02  0.1090761E+00
         21   -1    0    0  503  501  0.00000000000E+00  0.00000000000E+00  0.64797602589E+03  0.64797602589E+03  0.00000000000E+00 0.  1.
         21   -1    0    0  501  502 -0.00000000000E+00 -0.00000000000E+00 -0.18886401439E+04  0.18886401439E+04  0.00000000000E+00 0.  1.
         25    1    1    2    0    0 -0.75967376896E+02 -0.24949446994E+03 -0.18507038650E+04  0.18731653234E+04  0.12500000000E+03 0.  0.
         21    1    1    2  503  502  0.75967376896E+02  0.24949446994E+03  0.61003974690E+03  0.66345084647E+03  0.00000000000E+00 0.  1.
<mgrwt>
<rscale>  3 0.28921192E+03</rscale>
<asrwt>0</asrwt>
<pdfrwt beam="1">  1       21 0.99688619E-01 0.28921192E+03</pdfrwt>
<pdfrwt beam="2">  1       21 0.29056002E+00 0.28921192E+03</pdfrwt>
<totfact> 0.27819230E+01</totfact>
</mgrwt>
</event>
<event>
 4    0  0.1005289E-001  0.2613264E+03  0.7546771E-02  0.1106349E+00
         21   -1    0    0  503  501  0.00000000000E+00  0.00000000000E+00  0.64290557757E+02  0.64290557757E+02  0.00000000000E+00 0.  1.
         21   -1    0    0  501  502 -0.00000000000E+00 -0.00000000000E+00 -0.17968029657E+04  0.17968029657E+04  0.00000000000E+00 0. -1.
         25    1    1    2    0    0 -0.39767509092E+02 -0.22601998510E+03 -0.15386334478E+04  0.15606679259E+04  0.12500000000E+03 0.  0.
         21    1    1    2  503  502  0.39767509092E+02  0.22601998510E+03 -0.19387896016E+03  0.30042559750E+03  0.00000000000E+00 0.  1.
<mgrwt>
<rscale>  3 0.26132640E+03</rscale>
<asrwt>0</asrwt>
<pdfrwt beam="1">  1       21 0.98908571E-02 0.26132640E+03</pdfrwt>
<pdfrwt beam="2">  1       21 0.27643117E+00 0.26132640E+03</pdfrwt>
<totfact> 0.36085385E+03</totfact>
</mgrwt>
</event>
<event>
 4    0  0.1068098E-001  0.2686135E+03  0.7546771E-02  0.1102076E+00
         21   -1    0    0  502  501  0.00000000000E+00  0.00000000000E+00  0.63271327839E+02  0.63271327839E+02  0.00000000000E+00 0.  1.
         21   -1    0    0  503  502 -0.00000000000E+00 -0.00000000000E+00 -0.13801417186E+04  0.13801417186E+04  0.00000000000E+00 0.  1.
         25    1    1    2    0    0  0.12436304070E+03  0.20263768040E+03 -0.10595446115E+04  0.10930635750E+04  0.12500000000E+03 0.  0.
         21    1    1    2  503  501 -0.12436304070E+03 -0.20263768040E+03 -0.25732577927E+03  0.35034947136E+03  0.00000000000E+00 0.  1.
<mgrwt>
<rscale>  3 0.26861347E+03</rscale>
<asrwt>0</asrwt>
<pdfrwt beam="1">  1       21 0.97340507E-02 0.26861347E+03</pdfrwt>
<pdfrwt beam="2">  1       21 0.21232949E+00 0.26861347E+03</pdfrwt>
<totfact> 0.90147174E+03</totfact>
</mgrwt>
</event>
<event>
 4    0  0.1005289E-001  0.2642378E+03  0.7546771E-02  0.1104623E+00
         21   -1    0    0  502  501  0.00000000000E+00  0.00000000000E+00  0.66032195257E+02  0.66032195257E+02  0.00000000000E+00 0.  1.
         21   -1    0    0  503  502 -0.00000000000E+00 -0.00000000000E+00 -0.22695540738E+04  0.22695540738E+04  0.00000000000E+00 0.  1.
         25    1    1    2    0    0  0.20854215679E+03  0.10347353662E+03 -0.20251250697E+04  0.20422911526E+04  0.12500000000E+03 0.  0.
         21    1    1    2  503  501 -0.20854215679E+03 -0.10347353662E+03 -0.17839680881E+03  0.29329511645E+03  0.00000000000E+00 0.  1.
<mgrwt>
<rscale>  3 0.26423778E+03</rscale>
<asrwt>0</asrwt>
<pdfrwt beam="1">  1       21 0.10158800E-01 0.26423778E+03</pdfrwt>
<pdfrwt beam="2">  1       21 0.34916213E+00 0.26423778E+03</pdfrwt>
<totfact> 0.12797089E+03</totfact>
</mgrwt>
</event>
<event>
 4    0  0.1067981E-001  0.2707792E+03  0.7546771E-02  0.1100835E+00
         21   -1    0    0  503  501  0.00000000000E+00  0.00000000000E+00  0.70958395067E+03  0.70958395067E+03  0.00000000000E+00 0. -1.
         21   -1    0    0  501  502 -0.00000000000E+00 -0.00000000000E+00 -0.24332887318E+03  0.24332887318E+03  0.00000000000E+00 0. -1.
         25    1    1    2    0    0  0.13283723620E+03 -0.20012650750E+03 -0.13709527458E+03  0.30350694331E+03  0.12500000000E+03 0.  0.
         21    1    1    2  503  502 -0.13283723620E+03  0.20012650750E+03  0.60335035207E+03  0.64940588054E+03  0.00000000000E+00 0. -1.
<mgrwt>
<rscale>  3 0.27077915E+03</rscale>
<asrwt>0</asrwt>
<pdfrwt beam="1">  1       21 0.10916676E+00 0.27077915E+03</pdfrwt>
<pdfrwt beam="2">  1       21 0.37435212E-01 0.27077915E+03</pdfrwt>
<totfact> 0.43334240E+03</totfact>
</mgrwt>
</event>
<event>
 4    0  0.1044639E-001  0.2467349E+03  0.7546771E-02  0.1115386E+00
         21   -1    0    0  503  501  0.00000000000E+00  0.00000000000E+00  0.75189491699E+02  0.75189491699E+02  0.00000000000E+00 0.  1.
         21   -1    0    0  501  502 -0.00000000000E+00 -0.00000000000E+00 -0.11948989854E+04  0.11948989854E+04  0.00000000000E+00 0.  1.
         25    1    1    2    0    0  0.13410044274E+03  0.16513679457E+03 -0.99144129806E+03  0.10216819158E+04  0.12500000000E+03 0.  0.
         21    1    1    2  503  502 -0.13410044274E+03 -0.16513679457E+03 -0.12826819566E+03  0.24840656127E+03  0.00000000000E+00 0.  1.
<mgrwt>
<rscale>  3 0.24673486E+03</rscale>
<asrwt>0</asrwt>
<pdfrwt beam="1">  1       21 0.11567615E-01 0.24673486E+03</pdfrwt>
<pdfrwt beam="2">  1       21 0.18383060E+00 0.24673486E+03</pdfrwt>
<totfact> 0.10324113E+04</totfact>
</mgrwt>
</event>
<event>
 4    0  0.1005289E-001  0.2793017E+03  0.7546771E-02  0.1096071E+00
         21   -1    0    0  502  501  0.00000000000E+00  0.00000000000E+00  0.18313499350E+04  0.18313499350E+04  0.00000000000E+00 0.  1.
         21   -1    0    0  503  502 -0.00000000000E+00 -0.00000000000E+00 -0.18613625796E+03  0.18613625796E+03  0.00000000000E+00 0.  1.
         25    1    1    2    0    0  0.20723805322E+03  0.13941602109E+03 -0.66939085211E+02  0.28721120934E+03  0.12500000000E+03 0.  0.
         21    1    1    2  503  501 -0.20723805322E+03 -0.13941602109E+03  0.17121527622E+04  0.17302749836E+04  0.00000000000E+00 0.  1.
<mgrwt>
<rscale>  3 0.27930170E+03</rscale>
<asrwt>0</asrwt>
<pdfrwt beam="1">  1       21 0.28174613E+00 0.27930170E+03</pdfrwt>
<pdfrwt beam="2">  1       21 0.28636349E-01 0.27930170E+03</pdfrwt>
<totfact> 0.45863879E+02</totfact>
</mgrwt>
</event>
<event>
 4    0  0.1640823E-001  0.2606901E+03  0.7546771E-02  0.1106729E+00
         21   -1    0    0  503  501  0.00000000000E+00  0.00000000000E+00  0.18425434819E+03  0.18425434819E+03  0.00000000000E+00 0. -1.
         21   -1    0    0  501  502 -0.00000000000E+00 -0.00000000000E+00 -0.32851806591E+03  0.32851806591E+03  0.00000000000E+00 0. -1.
         25    1    1    2    0    0 -0.72558884195E+02  0.21695516317E+03 -0.10307001495E+03  0.28032617160E+03  0.12500000000E+03 0.  0.
         21    1    1    2  503  502  0.72558884195E+02 -0.21695516317E+03 -0.41193702775E+02  0.23244624250E+03  0.00000000000E+00 0. -1.
<mgrwt>
<rscale>  3 0.26069011E+03</rscale>
<asrwt>0</asrwt>
<pdfrwt beam="1">  1       21 0.28346823E-01 0.26069011E+03</pdfrwt>
<pdfrwt beam="2">  1       21 0.50541241E-01 0.26069011E+03</pdfrwt>
<totfact> 0.42984094E+04</totfact>
</mgrwt>
</event>
<event>
 4    0  0.1518991E-001  0.2535157E+03  0.7546771E-02  0.1111103E+00
         21   -1    0    0  502  501  0.00000000000E+00  0.00000000000E+00  0.23221514967E+03  0.23221514967E+03  0.00000000000E+00 0. -1.
         21   -1    0    0  503  502 -0.00000000000E+00 -0.00000000000E+00 -0.28888997761E+03  0.28888997761E+03  0.00000000000E+00 0. -1.
         25    1    1    2    0    0 -0.11800925450E+02  0.22024068750E+03 -0.13479343101E+03  0.28712278090E+03  0.12500000000E+03 0.  0.
         21    1    1    2  503  501  0.11800925450E+02 -0.22024068750E+03  0.78118603060E+02  0.23398234638E+03  0.00000000000E+00 0. -1.
<mgrwt>
<rscale>  3 0.25351572E+03</rscale>
<asrwt>0</asrwt>
<pdfrwt beam="1">  1       21 0.35725408E-01 0.25351572E+03</pdfrwt>
<pdfrwt beam="2">  1       21 0.44444612E-01 0.25351572E+03</pdfrwt>
<totfact> 0.35673106E+04</totfact>
</mgrwt>
</event>
<event>
 4    0  0.1248055E-001  0.2777913E+03  0.7546771E-02  0.1096901E+00
         21   -1    0    0  503  501  0.00000000000E+00  0.00000000000E+00  0.15035532975E+04  0.15035532975E+04  0.00000000000E+00 0. -1.
         21   -1    0    0  501  502 -0.00000000000E+00 -0.00000000000E+00 -0.51829222557E+02  0.51829222557E+02  0.00000000000E+00 0. -1.
         25    1    1    2    0    0  0.12366520034E+03  0.21505790101E+03  0.50138015077E+03  0.57319284552E+03  0.12500000000E+03 0.  0.
         21    1    1    2  503  502 -0.12366520034E+03 -0.21505790101E+03  0.95034392418E+03  0.98218967455E+03  0.00000000000E+00 0. -1.
<mgrwt>
<rscale>  3 0.27779126E+03</rscale>
<asrwt>0</asrwt>
<pdfrwt beam="1">  1       21 0.23131586E+00 0.27779126E+03</pdfrwt>
<pdfrwt beam="2">  1       21 0.79737277E-02 0.27779126E+03</pdfrwt>
<totfact> 0.97048713E+03</totfact>
</mgrwt>
</event>
<event>
 4    0  0.1007556E-001  0.2588414E+03  0.7546771E-02  0.1107841E+00
         21   -1    0    0  502  501  0.00000000000E+00  0.00000000000E+00  0.41296021249E+02  0.41296021249E+02  0.00000000000E+00 0. -1.
         21   -1    0    0  503  502 -0.00000000000E+00 -0.00000000000E+00 -0.17575924923E+04  0.17575924923E+04  0.00000000000E+00 0. -1.
         25    1    1    2    0    0 -0.50535186098E+02 -0.22095259413E+03 -0.12937520731E+04  0.13193912538E+04  0.12500000000E+03 0.  0.
         21    1    1    2  503  501  0.50535186098E+02  0.22095259413E+03 -0.42254439792E+03  0.47949725974E+03  0.00000000000E+00 0. -1.
<mgrwt>
<rscale>  3 0.25884137E+03</rscale>
<asrwt>0</asrwt>
<pdfrwt beam="1">  1       21 0.63532332E-02 0.25884137E+03</pdfrwt>
<pdfrwt beam="2">  1       21 0.27039888E+00 0.25884137E+03</pdfrwt>
<totfact> 0.85211985E+03</totfact>
</mgrwt>
</event>
<event>
 4    0  0.1569409E-001  0.2822388E+03  0.7546771E-02  0.1094472E+00
         21   -1    0    0  503  501  0.00000000000E+00  0.00000000000E+00  0.26193105320E+03  0.26193105320E+03  0.00000000000E+00 0. -1.
         21   -1    0    0  501  502 -0.00000000000E+00 -0.00000000000E+00 -0.30591768401E+03  0.30591768401E+03  0.00000000000E+00 0. -1.
         25    1    1    2    0    0  0.17523232615E+03  0.18255787212E+03 -0.11539463723E+03  0.30491747589E+03  0.12500000000E+03 0.  0.
         21    1    1    2  503  502 -0.17523232615E+03 -0.18255787212E+03  0.71408006413E+02  0.26293126132E+03  0.00000000000E+00 0. -1.
<mgrwt>
<rscale>  3 0.28223881E+03</rscale>
<asrwt>0</asrwt>
<pdfrwt beam="1">  1       21 0.40297085E-01 0.28223881E+03</pdfrwt>
<pdfrwt beam="2">  1       21 0.47064259E-01 0.28223881E+03</pdfrwt>
<totfact> 0.24538934E+04</totfact>
</mgrwt>
</event>
<event>
 4    0  0.1540227E-001  0.2991687E+03  0.7546771E-02  0.1085657E+00
         21   -1    0    0  502  501  0.00000000000E+00  0.00000000000E+00  0.17367906350E+03  0.17367906350E+03  0.00000000000E+00 0.  1.
         21   -1    0    0  503  502 -0.00000000000E+00 -0.00000000000E+00 -0.47189607938E+03  0.47189607938E+03  0.00000000000E+00 0.  1.
         25    1    1    2    0    0 -0.26544846220E+03 -0.58429894593E+02 -0.13215915188E+03  0.32705959716E+03  0.12500000000E+03 0.  0.
         21    1    1    2  503  501  0.26544846220E+03  0.58429894593E+02 -0.16605786400E+03  0.31851554572E+03  0.00000000000E+00 0.  1.
<mgrwt>
<rscale>  3 0.29916875E+03</rscale>
<asrwt>0</asrwt>
<pdfrwt beam="1">  1       21 0.26719856E-01 0.29916875E+03</pdfrwt>
<pdfrwt beam="2">  1       21 0.72599395E-01 0.29916875E+03</pdfrwt>
<totfact> 0.21632641E+04</totfact>
</mgrwt>
</event>
<event>
 4    0  0.1055448E-001  0.2774589E+03  0.7546771E-02  0.1097085E+00
         21   -1    0    0  503  501  0.00000000000E+00  0.00000000000E+00  0.12254938209E+04  0.12254938209E+04  0.00000000000E+00 0. -1.
         21   -1    0    0  501  502 -0.00000000000E+00 -0.00000000000E+00 -0.16449222870E+03  0.16449222870E+03  0.00000000000E+00 0. -1.
         25    1    1    2    0    0  0.12752895305E+03 -0.21235535327E+03 -0.22652002066E+02  0.27838200934E+03  0.12500000000E+03 0.  0.
         21    1    1    2  503  502 -0.12752895305E+03  0.21235535327E+03  0.10836535943E+04  0.11116040403E+04  0.00000000000E+00 0. -1.
<mgrwt>
<rscale>  3 0.27745888E+03</rscale>
<asrwt>0</asrwt>
<pdfrwt beam="1">  1       21 0.18853751E+00 0.27745888E+03</pdfrwt>
<pdfrwt beam="2">  1       21 0.25306498E-01 0.27745888E+03</pdfrwt>
<totfact> 0.21963532E+03</totfact>
</mgrwt>
</event>
<event>
 4    0  0.1005289E-001  0.2560944E+03  0.7546771E-02  0.1109513E+00
         21   -1    0    0  503  501  0.00000000000E+00  0.00000000000E+00  0.25386872270E+04  0.25386872270E+04  0.00000000000E+00 0.  1.
         21   -1    0    0  501  502 -0.00000000000E+00 -0.00000000000E+00 -0.32429662429E+02  0.32429662429E+02  0.00000000000E+00 0.  1.
         25    1    1    2    0    0  0.17443346903E+03 -0.13975804812E+03  0.60783491058E+03  0.65958140183E+03  0.12500000000E+03 0.  0.
         21    1    1    2  503  502 -0.17443346903E+03  0.13975804812E+03  0.18984226540E+04  0.19115354876E+04  0.00000000000E+00 0.  1.
<mgrwt>
<rscale>  3 0.25609441E+03</rscale>
<asrwt>0</asrwt>
<pdfrwt beam="1">  1       21 0.39056711E+00 0.25609441E+03</pdfrwt>
<pdfrwt beam="2">  1       21 0.49891808E-02 0.25609441E+03</pdfrwt>
<totfact> 0.24885442E+03</totfact>
</mgrwt>
</event>
<event>
 4    0  0.1231135E-001  0.2457082E+03  0.7546771E-02  0.1116048E+00
         21   -1    0    0  502  501  0.00000000000E+00  0.00000000000E+00  0.15150100300E+04  0.15150100300E+04  0.00000000000E+00 0.  1.
         21   -1    0    0  503  502 -0.00000000000E+00 -0.00000000000E+00 -0.39185270200E+02  0.39185270200E+02  0.00000000000E+00 0.  1.
         25    1    1    2    0    0 -0.55872317980E+02  0.20402403265E+03  0.51842407162E+03  0.57370379104E+03  0.12500000000E+03 0.  0.
         21    1    1    2  503  501  0.55872317980E+02 -0.20402403265E+03  0.95740068822E+03  0.98049150921E+03  0.00000000000E+00 0.  1.
<mgrwt>
<rscale>  3 0.24570820E+03</rscale>
<asrwt>0</asrwt>
<pdfrwt beam="1">  1       21 0.23307842E+00 0.24570820E+03</pdfrwt>
<pdfrwt beam="2">  1       21 0.60285043E-02 0.24570820E+03</pdfrwt>
<totfact> 0.15726044E+04</totfact>
</mgrwt>
</event>
<event>
 4    0  0.1510631E-001  0.3006852E+03  0.7546771E-02  0.1084899E+00
         21   -1    0    0  502  501  0.00000000000E+00  0.00000000000E+00  0.24695373498E+03  0.24695373498E+03  0.00000000000E+00 0. -1.
         21   -1    0    0  503  502 -0.00000000000E+00 -0.00000000000E+00 -0.41058277705E+03  0.41058277705E+03  0.00000000000E+00 0. -1.
         25    1    1    2    0    0 -0.27304550282E+03  0.15256479449E+02 -0.22708286279E+03  0.37679999118E+03  0.12500000000E+03 0.  0.
         21    1    1    2  503  501  0.27304550282E+03 -0.15256479449E+02  0.63453820728E+02  0.28073652086E+03  0.00000000000E+00 0. -1.
<mgrwt>
<rscale>  3 0.30068523E+03</rscale>
<asrwt>0</asrwt>
<pdfrwt beam="1">  1       21 0.37992882E-01 0.30068523E+03</pdfrwt>
<pdfrwt beam="2">  1       21 0.63166581E-01 0.30068523E+03</pdfrwt>
<totfact> 0.14641547E+04</totfact>
</mgrwt>
</event>
<event>
 4    0  0.1005289E-001  0.2516229E+03  0.7546771E-02  0.1112283E+00
         21   -1    0    0  503  501  0.00000000000E+00  0.00000000000E+00  0.24811980960E+03  0.24811980960E+03  0.00000000000E+00 0.  1.
         21   -1    0    0  501  502 -0.00000000000E+00 -0.00000000000E+00 -0.22623416759E+03  0.22623416759E+03  0.00000000000E+00 0. -1.
         25    1    1    2    0    0 -0.47832115140E+02  0.21307549305E+03 -0.18384892656E+02  0.25229364093E+03  0.12500000000E+03 0.  0.
         21    1    1    2  503  502  0.47832115140E+02 -0.21307549305E+03  0.40270534663E+02  0.22206033626E+03  0.00000000000E+00 0.  1.
<mgrwt>
<rscale>  3 0.25162289E+03</rscale>
<asrwt>0</asrwt>
<pdfrwt beam="1">  1       21 0.38172278E-01 0.25162289E+03</pdfrwt>
<pdfrwt beam="2">  1       21 0.34805257E-01 0.25162289E+03</pdfrwt>
<totfact> 0.51315072E+04</totfact>
</mgrwt>
</event>
<event>
 4    0  0.1005289E-001  0.2840436E+03  0.7546771E-02  0.1093501E+00
         21   -1    0    0  503  501  0.00000000000E+00  0.00000000000E+00  0.66315988837E+02  0.66315988837E+02  0.00000000000E+00 0. -1.
         21   -1    0    0  501  502 -0.00000000000E+00 -0.00000000000E+00 -0.14790422585E+04  0.14790422585E+04  0.00000000000E+00 0.  1.
         25    1    1    2    0    0  0.23555864469E+03  0.97815668163E+02 -0.11274760783E+04  0.11627050732E+04  0.12500000000E+03 0.  0.
         21    1    1    2  503  502 -0.23555864469E+03 -0.97815668163E+02 -0.28525019133E+03  0.38265317414E+03  0.00000000000E+00 0. -1.
<mgrwt>
<rscale>  3 0.28404362E+03</rscale>
<asrwt>0</asrwt>
<pdfrwt beam="1">  1       21 0.10202461E-01 0.28404362E+03</pdfrwt>
<pdfrwt beam="2">  1       21 0.22754495E+00 0.28404362E+03</pdfrwt>
<totfact> 0.65928221E+03</totfact>
</mgrwt>
</event>
<event>
 4    0  0.1596707E-001  0.2864309E+03  0.7546771E-02  0.1092227E+00
         21   -1    0    0  502  501  0.00000000000E+00  0.00000000000E+00  0.47763786289E+03  0.47763786289E+03  0.00000000000E+00 0.  1.
         21   -1    0    0  503  502 -0.00000000000E+00 -0.00000000000E+00 -0.16955929715E+03  0.16955929715E+03  0.00000000000E+00 0.  1.
         25    1    1    2    0    0  0.47325831276E+02  0.25333367798E+03  0.66699418166E+02  0.29409437106E+03  0.12500000000E+03 0.  0.
         21    1    1    2  503  501 -0.47325831276E+02 -0.25333367798E+03  0.24137914757E+03  0.35310278899E+03  0.00000000000E+00 0.  1.
<mgrwt>
<rscale>  3 0.28643095E+03</rscale>
<asrwt>0</asrwt>
<pdfrwt beam="1">  1       21 0.73482747E-01 0.28643095E+03</pdfrwt>
<pdfrwt beam="2">  1       21 0.26086046E-01 0.28643095E+03</pdfrwt>
<totfact> 0.22169382E+04</totfact>
</mgrwt>
</event>
<event>
 4    0  0.1350440E-001  0.2423799E+03  0.7546771E-02  0.1118217E+00
         21   -1    0    0  502  501  0.00000000000E+00  0.00000000000E+00  0.73473002934E+03  0.73473002934E+03  0.00000000000E+00 0.  1.
         21   -1    0    0  503  502 -0.00000000000E+00 -0.00000000000E+00 -0.15368160178E+03  0.15368160178E+03  0.00000000000E+00 0. -1.
         25    1    1    2    0    0 -0.20224363975E+03  0.47122483205E+02 -0.28886557010E+02  0.24409516877E+03  0.12500000000E+03 0.  0.
         21    1    1    2  503  501  0.20224363975E+03 -0.47122483205E+02  0.60993498457E+03  0.64431646234E+03  0.00000000000E+00 0.  1.
<mgrwt>
<rscale>  3 0.24237990E+03</rscale>
<asrwt>0</asrwt>
<pdfrwt beam="1">  1       21 0.11303539E+00 0.24237990E+03</pdfrwt>
<pdfrwt beam="2">  1       21 0.23643324E-01 0.24237990E+03</pdfrwt>
<totfact> 0.99662124E+03</totfact>
</mgrwt>
</event>
<event>
 4    0  0.1005289E-001  0.2553007E+03  0.7546771E-02  0.1110000E+00
         21   -1    0    0  502  501  0.00000000000E+00  0.00000000000E+00  0.53331839292E+03  0.53331839292E+03  0.00000000000E+00 0.  1.
         21   -1    0    0  503  502 -0.00000000000E+00 -0.00000000000E+00 -0.14817307122E+03  0.14817307122E+03  0.00000000000E+00 0. -1.
         25    1    1    2    0    0  0.36741157491E+02 -0.21955300770E+03  0.22914111395E+02  0.25632692474E+03  0.12500000000E+03 0.  0.
         21    1    1    2  503  501 -0.36741157491E+02  0.21955300770E+03  0.36223121031E+03  0.42516453940E+03  0.00000000000E+00 0.  1.
<mgrwt>
<rscale>  3 0.25530068E+03</rscale>
<asrwt>0</asrwt>
<pdfrwt beam="1">  1       21 0.82048982E-01 0.25530068E+03</pdfrwt>
<pdfrwt beam="2">  1       21 0.22795857E-01 0.25530068E+03</pdfrwt>
<totfact> 0.22671992E+04</totfact>
</mgrwt>
</event>
<event>
 4    0  0.1005289E-001  0.2887298E+03  0.7546771E-02  0.1091014E+00
         21   -1    0    0  502  501  0.00000000000E+00  0.00000000000E+00  0.34176861628E+02  0.34176861628E+02  0.00000000000E+00 0. -1.
         21   -1    0    0  503  502 -0.00000000000E+00 -0.00000000000E+00 -0.25239053350E+04  0.25239053350E+04  0.00000000000E+00 0. -1.
         25    1    1    2    0    0  0.24434204397E+03 -0.89648550125E+02 -0.17555658437E+04  0.17791504513E+04  0.12500000000E+03 0.  0.
         21    1    1    2  503  501 -0.24434204397E+03  0.89648550125E+02 -0.73416262969E+03  0.77893174529E+03  0.00000000000E+00 0. -1.
<mgrwt>
<rscale>  3 0.28872980E+03</rscale>
<asrwt>0</asrwt>
<pdfrwt beam="1">  1       21 0.52579785E-02 0.28872980E+03</pdfrwt>
<pdfrwt beam="2">  1       21 0.38829315E+00 0.28872980E+03</pdfrwt>
<totfact> 0.22749651E+03</totfact>
</mgrwt>
</event>
<event>
 4    0  0.1297885E-001  0.2400786E+03  0.7546771E-02  0.1119740E+00
         21   -1    0    0  503  501  0.00000000000E+00  0.00000000000E+00  0.74869794807E+03  0.74869794807E+03  0.00000000000E+00 0. -1.
         21   -1    0    0  501  502 -0.00000000000E+00 -0.00000000000E+00 -0.66326762299E+02  0.66326762299E+02  0.00000000000E+00 0. -1.
         25    1    1    2    0    0  0.18106697341E+03  0.96059849464E+02  0.38971855451E+03  0.45773168480E+03  0.12500000000E+03 0.  0.
         21    1    1    2  503  502 -0.18106697341E+03 -0.96059849464E+02  0.29265263126E+03  0.35729302557E+03  0.00000000000E+00 0. -1.
<mgrwt>
<rscale>  3 0.24007862E+03</rscale>
<asrwt>0</asrwt>
<pdfrwt beam="1">  1       21 0.11518429E+00 0.24007862E+03</pdfrwt>
<pdfrwt beam="2">  1       21 0.10204118E-01 0.24007862E+03</pdfrwt>
<totfact> 0.44647224E+04</totfact>
</mgrwt>
</event>
<event>
 4    0  0.1186125E-001  0.3249764E+03  0.7546771E-02  0.1073382E+00
         21   -1    0    0  502  501  0.00000000000E+00  0.00000000000E+00  0.82235946308E+02  0.82235946308E+02  0.00000000000E+00 0. -1.
         21   -1    0    0  503  502 -0.00000000000E+00 -0.00000000000E+00 -0.13468394692E+04  0.13468394692E+04  0.00000000000E+00 0. -1.
         25    1    1    2    0    0  0.14278357479E+03 -0.26381344441E+03 -0.90033221831E+03  0.95718743514E+03  0.12500000000E+03 0.  0.
         21    1    1    2  503  501 -0.14278357479E+03  0.26381344441E+03 -0.36427130463E+03  0.47188798041E+03  0.00000000000E+00 0. -1.
<mgrwt>
<rscale>  3 0.32497643E+03</rscale>
<asrwt>0</asrwt>
<pdfrwt beam="1">  1       21 0.12651684E-01 0.32497643E+03</pdfrwt>
<pdfrwt beam="2">  1       21 0.20720608E+00 0.32497643E+03</pdfrwt>
<totfact> 0.58712298E+03</totfact>
</mgrwt>
</event>
<event>
 4    0  0.1576643E-001  0.2789718E+03  0.7546771E-02  0.1096252E+00
         21   -1    0    0  502  501  0.00000000000E+00  0.00000000000E+00  0.29734656695E+03  0.29734656695E+03  0.00000000000E+00 0.  1.
         21   -1    0    0  503  502 -0.00000000000E+00 -0.00000000000E+00 -0.28615404079E+03  0.28615404079E+03  0.00000000000E+00 0.  1.
         25    1    1    2    0    0  0.66565372241E+02 -0.24035247454E+03 -0.11767457653E+03  0.30277477894E+03  0.12500000000E+03 0.  0.
         21    1    1    2  503  501 -0.66565372241E+02  0.24035247454E+03  0.12886710269E+03  0.28072582880E+03  0.00000000000E+00 0.  1.
<mgrwt>
<rscale>  3 0.27897179E+03</rscale>
<asrwt>0</asrwt>
<pdfrwt beam="1">  1       21 0.45745626E-01 0.27897179E+03</pdfrwt>
<pdfrwt beam="2">  1       21 0.44023699E-01 0.27897179E+03</pdfrwt>
<totfact> 0.21739560E+04</totfact>
</mgrwt>
</event>
<event>
 4    0  0.1197545E-001  0.2698033E+03  0.7546771E-02  0.1101392E+00
         21   -1    0    0  502  501  0.00000000000E+00  0.00000000000E+00  0.14773675094E+03  0.14773675094E+03  0.00000000000E+00 0. -1.
         21   -1    0    0  503  502 -0.00000000000E+00 -0.00000000000E+00 -0.97523144433E+03  0.97523144433E+03  0.00000000000E+00 0.  1.
         25    1    1    2    0    0 -0.10615528851E+03 -0.21424262200E+03 -0.84126610983E+03  0.88347185236E+03  0.12500000000E+03 0.  0.
         21    1    1    2  503  501  0.10615528851E+03  0.21424262200E+03  0.13771416440E+02  0.23949634292E+03  0.00000000000E+00 0. -1.
<mgrwt>
<rscale>  3 0.26980335E+03</rscale>
<asrwt>0</asrwt>
<pdfrwt beam="1">  1       21 0.22728731E-01 0.26980335E+03</pdfrwt>
<pdfrwt beam="2">  1       21 0.15003561E+00 0.26980335E+03</pdfrwt>
<totfact> 0.51278226E+03</totfact>
</mgrwt>
</event>
<event>
 4    0  0.1451955E-001  0.2609859E+03  0.7546771E-02  0.1106552E+00
         21   -1    0    0  503  501  0.00000000000E+00  0.00000000000E+00  0.51300859619E+02  0.51300859619E+02  0.00000000000E+00 0. -1.
         21   -1    0    0  501  502 -0.00000000000E+00 -0.00000000000E+00 -0.12042934063E+04  0.12042934063E+04  0.00000000000E+00 0. -1.
         25    1    1    2    0    0  0.15498029796E+03  0.16872974971E+03 -0.71791408913E+03  0.76388105132E+03  0.12500000000E+03 0.  0.
         21    1    1    2  503  502 -0.15498029796E+03 -0.16872974971E+03 -0.43507845758E+03  0.49171321463E+03  0.00000000000E+00 0. -1.
<mgrwt>
<rscale>  3 0.26098586E+03</rscale>
<asrwt>0</asrwt>
<pdfrwt beam="1">  1       21 0.78924405E-02 0.26098586E+03</pdfrwt>
<pdfrwt beam="2">  1       21 0.18527589E+00 0.26098586E+03</pdfrwt>
<totfact> 0.19705451E+04</totfact>
</mgrwt>
</event>
<event>
 4    0  0.1629132E-001  0.3851509E+03  0.7546771E-02  0.1049046E+00
         21   -1    0    0  502  501  0.00000000000E+00  0.00000000000E+00  0.94575772447E+03  0.94575772447E+03  0.00000000000E+00 0.  1.
         21   -1    0    0  503  502 -0.00000000000E+00 -0.00000000000E+00 -0.45396573000E+03  0.45396573000E+03  0.00000000000E+00 0. -1.
         25    1    1    2    0    0  0.40881013581E+02  0.36200130098E+03 -0.32591156321E+03  0.50453894420E+03  0.12500000000E+03 0.  0.
         21    1    1    2  503  501 -0.40881013581E+02 -0.36200130098E+03  0.81770355768E+03  0.89518451027E+03  0.00000000000E+00 0.  1.
<mgrwt>
<rscale>  3 0.38515088E+03</rscale>
<asrwt>0</asrwt>
<pdfrwt beam="1">  1       21 0.14550119E+00 0.38515088E+03</pdfrwt>
<pdfrwt beam="2">  1       21 0.69840882E-01 0.38515088E+03</pdfrwt>
<totfact> 0.51920665E+02</totfact>
</mgrwt>
</event>
<event>
 4    0  0.1233510E-001  0.3771176E+03  0.7546771E-02  0.1052004E+00
         21   -1    0    0  502  501  0.00000000000E+00  0.00000000000E+00  0.36737458785E+03  0.36737458785E+03  0.00000000000E+00 0.  1.
         21   -1    0    0  503  502 -0.00000000000E+00 -0.00000000000E+00 -0.57293202610E+03  0.57293202610E+03  0.00000000000E+00 0.  1.
         25    1    1    2    0    0 -0.31542840764E+03  0.16461353199E+03 -0.38747518121E+03  0.54069835520E+03  0.12500000000E+03 0.  0.
         21    1    1    2  503  501  0.31542840764E+03 -0.16461353199E+03  0.18191774297E+03  0.39960825875E+03  0.00000000000E+00 0.  1.
<mgrwt>
<rscale>  3 0.37711761E+03</rscale>
<asrwt>0</asrwt>
<pdfrwt beam="1">  1       21 0.56519168E-01 0.37711761E+03</pdfrwt>
<pdfrwt beam="2">  1       21 0.88143388E-01 0.37711761E+03</pdfrwt>
<totfact> 0.29033138E+03</totfact>
</mgrwt>
</event>
<event>
 4    0  0.1005289E-001  0.3416176E+03  0.7546771E-02  0.1066109E+00
         21   -1    0    0  503  501  0.00000000000E+00  0.00000000000E+00  0.15109523286E+03  0.15109523286E+03  0.00000000000E+00 0.  1.
         21   -1    0    0  501  502 -0.00000000000E+00 -0.00000000000E+00 -0.20301616186E+04  0.20301616186E+04  0.00000000000E+00 0.  1.
         25    1    1    2    0    0  0.65966303359E+02  0.31100810202E+03 -0.18275238690E+04  0.18591788737E+04  0.12500000000E+03 0.  0.
         21    1    1    2  503  502 -0.65966303359E+02 -0.31100810202E+03 -0.51542516715E+02  0.32207797772E+03  0.00000000000E+00 0.  1.
<mgrwt>
<rscale>  3 0.34161761E+03</rscale>
<asrwt>0</asrwt>
<pdfrwt beam="1">  1       21 0.23245422E-01 0.34161761E+03</pdfrwt>
<pdfrwt beam="2">  1       21 0.31233253E+00 0.34161761E+03</pdfrwt>
<totfact> 0.42916229E+02</totfact>
</mgrwt>
</event>
<event>
 4    0  0.1273679E-001  0.2391025E+03  0.7546771E-02  0.1120392E+00
         21   -1    0    0  502  501  0.00000000000E+00  0.00000000000E+00  0.39060222675E+03  0.39060222675E+03  0.00000000000E+00 0.  1.
         21   -1    0    0  503  502 -0.00000000000E+00 -0.00000000000E+00 -0.31944168898E+03  0.31944168898E+03  0.00000000000E+00 0.  1.
         25    1    1    2    0    0  0.19507338276E+03  0.59087889384E+02 -0.23954095794E+03  0.33845217367E+03  0.12500000000E+03 0.  0.
         21    1    1    2  503  501 -0.19507338276E+03 -0.59087889384E+02  0.31070149570E+03  0.37159174206E+03  0.00000000000E+00 0.  1.
<mgrwt>
<rscale>  3 0.23910250E+03</rscale>
<asrwt>0</asrwt>
<pdfrwt beam="1">  1       21 0.60092650E-01 0.23910250E+03</pdfrwt>
<pdfrwt beam="2">  1       21 0.49144875E-01 0.23910250E+03</pdfrwt>
<totfact> 0.99021446E+03</totfact>
</mgrwt>
</event>
<event>
 4    0  0.1184877E-001  0.3210156E+03  0.7546771E-02  0.1075183E+00
         21   -1    0    0  503  501  0.00000000000E+00  0.00000000000E+00  0.51361770263E+03  0.51361770263E+03  0.00000000000E+00 0.  1.
         21   -1    0    0  501  502 -0.00000000000E+00 -0.00000000000E+00 -0.48704378092E+03  0.48704378092E+03  0.00000000000E+00 0.  1.
         25    1    1    2    0    0  0.29154630523E+03  0.49262368123E+02 -0.38031534666E+03  0.49768543470E+03  0.12500000000E+03 0.  0.
         21    1    1    2  503  502 -0.29154630523E+03 -0.49262368123E+02  0.40688926837E+03  0.50297604885E+03  0.00000000000E+00 0.  1.
<mgrwt>
<rscale>  3 0.32101562E+03</rscale>
<asrwt>0</asrwt>
<pdfrwt beam="1">  1       21 0.79018108E-01 0.32101562E+03</pdfrwt>
<pdfrwt beam="2">  1       21 0.74929812E-01 0.32101562E+03</pdfrwt>
<totfact> 0.20601461E+03</totfact>
</mgrwt>
</event>
<event>
 4    0  0.1651667E-001  0.2860227E+03  0.7546771E-02  0.1092444E+00
         21   -1    0    0  503  501  0.00000000000E+00  0.00000000000E+00  0.32265184786E+03  0.32265184786E+03  0.00000000000E+00 0.  1.
         21   -1    0    0  501  502 -0.00000000000E+00 -0.00000000000E+00 -0.25179904058E+03  0.25179904058E+03  0.00000000000E+00 0.  1.
         25    1    1    2    0    0 -0.17316587991E+03  0.19025652402E+03 -0.49758845459E+02  0.29031863460E+03  0.12500000000E+03 0.  0.
         21    1    1    2  503  502  0.17316587991E+03 -0.19025652402E+03  0.12061165274E+03  0.28413225384E+03  0.00000000000E+00 0.  1.
<mgrwt>
<rscale>  3 0.28602267E+03</rscale>
<asrwt>0</asrwt>
<pdfrwt beam="1">  1       21 0.49638746E-01 0.28602267E+03</pdfrwt>
<pdfrwt beam="2">  1       21 0.38738314E-01 0.28602267E+03</pdfrwt>
<totfact> 0.23747714E+04</totfact>
</mgrwt>
</event>
<event>
 4    0  0.1005289E-001  0.3522752E+03  0.7546771E-02  0.1061685E+00
         21   -1    0    0  502  501  0.00000000000E+00  0.00000000000E+00  0.23711381586E+04  0.23711381586E+04  0.00000000000E+00 0. -1.
         21   -1    0    0  503  502 -0.00000000000E+00 -0.00000000000E+00 -0.95907350763E+02  0.95907350763E+02  0.00000000000E+00 0. -1.
         25    1    1    2    0    0  0.14311392185E+03 -0.29663312333E+03  0.29461820968E+03  0.45923598939E+03  0.12500000000E+03 0.  0.
         21    1    1    2  503  501 -0.14311392185E+03  0.29663312333E+03  0.19806125982E+04  0.20078095200E+04  0.00000000000E+00 0. -1.
<mgrwt>
<rscale>  3 0.35227518E+03</rscale>
<asrwt>0</asrwt>
<pdfrwt beam="1">  1       21 0.36479044E+00 0.35227518E+03</pdfrwt>
<pdfrwt beam="2">  1       21 0.14754979E-01 0.35227518E+03</pdfrwt>
<totfact> 0.48277911E+02</totfact>
</mgrwt>
</event>
<event>
 4    0  0.1500094E-001  0.3116997E+03  0.7546771E-02  0.1079534E+00
         21   -1    0    0  502  501  0.00000000000E+00  0.00000000000E+00  0.15010639756E+03  0.15010639756E+03  0.00000000000E+00 0.  1.
         21   -1    0    0  503  502 -0.00000000000E+00 -0.00000000000E+00 -0.14466000122E+04  0.14466000122E+04  0.00000000000E+00 0. -1.
         25    1    1    2    0    0  0.37979756732E+02 -0.28300043753E+03 -0.12725485234E+04  0.13101665749E+04  0.12500000000E+03 0.  0.
         21    1    1    2  503  501 -0.37979756732E+02  0.28300043753E+03 -0.23945091217E+02  0.28653983485E+03  0.00000000000E+00 0.  1.
<mgrwt>
<rscale>  3 0.31169971E+03</rscale>
<asrwt>0</asrwt>
<pdfrwt beam="1">  1       21 0.23093292E-01 0.31169971E+03</pdfrwt>
<pdfrwt beam="2">  1       21 0.22255384E+00 0.31169971E+03</pdfrwt>
<totfact> 0.15404283E+03</totfact>
</mgrwt>
</event>
<event>
 4    0  0.1005289E-001  0.2554804E+03  0.7546771E-02  0.1109890E+00
         21   -1    0    0  503  501  0.00000000000E+00  0.00000000000E+00  0.69924457505E+02  0.69924457505E+02  0.00000000000E+00 0. -1.
         21   -1    0    0  501  502 -0.00000000000E+00 -0.00000000000E+00 -0.13806814994E+04  0.13806814994E+04  0.00000000000E+00 0.  1.
         25    1    1    2    0    0 -0.15399130555E+03  0.16103386759E+03 -0.11443229429E+04  0.11724952990E+04  0.12500000000E+03 0.  0.
         21    1    1    2  503  502  0.15399130555E+03 -0.16103386759E+03 -0.16643409901E+03  0.27811065785E+03  0.00000000000E+00 0. -1.
<mgrwt>
<rscale>  3 0.25548039E+03</rscale>
<asrwt>0</asrwt>
<pdfrwt beam="1">  1       21 0.10757609E-01 0.25548039E+03</pdfrwt>
<pdfrwt beam="2">  1       21 0.21241253E+00 0.25548039E+03</pdfrwt>
<totfact> 0.76012286E+03</totfact>
</mgrwt>
</event>
<event>
 4    0  0.1156952E-001  0.3797677E+03  0.7546771E-02  0.1051020E+00
         21   -1    0    0  503  501  0.00000000000E+00  0.00000000000E+00  0.40910392900E+03  0.40910392900E+03  0.00000000000E+00 0.  1.
         21   -1    0    0  501  502 -0.00000000000E+00 -0.00000000000E+00 -0.71641622153E+03  0.71641622153E+03  0.00000000000E+00 0.  1.
         25    1    1    2    0    0 -0.26957532139E+03  0.23649020183E+03 -0.56723217567E+03  0.68262420890E+03  0.12500000000E+03 0.  0.
         21    1    1    2  503  502  0.26957532139E+03 -0.23649020183E+03  0.25991988313E+03  0.44289594163E+03  0.00000000000E+00 0.  1.
<mgrwt>
<rscale>  3 0.37976765E+03</rscale>
<asrwt>0</asrwt>
<pdfrwt beam="1">  1       21 0.62939066E-01 0.37976765E+03</pdfrwt>
<pdfrwt beam="2">  1       21 0.11021788E+00 0.37976765E+03</pdfrwt>
<totfact> 0.13382830E+03</totfact>
</mgrwt>
</event>
<event>
 4    0  0.1005289E-001  0.2397148E+03  0.7546771E-02  0.1119983E+00
         21   -1    0    0  503  501  0.00000000000E+00  0.00000000000E+00  0.52371832479E+02  0.52371832479E+02  0.00000000000E+00 0. -1.
         21   -1    0    0  501  502 -0.00000000000E+00 -0.00000000000E+00 -0.20321320658E+04  0.20321320658E+04  0.00000000000E+00 0.  1.
         25    1    1    2    0    0  0.98602243631E+01 -0.20430603161E+03 -0.17884268514E+04  0.18044206221E+04  0.12500000000E+03 0.  0.
         21    1    1    2  503  502 -0.98602243631E+01  0.20430603161E+03 -0.19133338197E+03  0.28008327625E+03  0.00000000000E+00 0. -1.
<mgrwt>
<rscale>  3 0.23971479E+03</rscale>
<asrwt>0</asrwt>
<pdfrwt beam="1">  1       21 0.80572066E-02 0.23971479E+03</pdfrwt>
<pdfrwt beam="2">  1       21 0.31263564E+00 0.23971479E+03</pdfrwt>
<totfact> 0.32456558E+03</totfact>
</mgrwt>
</event>
<event>
 4    0  0.1560083E-001  0.4359699E+03  0.7546771E-02  0.1031991E+00
         21   -1    0    0  503  501  0.00000000000E+00  0.00000000000E+00  0.37009975328E+03  0.37009975328E+03  0.00000000000E+00 0. -1.
         21   -1    0    0  501  502 -0.00000000000E+00 -0.00000000000E+00 -0.49224216687E+03  0.49224216687E+03  0.00000000000E+00 0. -1.
         25    1    1    2    0    0 -0.41204486142E+03  0.68292221888E+02 -0.64676802597E+02  0.44074128941E+03  0.12500000000E+03 0.  0.
         21    1    1    2  503  502  0.41204486142E+03 -0.68292221888E+02 -0.57465610986E+02  0.42160063074E+03  0.00000000000E+00 0. -1.
<mgrwt>
<rscale>  3 0.43596995E+03</rscale>
<asrwt>0</asrwt>
<pdfrwt beam="1">  1       21 0.56938424E-01 0.43596995E+03</pdfrwt>
<pdfrwt beam="2">  1       21 0.75729564E-01 0.43596995E+03</pdfrwt>
<totfact> 0.39681535E+03</totfact>
</mgrwt>
</event>
<event>
 4    0  0.1364782E-001  0.2510161E+03  0.7546771E-02  0.1112664E+00
         21   -1    0    0  503  501  0.00000000000E+00  0.00000000000E+00  0.72100797820E+02  0.72100797820E+02  0.00000000000E+00 0.  1.
         21   -1    0    0  501  502 -0.00000000000E+00 -0.00000000000E+00 -0.76680050132E+03  0.76680050132E+03  0.00000000000E+00 0.  1.
         25    1    1    2    0    0 -0.36158331725E+02 -0.21465468198E+03 -0.33774667797E+03  0.42081097411E+03  0.12500000000E+03 0.  0.
         21    1    1    2  503  502  0.36158331725E+02  0.21465468198E+03 -0.35695302553E+03  0.41809032503E+03  0.00000000000E+00 0.  1.
<mgrwt>
<rscale>  3 0.25101605E+03</rscale>
<asrwt>0</asrwt>
<pdfrwt beam="1">  1       21 0.11092430E-01 0.25101605E+03</pdfrwt>
<pdfrwt beam="2">  1       21 0.11796931E+00 0.25101605E+03</pdfrwt>
<totfact> 0.36093251E+04</totfact>
</mgrwt>
</event>
<event>
 4    0  0.1005289E-001  0.3622185E+03  0.7546771E-02  0.1057709E+00
         21   -1    0    0  502  501  0.00000000000E+00  0.00000000000E+00  0.16189838095E+04  0.16189838095E+04  0.00000000000E+00 0. -1.
         21   -1    0    0  503  502 -0.00000000000E+00 -0.00000000000E+00 -0.13597450408E+03  0.13597450408E+03  0.00000000000E+00 0.  1.
         25    1    1    2    0    0  0.33921816883E+03 -0.22545378785E+02  0.17273381253E+03  0.40129693515E+03  0.12500000000E+03 0.  0.
         21    1    1    2  503  501 -0.33921816883E+03  0.22545378785E+02  0.13102754929E+04  0.13536613784E+04  0.00000000000E+00 0. -1.
<mgrwt>
<rscale>  3 0.36221853E+03</rscale>
<asrwt>0</asrwt>
<pdfrwt beam="1">  1       21 0.24907442E+00 0.36221853E+03</pdfrwt>
<pdfrwt beam="2">  1       21 0.20919156E-01 0.36221853E+03</pdfrwt>
<totfact> 0.12358463E+03</totfact>
</mgrwt>
</event>
<event>
 4    0  0.1237240E-001  0.4027342E+03  0.7546771E-02  0.1042837E+00
         21   -1    0    0  503  501  0.00000000000E+00  0.00000000000E+00  0.29737355257E+03  0.29737355257E+03  0.00000000000E+00 0. -1.
         21   -1    0    0  501  502 -0.00000000000E+00 -0.00000000000E+00 -0.73428142785E+03  0.73428142785E+03  0.00000000000E+00 0. -1.
         25    1    1    2    0    0 -0.37293512362E+03  0.86540372776E+02 -0.50171876333E+03  0.64336347427E+03  0.12500000000E+03 0.  0.
         21    1    1    2  503  502  0.37293512362E+03 -0.86540372776E+02  0.64810888048E+02  0.38829150616E+03  0.00000000000E+00 0. -1.
<mgrwt>
<rscale>  3 0.40273421E+03</rscale>
<asrwt>0</asrwt>
<pdfrwt beam="1">  1       21 0.45749777E-01 0.40273421E+03</pdfrwt>
<pdfrwt beam="2">  1       21 0.11296637E+00 0.40273421E+03</pdfrwt>
<totfact> 0.24701801E+03</totfact>
</mgrwt>
</event>
<event>
 4    0  0.1005289E-001  0.2385901E+03  0.7546771E-02  0.1120736E+00
         21   -1    0    0  502  501  0.00000000000E+00  0.00000000000E+00  0.25588514680E+03  0.25588514680E+03  0.00000000000E+00 0. -1.
         21   -1    0    0  503  502 -0.00000000000E+00 -0.00000000000E+00 -0.19553883310E+03  0.19553883310E+03  0.00000000000E+00 0.  1.
         25    1    1    2    0    0 -0.19032906203E+03  0.71239773167E+02 -0.28269091970E+01  0.23860689124E+03  0.12500000000E+03 0.  0.
         21    1    1    2  503  501  0.19032906203E+03 -0.71239773167E+02  0.63173222903E+02  0.21281708866E+03  0.00000000000E+00 0. -1.
<mgrwt>
<rscale>  3 0.23859014E+03</rscale>
<asrwt>0</asrwt>
<pdfrwt beam="1">  1       21 0.39366946E-01 0.23859014E+03</pdfrwt>
<pdfrwt beam="2">  1       21 0.30082897E-01 0.23859014E+03</pdfrwt>
<totfact> 0.64655731E+04</totfact>
</mgrwt>
</event>
<event>
 4    0  0.1005289E-001  0.2620607E+03  0.7546771E-02  0.1105911E+00
         21   -1    0    0  503  501  0.00000000000E+00  0.00000000000E+00  0.10644757168E+03  0.10644757168E+03  0.00000000000E+00 0.  1.
         21   -1    0    0  501  502 -0.00000000000E+00 -0.00000000000E+00 -0.79109396587E+03  0.79109396587E+03  0.00000000000E+00 0.  1.
         25    1    1    2    0    0  0.10096659273E+03 -0.20701822664E+03 -0.12099170535E+03  0.28864301788E+03  0.12500000000E+03 0.  0.
         21    1    1    2  503  502 -0.10096659273E+03  0.20701822664E+03 -0.56365468884E+03  0.60889851967E+03  0.00000000000E+00 0.  1.
<mgrwt>
<rscale>  3 0.26206068E+03</rscale>
<asrwt>0</asrwt>
<pdfrwt beam="1">  1       21 0.16376549E-01 0.26206068E+03</pdfrwt>
<pdfrwt beam="2">  1       21 0.12170677E+00 0.26206068E+03</pdfrwt>
<totfact> 0.16357439E+04</totfact>
</mgrwt>
</event>
<event>
 4    0  0.1106358E-001  0.5156554E+03  0.7546771E-02  0.1009772E+00
         21   -1    0    0  502  501  0.00000000000E+00  0.00000000000E+00  0.32882233618E+03  0.32882233618E+03  0.00000000000E+00 0. -1.
         21   -1    0    0  503  502 -0.00000000000E+00 -0.00000000000E+00 -0.11274802203E+04  0.11274802203E+04  0.00000000000E+00 0. -1.
         25    1    1    2    0    0 -0.14403087079E+03  0.47909355416E+03 -0.80499109260E+03  0.95598702112E+03  0.12500000000E+03 0.  0.
         21    1    1    2  503  501  0.14403087079E+03 -0.47909355416E+03  0.63332084982E+01  0.50031553535E+03  0.00000000000E+00 0. -1.
<mgrwt>
<rscale>  3 0.51565543E+03</rscale>
<asrwt>0</asrwt>
<pdfrwt beam="1">  1       21 0.50588052E-01 0.51565543E+03</pdfrwt>
<pdfrwt beam="2">  1       21 0.17345849E+00 0.51565543E+03</pdfrwt>
<totfact> 0.60741612E+02</totfact>
</mgrwt>
</event>
<event>
 4    0  0.1005289E-001  0.3319709E+03  0.7546771E-02  0.1070268E+00
         21   -1    0    0  503  501  0.00000000000E+00  0.00000000000E+00  0.15822249805E+03  0.15822249805E+03  0.00000000000E+00 0. -1.
         21   -1    0    0  501  502 -0.00000000000E+00 -0.00000000000E+00 -0.14428189277E+04  0.14428189277E+04  0.00000000000E+00 0. -1.
         25    1    1    2    0    0  0.28703424214E+03  0.11041293101E+03 -0.12479240598E+04  0.12913245644E+04  0.12500000000E+03 0.  0.
         21    1    1    2  503  502 -0.28703424214E+03 -0.11041293101E+03 -0.36672369809E+02  0.30971686134E+03  0.00000000000E+00 0. -1.
<mgrwt>
<rscale>  3 0.33197089E+03</rscale>
<asrwt>0</asrwt>
<pdfrwt beam="1">  1       21 0.24341924E-01 0.33197089E+03</pdfrwt>
<pdfrwt beam="2">  1       21 0.22197214E+00 0.33197089E+03</pdfrwt>
<totfact> 0.13850208E+03</totfact>
</mgrwt>
</event>
<event>
 4    0  0.1338432E-001  0.3205701E+03  0.7546771E-02  0.1075387E+00
         21   -1    0    0  503  501  0.00000000000E+00  0.00000000000E+00  0.67036271096E+02  0.67036271096E+02  0.00000000000E+00 0.  1.
         21   -1    0    0  501  502 -0.00000000000E+00 -0.00000000000E+00 -0.14247388030E+04  0.14247388030E+04  0.00000000000E+00 0.  1.
         25    1    1    2    0    0  0.20762514892E+03 -0.20983803935E+03 -0.77120767650E+03  0.83518051074E+03  0.12500000000E+03 0.  0.
         21    1    1    2  503  502 -0.20762514892E+03  0.20983803935E+03 -0.58649485544E+03  0.65659456340E+03  0.00000000000E+00 0.  1.
<mgrwt>
<rscale>  3 0.32057013E+03</rscale>
<asrwt>0</asrwt>
<pdfrwt beam="1">  1       21 0.10313273E-01 0.32057013E+03</pdfrwt>
<pdfrwt beam="2">  1       21 0.21919057E+00 0.32057013E+03</pdfrwt>
<totfact> 0.71341722E+03</totfact>
</mgrwt>
</event>
<event>
 4    0  0.1005289E-001  0.2585144E+03  0.7546771E-02  0.1108039E+00
         21   -1    0    0  502  501  0.00000000000E+00  0.00000000000E+00  0.17840179017E+04  0.17840179017E+04  0.00000000000E+00 0. -1.
         21   -1    0    0  503  502 -0.00000000000E+00 -0.00000000000E+00 -0.85728926071E+02  0.85728926071E+02  0.00000000000E+00 0. -1.
         25    1    1    2    0    0 -0.12968138628E+03 -0.18543855668E+03  0.13782209483E+03  0.29295844428E+03  0.12500000000E+03 0.  0.
         21    1    1    2  503  501  0.12968138628E+03  0.18543855668E+03  0.15604668808E+04  0.15767883835E+04  0.00000000000E+00 0. -1.
<mgrwt>
<rscale>  3 0.25851445E+03</rscale>
<asrwt>0</asrwt>
<pdfrwt beam="1">  1       21 0.27446426E+00 0.25851445E+03</pdfrwt>
<pdfrwt beam="2">  1       21 0.13189067E-01 0.25851445E+03</pdfrwt>
<totfact> 0.22160273E+03</totfact>
</mgrwt>
</event>
<event>
 4    0  0.1665204E-001  0.2454723E+03  0.7546771E-02  0.1116200E+00
         21   -1    0    0  503  501  0.00000000000E+00  0.00000000000E+00  0.22067687818E+03  0.22067687818E+03  0.00000000000E+00 0.  1.
         21   -1    0    0  501  502 -0.00000000000E+00 -0.00000000000E+00 -0.24559322552E+03  0.24559322552E+03  0.00000000000E+00 0.  1.
         25    1    1    2    0    0 -0.18587074081E+03  0.10041774171E+03 -0.58522026321E+02  0.25235190252E+03  0.12500000000E+03 0.  0.
         21    1    1    2  503  502  0.18587074081E+03 -0.10041774171E+03  0.33605678983E+02  0.21391820119E+03  0.00000000000E+00 0.  1.
<mgrwt>
<rscale>  3 0.24547231E+03</rscale>
<asrwt>0</asrwt>
<pdfrwt beam="1">  1       21 0.33950289E-01 0.24547231E+03</pdfrwt>
<pdfrwt beam="2">  1       21 0.37783573E-01 0.24547231E+03</pdfrwt>
<totfact> 0.55179343E+04</totfact>
</mgrwt>
</event>
<event>
 4    0  0.1645130E-001  0.3278612E+03  0.7546771E-02  0.1072087E+00
         21   -1    0    0  503  501  0.00000000000E+00  0.00000000000E+00  0.38317096476E+03  0.38317096476E+03  0.00000000000E+00 0. -1.
         21   -1    0    0  501  502 -0.00000000000E+00 -0.00000000000E+00 -0.26391355349E+03  0.26391355349E+03  0.00000000000E+00 0. -1.
         25    1    1    2    0    0  0.25696897903E+03  0.16073237590E+03  0.21305571264E+02  0.32855270538E+03  0.12500000000E+03 0.  0.
         21    1    1    2  503  502 -0.25696897903E+03 -0.16073237590E+03  0.97951840003E+02  0.31853181286E+03  0.00000000000E+00 0. -1.
<mgrwt>
<rscale>  3 0.32786118E+03</rscale>
<asrwt>0</asrwt>
<pdfrwt beam="1">  1       21 0.58949379E-01 0.32786118E+03</pdfrwt>
<pdfrwt beam="2">  1       21 0.40602085E-01 0.32786118E+03</pdfrwt>
<totfact> 0.14704278E+04</totfact>
</mgrwt>
</event>
<event>
 4    0  0.1385879E-001  0.2635760E+03  0.7546771E-02  0.1105014E+00
         21   -1    0    0  503  501  0.00000000000E+00  0.00000000000E+00  0.11319100346E+04  0.11319100346E+04  0.00000000000E+00 0.  1.
         21   -1    0    0  501  502 -0.00000000000E+00 -0.00000000000E+00 -0.65638349034E+02  0.65638349034E+02  0.00000000000E+00 0.  1.
         25    1    1    2    0    0  0.63292004241E+02  0.22325194782E+03  0.31222357656E+03  0.40860233940E+03  0.12500000000E+03 0.  0.
         21    1    1    2  503  502 -0.63292004241E+02 -0.22325194782E+03  0.75404810899E+03  0.78894604422E+03  0.00000000000E+00 0.  1.
<mgrwt>
<rscale>  3 0.26357600E+03</rscale>
<asrwt>0</asrwt>
<pdfrwt beam="1">  1       21 0.17413999E+00 0.26357600E+03</pdfrwt>
<pdfrwt beam="2">  1       21 0.10098208E-01 0.26357600E+03</pdfrwt>
<totfact> 0.15202015E+04</totfact>
</mgrwt>
</event>
<event>
 4    0  0.1236275E-001  0.2896958E+03  0.7546771E-02  0.1090508E+00
         21   -1    0    0  502  501  0.00000000000E+00  0.00000000000E+00  0.59867420258E+03  0.59867420258E+03  0.00000000000E+00 0. -1.
         21   -1    0    0  503  502 -0.00000000000E+00 -0.00000000000E+00 -0.20120532555E+03  0.20120532555E+03  0.00000000000E+00 0.  1.
         25    1    1    2    0    0 -0.26131962956E+03 -0.32724443488E+01 -0.37830039584E+02  0.29215538602E+03  0.12500000000E+03 0.  0.
         21    1    1    2  503  501  0.26131962956E+03  0.32724443488E+01  0.43529891661E+03  0.50772414211E+03  0.00000000000E+00 0. -1.
<mgrwt>
<rscale>  3 0.28969580E+03</rscale>
<asrwt>0</asrwt>
<pdfrwt beam="1">  1       21 0.92103723E-01 0.28969580E+03</pdfrwt>
<pdfrwt beam="2">  1       21 0.30954666E-01 0.28969580E+03</pdfrwt>
<totfact> 0.94264015E+03</totfact>
</mgrwt>
</event>
<event>
 4    0  0.1305947E-001  0.2430245E+03  0.7546771E-02  0.1117794E+00
         21   -1    0    0  502  501  0.00000000000E+00  0.00000000000E+00  0.85311623535E+03  0.85311623535E+03  0.00000000000E+00 0.  1.
         21   -1    0    0  503  502 -0.00000000000E+00 -0.00000000000E+00 -0.63779747171E+02  0.63779747171E+02  0.00000000000E+00 0.  1.
         25    1    1    2    0    0 -0.20562285155E+03  0.33987820294E+02  0.30767049196E+03  0.39207404993E+03  0.12500000000E+03 0.  0.
         21    1    1    2  503  501  0.20562285155E+03 -0.33987820294E+02  0.48166599623E+03  0.52482193259E+03  0.00000000000E+00 0.  1.
<mgrwt>
<rscale>  3 0.24302454E+03</rscale>
<asrwt>0</asrwt>
<pdfrwt beam="1">  1       21 0.13124864E+00 0.24302454E+03</pdfrwt>
<pdfrwt beam="2">  1       21 0.98122694E-02 0.24302454E+03</pdfrwt>
<totfact> 0.34449945E+04</totfact>
</mgrwt>
</event>
<event>
 4    0  0.1237732E-001  0.2758323E+03  0.7546771E-02  0.1097987E+00
         21   -1    0    0  503  501  0.00000000000E+00  0.00000000000E+00  0.43822533114E+03  0.43822533114E+03  0.00000000000E+00 0. -1.
         21   -1    0    0  501  502 -0.00000000000E+00 -0.00000000000E+00 -0.27720010477E+03  0.27720010477E+03  0.00000000000E+00 0. -1.
         25    1    1    2    0    0  0.22688753126E+03 -0.94765530560E+02 -0.15391447626E+03  0.31586883928E+03  0.12500000000E+03 0.  0.
         21    1    1    2  503  502 -0.22688753126E+03  0.94765530560E+02  0.31493970262E+03  0.39955659664E+03  0.00000000000E+00 0. -1.
<mgrwt>
<rscale>  3 0.27583230E+03</rscale>
<asrwt>0</asrwt>
<pdfrwt beam="1">  1       21 0.67419282E-01 0.27583230E+03</pdfrwt>
<pdfrwt beam="2">  1       21 0.42646170E-01 0.27583230E+03</pdfrwt>
<totfact> 0.10134183E+04</totfact>
</mgrwt>
</event>
<event>
 4    0  0.1005289E-001  0.2478224E+03  0.7546771E-02  0.1114689E+00
         21   -1    0    0  503  501  0.00000000000E+00  0.00000000000E+00  0.27552257811E+04  0.27552257811E+04  0.00000000000E+00 0.  1.
         21   -1    0    0  501  502 -0.00000000000E+00 -0.00000000000E+00 -0.19414601921E+02  0.19414601921E+02  0.00000000000E+00 0.  1.
         25    1    1    2    0    0  0.18636714381E+03  0.10515806503E+03  0.15467933667E+04  0.15665202362E+04  0.12500000000E+03 0.  0.
         21    1    1    2  503  502 -0.18636714381E+03 -0.10515806503E+03  0.11890178124E+04  0.12081201469E+04  0.00000000000E+00 0.  1.
<mgrwt>
<rscale>  3 0.24782238E+03</rscale>
<asrwt>0</asrwt>
<pdfrwt beam="1">  1       21 0.42388058E+00 0.24782238E+03</pdfrwt>
<pdfrwt beam="2">  1       21 0.29868640E-02 0.24782238E+03</pdfrwt>
<totfact> 0.36622256E+03</totfact>
</mgrwt>
</event>
<event>
 4    0  0.1141053E-001  0.2846430E+03  0.7546771E-02  0.1093180E+00
         21   -1    0    0  502  501  0.00000000000E+00  0.00000000000E+00  0.44154791310E+03  0.44154791310E+03  0.00000000000E+00 0. -1.
         21   -1    0    0  503  502 -0.00000000000E+00 -0.00000000000E+00 -0.37780632400E+03  0.37780632400E+03  0.00000000000E+00 0. -1.
         25    1    1    2    0    0 -0.24603786526E+03 -0.69728258106E+02 -0.27442109681E+03  0.39538411639E+03  0.12500000000E+03 0.  0.
         21    1    1    2  503  501  0.24603786526E+03  0.69728258106E+02  0.33816268590E+03  0.42397012071E+03  0.00000000000E+00 0. -1.
<mgrwt>
<rscale>  3 0.28464304E+03</rscale>
<asrwt>0</asrwt>
<pdfrwt beam="1">  1       21 0.67930448E-01 0.28464304E+03</pdfrwt>
<pdfrwt beam="2">  1       21 0.58124050E-01 0.28464304E+03</pdfrwt>
<totfact> 0.51715054E+03</totfact>
</mgrwt>
</event>
<event>
 4    0  0.1164812E-001  0.2837432E+03  0.7546771E-02  0.1093662E+00
         21   -1    0    0  503  501  0.00000000000E+00  0.00000000000E+00  0.26991694193E+03  0.26991694193E+03  0.00000000000E+00 0. -1.
         21   -1    0    0  501  502 -0.00000000000E+00 -0.00000000000E+00 -0.41390860995E+03  0.41390860995E+03  0.00000000000E+00 0.  1.
         25    1    1    2    0    0  0.23711041133E+03 -0.93079810959E+02 -0.27694010816E+03  0.39649214605E+03  0.12500000000E+03 0.  0.
         21    1    1    2  503  502 -0.23711041133E+03  0.93079810959E+02  0.13294844014E+03  0.28733340583E+03  0.00000000000E+00 0. -1.
<mgrwt>
<rscale>  3 0.28374319E+03</rscale>
<asrwt>0</asrwt>
<pdfrwt beam="1">  1       21 0.41525683E-01 0.28374319E+03</pdfrwt>
<pdfrwt beam="2">  1       21 0.63678248E-01 0.28374319E+03</pdfrwt>
<totfact> 0.12090239E+04</totfact>
</mgrwt>
</event>
<event>
 4    0  0.1375799E-001  0.2557610E+03  0.7546771E-02  0.1109717E+00
         21   -1    0    0  502  501  0.00000000000E+00  0.00000000000E+00  0.14620469086E+03  0.14620469086E+03  0.00000000000E+00 0.  1.
         21   -1    0    0  503  502 -0.00000000000E+00 -0.00000000000E+00 -0.56211084011E+03  0.56211084011E+03  0.00000000000E+00 0.  1.
         25    1    1    2    0    0 -0.13558219682E+03 -0.17721784545E+03 -0.41226048737E+03  0.48515194145E+03  0.12500000000E+03 0.  0.
         21    1    1    2  503  501  0.13558219682E+03  0.17721784545E+03 -0.36456618738E+01  0.22316358953E+03  0.00000000000E+00 0.  1.
<mgrwt>
<rscale>  3 0.25576102E+03</rscale>
<asrwt>0</asrwt>
<pdfrwt beam="1">  1       21 0.22493029E-01 0.25576102E+03</pdfrwt>
<pdfrwt beam="2">  1       21 0.86478592E-01 0.25576102E+03</pdfrwt>
<totfact> 0.20601250E+04</totfact>
</mgrwt>
</event>
<event>
 4    0  0.1005289E-001  0.2359109E+03  0.7546771E-02  0.1122547E+00
         21   -1    0    0  503  501  0.00000000000E+00  0.00000000000E+00  0.80508468539E+03  0.80508468539E+03  0.00000000000E+00 0.  1.
         21   -1    0    0  501  502 -0.00000000000E+00 -0.00000000000E+00 -0.81980802501E+03  0.81980802501E+03  0.00000000000E+00 0.  1.
         25    1    1    2    0    0 -0.19530100786E+03 -0.43433314181E+02 -0.78986727424E+03  0.82434473818E+03  0.12500000000E+03 0.  0.
         21    1    1    2  503  502  0.19530100786E+03  0.43433314181E+02  0.77514393461E+03  0.80054797222E+03  0.00000000000E+00 0.  1.
<mgrwt>
<rscale>  3 0.23591087E+03</rscale>
<asrwt>0</asrwt>
<pdfrwt beam="1">  1       21 0.12385918E+00 0.23591087E+03</pdfrwt>
<pdfrwt beam="2">  1       21 0.12612431E+00 0.23591087E+03</pdfrwt>
<totfact> 0.21661300E+02</totfact>
</mgrwt>
</event>
<event>
 4    0  0.1141496E-001  0.2945173E+03  0.7546771E-02  0.1088014E+00
         21   -1    0    0  503  501  0.00000000000E+00  0.00000000000E+00  0.11935798762E+03  0.11935798762E+03  0.00000000000E+00 0.  1.
         21   -1    0    0  501  502 -0.00000000000E+00 -0.00000000000E+00 -0.96519357281E+03  0.96519357281E+03  0.00000000000E+00 0. -1.
         25    1    1    2    0    0  0.61570816121E+02 -0.25946958866E+03 -0.74210778426E+03  0.79841367491E+03  0.12500000000E+03 0.  0.
         21    1    1    2  503  502 -0.61570816121E+02  0.25946958866E+03 -0.10372780093E+03  0.28613788551E+03  0.00000000000E+00 0.  1.
<mgrwt>
<rscale>  3 0.29451729E+03</rscale>
<asrwt>0</asrwt>
<pdfrwt beam="1">  1       21 0.18362768E-01 0.29451729E+03</pdfrwt>
<pdfrwt beam="2">  1       21 0.14849132E+00 0.29451729E+03</pdfrwt>
<totfact> 0.77763731E+03</totfact>
</mgrwt>
</event>
<event>
 4    0  0.1816341E-001  0.2748584E+03  0.7546771E-02  0.1098531E+00
         21   -1    0    0  502  501  0.00000000000E+00  0.00000000000E+00  0.54814695178E+03  0.54814695178E+03  0.00000000000E+00 0.  1.
         21   -1    0    0  503  502 -0.00000000000E+00 -0.00000000000E+00 -0.86845241860E+03  0.86845241860E+03  0.00000000000E+00 0. -1.
         25    1    1    2    0    0 -0.15979662867E+03 -0.18543781024E+03 -0.81746846846E+03  0.86243947088E+03  0.12500000000E+03 0.  0.
         21    1    1    2  503  501  0.15979662867E+03  0.18543781024E+03  0.49716300164E+03  0.55415989949E+03  0.00000000000E+00 0.  1.
<mgrwt>
<rscale>  3 0.27485841E+03</rscale>
<asrwt>0</asrwt>
<pdfrwt beam="1">  1       21 0.84330301E-01 0.27485841E+03</pdfrwt>
<pdfrwt beam="2">  1       21 0.13360806E+00 0.27485841E+03</pdfrwt>
<totfact> 0.45482526E+02</totfact>
</mgrwt>
</event>
<event>
 4    0  0.1188680E-001  0.3099953E+03  0.7546771E-02  0.1080348E+00
         21   -1    0    0  503  501  0.00000000000E+00  0.00000000000E+00  0.74093458523E+03  0.74093458523E+03  0.00000000000E+00 0.  1.
         21   -1    0    0  501  502 -0.00000000000E+00 -0.00000000000E+00 -0.25409138828E+03  0.25409138828E+03  0.00000000000E+00 0.  1.
         25    1    1    2    0    0 -0.27485400208E+03  0.70194987187E+02 -0.11423245075E+03  0.33037268575E+03  0.12500000000E+03 0.  0.
         21    1    1    2  503  502  0.27485400208E+03 -0.70194987187E+02  0.60107564770E+03  0.66465328777E+03  0.00000000000E+00 0.  1.
<mgrwt>
<rscale>  3 0.30999526E+03</rscale>
<asrwt>0</asrwt>
<pdfrwt beam="1">  1       21 0.11398993E+00 0.30999526E+03</pdfrwt>
<pdfrwt beam="2">  1       21 0.39090983E-01 0.30999526E+03</pdfrwt>
<totfact> 0.34921292E+03</totfact>
</mgrwt>
</event>
<event>
 4    0  0.1283244E-001  0.2416754E+03  0.7546771E-02  0.1118682E+00
         21   -1    0    0  502  501  0.00000000000E+00  0.00000000000E+00  0.30436410818E+03  0.30436410818E+03  0.00000000000E+00 0. -1.
         21   -1    0    0  503  502 -0.00000000000E+00 -0.00000000000E+00 -0.17103595681E+03  0.17103595681E+03  0.00000000000E+00 0. -1.
         25    1    1    2    0    0 -0.54348668697E+01  0.20676672211E+03  0.11532070911E+03  0.26777953824E+03  0.12500000000E+03 0.  0.
         21    1    1    2  503  501  0.54348668697E+01 -0.20676672211E+03  0.18007442256E+02  0.20762052675E+03  0.00000000000E+00 0. -1.
<mgrwt>
<rscale>  3 0.24167543E+03</rscale>
<asrwt>0</asrwt>
<pdfrwt beam="1">  1       21 0.46825247E-01 0.24167543E+03</pdfrwt>
<pdfrwt beam="2">  1       21 0.26313224E-01 0.24167543E+03</pdfrwt>
<totfact> 0.58694449E+04</totfact>
</mgrwt>
</event>
<event>
 4    0  0.1127762E-001  0.2963342E+03  0.7546771E-02  0.1087088E+00
         21   -1    0    0  503  501  0.00000000000E+00  0.00000000000E+00  0.44173052831E+03  0.44173052831E+03  0.00000000000E+00 0. -1.
         21   -1    0    0  501  502 -0.00000000000E+00 -0.00000000000E+00 -0.20972469103E+03  0.20972469103E+03  0.00000000000E+00 0. -1.
         25    1    1    2    0    0  0.33654957395E+01 -0.26865891733E+03  0.24199359094E+03  0.38258964764E+03  0.12500000000E+03 0.  0.
         21    1    1    2  503  502 -0.33654957395E+01  0.26865891733E+03 -0.99877536678E+01  0.26886557170E+03  0.00000000000E+00 0. -1.
<mgrwt>
<rscale>  3 0.29633417E+03</rscale>
<asrwt>0</asrwt>
<pdfrwt beam="1">  1       21 0.67958542E-01 0.29633417E+03</pdfrwt>
<pdfrwt beam="2">  1       21 0.32265337E-01 0.29633417E+03</pdfrwt>
<totfact> 0.17327492E+04</totfact>
</mgrwt>
</event>
<event>
 4    0  0.1140793E-001  0.2378871E+03  0.7546771E-02  0.1121208E+00
         21   -1    0    0  502  501  0.00000000000E+00  0.00000000000E+00  0.13347004450E+04  0.13347004450E+04  0.00000000000E+00 0.  1.
         21   -1    0    0  503  502 -0.00000000000E+00 -0.00000000000E+00 -0.50812463847E+02  0.50812463847E+02  0.00000000000E+00 0.  1.
         25    1    1    2    0    0  0.16582464347E+03  0.11604935686E+03  0.30968039143E+03  0.39050251017E+03  0.12500000000E+03 0.  0.
         21    1    1    2  503  501 -0.16582464347E+03 -0.11604935686E+03  0.97420758972E+03  0.99501039868E+03  0.00000000000E+00 0.  1.
<mgrwt>
<rscale>  3 0.23788709E+03</rscale>
<asrwt>0</asrwt>
<pdfrwt beam="1">  1       21 0.20533850E+00 0.23788709E+03</pdfrwt>
<pdfrwt beam="2">  1       21 0.78173031E-02 0.23788709E+03</pdfrwt>
<totfact> 0.14994634E+04</totfact>
</mgrwt>
</event>
<event>
 4    0  0.1412691E-001  0.3597516E+03  0.7546771E-02  0.1058682E+00
         21   -1    0    0  503  501  0.00000000000E+00  0.00000000000E+00  0.47534213076E+03  0.47534213076E+03  0.00000000000E+00 0.  1.
         21   -1    0    0  501  502 -0.00000000000E+00 -0.00000000000E+00 -0.31080551476E+03  0.31080551476E+03  0.00000000000E+00 0.  1.
         25    1    1    2    0    0 -0.15780452669E+03 -0.29815090952E+03 -0.81192511383E+02  0.36880002358E+03  0.12500000000E+03 0.  0.
         21    1    1    2  503  502  0.15780452669E+03  0.29815090952E+03  0.24572912739E+03  0.41734762194E+03  0.00000000000E+00 0.  1.
<mgrwt>
<rscale>  3 0.35975163E+03</rscale>
<asrwt>0</asrwt>
<pdfrwt beam="1">  1       21 0.73129559E-01 0.35975163E+03</pdfrwt>
<pdfrwt beam="2">  1       21 0.47816233E-01 0.35975163E+03</pdfrwt>
<totfact> 0.64178843E+03</totfact>
</mgrwt>
</event>
<event>
 4    0  0.1699333E-001  0.2589832E+03  0.7546771E-02  0.1107756E+00
         21   -1    0    0  502  501  0.00000000000E+00  0.00000000000E+00  0.22451240677E+03  0.22451240677E+03  0.00000000000E+00 0. -1.
         21   -1    0    0  503  502 -0.00000000000E+00 -0.00000000000E+00 -0.28822955451E+03  0.28822955451E+03  0.00000000000E+00 0. -1.
         25    1    1    2    0    0 -0.22210243271E+03  0.46019683042E+02 -0.10978372398E+03  0.28129125100E+03  0.12500000000E+03 0.  0.
         21    1    1    2  503  501  0.22210243271E+03 -0.46019683042E+02  0.46066576231E+02  0.23145071028E+03  0.00000000000E+00 0. -1.
<mgrwt>
<rscale>  3 0.25898321E+03</rscale>
<asrwt>0</asrwt>
<pdfrwt beam="1">  1       21 0.34540371E-01 0.25898321E+03</pdfrwt>
<pdfrwt beam="2">  1       21 0.44343008E-01 0.25898321E+03</pdfrwt>
<totfact> 0.38256706E+04</totfact>
</mgrwt>
</event>
<event>
 4    0  0.1174625E-001  0.2746307E+03  0.7546771E-02  0.1098658E+00
         21   -1    0    0  503  501  0.00000000000E+00  0.00000000000E+00  0.16867133647E+04  0.16867133647E+04  0.00000000000E+00 0. -1.
         21   -1    0    0  501  502 -0.00000000000E+00 -0.00000000000E+00 -0.42166236081E+02  0.42166236081E+02  0.00000000000E+00 0. -1.
         25    1    1    2    0    0 -0.30594337358E+02  0.24261287524E+03  0.66954095457E+03  0.72367610887E+03  0.12500000000E+03 0.  0.
         21    1    1    2  503  502  0.30594337358E+02 -0.24261287524E+03  0.97500617406E+03  0.10052034919E+04  0.00000000000E+00 0. -1.
<mgrwt>
<rscale>  3 0.27463070E+03</rscale>
<asrwt>0</asrwt>
<pdfrwt beam="1">  1       21 0.25949431E+00 0.27463070E+03</pdfrwt>
<pdfrwt beam="2">  1       21 0.64871145E-02 0.27463070E+03</pdfrwt>
<totfact> 0.94241858E+03</totfact>
</mgrwt>
</event>
<event>
 4    0  0.1614271E-001  0.2667243E+03  0.7546771E-02  0.1103169E+00
         21   -1    0    0  502  501  0.00000000000E+00  0.00000000000E+00  0.10370976185E+03  0.10370976185E+03  0.00000000000E+00 0.  1.
         21   -1    0    0  503  502 -0.00000000000E+00 -0.00000000000E+00 -0.63692926047E+03  0.63692926047E+03  0.00000000000E+00 0.  1.
         25    1    1    2    0    0 -0.16234767886E+03  0.17076331306E+03 -0.36073263037E+03  0.44863114976E+03  0.12500000000E+03 0.  0.
         21    1    1    2  503  501  0.16234767886E+03 -0.17076331306E+03 -0.17248686824E+03  0.29200787256E+03  0.00000000000E+00 0.  1.
<mgrwt>
<rscale>  3 0.26672435E+03</rscale>
<asrwt>0</asrwt>
<pdfrwt beam="1">  1       21 0.15955348E-01 0.26672435E+03</pdfrwt>
<pdfrwt beam="2">  1       21 0.97989118E-01 0.26672435E+03</pdfrwt>
<totfact> 0.29078276E+04</totfact>
</mgrwt>
</event>
<event>
 4    0  0.1005289E-001  0.2799650E+03  0.7546771E-02  0.1095708E+00
         21   -1    0    0  503  501  0.00000000000E+00  0.00000000000E+00  0.58575436834E+02  0.58575436834E+02  0.00000000000E+00 0.  1.
         21   -1    0    0  501  502 -0.00000000000E+00 -0.00000000000E+00 -0.13080222415E+04  0.13080222415E+04  0.00000000000E+00 0. -1.
         25    1    1    2    0    0 -0.24675459396E+03 -0.43215432913E+02 -0.85171941948E+03  0.89655249305E+03  0.12500000000E+03 0.  0.
         21    1    1    2  503  502  0.24675459396E+03  0.43215432913E+02 -0.39772738523E+03  0.47004518532E+03  0.00000000000E+00 0.  1.
<mgrwt>
<rscale>  3 0.27996500E+03</rscale>
<asrwt>0</asrwt>
<pdfrwt beam="1">  1       21 0.90116071E-02 0.27996500E+03</pdfrwt>
<pdfrwt beam="2">  1       21 0.20123416E+00 0.27996500E+03</pdfrwt>
<totfact> 0.12092734E+04</totfact>
</mgrwt>
</event>
<event>
 4    0  0.1709229E-001  0.2801898E+03  0.7546771E-02  0.1095585E+00
         21   -1    0    0  503  501  0.00000000000E+00  0.00000000000E+00  0.16087721972E+03  0.16087721972E+03  0.00000000000E+00 0.  1.
         21   -1    0    0  501  502 -0.00000000000E+00 -0.00000000000E+00 -0.49914538312E+03  0.49914538312E+03  0.00000000000E+00 0.  1.
         25    1    1    2    0    0  0.20910412975E+03  0.13840809104E+03 -0.29263294408E+03  0.40514241533E+03  0.12500000000E+03 0.  0.
         21    1    1    2  503  502 -0.20910412975E+03 -0.13840809104E+03 -0.45635219320E+02  0.25488018751E+03  0.00000000000E+00 0.  1.
<mgrwt>
<rscale>  3 0.28018982E+03</rscale>
<asrwt>0</asrwt>
<pdfrwt beam="1">  1       21 0.24750342E-01 0.28018982E+03</pdfrwt>
<pdfrwt beam="2">  1       21 0.76791596E-01 0.28018982E+03</pdfrwt>
<totfact> 0.22272735E+04</totfact>
</mgrwt>
</event>
<event>
 4    0  0.1005289E-001  0.4684982E+03  0.7546771E-02  0.1022345E+00
         21   -1    0    0  502  501  0.00000000000E+00  0.00000000000E+00  0.12537379890E+04  0.12537379890E+04  0.00000000000E+00 0.  1.
         21   -1    0    0  503  502 -0.00000000000E+00 -0.00000000000E+00 -0.18086633651E+03  0.18086633651E+03  0.00000000000E+00 0. -1.
         25    1    1    2    0    0 -0.45079202788E+03 -0.25535784244E+02  0.36028032980E+03  0.59100968242E+03  0.12500000000E+03 0.  0.
         21    1    1    2  503  501  0.45079202788E+03  0.25535784244E+02  0.71259132272E+03  0.84359464311E+03  0.00000000000E+00 0.  1.
<mgrwt>
<rscale>  3 0.46849816E+03</rscale>
<asrwt>0</asrwt>
<pdfrwt beam="1">  1       21 0.19288276E+00 0.46849816E+03</pdfrwt>
<pdfrwt beam="2">  1       21 0.27825591E-01 0.46849816E+03</pdfrwt>
<totfact> 0.15404548E+03</totfact>
</mgrwt>
</event>
<event>
 4    0  0.1200509E-001  0.2489794E+03  0.7546771E-02  0.1113951E+00
         21   -1    0    0  503  501  0.00000000000E+00  0.00000000000E+00  0.35477271613E+03  0.35477271613E+03  0.00000000000E+00 0.  1.
         21   -1    0    0  501  502 -0.00000000000E+00 -0.00000000000E+00 -0.38577017948E+03  0.38577017948E+03  0.00000000000E+00 0.  1.
         25    1    1    2    0    0 -0.49960575684E+02 -0.20945094471E+03 -0.30393290547E+03  0.39289434762E+03  0.12500000000E+03 0.  0.
         21    1    1    2  503  502  0.49960575684E+02  0.20945094471E+03  0.27293544212E+03  0.34764854800E+03  0.00000000000E+00 0.  1.
<mgrwt>
<rscale>  3 0.24897943E+03</rscale>
<asrwt>0</asrwt>
<pdfrwt beam="1">  1       21 0.54580418E-01 0.24897943E+03</pdfrwt>
<pdfrwt beam="2">  1       21 0.59349258E-01 0.24897943E+03</pdfrwt>
<totfact> 0.81074905E+03</totfact>
</mgrwt>
</event>
<event>
 4    0  0.1381392E-001  0.2505488E+03  0.7546771E-02  0.1112958E+00
         21   -1    0    0  503  501  0.00000000000E+00  0.00000000000E+00  0.23474031198E+03  0.23474031198E+03  0.00000000000E+00 0. -1.
         21   -1    0    0  501  502 -0.00000000000E+00 -0.00000000000E+00 -0.37624250201E+03  0.37624250201E+03  0.00000000000E+00 0. -1.
         25    1    1    2    0    0 -0.21511632781E+03  0.29574812524E+02 -0.26210953544E+03  0.36259634940E+03  0.12500000000E+03 0.  0.
         21    1    1    2  503  502  0.21511632781E+03 -0.29574812524E+02  0.12060734542E+03  0.24838646460E+03  0.00000000000E+00 0. -1.
<mgrwt>
<rscale>  3 0.25054881E+03</rscale>
<asrwt>0</asrwt>
<pdfrwt beam="1">  1       21 0.36113895E-01 0.25054881E+03</pdfrwt>
<pdfrwt beam="2">  1       21 0.57883461E-01 0.25054881E+03</pdfrwt>
<totfact> 0.20048150E+04</totfact>
</mgrwt>
</event>
<event>
 4    0  0.1172234E-001  0.2432310E+03  0.7546771E-02  0.1117659E+00
         21   -1    0    0  502  501  0.00000000000E+00  0.00000000000E+00  0.46617040961E+03  0.46617040961E+03  0.00000000000E+00 0.  1.
         21   -1    0    0  503  502 -0.00000000000E+00 -0.00000000000E+00 -0.11783186745E+03  0.11783186745E+03  0.00000000000E+00 0.  1.
         25    1    1    2    0    0  0.14190485214E+03  0.15296834163E+03  0.26394817593E+03  0.35892887900E+03  0.12500000000E+03 0.  0.
         21    1    1    2  503  501 -0.14190485214E+03 -0.15296834163E+03  0.84390366224E+02  0.22507339806E+03  0.00000000000E+00 0.  1.
<mgrwt>
<rscale>  3 0.24323096E+03</rscale>
<asrwt>0</asrwt>
<pdfrwt beam="1">  1       21 0.71718524E-01 0.24323096E+03</pdfrwt>
<pdfrwt beam="2">  1       21 0.18127980E-01 0.24323096E+03</pdfrwt>
<totfact> 0.47537661E+04</totfact>
</mgrwt>
</event>
<event>
 4    0  0.1111918E-001  0.2444673E+03  0.7546771E-02  0.1116852E+00
         21   -1    0    0  503  501  0.00000000000E+00  0.00000000000E+00  0.13355404280E+03  0.13355404280E+03  0.00000000000E+00 0.  1.
         21   -1    0    0  501  502 -0.00000000000E+00 -0.00000000000E+00 -0.66559480084E+03  0.66559480084E+03  0.00000000000E+00 0. -1.
         25    1    1    2    0    0  0.12990732678E+03  0.16511614490E+03 -0.53589217673E+03  0.58902010147E+03  0.12500000000E+03 0.  0.
         21    1    1    2  503  502 -0.12990732678E+03 -0.16511614490E+03  0.38514186935E+01  0.21012874217E+03  0.00000000000E+00 0.  1.
<mgrwt>
<rscale>  3 0.24446729E+03</rscale>
<asrwt>0</asrwt>
<pdfrwt beam="1">  1       21 0.20546776E-01 0.24446729E+03</pdfrwt>
<pdfrwt beam="2">  1       21 0.10239920E+00 0.24446729E+03</pdfrwt>
<totfact> 0.16512763E+04</totfact>
</mgrwt>
</event>
<event>
 4    0  0.1265284E-001  0.2490833E+03  0.7546771E-02  0.1113886E+00
         21   -1    0    0  503  501  0.00000000000E+00  0.00000000000E+00  0.75687611983E+02  0.75687611983E+02  0.00000000000E+00 0.  1.
         21   -1    0    0  501  502 -0.00000000000E+00 -0.00000000000E+00 -0.88658607743E+03  0.88658607743E+03  0.00000000000E+00 0.  1.
         25    1    1    2    0    0  0.13252341877E+03  0.16986771806E+03 -0.64164367222E+03  0.68829434130E+03  0.12500000000E+03 0.  0.
         21    1    1    2  503  502 -0.13252341877E+03 -0.16986771806E+03 -0.16925479323E+03  0.27397934812E+03  0.00000000000E+00 0.  1.
<mgrwt>
<rscale>  3 0.24908332E+03</rscale>
<asrwt>0</asrwt>
<pdfrwt beam="1">  1       21 0.11644247E-01 0.24908332E+03</pdfrwt>
<pdfrwt beam="2">  1       21 0.13639787E+00 0.24908332E+03</pdfrwt>
<totfact> 0.22930270E+04</totfact>
</mgrwt>
</event>
<event>
 4    0  0.1510395E-001  0.2521036E+03  0.7546771E-02  0.1111983E+00
         21   -1    0    0  502  501  0.00000000000E+00  0.00000000000E+00  0.35251294917E+03  0.35251294917E+03  0.00000000000E+00 0. -1.
         21   -1    0    0  503  502 -0.00000000000E+00 -0.00000000000E+00 -0.18733971189E+03  0.18733971189E+03  0.00000000000E+00 0. -1.
         25    1    1    2    0    0  0.75405464380E+02  0.20553642339E+03 -0.20297810341E+02  0.25291936759E+03  0.12500000000E+03 0.  0.
         21    1    1    2  503  501 -0.75405464380E+02 -0.20553642339E+03  0.18547104762E+03  0.28693329347E+03  0.00000000000E+00 0. -1.
<mgrwt>
<rscale>  3 0.25210356E+03</rscale>
<asrwt>0</asrwt>
<pdfrwt beam="1">  1       21 0.54232761E-01 0.25210356E+03</pdfrwt>
<pdfrwt beam="2">  1       21 0.28821494E-01 0.25210356E+03</pdfrwt>
<totfact> 0.35975717E+04</totfact>
</mgrwt>
</event>
<event>
 4    0  0.1005289E-001  0.3416650E+03  0.7546771E-02  0.1066089E+00
         21   -1    0    0  502  501  0.00000000000E+00  0.00000000000E+00  0.16025457526E+04  0.16025457526E+04  0.00000000000E+00 0. -1.
         21   -1    0    0  503  502 -0.00000000000E+00 -0.00000000000E+00 -0.27810818591E+03  0.27810818591E+03  0.00000000000E+00 0. -1.
         25    1    1    2    0    0 -0.29683108440E+03 -0.11402324324E+03 -0.14940263773E+03  0.37290232076E+03  0.12500000000E+03 0.  0.
         21    1    1    2  503  501  0.29683108440E+03  0.11402324324E+03  0.14738402044E+04  0.15077516177E+04  0.00000000000E+00 0. -1.
<mgrwt>
<rscale>  3 0.34166503E+03</rscale>
<asrwt>0</asrwt>
<pdfrwt beam="1">  1       21 0.24654549E+00 0.34166503E+03</pdfrwt>
<pdfrwt beam="2">  1       21 0.42785876E-01 0.34166503E+03</pdfrwt>
<totfact> 0.31516008E+02</totfact>
</mgrwt>
</event>
<event>
 4    0  0.1005289E-001  0.3464832E+03  0.7546771E-02  0.1064068E+00
         21   -1    0    0  503  501  0.00000000000E+00  0.00000000000E+00  0.56213984200E+03  0.56213984200E+03  0.00000000000E+00 0. -1.
         21   -1    0    0  501  502 -0.00000000000E+00 -0.00000000000E+00 -0.12787247320E+04  0.12787247320E+04  0.00000000000E+00 0. -1.
         25    1    1    2    0    0 -0.20133052631E+03 -0.25276795784E+03 -0.12057795771E+04  0.12545736367E+04  0.12500000000E+03 0.  0.
         21    1    1    2  503  502  0.20133052631E+03  0.25276795784E+03  0.48919468707E+03  0.58629093733E+03  0.00000000000E+00 0. -1.
<mgrwt>
<rscale>  3 0.34648322E+03</rscale>
<asrwt>0</asrwt>
<pdfrwt beam="1">  1       21 0.86483054E-01 0.34648322E+03</pdfrwt>
<pdfrwt beam="2">  1       21 0.19672688E+00 0.34648322E+03</pdfrwt>
<totfact> 0.13903420E+02</totfact>
</mgrwt>
</event>
<event>
 4    0  0.1450338E-001  0.2842449E+03  0.7546771E-02  0.1093393E+00
         21   -1    0    0  503  501  0.00000000000E+00  0.00000000000E+00  0.90087014094E+03  0.90087014094E+03  0.00000000000E+00 0.  1.
         21   -1    0    0  501  502 -0.00000000000E+00 -0.00000000000E+00 -0.94772903229E+02  0.94772903229E+02  0.00000000000E+00 0.  1.
         25    1    1    2    0    0  0.23434385972E+03 -0.10125777641E+03  0.23044248808E+03  0.36592201654E+03  0.12500000000E+03 0.  0.
         21    1    1    2  503  502 -0.23434385972E+03  0.10125777641E+03  0.57565474962E+03  0.62972102763E+03  0.00000000000E+00 0.  1.
<mgrwt>
<rscale>  3 0.28424493E+03</rscale>
<asrwt>0</asrwt>
<pdfrwt beam="1">  1       21 0.13859540E+00 0.28424493E+03</pdfrwt>
<pdfrwt beam="2">  1       21 0.14580447E-01 0.28424493E+03</pdfrwt>
<totfact> 0.14372531E+04</totfact>
</mgrwt>
</event>
<event>
 4    0  0.1630167E-001  0.2471496E+03  0.7546771E-02  0.1115120E+00
         21   -1    0    0  503  501  0.00000000000E+00  0.00000000000E+00  0.70433307953E+03  0.70433307953E+03  0.00000000000E+00 0.  1.
         21   -1    0    0  501  502 -0.00000000000E+00 -0.00000000000E+00 -0.24890096123E+03  0.24890096123E+03  0.00000000000E+00 0. -1.
         25    1    1    2    0    0  0.11682028092E+03  0.17835622956E+03 -0.16501558571E+03  0.29717514396E+03  0.12500000000E+03 0.  0.
         21    1    1    2  503  502 -0.11682028092E+03 -0.17835622956E+03  0.62044770402E+03  0.65605889680E+03  0.00000000000E+00 0.  1.
<mgrwt>
<rscale>  3 0.24714960E+03</rscale>
<asrwt>0</asrwt>
<pdfrwt beam="1">  1       21 0.10835893E+00 0.24714960E+03</pdfrwt>
<pdfrwt beam="2">  1       21 0.38292456E-01 0.24714960E+03</pdfrwt>
<totfact> 0.42779802E+03</totfact>
</mgrwt>
</event>
<event>
 4    0  0.1005289E-001  0.2598173E+03  0.7546771E-02  0.1107253E+00
         21   -1    0    0  503  501  0.00000000000E+00  0.00000000000E+00  0.15288217644E+04  0.15288217644E+04  0.00000000000E+00 0.  1.
         21   -1    0    0  501  502 -0.00000000000E+00 -0.00000000000E+00 -0.39438572835E+03  0.39438572835E+03  0.00000000000E+00 0.  1.
         25    1    1    2    0    0 -0.56381974691E+02 -0.22068323121E+03 -0.34189177222E+03  0.42941238864E+03  0.12500000000E+03 0.  0.
         21    1    1    2  503  502  0.56381974691E+02  0.22068323121E+03  0.14763278083E+04  0.14937951041E+04  0.00000000000E+00 0.  1.
<mgrwt>
<rscale>  3 0.25981727E+03</rscale>
<asrwt>0</asrwt>
<pdfrwt beam="1">  1       21 0.23520335E+00 0.25981727E+03</pdfrwt>
<pdfrwt beam="2">  1       21 0.60674728E-01 0.25981727E+03</pdfrwt>
<totfact> 0.18967854E+02</totfact>
</mgrwt>
</event>
<event>
 4    0  0.1482821E-001  0.3101855E+03  0.7546771E-02  0.1080257E+00
         21   -1    0    0  502  501  0.00000000000E+00  0.00000000000E+00  0.46501445356E+03  0.46501445356E+03  0.00000000000E+00 0. -1.
         21   -1    0    0  503  502 -0.00000000000E+00 -0.00000000000E+00 -0.23327009895E+03  0.23327009895E+03  0.00000000000E+00 0. -1.
         25    1    1    2    0    0  0.25194884293E+03 -0.13081214420E+03 -0.30666305838E+02  0.31169770425E+03  0.12500000000E+03 0.  0.
         21    1    1    2  503  501 -0.25194884293E+03  0.13081214420E+03  0.26241066045E+03  0.38658684825E+03  0.00000000000E+00 0. -1.
<mgrwt>
<rscale>  3 0.31018549E+03</rscale>
<asrwt>0</asrwt>
<pdfrwt beam="1">  1       21 0.71540685E-01 0.31018549E+03</pdfrwt>
<pdfrwt beam="2">  1       21 0.35887708E-01 0.31018549E+03</pdfrwt>
<totfact> 0.12419237E+04</totfact>
</mgrwt>
</event>
<event>
 4    0  0.1375843E-001  0.2858590E+03  0.7546771E-02  0.1092531E+00
         21   -1    0    0  503  501  0.00000000000E+00  0.00000000000E+00  0.60652083601E+03  0.60652083601E+03  0.00000000000E+00 0. -1.
         21   -1    0    0  501  502 -0.00000000000E+00 -0.00000000000E+00 -0.23872537596E+03  0.23872537596E+03  0.00000000000E+00 0. -1.
         25    1    1    2    0    0 -0.21964410105E+03  0.13359212667E+03 -0.10707384986E+03  0.30525431488E+03  0.12500000000E+03 0.  0.
         21    1    1    2  503  502  0.21964410105E+03 -0.13359212667E+03  0.47486930991E+03  0.53999189709E+03  0.00000000000E+00 0. -1.
<mgrwt>
<rscale>  3 0.28585903E+03</rscale>
<asrwt>0</asrwt>
<pdfrwt beam="1">  1       21 0.93310898E-01 0.28585903E+03</pdfrwt>
<pdfrwt beam="2">  1       21 0.36726981E-01 0.28585903E+03</pdfrwt>
<totfact> 0.65118188E+03</totfact>
</mgrwt>
</event>
<event>
 4    0  0.1169743E-001  0.2843173E+03  0.7546771E-02  0.1093354E+00
         21   -1    0    0  503  501  0.00000000000E+00  0.00000000000E+00  0.55987247431E+02  0.55987247431E+02  0.00000000000E+00 0. -1.
         21   -1    0    0  501  502 -0.00000000000E+00 -0.00000000000E+00 -0.13133943624E+04  0.13133943624E+04  0.00000000000E+00 0. -1.
         25    1    1    2    0    0  0.22748697523E+03  0.11602146794E+03 -0.59448967180E+03  0.65897972260E+03  0.12500000000E+03 0.  0.
         21    1    1    2  503  502 -0.22748697523E+03 -0.11602146794E+03 -0.66291744318E+03  0.71040188724E+03  0.00000000000E+00 0. -1.
<mgrwt>
<rscale>  3 0.28431726E+03</rscale>
<asrwt>0</asrwt>
<pdfrwt beam="1">  1       21 0.86134239E-02 0.28431726E+03</pdfrwt>
<pdfrwt beam="2">  1       21 0.20206064E+00 0.28431726E+03</pdfrwt>
<totfact> 0.12904580E+04</totfact>
</mgrwt>
</event>
<event>
 4    0  0.1016740E-001  0.3259561E+03  0.7546771E-02  0.1072940E+00
         21   -1    0    0  502  501  0.00000000000E+00  0.00000000000E+00  0.13064336504E+03  0.13064336504E+03  0.00000000000E+00 0. -1.
         21   -1    0    0  503  502 -0.00000000000E+00 -0.00000000000E+00 -0.22118532589E+04  0.22118532589E+04  0.00000000000E+00 0.  1.
         25    1    1    2    0    0 -0.78864364107E+02  0.29052157510E+03 -0.20058634519E+04  0.20321750813E+04  0.12500000000E+03 0.  0.
         21    1    1    2  503  501  0.78864364107E+02 -0.29052157510E+03 -0.75346442024E+02  0.31032154267E+03  0.00000000000E+00 0. -1.
<mgrwt>
<rscale>  3 0.32595609E+03</rscale>
<asrwt>0</asrwt>
<pdfrwt beam="1">  1       21 0.20098981E-01 0.32595609E+03</pdfrwt>
<pdfrwt beam="2">  1       21 0.34028509E+00 0.32595609E+03</pdfrwt>
<totfact> 0.39069804E+02</totfact>
</mgrwt>
</event>
<event>
 4    0  0.1167287E-001  0.3709694E+03  0.7546771E-02  0.1054323E+00
         21   -1    0    0  503  501  0.00000000000E+00  0.00000000000E+00  0.87048845733E+03  0.87048845733E+03  0.00000000000E+00 0. -1.
         21   -1    0    0  501  502 -0.00000000000E+00 -0.00000000000E+00 -0.24163522616E+03  0.24163522616E+03  0.00000000000E+00 0. -1.
         25    1    1    2    0    0  0.15809139646E+03 -0.31144888223E+03 -0.23964355894E+02  0.37174263440E+03  0.12500000000E+03 0.  0.
         21    1    1    2  503  502 -0.15809139646E+03  0.31144888223E+03  0.65281758707E+03  0.74038104910E+03  0.00000000000E+00 0. -1.
<mgrwt>
<rscale>  3 0.37096940E+03</rscale>
<asrwt>0</asrwt>
<pdfrwt beam="1">  1       21 0.13392130E+00 0.37096940E+03</pdfrwt>
<pdfrwt beam="2">  1       21 0.37174651E-01 0.37096940E+03</pdfrwt>
<totfact> 0.24930257E+03</totfact>
</mgrwt>
</event>
<event>
 4    0  0.1463714E-001  0.2597377E+03  0.7546771E-02  0.1107301E+00
         21   -1    0    0  502  501  0.00000000000E+00  0.00000000000E+00  0.13972387268E+03  0.13972387268E+03  0.00000000000E+00 0. -1.
         21   -1    0    0  503  502 -0.00000000000E+00 -0.00000000000E+00 -0.42953491507E+03  0.42953491507E+03  0.00000000000E+00 0. -1.
         25    1    1    2    0    0  0.13798005586E+03 -0.18110818650E+03 -0.12542246091E+03  0.28843450683E+03  0.12500000000E+03 0.  0.
         21    1    1    2  503  501 -0.13798005586E+03  0.18110818650E+03 -0.16438858148E+03  0.28082428092E+03  0.00000000000E+00 0. -1.
<mgrwt>
<rscale>  3 0.25973770E+03</rscale>
<asrwt>0</asrwt>
<pdfrwt beam="1">  1       21 0.21495981E-01 0.25973770E+03</pdfrwt>
<pdfrwt beam="2">  1       21 0.66082294E-01 0.25973770E+03</pdfrwt>
<totfact> 0.41103326E+04</totfact>
</mgrwt>
</event>
<event>
 4    0  0.1005289E-001  0.2724648E+03  0.7546771E-02  0.1099877E+00
         21   -1    0    0  503  501  0.00000000000E+00  0.00000000000E+00  0.16475688800E+03  0.16475688800E+03  0.00000000000E+00 0.  1.
         21   -1    0    0  501  502 -0.00000000000E+00 -0.00000000000E+00 -0.10823097121E+04  0.10823097121E+04  0.00000000000E+00 0.  1.
         25    1    1    2    0    0  0.22712108782E+02  0.24103161458E+03 -0.96294400809E+03  0.10007488405E+04  0.12500000000E+03 0.  0.
         21    1    1    2  503  502 -0.22712108782E+02 -0.24103161458E+03  0.45391183965E+02  0.24631775960E+03  0.00000000000E+00 0.  1.
<mgrwt>
<rscale>  3 0.27246482E+03</rscale>
<asrwt>0</asrwt>
<pdfrwt beam="1">  1       21 0.25347214E-01 0.27246482E+03</pdfrwt>
<pdfrwt beam="2">  1       21 0.16650919E+00 0.27246482E+03</pdfrwt>
<totfact> 0.31287588E+03</totfact>
</mgrwt>
</event>
<event>
 4    0  0.1268501E-001  0.3333364E+03  0.7546771E-02  0.1069670E+00
         21   -1    0    0  503  501  0.00000000000E+00  0.00000000000E+00  0.72056633404E+03  0.72056633404E+03  0.00000000000E+00 0. -1.
         21   -1    0    0  501  502 -0.00000000000E+00 -0.00000000000E+00 -0.18554317655E+03  0.18554317655E+03  0.00000000000E+00 0. -1.
         25    1    1    2    0    0  0.99910108880E+02  0.29241427872E+03  0.58901342167E+02  0.33850038163E+03  0.12500000000E+03 0.  0.
         21    1    1    2  503  502 -0.99910108880E+02 -0.29241427872E+03  0.47612181532E+03  0.56760912896E+03  0.00000000000E+00 0. -1.
<mgrwt>
<rscale>  3 0.33333638E+03</rscale>
<asrwt>0</asrwt>
<pdfrwt beam="1">  1       21 0.11085636E+00 0.33333638E+03</pdfrwt>
<pdfrwt beam="2">  1       21 0.28545104E-01 0.33333638E+03</pdfrwt>
<totfact> 0.69318637E+03</totfact>
</mgrwt>
</event>
<event>
 4    0  0.1005289E-001  0.3088881E+03  0.7546771E-02  0.1080880E+00
         21   -1    0    0  502  501  0.00000000000E+00  0.00000000000E+00  0.19459564548E+04  0.19459564548E+04  0.00000000000E+00 0. -1.
         21   -1    0    0  503  502 -0.00000000000E+00 -0.00000000000E+00 -0.50971513600E+02  0.50971513600E+02  0.00000000000E+00 0.  1.
         25    1    1    2    0    0  0.26096447527E+03  0.10809438283E+03  0.64125794156E+03  0.71177496484E+03  0.12500000000E+03 0.  0.
         21    1    1    2  503  501 -0.26096447527E+03 -0.10809438283E+03  0.12537269996E+04  0.12851530035E+04  0.00000000000E+00 0. -1.
<mgrwt>
<rscale>  3 0.30888809E+03</rscale>
<asrwt>0</asrwt>
<pdfrwt beam="1">  1       21 0.29937786E+00 0.30888809E+03</pdfrwt>
<pdfrwt beam="2">  1       21 0.78417728E-02 0.30888809E+03</pdfrwt>
<totfact> 0.38400464E+03</totfact>
</mgrwt>
</event>
<event>
 4    0  0.1493465E-001  0.2562273E+03  0.7546771E-02  0.1109431E+00
         21   -1    0    0  502  501  0.00000000000E+00  0.00000000000E+00  0.24619597053E+03  0.24619597053E+03  0.00000000000E+00 0.  1.
         21   -1    0    0  503  502 -0.00000000000E+00 -0.00000000000E+00 -0.33658614144E+03  0.33658614144E+03  0.00000000000E+00 0.  1.
         25    1    1    2    0    0 -0.92025773281E+02  0.20385945430E+03 -0.20804825536E+03  0.33005529327E+03  0.12500000000E+03 0.  0.
         21    1    1    2  503  501  0.92025773281E+02 -0.20385945430E+03  0.11765808445E+03  0.25272681870E+03  0.00000000000E+00 0.  1.
<mgrwt>
<rscale>  3 0.25622728E+03</rscale>
<asrwt>0</asrwt>
<pdfrwt beam="1">  1       21 0.37876303E-01 0.25622728E+03</pdfrwt>
<pdfrwt beam="2">  1       21 0.51782483E-01 0.25622728E+03</pdfrwt>
<totfact> 0.23028674E+04</totfact>
</mgrwt>
</event>
<event>
 4    0  0.1005289E-001  0.2995389E+03  0.7546771E-02  0.1085471E+00
         21   -1    0    0  503  501  0.00000000000E+00  0.00000000000E+00  0.29747643856E+02  0.29747643856E+02  0.00000000000E+00 0. -1.
         21   -1    0    0  501  502 -0.00000000000E+00 -0.00000000000E+00 -0.27521860223E+04  0.27521860223E+04  0.00000000000E+00 0. -1.
         25    1    1    2    0    0 -0.26462027666E+03  0.63832956599E+02 -0.13673487219E+04  0.13997735761E+04  0.12500000000E+03 0.  0.
         21    1    1    2  503  502  0.26462027666E+03 -0.63832956599E+02 -0.13550896565E+04  0.13821600900E+04  0.00000000000E+00 0. -1.
<mgrwt>
<rscale>  3 0.29953887E+03</rscale>
<asrwt>0</asrwt>
<pdfrwt beam="1">  1       21 0.45765630E-02 0.29953887E+03</pdfrwt>
<pdfrwt beam="2">  1       21 0.42341301E+00 0.29953887E+03</pdfrwt>
<totfact> 0.17066284E+03</totfact>
</mgrwt>
</event>
<event>
 4    0  0.1005289E-001  0.3873592E+03  0.7546771E-02  0.1048247E+00
         21   -1    0    0  503  501  0.00000000000E+00  0.00000000000E+00  0.17919174932E+03  0.17919174932E+03  0.00000000000E+00 0. -1.
         21   -1    0    0  501  502 -0.00000000000E+00 -0.00000000000E+00 -0.18340195364E+04  0.18340195364E+04  0.00000000000E+00 0. -1.
         25    1    1    2    0    0  0.35170284967E+03 -0.10357239828E+03 -0.15954472641E+04  0.16417975237E+04  0.12500000000E+03 0.  0.
         21    1    1    2  503  502 -0.35170284967E+03  0.10357239828E+03 -0.59380522985E+02  0.37141376208E+03  0.00000000000E+00 0. -1.
<mgrwt>
<rscale>  3 0.38735918E+03</rscale>
<asrwt>0</asrwt>
<pdfrwt beam="1">  1       21 0.27567963E-01 0.38735918E+03</pdfrwt>
<pdfrwt beam="2">  1       21 0.28215683E+00 0.38735918E+03</pdfrwt>
<totfact> 0.45116027E+02</totfact>
</mgrwt>
</event>
<event>
 4    0  0.1005289E-001  0.3930974E+03  0.7546771E-02  0.1046196E+00
         21   -1    0    0  502  501  0.00000000000E+00  0.00000000000E+00  0.62750662358E+03  0.62750662358E+03  0.00000000000E+00 0.  1.
         21   -1    0    0  503  502 -0.00000000000E+00 -0.00000000000E+00 -0.13324317102E+04  0.13324317102E+04  0.00000000000E+00 0.  1.
         25    1    1    2    0    0 -0.10210898669E+03 -0.35843314968E+03 -0.12439680442E+04  0.13046003461E+04  0.12500000000E+03 0.  0.
         21    1    1    2  503  501  0.10210898669E+03  0.35843314968E+03  0.53904295761E+03  0.65533798768E+03  0.00000000000E+00 0.  1.
<mgrwt>
<rscale>  3 0.39309740E+03</rscale>
<asrwt>0</asrwt>
<pdfrwt beam="1">  1       21 0.96539482E-01 0.39309740E+03</pdfrwt>
<pdfrwt beam="2">  1       21 0.20498949E+00 0.39309740E+03</pdfrwt>
<totfact> 0.91471478E+01</totfact>
</mgrwt>
</event>
<event>
 4    0  0.1005289E-001  0.2526123E+03  0.7546771E-02  0.1111665E+00
         21   -1    0    0  502  501  0.00000000000E+00  0.00000000000E+00  0.29520023293E+03  0.29520023293E+03  0.00000000000E+00 0.  1.
         21   -1    0    0  503  502 -0.00000000000E+00 -0.00000000000E+00 -0.14226077736E+04  0.14226077736E+04  0.00000000000E+00 0.  1.
         25    1    1    2    0    0 -0.87046257390E+01  0.21934489087E+03 -0.13685759346E+04  0.13916943057E+04  0.12500000000E+03 0.  0.
         21    1    1    2  503  501  0.87046257390E+01 -0.21934489087E+03  0.24116839393E+03  0.32611370086E+03  0.00000000000E+00 0.  1.
<mgrwt>
<rscale>  3 0.25261226E+03</rscale>
<asrwt>0</asrwt>
<pdfrwt beam="1">  1       21 0.45415421E-01 0.25261226E+03</pdfrwt>
<pdfrwt beam="2">  1       21 0.21886273E+00 0.25261226E+03</pdfrwt>
<totfact> 0.44463475E+02</totfact>
</mgrwt>
</event>
<event>
 4    0  0.1385370E-001  0.4581093E+03  0.7546771E-02  0.1025331E+00
         21   -1    0    0  502  501  0.00000000000E+00  0.00000000000E+00  0.20025221724E+03  0.20025221724E+03  0.00000000000E+00 0. -1.
         21   -1    0    0  503  502 -0.00000000000E+00 -0.00000000000E+00 -0.10288340624E+04  0.10288340624E+04  0.00000000000E+00 0. -1.
         25    1    1    2    0    0 -0.42860271990E+03 -0.10265901311E+03 -0.33599713862E+03  0.56811815816E+03  0.12500000000E+03 0.  0.
         21    1    1    2  503  501  0.42860271990E+03  0.10265901311E+03 -0.49258470650E+03  0.66096812143E+03  0.00000000000E+00 0. -1.
<mgrwt>
<rscale>  3 0.45810934E+03</rscale>
<asrwt>0</asrwt>
<pdfrwt beam="1">  1       21 0.30808033E-01 0.45810934E+03</pdfrwt>
<pdfrwt beam="2">  1       21 0.15828217E+00 0.45810934E+03</pdfrwt>
<totfact> 0.22383799E+03</totfact>
</mgrwt>
</event>
<event>
 4    0  0.1207275E-001  0.2989224E+03  0.7546771E-02  0.1085781E+00
         21   -1    0    0  503  501  0.00000000000E+00  0.00000000000E+00  0.31208598803E+03  0.31208598803E+03  0.00000000000E+00 0. -1.
         21   -1    0    0  501  502 -0.00000000000E+00 -0.00000000000E+00 -0.76193901866E+03  0.76193901866E+03  0.00000000000E+00 0. -1.
         25    1    1    2    0    0  0.26815384836E+03  0.42698049235E+02 -0.66401708979E+03  0.72819867161E+03  0.12500000000E+03 0.  0.
         21    1    1    2  503  502 -0.26815384836E+03 -0.42698049235E+02  0.21416405916E+03  0.34582633508E+03  0.00000000000E+00 0. -1.
<mgrwt>
<rscale>  3 0.29892241E+03</rscale>
<asrwt>0</asrwt>
<pdfrwt beam="1">  1       21 0.48013229E-01 0.29892241E+03</pdfrwt>
<pdfrwt beam="2">  1       21 0.11722139E+00 0.29892241E+03</pdfrwt>
<totfact> 0.21443646E+03</totfact>
</mgrwt>
</event>
<event>
 4    0  0.1005289E-001  0.3157175E+03  0.7546771E-02  0.1077637E+00
         21   -1    0    0  502  501  0.00000000000E+00  0.00000000000E+00  0.83044349633E+02  0.83044349633E+02  0.00000000000E+00 0. -1.
         21   -1    0    0  503  502 -0.00000000000E+00 -0.00000000000E+00 -0.23394273783E+04  0.23394273783E+04  0.00000000000E+00 0. -1.
         25    1    1    2    0    0  0.19642301295E+03 -0.21323819419E+03 -0.20306253204E+04  0.20550223160E+04  0.12500000000E+03 0.  0.
         21    1    1    2  503  501 -0.19642301295E+03  0.21323819419E+03 -0.22575770828E+03  0.36744941193E+03  0.00000000000E+00 0. -1.
<mgrwt>
<rscale>  3 0.31571748E+03</rscale>
<asrwt>0</asrwt>
<pdfrwt beam="1">  1       21 0.12776054E-01 0.31571748E+03</pdfrwt>
<pdfrwt beam="2">  1       21 0.35991189E+00 0.31571748E+03</pdfrwt>
<totfact> 0.69454536E+02</totfact>
</mgrwt>
</event>
<event>
 4    0  0.1005289E-001  0.6766939E+03  0.7546771E-02  0.9757940E-01
         21   -1    0    0  502  501  0.00000000000E+00  0.00000000000E+00  0.17075837861E+04  0.17075837861E+04  0.00000000000E+00 0. -1.
         21   -1    0    0  503  502 -0.00000000000E+00 -0.00000000000E+00 -0.19791637286E+04  0.19791637286E+04  0.00000000000E+00 0. -1.
         25    1    1    2    0    0 -0.40175254610E+03 -0.52998544774E+03 -0.18521850827E+04  0.19719290717E+04  0.12500000000E+03 0.  0.
         21    1    1    2  503  501  0.40175254610E+03  0.52998544774E+03  0.15806051402E+04  0.17148184430E+04  0.00000000000E+00 0. -1.
<mgrwt>
<rscale>  3 0.67669394E+03</rscale>
<asrwt>0</asrwt>
<pdfrwt beam="1">  1       21 0.26270520E+00 0.67669394E+03</pdfrwt>
<pdfrwt beam="2">  1       21 0.30448673E+00 0.67669394E+03</pdfrwt>
<totfact> 0.10298031E+00</totfact>
</mgrwt>
</event>
<event>
 4    0  0.1202773E-001  0.2957819E+03  0.7546771E-02  0.1087368E+00
         21   -1    0    0  503  501  0.00000000000E+00  0.00000000000E+00  0.31716248516E+03  0.31716248516E+03  0.00000000000E+00 0.  1.
         21   -1    0    0  501  502 -0.00000000000E+00 -0.00000000000E+00 -0.35579851979E+03  0.35579851979E+03  0.00000000000E+00 0. -1.
         25    1    1    2    0    0 -0.43941281093E+02  0.26444493499E+03 -0.20278948073E+03  0.35862310762E+03  0.12500000000E+03 0.  0.
         21    1    1    2  503  502  0.43941281093E+02 -0.26444493499E+03  0.16415344611E+03  0.31433789732E+03  0.00000000000E+00 0.  1.
<mgrwt>
<rscale>  3 0.29578195E+03</rscale>
<asrwt>0</asrwt>
<pdfrwt beam="1">  1       21 0.48794229E-01 0.29578195E+03</pdfrwt>
<pdfrwt beam="2">  1       21 0.54738234E-01 0.29578195E+03</pdfrwt>
<totfact> 0.11936887E+04</totfact>
</mgrwt>
</event>
<event>
 4    0  0.1385939E-001  0.2580697E+03  0.7546771E-02  0.1108309E+00
         21   -1    0    0  503  501  0.00000000000E+00  0.00000000000E+00  0.40692970716E+03  0.40692970716E+03  0.00000000000E+00 0. -1.
         21   -1    0    0  501  502 -0.00000000000E+00 -0.00000000000E+00 -0.14468854071E+03  0.14468854071E+03  0.00000000000E+00 0. -1.
         25    1    1    2    0    0 -0.84621449269E+02 -0.20931833357E+03  0.16107778661E+03  0.30421375344E+03  0.12500000000E+03 0.  0.
         21    1    1    2  503  502  0.84621449269E+02  0.20931833357E+03  0.10116337984E+03  0.24740449443E+03  0.00000000000E+00 0. -1.
<mgrwt>
<rscale>  3 0.25806967E+03</rscale>
<asrwt>0</asrwt>
<pdfrwt beam="1">  1       21 0.62604570E-01 0.25806967E+03</pdfrwt>
<pdfrwt beam="2">  1       21 0.22259776E-01 0.25806967E+03</pdfrwt>
<totfact> 0.43330927E+04</totfact>
</mgrwt>
</event>
<event>
 4    0  0.1005289E-001  0.2744417E+03  0.7546771E-02  0.1098764E+00
         21   -1    0    0  503  501  0.00000000000E+00  0.00000000000E+00  0.10867907581E+03  0.10867907581E+03  0.00000000000E+00 0. -1.
         21   -1    0    0  501  502 -0.00000000000E+00 -0.00000000000E+00 -0.74546966776E+03  0.74546966776E+03  0.00000000000E+00 0.  1.
         25    1    1    2    0    0 -0.20605172415E+02 -0.24345161094E+03 -0.50936456908E+03  0.57859357431E+03  0.12500000000E+03 0.  0.
         21    1    1    2  503  502  0.20605172415E+02  0.24345161094E+03 -0.12742602287E+03  0.27555516925E+03  0.00000000000E+00 0. -1.
<mgrwt>
<rscale>  3 0.27444172E+03</rscale>
<asrwt>0</asrwt>
<pdfrwt beam="1">  1       21 0.16719857E-01 0.27444172E+03</pdfrwt>
<pdfrwt beam="2">  1       21 0.11468765E+00 0.27444172E+03</pdfrwt>
<totfact> 0.18137864E+04</totfact>
</mgrwt>
</event>
<event>
 4    0  0.1447682E-001  0.2572323E+03  0.7546771E-02  0.1108818E+00
         21   -1    0    0  503  501  0.00000000000E+00  0.00000000000E+00  0.46987337374E+03  0.46987337374E+03  0.00000000000E+00 0.  1.
         21   -1    0    0  501  502 -0.00000000000E+00 -0.00000000000E+00 -0.15808847346E+03  0.15808847346E+03  0.00000000000E+00 0.  1.
         25    1    1    2    0    0 -0.17041987373E+03 -0.14663059530E+03  0.17773768879E+02  0.25784563542E+03  0.12500000000E+03 0.  0.
         21    1    1    2  503  502  0.17041987373E+03  0.14663059530E+03  0.29401113139E+03  0.37011621179E+03  0.00000000000E+00 0.  1.
<mgrwt>
<rscale>  3 0.25723232E+03</rscale>
<asrwt>0</asrwt>
<pdfrwt beam="1">  1       21 0.72288211E-01 0.25723232E+03</pdfrwt>
<pdfrwt beam="2">  1       21 0.24321304E-01 0.25723232E+03</pdfrwt>
<totfact> 0.26652918E+04</totfact>
</mgrwt>
</event>
<event>
 4    0  0.1143602E-001  0.2952958E+03  0.7546771E-02  0.1087616E+00
         21   -1    0    0  502  501  0.00000000000E+00  0.00000000000E+00  0.53442560418E+02  0.53442560418E+02  0.00000000000E+00 0.  1.
         21   -1    0    0  503  502 -0.00000000000E+00 -0.00000000000E+00 -0.14893017064E+04  0.14893017064E+04  0.00000000000E+00 0.  1.
         25    1    1    2    0    0  0.26747704311E+03 -0.55330239415E+01 -0.69870481146E+03  0.75854333858E+03  0.12500000000E+03 0.  0.
         21    1    1    2  503  501 -0.26747704311E+03  0.55330239415E+01 -0.73715433450E+03  0.78420092822E+03  0.00000000000E+00 0.  1.
<mgrwt>
<rscale>  3 0.29529576E+03</rscale>
<asrwt>0</asrwt>
<pdfrwt beam="1">  1       21 0.82219339E-02 0.29529576E+03</pdfrwt>
<pdfrwt beam="2">  1       21 0.22912330E+00 0.29529576E+03</pdfrwt>
<totfact> 0.93850667E+03</totfact>
</mgrwt>
</event>
<event>
 4    0  0.1076226E-001  0.2567932E+03  0.7546771E-02  0.1109085E+00
         21   -1    0    0  502  501  0.00000000000E+00  0.00000000000E+00  0.92306480387E+03  0.92306480387E+03  0.00000000000E+00 0. -1.
         21   -1    0    0  503  502 -0.00000000000E+00 -0.00000000000E+00 -0.11943319411E+03  0.11943319411E+03  0.00000000000E+00 0.  1.
         25    1    1    2    0    0  0.80482863199E+02  0.20938064041E+03  0.57196393198E+02  0.26308586287E+03  0.12500000000E+03 0.  0.
         21    1    1    2  503  501 -0.80482863199E+02 -0.20938064041E+03  0.74643521656E+03  0.77941213511E+03  0.00000000000E+00 0. -1.
<mgrwt>
<rscale>  3 0.25679319E+03</rscale>
<asrwt>0</asrwt>
<pdfrwt beam="1">  1       21 0.14200997E+00 0.25679319E+03</pdfrwt>
<pdfrwt beam="2">  1       21 0.18374338E-01 0.25679319E+03</pdfrwt>
<totfact> 0.89249357E+03</totfact>
</mgrwt>
</event>
<event>
 4    0  0.1351171E-001  0.2405213E+03  0.7546771E-02  0.1119446E+00
         21   -1    0    0  502  501  0.00000000000E+00  0.00000000000E+00  0.49441105627E+03  0.49441105627E+03  0.00000000000E+00 0. -1.
         21   -1    0    0  503  502 -0.00000000000E+00 -0.00000000000E+00 -0.11526848858E+03  0.11526848858E+03  0.00000000000E+00 0. -1.
         25    1    1    2    0    0  0.73179095493E+02 -0.19201638594E+03  0.94063834742E+02  0.25826048380E+03  0.12500000000E+03 0.  0.
         21    1    1    2  503  501 -0.73179095493E+02  0.19201638594E+03  0.28507873295E+03  0.35141906104E+03  0.00000000000E+00 0. -1.
<mgrwt>
<rscale>  3 0.24052125E+03</rscale>
<asrwt>0</asrwt>
<pdfrwt beam="1">  1       21 0.76063238E-01 0.24052125E+03</pdfrwt>
<pdfrwt beam="2">  1       21 0.17733614E-01 0.24052125E+03</pdfrwt>
<totfact> 0.43457843E+04</totfact>
</mgrwt>
</event>
<event>
 4    0  0.1005289E-001  0.2385273E+03  0.7546771E-02  0.1120778E+00
         21   -1    0    0  502  501  0.00000000000E+00  0.00000000000E+00  0.35061749099E+03  0.35061749099E+03  0.00000000000E+00 0.  1.
         21   -1    0    0  503  502 -0.00000000000E+00 -0.00000000000E+00 -0.15704966454E+03  0.15704966454E+03  0.00000000000E+00 0. -1.
         25    1    1    2    0    0 -0.14514240359E+03 -0.14214056420E+03  0.18072905432E+02  0.23921096802E+03  0.12500000000E+03 0.  0.
         21    1    1    2  503  501  0.14514240359E+03  0.14214056420E+03  0.17549492101E+03  0.26845618751E+03  0.00000000000E+00 0.  1.
<mgrwt>
<rscale>  3 0.23852727E+03</rscale>
<asrwt>0</asrwt>
<pdfrwt beam="1">  1       21 0.53941152E-01 0.23852727E+03</pdfrwt>
<pdfrwt beam="2">  1       21 0.24161487E-01 0.23852727E+03</pdfrwt>
<totfact> 0.51450564E+04</totfact>
</mgrwt>
</event>
<event>
 4    0  0.1616495E-001  0.2444318E+03  0.7546771E-02  0.1116875E+00
         21   -1    0    0  503  501  0.00000000000E+00  0.00000000000E+00  0.17722370408E+03  0.17722370408E+03  0.00000000000E+00 0. -1.
         21   -1    0    0  501  502 -0.00000000000E+00 -0.00000000000E+00 -0.29153708627E+03  0.29153708627E+03  0.00000000000E+00 0. -1.
         25    1    1    2    0    0 -0.36951738995E+02  0.20677640512E+03 -0.66953394668E+02  0.25343573108E+03  0.12500000000E+03 0.  0.
         21    1    1    2  503  502  0.36951738995E+02 -0.20677640512E+03 -0.47359987524E+02  0.21532505927E+03  0.00000000000E+00 0. -1.
<mgrwt>
<rscale>  3 0.24443182E+03</rscale>
<asrwt>0</asrwt>
<pdfrwt beam="1">  1       21 0.27265185E-01 0.24443182E+03</pdfrwt>
<pdfrwt beam="2">  1       21 0.44851859E-01 0.24443182E+03</pdfrwt>
<totfact> 0.59842288E+04</totfact>
</mgrwt>
</event>
<event>
 4    0  0.1005289E-001  0.2438486E+03  0.7546771E-02  0.1117255E+00
         21   -1    0    0  502  501  0.00000000000E+00  0.00000000000E+00  0.30328716294E+03  0.30328716294E+03  0.00000000000E+00 0.  1.
         21   -1    0    0  503  502 -0.00000000000E+00 -0.00000000000E+00 -0.19602330738E+03  0.19602330738E+03  0.00000000000E+00 0. -1.
         25    1    1    2    0    0  0.17918297927E+03 -0.10830799058E+03 -0.34758453341E+02  0.24631344048E+03  0.12500000000E+03 0.  0.
         21    1    1    2  503  501 -0.17918297927E+03  0.10830799058E+03  0.14202230890E+03  0.25299702984E+03  0.00000000000E+00 0.  1.
<mgrwt>
<rscale>  3 0.24384864E+03</rscale>
<asrwt>0</asrwt>
<pdfrwt beam="1">  1       21 0.46659564E-01 0.24384864E+03</pdfrwt>
<pdfrwt beam="2">  1       21 0.30157432E-01 0.24384864E+03</pdfrwt>
<totfact> 0.45309644E+04</totfact>
</mgrwt>
</event>
<event>
 4    0  0.1661209E-001  0.2781644E+03  0.7546771E-02  0.1096696E+00
         21   -1    0    0  503  501  0.00000000000E+00  0.00000000000E+00  0.21171502712E+03  0.21171502712E+03  0.00000000000E+00 0. -1.
         21   -1    0    0  501  502 -0.00000000000E+00 -0.00000000000E+00 -0.33772331303E+03  0.33772331303E+03  0.00000000000E+00 0. -1.
         25    1    1    2    0    0 -0.51617684041E+02 -0.24307626973E+03 -0.11410115413E+03  0.30065683360E+03  0.12500000000E+03 0.  0.
         21    1    1    2  503  502  0.51617684041E+02  0.24307626973E+03 -0.11907131782E+02  0.24878150655E+03  0.00000000000E+00 0. -1.
<mgrwt>
<rscale>  3 0.27816444E+03</rscale>
<asrwt>0</asrwt>
<pdfrwt beam="1">  1       21 0.32571543E-01 0.27816444E+03</pdfrwt>
<pdfrwt beam="2">  1       21 0.51957432E-01 0.27816444E+03</pdfrwt>
<totfact> 0.30639187E+04</totfact>
</mgrwt>
</event>
<event>
 4    0  0.1435487E-001  0.2395830E+03  0.7546771E-02  0.1120071E+00
         21   -1    0    0  502  501  0.00000000000E+00  0.00000000000E+00  0.12632621221E+03  0.12632621221E+03  0.00000000000E+00 0.  1.
         21   -1    0    0  503  502 -0.00000000000E+00 -0.00000000000E+00 -0.40923171797E+03  0.40923171797E+03  0.00000000000E+00 0.  1.
         25    1    1    2    0    0  0.20381188565E+03  0.15354018666E+02 -0.20988964616E+03  0.31851796525E+03  0.12500000000E+03 0.  0.
         21    1    1    2  503  501 -0.20381188565E+03 -0.15354018666E+02 -0.73015859599E+02  0.21703996493E+03  0.00000000000E+00 0.  1.
<mgrwt>
<rscale>  3 0.23958303E+03</rscale>
<asrwt>0</asrwt>
<pdfrwt beam="1">  1       21 0.19434802E-01 0.23958303E+03</pdfrwt>
<pdfrwt beam="2">  1       21 0.62958727E-01 0.23958303E+03</pdfrwt>
<totfact> 0.55699054E+04</totfact>
</mgrwt>
</event>
<event>
 4    0  0.1677505E-001  0.2694085E+03  0.7546771E-02  0.1101619E+00
         21   -1    0    0  503  501  0.00000000000E+00  0.00000000000E+00  0.26782389726E+03  0.26782389726E+03  0.00000000000E+00 0.  1.
         21   -1    0    0  501  502 -0.00000000000E+00 -0.00000000000E+00 -0.24283570082E+03  0.24283570082E+03  0.00000000000E+00 0.  1.
         25    1    1    2    0    0 -0.11168247033E+03 -0.21090982956E+03 -0.92187420166E+01  0.26956616180E+03  0.12500000000E+03 0.  0.
         21    1    1    2  503  502  0.11168247033E+03  0.21090982956E+03  0.34206938455E+02  0.24109343628E+03  0.00000000000E+00 0.  1.
<mgrwt>
<rscale>  3 0.26940848E+03</rscale>
<asrwt>0</asrwt>
<pdfrwt beam="1">  1       21 0.41203677E-01 0.26940848E+03</pdfrwt>
<pdfrwt beam="2">  1       21 0.37359339E-01 0.26940848E+03</pdfrwt>
<totfact> 0.37850610E+04</totfact>
</mgrwt>
</event>
<event>
 4    0  0.1540378E-001  0.3089796E+03  0.7546771E-02  0.1080836E+00
         21   -1    0    0  502  501  0.00000000000E+00  0.00000000000E+00  0.18376055929E+03  0.18376055929E+03  0.00000000000E+00 0.  1.
         21   -1    0    0  503  502 -0.00000000000E+00 -0.00000000000E+00 -0.53030761877E+03  0.53030761877E+03  0.00000000000E+00 0.  1.
         25    1    1    2    0    0 -0.97789279329E+02 -0.26510496684E+03 -0.29430667843E+03  0.42671396457E+03  0.12500000000E+03 0.  0.
         21    1    1    2  503  501  0.97789279329E+02  0.26510496684E+03 -0.52240381062E+02  0.28735421349E+03  0.00000000000E+00 0.  1.
<mgrwt>
<rscale>  3 0.30897959E+03</rscale>
<asrwt>0</asrwt>
<pdfrwt beam="1">  1       21 0.28270855E-01 0.30897959E+03</pdfrwt>
<pdfrwt beam="2">  1       21 0.81585788E-01 0.30897959E+03</pdfrwt>
<totfact> 0.14808435E+04</totfact>
</mgrwt>
</event>
<event>
 4    0  0.1005289E-001  0.3606120E+03  0.7546771E-02  0.1058342E+00
         21   -1    0    0  503  501  0.00000000000E+00  0.00000000000E+00  0.16704223117E+03  0.16704223117E+03  0.00000000000E+00 0. -1.
         21   -1    0    0  501  502 -0.00000000000E+00 -0.00000000000E+00 -0.77875202334E+03  0.77875202334E+03  0.00000000000E+00 0.  1.
         25    1    1    2    0    0  0.33820763307E+03 -0.56247471562E+01 -0.43211617244E+03  0.56281917818E+03  0.12500000000E+03 0.  0.
         21    1    1    2  503  502 -0.33820763307E+03  0.56247471562E+01 -0.17959361973E+03  0.38297507633E+03  0.00000000000E+00 0. -1.
<mgrwt>
<rscale>  3 0.36061204E+03</rscale>
<asrwt>0</asrwt>
<pdfrwt beam="1">  1       21 0.25698805E-01 0.36061204E+03</pdfrwt>
<pdfrwt beam="2">  1       21 0.11980800E+00 0.36061204E+03</pdfrwt>
<totfact> 0.69341512E+03</totfact>
</mgrwt>
</event>
<event>
 4    0  0.1531790E-001  0.3642314E+03  0.7546771E-02  0.1056921E+00
         21   -1    0    0  502  501  0.00000000000E+00  0.00000000000E+00  0.62458834397E+03  0.62458834397E+03  0.00000000000E+00 0.  1.
         21   -1    0    0  503  502 -0.00000000000E+00 -0.00000000000E+00 -0.24460670252E+03  0.24460670252E+03  0.00000000000E+00 0.  1.
         25    1    1    2    0    0  0.60778873816E+02 -0.33666816509E+03  0.87086635410E+01  0.36433551255E+03  0.12500000000E+03 0.  0.
         21    1    1    2  503  501 -0.60778873816E+02  0.33666816509E+03  0.37127297791E+03  0.50485953394E+03  0.00000000000E+00 0.  1.
<mgrwt>
<rscale>  3 0.36423142E+03</rscale>
<asrwt>0</asrwt>
<pdfrwt beam="1">  1       21 0.96090514E-01 0.36423142E+03</pdfrwt>
<pdfrwt beam="2">  1       21 0.37631801E-01 0.36423142E+03</pdfrwt>
<totfact> 0.55769092E+03</totfact>
</mgrwt>
</event>
<event>
 4    0  0.1054350E-001  0.2404130E+03  0.7546771E-02  0.1119518E+00
         21   -1    0    0  503  501  0.00000000000E+00  0.00000000000E+00  0.36730759713E+02  0.36730759713E+02  0.00000000000E+00 0. -1.
         21   -1    0    0  501  502 -0.00000000000E+00 -0.00000000000E+00 -0.16822611564E+04  0.16822611564E+04  0.00000000000E+00 0. -1.
         25    1    1    2    0    0 -0.11430914115E+03 -0.17060726533E+03 -0.12543617739E+04  0.12771929684E+04  0.12500000000E+03 0.  0.
         21    1    1    2  503  502  0.11430914115E+03  0.17060726533E+03 -0.39116862271E+03  0.44179894763E+03  0.00000000000E+00 0. -1.
<mgrwt>
<rscale>  3 0.24041302E+03</rscale>
<asrwt>0</asrwt>
<pdfrwt beam="1">  1       21 0.56508851E-02 0.24041302E+03</pdfrwt>
<pdfrwt beam="2">  1       21 0.25880945E+00 0.24041302E+03</pdfrwt>
<totfact> 0.12374486E+04</totfact>
</mgrwt>
</event>
<event>
 4    0  0.1443983E-001  0.2578128E+03  0.7546771E-02  0.1108465E+00
         21   -1    0    0  502  501  0.00000000000E+00  0.00000000000E+00  0.78378411316E+03  0.78378411316E+03  0.00000000000E+00 0. -1.
         21   -1    0    0  503  502 -0.00000000000E+00 -0.00000000000E+00 -0.77790229587E+02  0.77790229587E+02  0.00000000000E+00 0. -1.
         25    1    1    2    0    0  0.21044124792E+03 -0.80974763693E+02  0.28723606694E+03  0.38596889684E+03  0.12500000000E+03 0.  0.
         21    1    1    2  503  501 -0.21044124792E+03  0.80974763693E+02  0.41875781664E+03  0.47560544591E+03  0.00000000000E+00 0. -1.
<mgrwt>
<rscale>  3 0.25781278E+03</rscale>
<asrwt>0</asrwt>
<pdfrwt beam="1">  1       21 0.12058217E+00 0.25781278E+03</pdfrwt>
<pdfrwt beam="2">  1       21 0.11967728E-01 0.25781278E+03</pdfrwt>
<totfact> 0.29724321E+04</totfact>
</mgrwt>
</event>
<event>
 4    0  0.1281328E-001  0.2397736E+03  0.7546771E-02  0.1119944E+00
         21   -1    0    0  502  501  0.00000000000E+00  0.00000000000E+00  0.63067890403E+02  0.63067890403E+02  0.00000000000E+00 0.  1.
         21   -1    0    0  503  502 -0.00000000000E+00 -0.00000000000E+00 -0.96945315671E+03  0.96945315671E+03  0.00000000000E+00 0.  1.
         25    1    1    2    0    0  0.17010514020E+03 -0.11371280925E+03 -0.70809960842E+03  0.74759375142E+03  0.12500000000E+03 0.  0.
         21    1    1    2  503  501 -0.17010514020E+03  0.11371280925E+03 -0.19828565789E+03  0.28492729570E+03  0.00000000000E+00 0.  1.
<mgrwt>
<rscale>  3 0.23977356E+03</rscale>
<asrwt>0</asrwt>
<pdfrwt beam="1">  1       21 0.97027525E-02 0.23977356E+03</pdfrwt>
<pdfrwt beam="2">  1       21 0.14914664E+00 0.23977356E+03</pdfrwt>
<totfact> 0.25243810E+04</totfact>
</mgrwt>
</event>
<event>
 4    0  0.1646378E-001  0.2464155E+03  0.7546771E-02  0.1115591E+00
         21   -1    0    0  502  501  0.00000000000E+00  0.00000000000E+00  0.28161452836E+03  0.28161452836E+03  0.00000000000E+00 0.  1.
         21   -1    0    0  503  502 -0.00000000000E+00 -0.00000000000E+00 -0.18918372880E+03  0.18918372880E+03  0.00000000000E+00 0.  1.
         25    1    1    2    0    0  0.20662667513E+03 -0.48999949219E+02  0.23498701935E+02  0.24753336521E+03  0.12500000000E+03 0.  0.
         21    1    1    2  503  501 -0.20662667513E+03  0.48999949219E+02  0.68932097616E+02  0.22326489195E+03  0.00000000000E+00 0.  1.
<mgrwt>
<rscale>  3 0.24641546E+03</rscale>
<asrwt>0</asrwt>
<pdfrwt beam="1">  1       21 0.43325312E-01 0.24641546E+03</pdfrwt>
<pdfrwt beam="2">  1       21 0.29105189E-01 0.24641546E+03</pdfrwt>
<totfact> 0.56552156E+04</totfact>
</mgrwt>
</event>
<event>
 4    0  0.1005289E-001  0.2798587E+03  0.7546771E-02  0.1095766E+00
         21   -1    0    0  502  501  0.00000000000E+00  0.00000000000E+00  0.17895168512E+04  0.17895168512E+04  0.00000000000E+00 0.  1.
         21   -1    0    0  503  502 -0.00000000000E+00 -0.00000000000E+00 -0.20163585797E+03  0.20163585797E+03  0.00000000000E+00 0.  1.
         25    1    1    2    0    0  0.21127570209E+03  0.13438170321E+03 -0.90553437065E+02  0.29414416434E+03  0.12500000000E+03 0.  0.
         21    1    1    2  503  501 -0.21127570209E+03 -0.13438170321E+03  0.16784344302E+04  0.16970085448E+04  0.00000000000E+00 0.  1.
<mgrwt>
<rscale>  3 0.27985865E+03</rscale>
<asrwt>0</asrwt>
<pdfrwt beam="1">  1       21 0.27531027E+00 0.27985865E+03</pdfrwt>
<pdfrwt beam="2">  1       21 0.31020902E-01 0.27985865E+03</pdfrwt>
<totfact> 0.42744822E+02</totfact>
</mgrwt>
</event>
<event>
 4    0  0.1005289E-001  0.4662411E+03  0.7546771E-02  0.1022987E+00
         21   -1    0    0  503  501  0.00000000000E+00  0.00000000000E+00  0.16404312205E+03  0.16404312205E+03  0.00000000000E+00 0.  1.
         21   -1    0    0  501  502 -0.00000000000E+00 -0.00000000000E+00 -0.16730407457E+04  0.16730407457E+04  0.00000000000E+00 0. -1.
         25    1    1    2    0    0 -0.34702890441E+03 -0.28517831278E+03 -0.12120413300E+04  0.12986242398E+04  0.12500000000E+03 0.  0.
         21    1    1    2  503  502  0.34702890441E+03  0.28517831278E+03 -0.29695629361E+03  0.53845962791E+03  0.00000000000E+00 0.  1.
<mgrwt>
<rscale>  3 0.46624106E+03</rscale>
<asrwt>0</asrwt>
<pdfrwt beam="1">  1       21 0.25237404E-01 0.46624106E+03</pdfrwt>
<pdfrwt beam="2">  1       21 0.25739088E+00 0.46624106E+03</pdfrwt>
<totfact> 0.72312009E+02</totfact>
</mgrwt>
</event>
<event>
 4    0  0.1005289E-001  0.2626784E+03  0.7546771E-02  0.1105545E+00
         21   -1    0    0  502  501  0.00000000000E+00  0.00000000000E+00  0.11613752864E+04  0.11613752864E+04  0.00000000000E+00 0. -1.
         21   -1    0    0  503  502 -0.00000000000E+00 -0.00000000000E+00 -0.60922088041E+02  0.60922088041E+02  0.00000000000E+00 0. -1.
         25    1    1    2    0    0  0.15628445118E+03 -0.17014739648E+03  0.80784081930E+03  0.84947439958E+03  0.12500000000E+03 0.  0.
         21    1    1    2  503  501 -0.15628445118E+03  0.17014739648E+03  0.29261237908E+03  0.37282297489E+03  0.00000000000E+00 0. -1.
<mgrwt>
<rscale>  3 0.26267845E+03</rscale>
<asrwt>0</asrwt>
<pdfrwt beam="1">  1       21 0.17867310E+00 0.26267845E+03</pdfrwt>
<pdfrwt beam="2">  1       21 0.93726298E-02 0.26267845E+03</pdfrwt>
<totfact> 0.16142368E+04</totfact>
</mgrwt>
</event>
<event>
 4    0  0.1005289E-001  0.2629008E+03  0.7546771E-02  0.1105413E+00
         21   -1    0    0  502  501  0.00000000000E+00  0.00000000000E+00  0.10821037401E+04  0.10821037401E+04  0.00000000000E+00 0. -1.
         21   -1    0    0  503  502 -0.00000000000E+00 -0.00000000000E+00 -0.75549463912E+02  0.75549463912E+02  0.00000000000E+00 0. -1.
         25    1    1    2    0    0  0.17378469218E+03  0.15261303218E+03  0.81812612063E+03  0.85932950961E+03  0.12500000000E+03 0.  0.
         21    1    1    2  503  501 -0.17378469218E+03 -0.15261303218E+03  0.18842815552E+03  0.29832369437E+03  0.00000000000E+00 0. -1.
<mgrwt>
<rscale>  3 0.26290085E+03</rscale>
<asrwt>0</asrwt>
<pdfrwt beam="1">  1       21 0.16647749E+00 0.26290085E+03</pdfrwt>
<pdfrwt beam="2">  1       21 0.11622995E-01 0.26290085E+03</pdfrwt>
<totfact> 0.13407502E+04</totfact>
</mgrwt>
</event>
<event>
 4    0  0.1567766E-001  0.2723462E+03  0.7546771E-02  0.1099944E+00
         21   -1    0    0  503  501  0.00000000000E+00  0.00000000000E+00  0.14290334947E+03  0.14290334947E+03  0.00000000000E+00 0.  1.
         21   -1    0    0  501  502 -0.00000000000E+00 -0.00000000000E+00 -0.47040541590E+03  0.47040541590E+03  0.00000000000E+00 0.  1.
         25    1    1    2    0    0  0.17875453635E+03 -0.16307753661E+03 -0.21230665677E+03  0.34532098651E+03  0.12500000000E+03 0.  0.
         21    1    1    2  503  502 -0.17875453635E+03  0.16307753661E+03 -0.11519540965E+03  0.26798777886E+03  0.00000000000E+00 0.  1.
<mgrwt>
<rscale>  3 0.27234623E+03</rscale>
<asrwt>0</asrwt>
<pdfrwt beam="1">  1       21 0.21985131E-01 0.27234623E+03</pdfrwt>
<pdfrwt beam="2">  1       21 0.72370063E-01 0.27234623E+03</pdfrwt>
<totfact> 0.32029603E+04</totfact>
</mgrwt>
</event>
<event>
 4    0  0.1074490E-001  0.2587889E+03  0.7546771E-02  0.1107873E+00
         21   -1    0    0  503  501  0.00000000000E+00  0.00000000000E+00  0.30448136478E+03  0.30448136478E+03  0.00000000000E+00 0.  1.
         21   -1    0    0  501  502 -0.00000000000E+00 -0.00000000000E+00 -0.23551196451E+03  0.23551196451E+03  0.00000000000E+00 0.  1.
         25    1    1    2    0    0  0.20370103021E+03  0.99260257483E+02  0.15026769931E+03  0.29925255200E+03  0.12500000000E+03 0.  0.
         21    1    1    2  503  502 -0.20370103021E+03 -0.99260257483E+02 -0.81298299038E+02  0.24074077729E+03  0.00000000000E+00 0.  1.
<mgrwt>
<rscale>  3 0.25878893E+03</rscale>
<asrwt>0</asrwt>
<pdfrwt beam="1">  1       21 0.46843287E-01 0.25878893E+03</pdfrwt>
<pdfrwt beam="2">  1       21 0.36232610E-01 0.25878893E+03</pdfrwt>
<totfact> 0.31031006E+04</totfact>
</mgrwt>
</event>
<event>
 4    0  0.1355818E-001  0.2526310E+03  0.7546771E-02  0.1111653E+00
         21   -1    0    0  502  501  0.00000000000E+00  0.00000000000E+00  0.60285773528E+03  0.60285773528E+03  0.00000000000E+00 0. -1.
         21   -1    0    0  503  502 -0.00000000000E+00 -0.00000000000E+00 -0.13970813331E+03  0.13970813331E+03  0.00000000000E+00 0. -1.
         25    1    1    2    0    0  0.21528577879E+03 -0.43005502258E+02  0.26734103238E+02  0.25404163448E+03  0.12500000000E+03 0.  0.
         21    1    1    2  503  501 -0.21528577879E+03  0.43005502258E+02  0.43641549873E+03  0.48852423410E+03  0.00000000000E+00 0. -1.
<mgrwt>
<rscale>  3 0.25263103E+03</rscale>
<asrwt>0</asrwt>
<pdfrwt beam="1">  1       21 0.92747342E-01 0.25263103E+03</pdfrwt>
<pdfrwt beam="2">  1       21 0.21493559E-01 0.25263103E+03</pdfrwt>
<totfact> 0.19106060E+04</totfact>
</mgrwt>
</event>
<event>
 4    0  0.1669522E-001  0.2809768E+03  0.7546771E-02  0.1095157E+00
         21   -1    0    0  503  501  0.00000000000E+00  0.00000000000E+00  0.57138712633E+03  0.57138712633E+03  0.00000000000E+00 0.  1.
         21   -1    0    0  501  502 -0.00000000000E+00 -0.00000000000E+00 -0.13776763969E+03  0.13776763969E+03  0.00000000000E+00 0.  1.
         25    1    1    2    0    0 -0.42876647086E+02 -0.24796076440E+03  0.11611860392E+03  0.30402545571E+03  0.12500000000E+03 0.  0.
         21    1    1    2  503  502  0.42876647086E+02  0.24796076440E+03  0.31750088272E+03  0.40512931031E+03  0.00000000000E+00 0.  1.
<mgrwt>
<rscale>  3 0.28097677E+03</rscale>
<asrwt>0</asrwt>
<pdfrwt beam="1">  1       21 0.87905711E-01 0.28097677E+03</pdfrwt>
<pdfrwt beam="2">  1       21 0.21195022E-01 0.28097677E+03</pdfrwt>
<totfact> 0.21950072E+04</totfact>
</mgrwt>
</event>
<event>
 4    0  0.1441927E-001  0.2874524E+03  0.7546771E-02  0.1091687E+00
         21   -1    0    0  502  501  0.00000000000E+00  0.00000000000E+00  0.20804379170E+03  0.20804379170E+03  0.00000000000E+00 0.  1.
         21   -1    0    0  503  502 -0.00000000000E+00 -0.00000000000E+00 -0.49303367182E+03  0.49303367182E+03  0.00000000000E+00 0.  1.
         25    1    1    2    0    0  0.17622190073E+03  0.18960411732E+03 -0.33075731438E+03  0.43821145651E+03  0.12500000000E+03 0.  0.
         21    1    1    2  503  501 -0.17622190073E+03 -0.18960411732E+03  0.45767434256E+02  0.26286600701E+03  0.00000000000E+00 0.  1.
<mgrwt>
<rscale>  3 0.28745240E+03</rscale>
<asrwt>0</asrwt>
<pdfrwt beam="1">  1       21 0.32006738E-01 0.28745240E+03</pdfrwt>
<pdfrwt beam="2">  1       21 0.75851332E-01 0.28745240E+03</pdfrwt>
<totfact> 0.13819142E+04</totfact>
</mgrwt>
</event>
<event>
 4    0  0.1542419E-001  0.2851757E+03  0.7546771E-02  0.1092895E+00
         21   -1    0    0  502  501  0.00000000000E+00  0.00000000000E+00  0.26306866734E+03  0.26306866734E+03  0.00000000000E+00 0.  1.
         21   -1    0    0  503  502 -0.00000000000E+00 -0.00000000000E+00 -0.37557117228E+03  0.37557117228E+03  0.00000000000E+00 0.  1.
         25    1    1    2    0    0 -0.25382340568E+03  0.35691066099E+02 -0.22051721706E+03  0.36048996725E+03  0.12500000000E+03 0.  0.
         21    1    1    2  503  501  0.25382340568E+03 -0.35691066099E+02  0.10801471212E+03  0.27814987238E+03  0.00000000000E+00 0.  1.
<mgrwt>
<rscale>  3 0.28517569E+03</rscale>
<asrwt>0</asrwt>
<pdfrwt beam="1">  1       21 0.40472103E-01 0.28517569E+03</pdfrwt>
<pdfrwt beam="2">  1       21 0.57780181E-01 0.28517569E+03</pdfrwt>
<totfact> 0.15729147E+04</totfact>
</mgrwt>
</event>
<event>
 4    0  0.1350345E-001  0.3279494E+03  0.7546771E-02  0.1072048E+00
         21   -1    0    0  503  501  0.00000000000E+00  0.00000000000E+00  0.15667112178E+03  0.15667112178E+03  0.00000000000E+00 0. -1.
         21   -1    0    0  501  502 -0.00000000000E+00 -0.00000000000E+00 -0.85970340769E+03  0.85970340769E+03  0.00000000000E+00 0. -1.
         25    1    1    2    0    0 -0.29935118014E+03 -0.48111016925E+02 -0.62100688091E+03  0.70228224037E+03  0.12500000000E+03 0.  0.
         21    1    1    2  503  502  0.29935118014E+03  0.48111016925E+02 -0.82025404995E+02  0.31409228909E+03  0.00000000000E+00 0. -1.
<mgrwt>
<rscale>  3 0.32794938E+03</rscale>
<asrwt>0</asrwt>
<pdfrwt beam="1">  1       21 0.24103249E-01 0.32794938E+03</pdfrwt>
<pdfrwt beam="2">  1       21 0.13226206E+00 0.32794938E+03</pdfrwt>
<totfact> 0.61849873E+03</totfact>
</mgrwt>
</event>
<event>
 4    0  0.1444048E-001  0.3715893E+03  0.7546771E-02  0.1054087E+00
         21   -1    0    0  502  501  0.00000000000E+00  0.00000000000E+00  0.22451459699E+03  0.22451459699E+03  0.00000000000E+00 0.  1.
         21   -1    0    0  503  502 -0.00000000000E+00 -0.00000000000E+00 -0.66689860478E+03  0.66689860478E+03  0.00000000000E+00 0.  1.
         25    1    1    2    0    0  0.37954279326E+02  0.34786934382E+03 -0.38807497165E+03  0.53729023005E+03  0.12500000000E+03 0.  0.
         21    1    1    2  503  501 -0.37954279326E+02 -0.34786934382E+03 -0.54309036137E+02  0.35412297172E+03  0.00000000000E+00 0.  1.
<mgrwt>
<rscale>  3 0.37158930E+03</rscale>
<asrwt>0</asrwt>
<pdfrwt beam="1">  1       21 0.34540708E-01 0.37158930E+03</pdfrwt>
<pdfrwt beam="2">  1       21 0.10259978E+00 0.37158930E+03</pdfrwt>
<totfact> 0.56455501E+03</totfact>
</mgrwt>
</event>
<event>
 4    0  0.1005289E-001  0.2858822E+03  0.7546771E-02  0.1092519E+00
         21   -1    0    0  502  501  0.00000000000E+00  0.00000000000E+00  0.81596465032E+02  0.81596465032E+02  0.00000000000E+00 0. -1.
         21   -1    0    0  503  502 -0.00000000000E+00 -0.00000000000E+00 -0.12921501834E+04  0.12921501834E+04  0.00000000000E+00 0.  1.
         25    1    1    2    0    0  0.65782155082E+02 -0.24854842658E+03 -0.10041141213E+04  0.10440180941E+04  0.12500000000E+03 0.  0.
         21    1    1    2  503  501 -0.65782155082E+02  0.24854842658E+03 -0.20643959706E+03  0.32972855429E+03  0.00000000000E+00 0. -1.
<mgrwt>
<rscale>  3 0.28588217E+03</rscale>
<asrwt>0</asrwt>
<pdfrwt beam="1">  1       21 0.12553303E-01 0.28588217E+03</pdfrwt>
<pdfrwt beam="2">  1       21 0.19879232E+00 0.28588217E+03</pdfrwt>
<totfact> 0.69080611E+03</totfact>
</mgrwt>
</event>
<event>
 4    0  0.1005289E-001  0.2543688E+03  0.7546771E-02  0.1110575E+00
         21   -1    0    0  503  501  0.00000000000E+00  0.00000000000E+00  0.63233345212E+02  0.63233345212E+02  0.00000000000E+00 0. -1.
         21   -1    0    0  501  502 -0.00000000000E+00 -0.00000000000E+00 -0.17386442064E+04  0.17386442064E+04  0.00000000000E+00 0. -1.
         25    1    1    2    0    0 -0.14107142783E+03  0.17081380943E+03 -0.14941181147E+04  0.15156161934E+04  0.12500000000E+03 0.  0.
         21    1    1    2  503  502  0.14107142783E+03 -0.17081380943E+03 -0.18129274652E+03  0.28626135817E+03  0.00000000000E+00 0. -1.
<mgrwt>
<rscale>  3 0.25436884E+03</rscale>
<asrwt>0</asrwt>
<pdfrwt beam="1">  1       21 0.97282072E-02 0.25436884E+03</pdfrwt>
<pdfrwt beam="2">  1       21 0.26748372E+00 0.25436884E+03</pdfrwt>
<totfact> 0.42197571E+03</totfact>
</mgrwt>
</event>
<event>
 4    0  0.1223905E-001  0.2546374E+03  0.7546771E-02  0.1110409E+00
         21   -1    0    0  503  501  0.00000000000E+00  0.00000000000E+00  0.14559436695E+03  0.14559436695E+03  0.00000000000E+00 0.  1.
         21   -1    0    0  501  502 -0.00000000000E+00 -0.00000000000E+00 -0.43677462746E+03  0.43677462746E+03  0.00000000000E+00 0.  1.
         25    1    1    2    0    0 -0.20570989091E+03  0.83057980506E+02 -0.59285378423E+02  0.26144778339E+03  0.12500000000E+03 0.  0.
         21    1    1    2  503  502  0.20570989091E+03 -0.83057980506E+02 -0.23189488208E+03  0.32092121102E+03  0.00000000000E+00 0.  1.
<mgrwt>
<rscale>  3 0.25463736E+03</rscale>
<asrwt>0</asrwt>
<pdfrwt beam="1">  1       21 0.22399133E-01 0.25463736E+03</pdfrwt>
<pdfrwt beam="2">  1       21 0.67196096E-01 0.25463736E+03</pdfrwt>
<totfact> 0.36718727E+04</totfact>
</mgrwt>
</event>
<event>
 4    0  0.1122531E-001  0.2419932E+03  0.7546771E-02  0.1118472E+00
         21   -1    0    0  502  501  0.00000000000E+00  0.00000000000E+00  0.30401483407E+03  0.30401483407E+03  0.00000000000E+00 0. -1.
         21   -1    0    0  503  502 -0.00000000000E+00 -0.00000000000E+00 -0.18531482932E+03  0.18531482932E+03  0.00000000000E+00 0. -1.
         25    1    1    2    0    0  0.46426348698E+02 -0.20194139020E+03  0.14237967351E+03  0.28077161957E+03  0.12500000000E+03 0.  0.
         21    1    1    2  503  501 -0.46426348698E+02  0.20194139020E+03 -0.23679668765E+02  0.20855804382E+03  0.00000000000E+00 0. -1.
<mgrwt>
<rscale>  3 0.24199325E+03</rscale>
<asrwt>0</asrwt>
<pdfrwt beam="1">  1       21 0.46771513E-01 0.24199325E+03</pdfrwt>
<pdfrwt beam="2">  1       21 0.28509974E-01 0.24199325E+03</pdfrwt>
<totfact> 0.50356002E+04</totfact>
</mgrwt>
</event>
<event>
 4    0  0.1197650E-001  0.2430523E+03  0.7546771E-02  0.1117776E+00
         21   -1    0    0  502  501  0.00000000000E+00  0.00000000000E+00  0.99662913214E+02  0.99662913214E+02  0.00000000000E+00 0. -1.
         21   -1    0    0  503  502 -0.00000000000E+00 -0.00000000000E+00 -0.96408030633E+03  0.96408030633E+03  0.00000000000E+00 0. -1.
         25    1    1    2    0    0 -0.64042855236E+02  0.19836315976E+03 -0.81368911589E+03  0.84921399410E+03  0.12500000000E+03 0.  0.
         21    1    1    2  503  501  0.64042855236E+02 -0.19836315976E+03 -0.50728277224E+02  0.21452922544E+03  0.00000000000E+00 0. -1.
<mgrwt>
<rscale>  3 0.24305232E+03</rscale>
<asrwt>0</asrwt>
<pdfrwt beam="1">  1       21 0.15332756E-01 0.24305232E+03</pdfrwt>
<pdfrwt beam="2">  1       21 0.14832005E+00 0.24305232E+03</pdfrwt>
<totfact> 0.11213170E+04</totfact>
</mgrwt>
</event>
<event>
 4    0  0.1443994E-001  0.2823241E+03  0.7546771E-02  0.1094426E+00
         21   -1    0    0  503  501  0.00000000000E+00  0.00000000000E+00  0.67350506043E+03  0.67350506043E+03  0.00000000000E+00 0. -1.
         21   -1    0    0  501  502 -0.00000000000E+00 -0.00000000000E+00 -0.11598468370E+03  0.11598468370E+03  0.00000000000E+00 0. -1.
         25    1    1    2    0    0  0.18696015262E+03  0.17066861687E+03  0.17955887421E+03  0.33458670739E+03  0.12500000000E+03 0.  0.
         21    1    1    2  503  502 -0.18696015262E+03 -0.17066861687E+03  0.37796150252E+03  0.45490303674E+03  0.00000000000E+00 0. -1.
<mgrwt>
<rscale>  3 0.28232406E+03</rscale>
<asrwt>0</asrwt>
<pdfrwt beam="1">  1       21 0.10361616E+00 0.28232406E+03</pdfrwt>
<pdfrwt beam="2">  1       21 0.17843798E-01 0.28232406E+03</pdfrwt>
<totfact> 0.20524344E+04</totfact>
</mgrwt>
</event>
<event>
 4    0  0.1611237E-001  0.2382952E+03  0.7546771E-02  0.1120934E+00
         21   -1    0    0  503  501  0.00000000000E+00  0.00000000000E+00  0.41322973238E+03  0.41322973238E+03  0.00000000000E+00 0.  1.
         21   -1    0    0  501  502 -0.00000000000E+00 -0.00000000000E+00 -0.14248826946E+03  0.14248826946E+03  0.00000000000E+00 0.  1.
         25    1    1    2    0    0 -0.18763681827E+03  0.77149439459E+02  0.28888028519E+02  0.24003985038E+03  0.12500000000E+03 0.  0.
         21    1    1    2  503  502  0.18763681827E+03 -0.77149439459E+02  0.24185343440E+03  0.31567815146E+03  0.00000000000E+00 0.  1.
<mgrwt>
<rscale>  3 0.23829522E+03</rscale>
<asrwt>0</asrwt>
<pdfrwt beam="1">  1       21 0.63573804E-01 0.23829522E+03</pdfrwt>
<pdfrwt beam="2">  1       21 0.21921272E-01 0.23829522E+03</pdfrwt>
<totfact> 0.43493639E+04</totfact>
</mgrwt>
</event>
<event>
 4    0  0.1005289E-001  0.2570479E+03  0.7546771E-02  0.1108930E+00
         21   -1    0    0  503  501  0.00000000000E+00  0.00000000000E+00  0.26356134334E+02  0.26356134334E+02  0.00000000000E+00 0. -1.
         21   -1    0    0  501  502 -0.00000000000E+00 -0.00000000000E+00 -0.23471741996E+04  0.23471741996E+04  0.00000000000E+00 0. -1.
         25    1    1    2    0    0  0.17649068916E+03 -0.13892315619E+03 -0.15296660037E+04  0.15511130486E+04  0.12500000000E+03 0.  0.
         21    1    1    2  503  502 -0.17649068916E+03  0.13892315619E+03 -0.79115206160E+03  0.82241728536E+03  0.00000000000E+00 0. -1.
<mgrwt>
<rscale>  3 0.25704787E+03</rscale>
<asrwt>0</asrwt>
<pdfrwt beam="1">  1       21 0.40547908E-02 0.25704787E+03</pdfrwt>
<pdfrwt beam="2">  1       21 0.36110364E+00 0.25704787E+03</pdfrwt>
<totfact> 0.53581556E+03</totfact>
</mgrwt>
</event>
<event>
 4    0  0.1275134E-001  0.4586059E+03  0.7546771E-02  0.1025186E+00
         21   -1    0    0  502  501  0.00000000000E+00  0.00000000000E+00  0.35051244996E+03  0.35051244996E+03  0.00000000000E+00 0.  1.
         21   -1    0    0  503  502 -0.00000000000E+00 -0.00000000000E+00 -0.10255811820E+04  0.10255811820E+04  0.00000000000E+00 0. -1.
         25    1    1    2    0    0 -0.38484288753E+03 -0.21584793463E+03 -0.79592961560E+03  0.91859856954E+03  0.12500000000E+03 0.  0.
         21    1    1    2  503  501  0.38484288753E+03  0.21584793463E+03  0.12086088357E+03  0.45749506243E+03  0.00000000000E+00 0.  1.
<mgrwt>
<rscale>  3 0.45860591E+03</rscale>
<asrwt>0</asrwt>
<pdfrwt beam="1">  1       21 0.53924993E-01 0.45860591E+03</pdfrwt>
<pdfrwt beam="2">  1       21 0.15778172E+00 0.45860591E+03</pdfrwt>
<totfact> 0.70916761E+02</totfact>
</mgrwt>
</event>
<event>
 4    0  0.1329703E-001  0.3627790E+03  0.7546771E-02  0.1057489E+00
         21   -1    0    0  502  501  0.00000000000E+00  0.00000000000E+00  0.62395325993E+03  0.62395325993E+03  0.00000000000E+00 0. -1.
         21   -1    0    0  503  502 -0.00000000000E+00 -0.00000000000E+00 -0.20439008595E+03  0.20439008595E+03  0.00000000000E+00 0. -1.
         25    1    1    2    0    0  0.34046855279E+03  0.80471136534E+01  0.28820141137E+03  0.46332347771E+03  0.12500000000E+03 0.  0.
         21    1    1    2  503  501 -0.34046855279E+03 -0.80471136534E+01  0.13136176262E+03  0.36501986817E+03  0.00000000000E+00 0. -1.
<mgrwt>
<rscale>  3 0.36277898E+03</rscale>
<asrwt>0</asrwt>
<pdfrwt beam="1">  1       21 0.95992808E-01 0.36277898E+03</pdfrwt>
<pdfrwt beam="2">  1       21 0.31444629E-01 0.36277898E+03</pdfrwt>
<totfact> 0.80265267E+03</totfact>
</mgrwt>
</event>
<event>
 4    0  0.1261708E-001  0.3392324E+03  0.7546771E-02  0.1067123E+00
         21   -1    0    0  503  501  0.00000000000E+00  0.00000000000E+00  0.10407691567E+03  0.10407691567E+03  0.00000000000E+00 0.  1.
         21   -1    0    0  501  502 -0.00000000000E+00 -0.00000000000E+00 -0.10945601893E+04  0.10945601893E+04  0.00000000000E+00 0.  1.
         25    1    1    2    0    0  0.27616303280E+03  0.15227474932E+03 -0.65850052199E+03  0.74074392163E+03  0.12500000000E+03 0.  0.
         21    1    1    2  503  502 -0.27616303280E+03 -0.15227474932E+03 -0.33198275163E+03  0.45789318334E+03  0.00000000000E+00 0.  1.
<mgrwt>
<rscale>  3 0.33923240E+03</rscale>
<asrwt>0</asrwt>
<pdfrwt beam="1">  1       21 0.16011834E-01 0.33923240E+03</pdfrwt>
<pdfrwt beam="2">  1       21 0.16839387E+00 0.33923240E+03</pdfrwt>
<totfact> 0.69566549E+03</totfact>
</mgrwt>
</event>
<event>
 4    0  0.1005289E-001  0.3008371E+03  0.7546771E-02  0.1084823E+00
         21   -1    0    0  502  501  0.00000000000E+00  0.00000000000E+00  0.63801103976E+02  0.63801103976E+02  0.00000000000E+00 0. -1.
         21   -1    0    0  503  502 -0.00000000000E+00 -0.00000000000E+00 -0.15858177242E+04  0.15858177242E+04  0.00000000000E+00 0. -1.
         25    1    1    2    0    0  0.17971645679E+03 -0.20634913125E+03 -0.43638882257E+03  0.53003601130E+03  0.12500000000E+03 0.  0.
         21    1    1    2  503  501 -0.17971645679E+03  0.20634913125E+03 -0.10856277977E+04  0.11195828169E+04  0.00000000000E+00 0. -1.
<mgrwt>
<rscale>  3 0.30083711E+03</rscale>
<asrwt>0</asrwt>
<pdfrwt beam="1">  1       21 0.98155546E-02 0.30083711E+03</pdfrwt>
<pdfrwt beam="2">  1       21 0.24397195E+00 0.30083711E+03</pdfrwt>
<totfact> 0.55447211E+03</totfact>
</mgrwt>
</event>
<event>
 4    0  0.1005289E-001  0.2523201E+03  0.7546771E-02  0.1111847E+00
         21   -1    0    0  503  501  0.00000000000E+00  0.00000000000E+00  0.19227852257E+02  0.19227852257E+02  0.00000000000E+00 0.  1.
         21   -1    0    0  501  502 -0.00000000000E+00 -0.00000000000E+00 -0.33310404464E+04  0.33310404464E+04  0.00000000000E+00 0.  1.
         25    1    1    2    0    0  0.75160381345E+02  0.20589162517E+03 -0.11490257164E+04  0.11764036472E+04  0.12500000000E+03 0.  0.
         21    1    1    2  503  502 -0.75160381345E+02 -0.20589162517E+03 -0.21627868778E+04  0.21738646515E+04  0.00000000000E+00 0.  1.
<mgrwt>
<rscale>  3 0.25232012E+03</rscale>
<asrwt>0</asrwt>
<pdfrwt beam="1">  1       21 0.29581324E-02 0.25232012E+03</pdfrwt>
<pdfrwt beam="2">  1       21 0.51246754E+00 0.25232012E+03</pdfrwt>
<totfact> 0.92070459E+02</totfact>
</mgrwt>
</event>
<event>
 4    0  0.1857588E-001  0.2745825E+03  0.7546771E-02  0.1098685E+00
         21   -1    0    0  503  501  0.00000000000E+00  0.00000000000E+00  0.37133567476E+03  0.37133567476E+03  0.00000000000E+00 0.  1.
         21   -1    0    0  501  502 -0.00000000000E+00 -0.00000000000E+00 -0.83841301490E+03  0.83841301490E+03  0.00000000000E+00 0. -1.
         25    1    1    2    0    0 -0.22606836608E+03 -0.93078825548E+02 -0.77173332993E+03  0.81912630676E+03  0.12500000000E+03 0.  0.
         21    1    1    2  503  502  0.22606836608E+03  0.93078825548E+02  0.30465598979E+03  0.39062238290E+03  0.00000000000E+00 0.  1.
<mgrwt>
<rscale>  3 0.27458254E+03</rscale>
<asrwt>0</asrwt>
<pdfrwt beam="1">  1       21 0.57128566E-01 0.27458254E+03</pdfrwt>
<pdfrwt beam="2">  1       21 0.12898662E+00 0.27458254E+03</pdfrwt>
<totfact> 0.11835113E+03</totfact>
</mgrwt>
</event>
<event>
 4    0  0.1005289E-001  0.2360167E+03  0.7546771E-02  0.1122475E+00
         21   -1    0    0  502  501  0.00000000000E+00  0.00000000000E+00  0.18292386533E+03  0.18292386533E+03  0.00000000000E+00 0. -1.
         21   -1    0    0  503  502 -0.00000000000E+00 -0.00000000000E+00 -0.28134017593E+03  0.28134017593E+03  0.00000000000E+00 0.  1.
         25    1    1    2    0    0 -0.82423937671E+02  0.18244225820E+03 -0.11659053251E+03  0.26324368055E+03  0.12500000000E+03 0.  0.
         21    1    1    2  503  501  0.82423937671E+02 -0.18244225820E+03  0.18174221907E+02  0.20102036071E+03  0.00000000000E+00 0. -1.
<mgrwt>
<rscale>  3 0.23601670E+03</rscale>
<asrwt>0</asrwt>
<pdfrwt beam="1">  1       21 0.28142133E-01 0.23601670E+03</pdfrwt>
<pdfrwt beam="2">  1       21 0.43283104E-01 0.23601670E+03</pdfrwt>
<totfact> 0.60753359E+04</totfact>
</mgrwt>
</event>
<event>
 4    0  0.1610009E-001  0.2468878E+03  0.7546771E-02  0.1115288E+00
         21   -1    0    0  502  501  0.00000000000E+00  0.00000000000E+00  0.25415677402E+03  0.25415677402E+03  0.00000000000E+00 0.  1.
         21   -1    0    0  503  502 -0.00000000000E+00 -0.00000000000E+00 -0.21340014404E+03  0.21340014404E+03  0.00000000000E+00 0.  1.
         25    1    1    2    0    0  0.19402431905E+03  0.87653680416E+02 -0.15408113940E+02  0.24736817509E+03  0.12500000000E+03 0.  0.
         21    1    1    2  503  501 -0.19402431905E+03 -0.87653680416E+02  0.56164743919E+02  0.22018874297E+03  0.00000000000E+00 0.  1.
<mgrwt>
<rscale>  3 0.24688784E+03</rscale>
<asrwt>0</asrwt>
<pdfrwt beam="1">  1       21 0.39101042E-01 0.24688784E+03</pdfrwt>
<pdfrwt beam="2">  1       21 0.32830792E-01 0.24688784E+03</pdfrwt>
<totfact> 0.55001140E+04</totfact>
</mgrwt>
</event>
<event>
 4    0  0.1348925E-001  0.2854058E+03  0.7546771E-02  0.1092773E+00
         21   -1    0    0  502  501  0.00000000000E+00  0.00000000000E+00  0.75929350371E+03  0.75929350371E+03  0.00000000000E+00 0. -1.
         21   -1    0    0  503  502 -0.00000000000E+00 -0.00000000000E+00 -0.20265655416E+03  0.20265655416E+03  0.00000000000E+00 0.  1.
         25    1    1    2    0    0 -0.13513607124E+03 -0.21810483166E+03 -0.62135505796E+02  0.29209124675E+03  0.12500000000E+03 0.  0.
         21    1    1    2  503  501  0.13513607124E+03  0.21810483166E+03  0.61877245535E+03  0.66985881112E+03  0.00000000000E+00 0. -1.
<mgrwt>
<rscale>  3 0.28540581E+03</rscale>
<asrwt>0</asrwt>
<pdfrwt beam="1">  1       21 0.11681438E+00 0.28540581E+03</pdfrwt>
<pdfrwt beam="2">  1       21 0.31177932E-01 0.28540581E+03</pdfrwt>
<totfact> 0.52420329E+03</totfact>
</mgrwt>
</event>
<event>
 4    0  0.1216313E-001  0.2596869E+03  0.7546771E-02  0.1107332E+00
         21   -1    0    0  503  501  0.00000000000E+00  0.00000000000E+00  0.20015055101E+03  0.20015055101E+03  0.00000000000E+00 0. -1.
         21   -1    0    0  501  502 -0.00000000000E+00 -0.00000000000E+00 -0.65030721737E+03  0.65030721737E+03  0.00000000000E+00 0. -1.
         25    1    1    2    0    0  0.31571992666E+02 -0.22542290059E+03 -0.54512334837E+03  0.60381846590E+03  0.12500000000E+03 0.  0.
         21    1    1    2  503  502 -0.31571992666E+02  0.22542290059E+03  0.94966682004E+02  0.24663930247E+03  0.00000000000E+00 0. -1.
<mgrwt>
<rscale>  3 0.25968688E+03</rscale>
<asrwt>0</asrwt>
<pdfrwt beam="1">  1       21 0.30792393E-01 0.25968688E+03</pdfrwt>
<pdfrwt beam="2">  1       21 0.10004726E+00 0.25968688E+03</pdfrwt>
<totfact> 0.79515431E+03</totfact>
</mgrwt>
</event>
<event>
 4    0  0.1082511E-001  0.2800973E+03  0.7546771E-02  0.1095636E+00
         21   -1    0    0  502  501  0.00000000000E+00  0.00000000000E+00  0.11398112058E+03  0.11398112058E+03  0.00000000000E+00 0.  1.
         21   -1    0    0  503  502 -0.00000000000E+00 -0.00000000000E+00 -0.25362237931E+04  0.25362237931E+04  0.00000000000E+00 0. -1.
         25    1    1    2    0    0  0.12514388709E+02 -0.25034552825E+03 -0.23794998095E+04  0.23959285960E+04  0.12500000000E+03 0.  0.
         21    1    1    2  503  501 -0.12514388709E+02  0.25034552825E+03 -0.42742863045E+02  0.25427631777E+03  0.00000000000E+00 0.  1.
<mgrwt>
<rscale>  3 0.28009729E+03</rscale>
<asrwt>0</asrwt>
<pdfrwt beam="1">  1       21 0.17535557E-01 0.28009729E+03</pdfrwt>
<pdfrwt beam="2">  1       21 0.39018827E+00 0.28009729E+03</pdfrwt>
<totfact> 0.26150045E+02</totfact>
</mgrwt>
</event>
<event>
 4    0  0.1153201E-001  0.2576652E+03  0.7546771E-02  0.1108554E+00
         21   -1    0    0  502  501  0.00000000000E+00  0.00000000000E+00  0.39642238382E+03  0.39642238382E+03  0.00000000000E+00 0.  1.
         21   -1    0    0  503  502 -0.00000000000E+00 -0.00000000000E+00 -0.58080133566E+03  0.58080133566E+03  0.00000000000E+00 0.  1.
         25    1    1    2    0    0 -0.11687301594E+03  0.19263188404E+03 -0.51573590722E+03  0.57651961858E+03  0.12500000000E+03 0.  0.
         21    1    1    2  503  501  0.11687301594E+03 -0.19263188404E+03  0.33135695538E+03  0.40070410090E+03  0.00000000000E+00 0.  1.
<mgrwt>
<rscale>  3 0.25766518E+03</rscale>
<asrwt>0</asrwt>
<pdfrwt beam="1">  1       21 0.60988059E-01 0.25766518E+03</pdfrwt>
<pdfrwt beam="2">  1       21 0.89354052E-01 0.25766518E+03</pdfrwt>
<totfact> 0.25418416E+03</totfact>
</mgrwt>
</event>
<event>
 4    0  0.1034185E-001  0.2464108E+03  0.7546771E-02  0.1115594E+00
         21   -1    0    0  502  501  0.00000000000E+00  0.00000000000E+00  0.97078024330E+02  0.97078024330E+02  0.00000000000E+00 0.  1.
         21   -1    0    0  503  502 -0.00000000000E+00 -0.00000000000E+00 -0.13784127059E+04  0.13784127059E+04  0.00000000000E+00 0.  1.
         25    1    1    2    0    0  0.18748588836E+03  0.99711129641E+02 -0.12334297511E+04  0.12578025356E+04  0.12500000000E+03 0.  0.
         21    1    1    2  503  501 -0.18748588836E+03 -0.99711129641E+02 -0.47904930469E+02  0.21768819461E+03  0.00000000000E+00 0.  1.
<mgrwt>
<rscale>  3 0.24641077E+03</rscale>
<asrwt>0</asrwt>
<pdfrwt beam="1">  1       21 0.14935082E-01 0.24641077E+03</pdfrwt>
<pdfrwt beam="2">  1       21 0.21206347E+00 0.24641077E+03</pdfrwt>
<totfact> 0.42494888E+03</totfact>
</mgrwt>
</event>
<event>
 4    0  0.1025636E-001  0.2631852E+03  0.7546771E-02  0.1105244E+00
         21   -1    0    0  503  501  0.00000000000E+00  0.00000000000E+00  0.19335526336E+03  0.19335526336E+03  0.00000000000E+00 0. -1.
         21   -1    0    0  501  502 -0.00000000000E+00 -0.00000000000E+00 -0.42010294314E+03  0.42010294314E+03  0.00000000000E+00 0. -1.
         25    1    1    2    0    0  0.23157463495E+03  0.38289888080E+01  0.33233023955E+02  0.26527515260E+03  0.12500000000E+03 0.  0.
         21    1    1    2  503  502 -0.23157463495E+03 -0.38289888080E+01 -0.25998070374E+03  0.34818305390E+03  0.00000000000E+00 0. -1.
<mgrwt>
<rscale>  3 0.26318524E+03</rscale>
<asrwt>0</asrwt>
<pdfrwt beam="1">  1       21 0.29746964E-01 0.26318524E+03</pdfrwt>
<pdfrwt beam="2">  1       21 0.64631221E-01 0.26318524E+03</pdfrwt>
<totfact> 0.23048953E+04</totfact>
</mgrwt>
</event>
<event>
 4    0  0.1170622E-001  0.2604949E+03  0.7546771E-02  0.1106846E+00
         21   -1    0    0  503  501  0.00000000000E+00  0.00000000000E+00  0.23880274404E+03  0.23880274404E+03  0.00000000000E+00 0.  1.
         21   -1    0    0  501  502 -0.00000000000E+00 -0.00000000000E+00 -0.70243769897E+03  0.70243769897E+03  0.00000000000E+00 0.  1.
         25    1    1    2    0    0 -0.18966286564E+03 -0.12751692776E+03 -0.61447179601E+03  0.66740778956E+03  0.12500000000E+03 0.  0.
         21    1    1    2  503  502  0.18966286564E+03  0.12751692776E+03  0.15083684109E+03  0.27383265345E+03  0.00000000000E+00 0.  1.
<mgrwt>
<rscale>  3 0.26049485E+03</rscale>
<asrwt>0</asrwt>
<pdfrwt beam="1">  1       21 0.36738883E-01 0.26049485E+03</pdfrwt>
<pdfrwt beam="2">  1       21 0.10806734E+00 0.26049485E+03</pdfrwt>
<totfact> 0.46417508E+03</totfact>
</mgrwt>
</event>
<event>
 4    0  0.1662556E-001  0.2604946E+03  0.7546771E-02  0.1106846E+00
         21   -1    0    0  503  501  0.00000000000E+00  0.00000000000E+00  0.22232249591E+03  0.22232249591E+03  0.00000000000E+00 0.  1.
         21   -1    0    0  501  502 -0.00000000000E+00 -0.00000000000E+00 -0.27627514971E+03  0.27627514971E+03  0.00000000000E+00 0.  1.
         25    1    1    2    0    0  0.20981320252E+03  0.90613743857E+02 -0.69249741790E+02  0.26954212522E+03  0.12500000000E+03 0.  0.
         21    1    1    2  503  502 -0.20981320252E+03 -0.90613743857E+02  0.15297087988E+02  0.22905552041E+03  0.00000000000E+00 0.  1.
<mgrwt>
<rscale>  3 0.26049459E+03</rscale>
<asrwt>0</asrwt>
<pdfrwt beam="1">  1       21 0.34203461E-01 0.26049459E+03</pdfrwt>
<pdfrwt beam="2">  1       21 0.42503870E-01 0.26049459E+03</pdfrwt>
<totfact> 0.42540690E+04</totfact>
</mgrwt>
</event>
<event>
 4    0  0.1491738E-001  0.2464709E+03  0.7546771E-02  0.1115556E+00
         21   -1    0    0  502  501  0.00000000000E+00  0.00000000000E+00  0.84072140009E+02  0.84072140009E+02  0.00000000000E+00 0. -1.
         21   -1    0    0  503  502 -0.00000000000E+00 -0.00000000000E+00 -0.63717876165E+03  0.63717876165E+03  0.00000000000E+00 0. -1.
         25    1    1    2    0    0 -0.14609285339E+03 -0.15420701264E+03 -0.34393848184E+03  0.42313308054E+03  0.12500000000E+03 0.  0.
         21    1    1    2  503  501  0.14609285339E+03  0.15420701264E+03 -0.20916813981E+03  0.29811782112E+03  0.00000000000E+00 0. -1.
<mgrwt>
<rscale>  3 0.24647094E+03</rscale>
<asrwt>0</asrwt>
<pdfrwt beam="1">  1       21 0.12934176E-01 0.24647094E+03</pdfrwt>
<pdfrwt beam="2">  1       21 0.98027501E-01 0.24647094E+03</pdfrwt>
<totfact> 0.43004651E+04</totfact>
</mgrwt>
</event>
<event>
 4    0  0.1329872E-001  0.2493856E+03  0.7546771E-02  0.1113694E+00
         21   -1    0    0  502  501  0.00000000000E+00  0.00000000000E+00  0.13900678803E+04  0.13900678803E+04  0.00000000000E+00 0. -1.
         21   -1    0    0  503  502 -0.00000000000E+00 -0.00000000000E+00 -0.47447363216E+02  0.47447363216E+02  0.00000000000E+00 0. -1.
         25    1    1    2    0    0  0.13676824292E+03 -0.16692106661E+03  0.40697757536E+03  0.47730906297E+03  0.12500000000E+03 0.  0.
         21    1    1    2  503  501 -0.13676824292E+03  0.16692106661E+03  0.93564294172E+03  0.96020618053E+03  0.00000000000E+00 0. -1.
<mgrwt>
<rscale>  3 0.24938563E+03</rscale>
<asrwt>0</asrwt>
<pdfrwt beam="1">  1       21 0.21385657E+00 0.24938563E+03</pdfrwt>
<pdfrwt beam="2">  1       21 0.72995954E-02 0.24938563E+03</pdfrwt>
<totfact> 0.14808695E+04</totfact>
</mgrwt>
</event>
<event>
 4    0  0.1159124E-001  0.4320756E+03  0.7546771E-02  0.1033206E+00
         21   -1    0    0  502  501  0.00000000000E+00  0.00000000000E+00  0.12385340854E+04  0.12385340854E+04  0.00000000000E+00 0. -1.
         21   -1    0    0  503  502 -0.00000000000E+00 -0.00000000000E+00 -0.27521888537E+03  0.27521888537E+03  0.00000000000E+00 0.  1.
         25    1    1    2    0    0  0.41270685815E+03  0.27154297637E+02 -0.34662994043E+02  0.43346375835E+03  0.12500000000E+03 0.  0.
         21    1    1    2  503  501 -0.41270685815E+03 -0.27154297637E+02  0.99797819408E+03  0.10802892124E+04  0.00000000000E+00 0. -1.
<mgrwt>
<rscale>  3 0.43207558E+03</rscale>
<asrwt>0</asrwt>
<pdfrwt beam="1">  1       21 0.19054370E+00 0.43207558E+03</pdfrwt>
<pdfrwt beam="2">  1       21 0.42341368E-01 0.43207558E+03</pdfrwt>
<totfact> 0.69561862E+02</totfact>
</mgrwt>
</event>
<event>
 4    0  0.1411795E-001  0.2721110E+03  0.7546771E-02  0.1100077E+00
         21   -1    0    0  503  501  0.00000000000E+00  0.00000000000E+00  0.66153866203E+03  0.66153866203E+03  0.00000000000E+00 0.  1.
         21   -1    0    0  501  502 -0.00000000000E+00 -0.00000000000E+00 -0.11514051649E+03  0.11514051649E+03  0.00000000000E+00 0.  1.
         25    1    1    2    0    0  0.11537258851E+03  0.21238778362E+03  0.14553143780E+03  0.30858354493E+03  0.12500000000E+03 0.  0.
         21    1    1    2  503  502 -0.11537258851E+03 -0.21238778362E+03  0.40086670774E+03  0.46809563359E+03  0.00000000000E+00 0.  1.
<mgrwt>
<rscale>  3 0.27211102E+03</rscale>
<asrwt>0</asrwt>
<pdfrwt beam="1">  1       21 0.10177518E+00 0.27211102E+03</pdfrwt>
<pdfrwt beam="2">  1       21 0.17713926E-01 0.27211102E+03</pdfrwt>
<totfact> 0.21826284E+04</totfact>
</mgrwt>
</event>
<event>
 4    0  0.1005289E-001  0.2706187E+03  0.7546771E-02  0.1100926E+00
         21   -1    0    0  503  501  0.00000000000E+00  0.00000000000E+00  0.12396335779E+04  0.12396335779E+04  0.00000000000E+00 0.  1.
         21   -1    0    0  501  502 -0.00000000000E+00 -0.00000000000E+00 -0.82148507598E+02  0.82148507598E+02  0.00000000000E+00 0. -1.
         25    1    1    2    0    0  0.16297531569E+03 -0.17620593537E+03  0.20494016287E+03  0.33946274544E+03  0.12500000000E+03 0.  0.
         21    1    1    2  503  502 -0.16297531569E+03  0.17620593537E+03  0.95254490739E+03  0.98231934002E+03  0.00000000000E+00 0.  1.
<mgrwt>
<rscale>  3 0.27061871E+03</rscale>
<asrwt>0</asrwt>
<pdfrwt beam="1">  1       21 0.19071284E+00 0.27061871E+03</pdfrwt>
<pdfrwt beam="2">  1       21 0.12638233E-01 0.27061871E+03</pdfrwt>
<totfact> 0.77920095E+03</totfact>
</mgrwt>
</event>
<event>
 4    0  0.1476380E-001  0.3054058E+03  0.7546771E-02  0.1082569E+00
         21   -1    0    0  503  501  0.00000000000E+00  0.00000000000E+00  0.12752666465E+03  0.12752666465E+03  0.00000000000E+00 0.  1.
         21   -1    0    0  501  502 -0.00000000000E+00 -0.00000000000E+00 -0.68895433613E+03  0.68895433613E+03  0.00000000000E+00 0.  1.
         25    1    1    2    0    0  0.24668217820E+03 -0.12959776680E+03 -0.36306358349E+03  0.47443423555E+03  0.12500000000E+03 0.  0.
         21    1    1    2  503  502 -0.24668217820E+03  0.12959776680E+03 -0.19836408798E+03  0.34204676523E+03  0.00000000000E+00 0.  1.
<mgrwt>
<rscale>  3 0.30540576E+03</rscale>
<asrwt>0</asrwt>
<pdfrwt beam="1">  1       21 0.19619487E-01 0.30540576E+03</pdfrwt>
<pdfrwt beam="2">  1       21 0.10599298E+00 0.30540576E+03</pdfrwt>
<totfact> 0.16100027E+04</totfact>
</mgrwt>
</event>
<event>
 4    0  0.1226111E-001  0.3284789E+03  0.7546771E-02  0.1071812E+00
         21   -1    0    0  502  501  0.00000000000E+00  0.00000000000E+00  0.13704968808E+03  0.13704968808E+03  0.00000000000E+00 0. -1.
         21   -1    0    0  503  502 -0.00000000000E+00 -0.00000000000E+00 -0.76488575893E+03  0.76488575893E+03  0.00000000000E+00 0. -1.
         25    1    1    2    0    0  0.11228679094E+03 -0.28224999343E+03 -0.22824450328E+03  0.39999241929E+03  0.12500000000E+03 0.  0.
         21    1    1    2  503  501 -0.11228679094E+03  0.28224999343E+03 -0.39959156757E+03  0.50194302772E+03  0.00000000000E+00 0. -1.
<mgrwt>
<rscale>  3 0.32847889E+03</rscale>
<asrwt>0</asrwt>
<pdfrwt beam="1">  1       21 0.21084567E-01 0.32847889E+03</pdfrwt>
<pdfrwt beam="2">  1       21 0.11767473E+00 0.32847889E+03</pdfrwt>
<totfact> 0.10752920E+04</totfact>
</mgrwt>
</event>
<event>
 4    0  0.1622018E-001  0.2771467E+03  0.7546771E-02  0.1097258E+00
         21   -1    0    0  503  501  0.00000000000E+00  0.00000000000E+00  0.18744225963E+03  0.18744225963E+03  0.00000000000E+00 0. -1.
         21   -1    0    0  501  502 -0.00000000000E+00 -0.00000000000E+00 -0.11882780759E+04  0.11882780759E+04  0.00000000000E+00 0.  1.
         25    1    1    2    0    0  0.13069377141E+03 -0.21001057612E+03 -0.10807931816E+04  0.11157617153E+04  0.12500000000E+03 0.  0.
         21    1    1    2  503  502 -0.13069377141E+03  0.21001057612E+03  0.79957365318E+02  0.25995862024E+03  0.00000000000E+00 0. -1.
<mgrwt>
<rscale>  3 0.27714672E+03</rscale>
<asrwt>0</asrwt>
<pdfrwt beam="1">  1       21 0.28837271E-01 0.27714672E+03</pdfrwt>
<pdfrwt beam="2">  1       21 0.18281201E+00 0.27714672E+03</pdfrwt>
<totfact> 0.18642188E+03</totfact>
</mgrwt>
</event>
<event>
 4    0  0.1005289E-001  0.2908691E+03  0.7546771E-02  0.1089896E+00
         21   -1    0    0  502  501  0.00000000000E+00  0.00000000000E+00  0.18043301364E+04  0.18043301364E+04  0.00000000000E+00 0. -1.
         21   -1    0    0  503  502 -0.00000000000E+00 -0.00000000000E+00 -0.68062150222E+02  0.68062150222E+02  0.00000000000E+00 0. -1.
         25    1    1    2    0    0 -0.21578308792E+03 -0.14972470635E+03  0.32191171495E+03  0.43385709738E+03  0.12500000000E+03 0.  0.
         21    1    1    2  503  501  0.21578308792E+03  0.14972470635E+03  0.14143562712E+04  0.14385351892E+04  0.00000000000E+00 0. -1.
<mgrwt>
<rscale>  3 0.29086909E+03</rscale>
<asrwt>0</asrwt>
<pdfrwt beam="1">  1       21 0.27758922E+00 0.29086909E+03</pdfrwt>
<pdfrwt beam="2">  1       21 0.10471101E-01 0.29086909E+03</pdfrwt>
<totfact> 0.31337909E+03</totfact>
</mgrwt>
</event>
<event>
 4    0  0.1109579E-001  0.2660975E+03  0.7546771E-02  0.1103534E+00
         21   -1    0    0  502  501  0.00000000000E+00  0.00000000000E+00  0.95077864976E+02  0.95077864976E+02  0.00000000000E+00 0.  1.
         21   -1    0    0  503  502 -0.00000000000E+00 -0.00000000000E+00 -0.19539434727E+04  0.19539434727E+04  0.00000000000E+00 0. -1.
         25    1    1    2    0    0 -0.22322055104E+03 -0.73181013528E+02 -0.17821430140E+04  0.18018994416E+04  0.12500000000E+03 0.  0.
         21    1    1    2  503  501  0.22322055104E+03  0.73181013528E+02 -0.76722593713E+02  0.24712189610E+03  0.00000000000E+00 0.  1.
<mgrwt>
<rscale>  3 0.26609749E+03</rscale>
<asrwt>0</asrwt>
<pdfrwt beam="1">  1       21 0.14627364E-01 0.26609749E+03</pdfrwt>
<pdfrwt beam="2">  1       21 0.30060668E+00 0.26609749E+03</pdfrwt>
<totfact> 0.12805278E+03</totfact>
</mgrwt>
</event>
<event>
 4    0  0.1436957E-001  0.2709041E+03  0.7546771E-02  0.1100763E+00
         21   -1    0    0  503  501  0.00000000000E+00  0.00000000000E+00  0.78635781750E+03  0.78635781750E+03  0.00000000000E+00 0.  1.
         21   -1    0    0  501  502 -0.00000000000E+00 -0.00000000000E+00 -0.10897537611E+03  0.10897537611E+03  0.00000000000E+00 0.  1.
         25    1    1    2    0    0 -0.22611795390E+03 -0.81453673222E+02  0.13627045944E+03  0.30324687645E+03  0.12500000000E+03 0.  0.
         21    1    1    2  503  502  0.22611795390E+03  0.81453673222E+02  0.54111198195E+03  0.59208631716E+03  0.00000000000E+00 0.  1.
<mgrwt>
<rscale>  3 0.27090410E+03</rscale>
<asrwt>0</asrwt>
<pdfrwt beam="1">  1       21 0.12097812E+00 0.27090410E+03</pdfrwt>
<pdfrwt beam="2">  1       21 0.16765443E-01 0.27090410E+03</pdfrwt>
<totfact> 0.15830571E+04</totfact>
</mgrwt>
</event>
<event>
 4    0  0.1329047E-001  0.2466677E+03  0.7546771E-02  0.1115429E+00
         21   -1    0    0  502  501  0.00000000000E+00  0.00000000000E+00  0.44145085050E+03  0.44145085050E+03  0.00000000000E+00 0. -1.
         21   -1    0    0  503  502 -0.00000000000E+00 -0.00000000000E+00 -0.28150792524E+03  0.28150792524E+03  0.00000000000E+00 0.  1.
         25    1    1    2    0    0  0.19409117122E+03  0.86882616288E+02 -0.19143951770E+03  0.31224038928E+03  0.12500000000E+03 0.  0.
         21    1    1    2  503  501 -0.19409117122E+03 -0.86882616288E+02  0.35138244296E+03  0.41071838647E+03  0.00000000000E+00 0. -1.
<mgrwt>
<rscale>  3 0.24666774E+03</rscale>
<asrwt>0</asrwt>
<pdfrwt beam="1">  1       21 0.67915516E-01 0.24666774E+03</pdfrwt>
<pdfrwt beam="2">  1       21 0.43308911E-01 0.24666774E+03</pdfrwt>
<totfact> 0.98095519E+03</totfact>
</mgrwt>
</event>
<event>
 4    0  0.1005289E-001  0.2739980E+03  0.7546771E-02  0.1099013E+00
         21   -1    0    0  503  501  0.00000000000E+00  0.00000000000E+00  0.54916068257E+02  0.54916068257E+02  0.00000000000E+00 0. -1.
         21   -1    0    0  501  502 -0.00000000000E+00 -0.00000000000E+00 -0.18068345068E+04  0.18068345068E+04  0.00000000000E+00 0. -1.
         25    1    1    2    0    0  0.10308886372E+03  0.22095829995E+03 -0.14400352764E+04  0.14658705541E+04  0.12500000000E+03 0.  0.
         21    1    1    2  503  502 -0.10308886372E+03 -0.22095829995E+03 -0.31188316207E+03  0.39588002087E+03  0.00000000000E+00 0. -1.
<mgrwt>
<rscale>  3 0.27399796E+03</rscale>
<asrwt>0</asrwt>
<pdfrwt beam="1">  1       21 0.84486265E-02 0.27399796E+03</pdfrwt>
<pdfrwt beam="2">  1       21 0.27797452E+00 0.27399796E+03</pdfrwt>
<totfact> 0.46218925E+03</totfact>
</mgrwt>
</event>
<event>
 4    0  0.1448047E-001  0.3363789E+03  0.7546771E-02  0.1068349E+00
         21   -1    0    0  502  501  0.00000000000E+00  0.00000000000E+00  0.18520213589E+03  0.18520213589E+03  0.00000000000E+00 0. -1.
         21   -1    0    0  503  502 -0.00000000000E+00 -0.00000000000E+00 -0.58079944245E+03  0.58079944245E+03  0.00000000000E+00 0. -1.
         25    1    1    2    0    0 -0.68217799249E+02 -0.30474923338E+03 -0.14814410345E+03  0.36755603487E+03  0.12500000000E+03 0.  0.
         21    1    1    2  503  501  0.68217799249E+02  0.30474923338E+03 -0.24745320312E+03  0.39844554347E+03  0.00000000000E+00 0. -1.
<mgrwt>
<rscale>  3 0.33637890E+03</rscale>
<asrwt>0</asrwt>
<pdfrwt beam="1">  1       21 0.28492637E-01 0.33637890E+03</pdfrwt>
<pdfrwt beam="2">  1       21 0.89353760E-01 0.33637890E+03</pdfrwt>
<totfact> 0.11676081E+04</totfact>
</mgrwt>
</event>
<event>
 4    0  0.1005289E-001  0.4174985E+03  0.7546771E-02  0.1037884E+00
         21   -1    0    0  502  501  0.00000000000E+00  0.00000000000E+00  0.21851029599E+04  0.21851029599E+04  0.00000000000E+00 0.  1.
         21   -1    0    0  503  502 -0.00000000000E+00 -0.00000000000E+00 -0.11985522441E+03  0.11985522441E+03  0.00000000000E+00 0.  1.
         25    1    1    2    0    0  0.38863633745E+03  0.87417291515E+02  0.35222739304E+03  0.54623174757E+03  0.12500000000E+03 0.  0.
         21    1    1    2  503  501 -0.38863633745E+03 -0.87417291515E+02  0.17130203425E+04  0.17587264368E+04  0.00000000000E+00 0.  1.
<mgrwt>
<rscale>  3 0.41749849E+03</rscale>
<asrwt>0</asrwt>
<pdfrwt beam="1">  1       21 0.33616966E+00 0.41749849E+03</pdfrwt>
<pdfrwt beam="2">  1       21 0.18439267E-01 0.41749849E+03</pdfrwt>
<totfact> 0.45418867E+02</totfact>
</mgrwt>
</event>
<event>
 4    0  0.1226932E-001  0.2737786E+03  0.7546771E-02  0.1099136E+00
         21   -1    0    0  502  501  0.00000000000E+00  0.00000000000E+00  0.15468093806E+03  0.15468093806E+03  0.00000000000E+00 0.  1.
         21   -1    0    0  503  502 -0.00000000000E+00 -0.00000000000E+00 -0.47427027139E+03  0.47427027139E+03  0.00000000000E+00 0.  1.
         25    1    1    2    0    0 -0.14179751874E+03 -0.19804840597E+03 -0.75227203664E+02  0.28392576424E+03  0.12500000000E+03 0.  0.
         21    1    1    2  503  501  0.14179751874E+03  0.19804840597E+03 -0.24436212966E+03  0.34502544521E+03  0.00000000000E+00 0.  1.
<mgrwt>
<rscale>  3 0.27377857E+03</rscale>
<asrwt>0</asrwt>
<pdfrwt beam="1">  1       21 0.23797067E-01 0.27377857E+03</pdfrwt>
<pdfrwt beam="2">  1       21 0.72964657E-01 0.27377857E+03</pdfrwt>
<totfact> 0.27022311E+04</totfact>
</mgrwt>
</event>
<event>
 4    0  0.1176692E-001  0.2479625E+03  0.7546771E-02  0.1114599E+00
         21   -1    0    0  502  501  0.00000000000E+00  0.00000000000E+00  0.13236868951E+03  0.13236868951E+03  0.00000000000E+00 0.  1.
         21   -1    0    0  503  502 -0.00000000000E+00 -0.00000000000E+00 -0.75399669103E+03  0.75399669103E+03  0.00000000000E+00 0. -1.
         25    1    1    2    0    0 -0.14796288387E+03 -0.15481411778E+03 -0.62478490047E+03  0.67219163780E+03  0.12500000000E+03 0.  0.
         21    1    1    2  503  501  0.14796288387E+03  0.15481411778E+03  0.31568989408E+01  0.21417374274E+03  0.00000000000E+00 0.  1.
<mgrwt>
<rscale>  3 0.24796255E+03</rscale>
<asrwt>0</asrwt>
<pdfrwt beam="1">  1       21 0.20364414E-01 0.24796255E+03</pdfrwt>
<pdfrwt beam="2">  1       21 0.11599949E+00 0.24796255E+03</pdfrwt>
<totfact> 0.12371892E+04</totfact>
</mgrwt>
</event>
<event>
 4    0  0.1005289E-001  0.4624434E+03  0.7546771E-02  0.1024075E+00
         21   -1    0    0  502  501  0.00000000000E+00  0.00000000000E+00  0.89829104872E+03  0.89829104872E+03  0.00000000000E+00 0. -1.
         21   -1    0    0  503  502 -0.00000000000E+00 -0.00000000000E+00 -0.59531748468E+03  0.59531748468E+03  0.00000000000E+00 0. -1.
         25    1    1    2    0    0  0.44522448299E+03 -0.20257030096E+01 -0.43295186720E+03  0.63348343549E+03  0.12500000000E+03 0.  0.
         21    1    1    2  503  501 -0.44522448299E+03  0.20257030096E+01  0.73592543124E+03  0.86012509792E+03  0.00000000000E+00 0. -1.
<mgrwt>
<rscale>  3 0.46244345E+03</rscale>
<asrwt>0</asrwt>
<pdfrwt beam="1">  1       21 0.13819862E+00 0.46244345E+03</pdfrwt>
<pdfrwt beam="2">  1       21 0.91587305E-01 0.46244345E+03</pdfrwt>
<totfact> 0.30635986E+02</totfact>
</mgrwt>
</event>
<event>
 4    0  0.1090079E-001  0.3255117E+03  0.7546771E-02  0.1073140E+00
         21   -1    0    0  502  501  0.00000000000E+00  0.00000000000E+00  0.50071289323E+03  0.50071289323E+03  0.00000000000E+00 0. -1.
         21   -1    0    0  503  502 -0.00000000000E+00 -0.00000000000E+00 -0.49474284544E+03  0.49474284544E+03  0.00000000000E+00 0. -1.
         25    1    1    2    0    0  0.27581144893E+03 -0.11941907560E+03 -0.38380860879E+03  0.50325631557E+03  0.12500000000E+03 0.  0.
         21    1    1    2  503  501 -0.27581144893E+03  0.11941907560E+03  0.38977865657E+03  0.49219942310E+03  0.00000000000E+00 0. -1.
<mgrwt>
<rscale>  3 0.32551171E+03</rscale>
<asrwt>0</asrwt>
<pdfrwt beam="1">  1       21 0.77032753E-01 0.32551171E+03</pdfrwt>
<pdfrwt beam="2">  1       21 0.76114284E-01 0.32551171E+03</pdfrwt>
<totfact> 0.21018990E+03</totfact>
</mgrwt>
</event>
<event>
 4    0  0.1005289E-001  0.3136922E+03  0.7546771E-02  0.1078589E+00
         21   -1    0    0  502  501  0.00000000000E+00  0.00000000000E+00  0.44716834475E+02  0.44716834475E+02  0.00000000000E+00 0.  1.
         21   -1    0    0  503  502 -0.00000000000E+00 -0.00000000000E+00 -0.21305775282E+04  0.21305775282E+04  0.00000000000E+00 0.  1.
         25    1    1    2    0    0  0.40734266192E+02 -0.28481314335E+03 -0.84048010802E+03  0.89711182082E+03  0.12500000000E+03 0.  0.
         21    1    1    2  503  501 -0.40734266192E+02  0.28481314335E+03 -0.12453805857E+04  0.12781825419E+04  0.00000000000E+00 0.  1.
<mgrwt>
<rscale>  3 0.31369222E+03</rscale>
<asrwt>0</asrwt>
<pdfrwt beam="1">  1       21 0.68795150E-02 0.31369222E+03</pdfrwt>
<pdfrwt beam="2">  1       21 0.32778106E+00 0.31369222E+03</pdfrwt>
<totfact> 0.32661283E+03</totfact>
</mgrwt>
</event>
<event>
 4    0  0.1383159E-001  0.2605841E+03  0.7546771E-02  0.1106793E+00
         21   -1    0    0  503  501  0.00000000000E+00  0.00000000000E+00  0.14112570426E+03  0.14112570426E+03  0.00000000000E+00 0. -1.
         21   -1    0    0  501  502 -0.00000000000E+00 -0.00000000000E+00 -0.58864079544E+03  0.58864079544E+03  0.00000000000E+00 0. -1.
         25    1    1    2    0    0 -0.12378479649E+03 -0.19224044961E+03 -0.42695919977E+03  0.50019818530E+03  0.12500000000E+03 0.  0.
         21    1    1    2  503  502  0.12378479649E+03  0.19224044961E+03 -0.20555891405E+02  0.22956831441E+03  0.00000000000E+00 0. -1.
<mgrwt>
<rscale>  3 0.26058409E+03</rscale>
<asrwt>0</asrwt>
<pdfrwt beam="1">  1       21 0.21711647E-01 0.26058409E+03</pdfrwt>
<pdfrwt beam="2">  1       21 0.90560122E-01 0.26058409E+03</pdfrwt>
<totfact> 0.19745899E+04</totfact>
</mgrwt>
</event>
<event>
 4    0  0.1175291E-001  0.3046442E+03  0.7546771E-02  0.1082942E+00
         21   -1    0    0  503  501  0.00000000000E+00  0.00000000000E+00  0.15633884730E+04  0.15633884730E+04  0.00000000000E+00 0.  1.
         21   -1    0    0  501  502 -0.00000000000E+00 -0.00000000000E+00 -0.58401804734E+02  0.58401804734E+02  0.00000000000E+00 0.  1.
         25    1    1    2    0    0  0.18281279898E+03 -0.20919508402E+03  0.56872406863E+03  0.64517840082E+03  0.12500000000E+03 0.  0.
         21    1    1    2  503  502 -0.18281279898E+03  0.20919508402E+03  0.93626259963E+03  0.97661187691E+03  0.00000000000E+00 0.  1.
<mgrwt>
<rscale>  3 0.30464422E+03</rscale>
<asrwt>0</asrwt>
<pdfrwt beam="1">  1       21 0.24052127E+00 0.30464422E+03</pdfrwt>
<pdfrwt beam="2">  1       21 0.89848942E-02 0.30464422E+03</pdfrwt>
<totfact> 0.67926160E+03</totfact>
</mgrwt>
</event>
<event>
 4    0  0.1430786E-001  0.3397846E+03  0.7546771E-02  0.1066888E+00
         21   -1    0    0  502  501  0.00000000000E+00  0.00000000000E+00  0.19902551781E+03  0.19902551781E+03  0.00000000000E+00 0.  1.
         21   -1    0    0  503  502 -0.00000000000E+00 -0.00000000000E+00 -0.59508518086E+03  0.59508518086E+03  0.00000000000E+00 0.  1.
         25    1    1    2    0    0 -0.31509638764E+03 -0.23298509029E+02 -0.32515253218E+03  0.47029535742E+03  0.12500000000E+03 0.  0.
         21    1    1    2  503  501  0.31509638764E+03  0.23298509029E+02 -0.70907130877E+02  0.32381534126E+03  0.00000000000E+00 0.  1.
<mgrwt>
<rscale>  3 0.33978457E+03</rscale>
<asrwt>0</asrwt>
<pdfrwt beam="1">  1       21 0.30619310E-01 0.33978457E+03</pdfrwt>
<pdfrwt beam="2">  1       21 0.91551566E-01 0.33978457E+03</pdfrwt>
<totfact> 0.95551094E+03</totfact>
</mgrwt>
</event>
<event>
 4    0  0.1154436E-001  0.2734873E+03  0.7546771E-02  0.1099300E+00
         21   -1    0    0  502  501  0.00000000000E+00  0.00000000000E+00  0.20652555434E+03  0.20652555434E+03  0.00000000000E+00 0.  1.
         21   -1    0    0  503  502 -0.00000000000E+00 -0.00000000000E+00 -0.35496120509E+03  0.35496120509E+03  0.00000000000E+00 0.  1.
         25    1    1    2    0    0  0.13426862467E+03  0.20283554365E+03  0.56417233549E+01  0.27354551793E+03  0.12500000000E+03 0.  0.
         21    1    1    2  503  501 -0.13426862467E+03 -0.20283554365E+03 -0.15407737410E+03  0.28794124149E+03  0.00000000000E+00 0.  1.
<mgrwt>
<rscale>  3 0.27348733E+03</rscale>
<asrwt>0</asrwt>
<pdfrwt beam="1">  1       21 0.31773162E-01 0.27348733E+03</pdfrwt>
<pdfrwt beam="2">  1       21 0.54609416E-01 0.27348733E+03</pdfrwt>
<totfact> 0.29009113E+04</totfact>
</mgrwt>
</event>
<event>
 4    0  0.1668372E-001  0.2930585E+03  0.7546771E-02  0.1088763E+00
         21   -1    0    0  503  501  0.00000000000E+00  0.00000000000E+00  0.34764025687E+03  0.34764025687E+03  0.00000000000E+00 0. -1.
         21   -1    0    0  501  502 -0.00000000000E+00 -0.00000000000E+00 -0.22407251797E+03  0.22407251797E+03  0.00000000000E+00 0. -1.
         25    1    1    2    0    0 -0.14000641468E+03  0.22506990798E+03  0.60105177932E+02  0.29915864026E+03  0.12500000000E+03 0.  0.
         21    1    1    2  503  502  0.14000641468E+03 -0.22506990798E+03  0.63462560964E+02  0.27255413457E+03  0.00000000000E+00 0. -1.
<mgrwt>
<rscale>  3 0.29305846E+03</rscale>
<asrwt>0</asrwt>
<pdfrwt beam="1">  1       21 0.53483117E-01 0.29305846E+03</pdfrwt>
<pdfrwt beam="2">  1       21 0.34472695E-01 0.29305846E+03</pdfrwt>
<totfact> 0.25584538E+04</totfact>
</mgrwt>
</event>
<event>
 4    0  0.1005289E-001  0.2402753E+03  0.7546771E-02  0.1119610E+00
         21   -1    0    0  503  501  0.00000000000E+00  0.00000000000E+00  0.19338539634E+04  0.19338539634E+04  0.00000000000E+00 0. -1.
         21   -1    0    0  501  502 -0.00000000000E+00 -0.00000000000E+00 -0.32686287370E+02  0.32686287370E+02  0.00000000000E+00 0. -1.
         25    1    1    2    0    0 -0.49828259381E+02  0.19905865392E+03  0.14642762021E+04  0.14838588205E+04  0.12500000000E+03 0.  0.
         21    1    1    2  503  502  0.49828259381E+02 -0.19905865392E+03  0.43689147391E+03  0.48268143025E+03  0.00000000000E+00 0. -1.
<mgrwt>
<rscale>  3 0.24027527E+03</rscale>
<asrwt>0</asrwt>
<pdfrwt beam="1">  1       21 0.29751591E+00 0.24027527E+03</pdfrwt>
<pdfrwt beam="2">  1       21 0.50286611E-02 0.24027527E+03</pdfrwt>
<totfact> 0.89680933E+03</totfact>
</mgrwt>
</event>
<event>
 4    0  0.1401163E-001  0.2400082E+03  0.7546771E-02  0.1119787E+00
         21   -1    0    0  502  501  0.00000000000E+00  0.00000000000E+00  0.24424396949E+03  0.24424396949E+03  0.00000000000E+00 0. -1.
         21   -1    0    0  503  502 -0.00000000000E+00 -0.00000000000E+00 -0.33179552330E+03  0.33179552330E+03  0.00000000000E+00 0. -1.
         25    1    1    2    0    0 -0.19617669695E+03 -0.59106909183E+02 -0.22527170790E+03  0.32916753412E+03  0.12500000000E+03 0.  0.
         21    1    1    2  503  501  0.19617669695E+03  0.59106909183E+02  0.13772015408E+03  0.24687195867E+03  0.00000000000E+00 0. -1.
<mgrwt>
<rscale>  3 0.24000817E+03</rscale>
<asrwt>0</asrwt>
<pdfrwt beam="1">  1       21 0.37575995E-01 0.24000817E+03</pdfrwt>
<pdfrwt beam="2">  1       21 0.51045465E-01 0.24000817E+03</pdfrwt>
<totfact> 0.24302338E+04</totfact>
</mgrwt>
</event>
<event>
 4    0  0.1005289E-001  0.5601726E+03  0.7546771E-02  0.9991664E-01
         21   -1    0    0  503  501  0.00000000000E+00  0.00000000000E+00  0.27622934903E+03  0.27622934903E+03  0.00000000000E+00 0. -1.
         21   -1    0    0  501  502 -0.00000000000E+00 -0.00000000000E+00 -0.15775765701E+04  0.15775765701E+04  0.00000000000E+00 0. -1.
         25    1    1    2    0    0 -0.52627004880E+03 -0.14563033119E+03 -0.11624320179E+04  0.12903648918E+04  0.12500000000E+03 0.  0.
         21    1    1    2  503  502  0.52627004880E+03  0.14563033119E+03 -0.13891520311E+03  0.56344102733E+03  0.00000000000E+00 0. -1.
<mgrwt>
<rscale>  3 0.56017261E+03</rscale>
<asrwt>0</asrwt>
<pdfrwt beam="1">  1       21 0.42496823E-01 0.56017261E+03</pdfrwt>
<pdfrwt beam="2">  1       21 0.24270409E+00 0.56017261E+03</pdfrwt>
<totfact> 0.29864943E+02</totfact>
</mgrwt>
</event>
<event>
 4    0  0.1602582E-001  0.3863653E+03  0.7546771E-02  0.1048606E+00
         21   -1    0    0  502  501  0.00000000000E+00  0.00000000000E+00  0.31934387045E+03  0.31934387045E+03  0.00000000000E+00 0. -1.
         21   -1    0    0  503  502 -0.00000000000E+00 -0.00000000000E+00 -0.44265353807E+03  0.44265353807E+03  0.00000000000E+00 0. -1.
         25    1    1    2    0    0 -0.33878683165E+03 -0.13739228693E+03 -0.62355371948E+02  0.39136472787E+03  0.12500000000E+03 0.  0.
         21    1    1    2  503  501  0.33878683165E+03  0.13739228693E+03 -0.60954295665E+02  0.37063268065E+03  0.00000000000E+00 0. -1.
<mgrwt>
<rscale>  3 0.38636532E+03</rscale>
<asrwt>0</asrwt>
<pdfrwt beam="1">  1       21 0.49129826E-01 0.38636532E+03</pdfrwt>
<pdfrwt beam="2">  1       21 0.68100544E-01 0.38636532E+03</pdfrwt>
<totfact> 0.70407364E+03</totfact>
</mgrwt>
</event>
<event>
 4    0  0.1586570E-001  0.2935269E+03  0.7546771E-02  0.1088522E+00
         21   -1    0    0  502  501  0.00000000000E+00  0.00000000000E+00  0.23921869839E+03  0.23921869839E+03  0.00000000000E+00 0. -1.
         21   -1    0    0  503  502 -0.00000000000E+00 -0.00000000000E+00 -0.93024041199E+03  0.93024041199E+03  0.00000000000E+00 0.  1.
         25    1    1    2    0    0  0.15629752059E+03  0.21471865112E+03 -0.82236209204E+03  0.87317662847E+03  0.12500000000E+03 0.  0.
         21    1    1    2  503  501 -0.15629752059E+03 -0.21471865112E+03  0.13134037844E+03  0.29628248191E+03  0.00000000000E+00 0. -1.
<mgrwt>
<rscale>  3 0.29352685E+03</rscale>
<asrwt>0</asrwt>
<pdfrwt beam="1">  1       21 0.36802876E-01 0.29352685E+03</pdfrwt>
<pdfrwt beam="2">  1       21 0.14311391E+00 0.29352685E+03</pdfrwt>
<totfact> 0.22282666E+03</totfact>
</mgrwt>
</event>
<event>
 4    0  0.1005289E-001  0.2574425E+03  0.7546771E-02  0.1108690E+00
         21   -1    0    0  502  501  0.00000000000E+00  0.00000000000E+00  0.84666304366E+02  0.84666304366E+02  0.00000000000E+00 0.  1.
         21   -1    0    0  503  502 -0.00000000000E+00 -0.00000000000E+00 -0.89451334940E+03  0.89451334940E+03  0.00000000000E+00 0. -1.
         25    1    1    2    0    0  0.11547417380E+03 -0.19317694694E+03 -0.66096733845E+03  0.70933380022E+03  0.12500000000E+03 0.  0.
         21    1    1    2  503  501 -0.11547417380E+03  0.19317694694E+03 -0.14887970659E+03  0.26984585355E+03  0.00000000000E+00 0.  1.
<mgrwt>
<rscale>  3 0.25744246E+03</rscale>
<asrwt>0</asrwt>
<pdfrwt beam="1">  1       21 0.13025585E-01 0.25744246E+03</pdfrwt>
<pdfrwt beam="2">  1       21 0.13761744E+00 0.25744246E+03</pdfrwt>
<totfact> 0.18226521E+04</totfact>
</mgrwt>
</event>
<event>
 4    0  0.1633547E-001  0.2523079E+03  0.7546771E-02  0.1111855E+00
         21   -1    0    0  502  501  0.00000000000E+00  0.00000000000E+00  0.12024455950E+03  0.12024455950E+03  0.00000000000E+00 0. -1.
         21   -1    0    0  503  502 -0.00000000000E+00 -0.00000000000E+00 -0.47860630767E+03  0.47860630767E+03  0.00000000000E+00 0. -1.
         25    1    1    2    0    0 -0.29924107327E+02 -0.21711478032E+03 -0.24671588715E+03  0.35288526323E+03  0.12500000000E+03 0.  0.
         21    1    1    2  503  501  0.29924107327E+02  0.21711478032E+03 -0.11164586101E+03  0.24596560393E+03  0.00000000000E+00 0. -1.
<mgrwt>
<rscale>  3 0.25230791E+03</rscale>
<asrwt>0</asrwt>
<pdfrwt beam="1">  1       21 0.18499163E-01 0.25230791E+03</pdfrwt>
<pdfrwt beam="2">  1       21 0.73631742E-01 0.25230791E+03</pdfrwt>
<totfact> 0.42999818E+04</totfact>
</mgrwt>
</event>
<event>
 4    0  0.1376494E-001  0.2861335E+03  0.7546771E-02  0.1092385E+00
         21   -1    0    0  503  501  0.00000000000E+00  0.00000000000E+00  0.36257701710E+03  0.36257701710E+03  0.00000000000E+00 0.  1.
         21   -1    0    0  501  502 -0.00000000000E+00 -0.00000000000E+00 -0.34774655330E+03  0.34774655330E+03  0.00000000000E+00 0. -1.
         25    1    1    2    0    0 -0.15947656508E+03  0.20202624222E+03 -0.22075992103E+03  0.36139634764E+03  0.12500000000E+03 0.  0.
         21    1    1    2  503  502  0.15947656508E+03 -0.20202624222E+03  0.23559038484E+03  0.34892722276E+03  0.00000000000E+00 0.  1.
<mgrwt>
<rscale>  3 0.28613350E+03</rscale>
<asrwt>0</asrwt>
<pdfrwt beam="1">  1       21 0.55781080E-01 0.28613350E+03</pdfrwt>
<pdfrwt beam="2">  1       21 0.53499470E-01 0.28613350E+03</pdfrwt>
<totfact> 0.94796977E+03</totfact>
</mgrwt>
</event>
<event>
 4    0  0.1005289E-001  0.3271510E+03  0.7546771E-02  0.1072404E+00
         21   -1    0    0  503  501  0.00000000000E+00  0.00000000000E+00  0.10451130283E+04  0.10451130283E+04  0.00000000000E+00 0. -1.
         21   -1    0    0  501  502 -0.00000000000E+00 -0.00000000000E+00 -0.42152095551E+03  0.42152095551E+03  0.00000000000E+00 0. -1.
         25    1    1    2    0    0 -0.29340489804E+03  0.72913152134E+02 -0.33095163114E+03  0.46535657737E+03  0.12500000000E+03 0.  0.
         21    1    1    2  503  502  0.29340489804E+03 -0.72913152134E+02  0.95454370395E+03  0.10012774065E+04  0.00000000000E+00 0. -1.
<mgrwt>
<rscale>  3 0.32715098E+03</rscale>
<asrwt>0</asrwt>
<pdfrwt beam="1">  1       21 0.16078662E+00 0.32715098E+03</pdfrwt>
<pdfrwt beam="2">  1       21 0.64849378E-01 0.32715098E+03</pdfrwt>
<totfact> 0.48347698E+02</totfact>
</mgrwt>
</event>
<event>
 4    0  0.1249596E-001  0.2578256E+03  0.7546771E-02  0.1108457E+00
         21   -1    0    0  503  501  0.00000000000E+00  0.00000000000E+00  0.43184237214E+03  0.43184237214E+03  0.00000000000E+00 0.  1.
         21   -1    0    0  501  502 -0.00000000000E+00 -0.00000000000E+00 -0.37168775337E+03  0.37168775337E+03  0.00000000000E+00 0.  1.
         25    1    1    2    0    0  0.22454836115E+03  0.20665782394E+02 -0.28937598415E+03  0.38757257547E+03  0.12500000000E+03 0.  0.
         21    1    1    2  503  502 -0.22454836115E+03 -0.20665782394E+02  0.34953060292E+03  0.41595755004E+03  0.00000000000E+00 0.  1.
<mgrwt>
<rscale>  3 0.25782560E+03</rscale>
<asrwt>0</asrwt>
<pdfrwt beam="1">  1       21 0.66437288E-01 0.25782560E+03</pdfrwt>
<pdfrwt beam="2">  1       21 0.57182731E-01 0.25782560E+03</pdfrwt>
<totfact> 0.57110083E+03</totfact>
</mgrwt>
</event>
<event>
 4    0  0.1126156E-001  0.2499575E+03  0.7546771E-02  0.1113332E+00
         21   -1    0    0  502  501  0.00000000000E+00  0.00000000000E+00  0.30526993704E+02  0.30526993704E+02  0.00000000000E+00 0.  1.
         21   -1    0    0  503  502 -0.00000000000E+00 -0.00000000000E+00 -0.21570668520E+04  0.21570668520E+04  0.00000000000E+00 0.  1.
         25    1    1    2    0    0 -0.18030255014E+03 -0.11976952264E+03 -0.15817378183E+04  0.16013660650E+04  0.12500000000E+03 0.  0.
         21    1    1    2  503  501  0.18030255014E+03  0.11976952264E+03 -0.54480204001E+03  0.58622778077E+03  0.00000000000E+00 0.  1.
<mgrwt>
<rscale>  3 0.24995749E+03</rscale>
<asrwt>0</asrwt>
<pdfrwt beam="1">  1       21 0.46964595E-02 0.24995749E+03</pdfrwt>
<pdfrwt beam="2">  1       21 0.33185651E+00 0.24995749E+03</pdfrwt>
<totfact> 0.62862940E+03</totfact>
</mgrwt>
</event>
<event>
 4    0  0.1399606E-001  0.2612256E+03  0.7546771E-02  0.1106409E+00
         21   -1    0    0  502  501  0.00000000000E+00  0.00000000000E+00  0.29664750445E+03  0.29664750445E+03  0.00000000000E+00 0. -1.
         21   -1    0    0  503  502 -0.00000000000E+00 -0.00000000000E+00 -0.31219417025E+03  0.31219417025E+03  0.00000000000E+00 0. -1.
         25    1    1    2    0    0 -0.22524536826E+03  0.43340051001E+02 -0.18802105601E+03  0.32185517464E+03  0.12500000000E+03 0.  0.
         21    1    1    2  503  501  0.22524536826E+03 -0.43340051001E+02  0.17247439021E+03  0.28698650006E+03  0.00000000000E+00 0. -1.
<mgrwt>
<rscale>  3 0.26122564E+03</rscale>
<asrwt>0</asrwt>
<pdfrwt beam="1">  1       21 0.45638078E-01 0.26122564E+03</pdfrwt>
<pdfrwt beam="2">  1       21 0.48029872E-01 0.26122564E+03</pdfrwt>
<totfact> 0.18375501E+04</totfact>
</mgrwt>
</event>
<event>
 4    0  0.1019342E-001  0.2362899E+03  0.7546771E-02  0.1122289E+00
         21   -1    0    0  503  501  0.00000000000E+00  0.00000000000E+00  0.11372005098E+03  0.11372005098E+03  0.00000000000E+00 0.  1.
         21   -1    0    0  501  502 -0.00000000000E+00 -0.00000000000E+00 -0.62068771984E+03  0.62068771984E+03  0.00000000000E+00 0. -1.
         25    1    1    2    0    0 -0.10393379374E+03 -0.17148089720E+03 -0.47612080896E+03  0.53152982636E+03  0.12500000000E+03 0.  0.
         21    1    1    2  503  502  0.10393379374E+03  0.17148089720E+03 -0.30846859895E+02  0.20287794447E+03  0.00000000000E+00 0.  1.
<mgrwt>
<rscale>  3 0.23628993E+03</rscale>
<asrwt>0</asrwt>
<pdfrwt beam="1">  1       21 0.17495392E-01 0.23628993E+03</pdfrwt>
<pdfrwt beam="2">  1       21 0.95490419E-01 0.23628993E+03</pdfrwt>
<totfact> 0.26441373E+04</totfact>
</mgrwt>
</event>
<event>
 4    0  0.1464138E-001  0.4486580E+03  0.7546771E-02  0.1028123E+00
         21   -1    0    0  502  501  0.00000000000E+00  0.00000000000E+00  0.71175411895E+03  0.71175411895E+03  0.00000000000E+00 0.  1.
         21   -1    0    0  503  502 -0.00000000000E+00 -0.00000000000E+00 -0.32944957173E+03  0.32944957173E+03  0.00000000000E+00 0.  1.
         25    1    1    2    0    0  0.47314550668E+02 -0.42828772706E+03 -0.23540614698E+02  0.44927519896E+03  0.12500000000E+03 0.  0.
         21    1    1    2  503  501 -0.47314550668E+02  0.42828772706E+03  0.40584516192E+03  0.59192849172E+03  0.00000000000E+00 0.  1.
<mgrwt>
<rscale>  3 0.44865805E+03</rscale>
<asrwt>0</asrwt>
<pdfrwt beam="1">  1       21 0.10950063E+00 0.44865805E+03</pdfrwt>
<pdfrwt beam="2">  1       21 0.50684550E-01 0.44865805E+03</pdfrwt>
<totfact> 0.21106685E+03</totfact>
</mgrwt>
</event>
<event>
 4    0  0.1005289E-001  0.2593685E+03  0.7546771E-02  0.1107523E+00
         21   -1    0    0  503  501  0.00000000000E+00  0.00000000000E+00  0.14105009558E+03  0.14105009558E+03  0.00000000000E+00 0. -1.
         21   -1    0    0  501  502 -0.00000000000E+00 -0.00000000000E+00 -0.55156682715E+03  0.55156682715E+03  0.00000000000E+00 0.  1.
         25    1    1    2    0    0  0.18162585118E+03 -0.13659828585E+03 -0.38459883707E+03  0.46388393698E+03  0.12500000000E+03 0.  0.
         21    1    1    2  503  502 -0.18162585118E+03  0.13659828585E+03 -0.25917894503E+02  0.22873298574E+03  0.00000000000E+00 0. -1.
<mgrwt>
<rscale>  3 0.25936854E+03</rscale>
<asrwt>0</asrwt>
<pdfrwt beam="1">  1       21 0.21700015E-01 0.25936854E+03</pdfrwt>
<pdfrwt beam="2">  1       21 0.84856435E-01 0.25936854E+03</pdfrwt>
<totfact> 0.23001265E+04</totfact>
</mgrwt>
</event>
<event>
 4    0  0.1628708E-001  0.2964515E+03  0.7546771E-02  0.1087028E+00
         21   -1    0    0  503  501  0.00000000000E+00  0.00000000000E+00  0.54309374573E+03  0.54309374573E+03  0.00000000000E+00 0.  1.
         21   -1    0    0  501  502 -0.00000000000E+00 -0.00000000000E+00 -0.35934148981E+03  0.35934148981E+03  0.00000000000E+00 0. -1.
         25    1    1    2    0    0 -0.15083065932E+03 -0.22250523412E+03 -0.25290365318E+03  0.38967130353E+03  0.12500000000E+03 0.  0.
         21    1    1    2  503  502  0.15083065932E+03  0.22250523412E+03  0.43665590911E+03  0.51276393200E+03  0.00000000000E+00 0.  1.
<mgrwt>
<rscale>  3 0.29645146E+03</rscale>
<asrwt>0</asrwt>
<pdfrwt beam="1">  1       21 0.83552884E-01 0.29645146E+03</pdfrwt>
<pdfrwt beam="2">  1       21 0.55283306E-01 0.29645146E+03</pdfrwt>
<totfact> 0.35851331E+03</totfact>
</mgrwt>
</event>
<event>
 4    0  0.1005289E-001  0.3130104E+03  0.7546771E-02  0.1078912E+00
         21   -1    0    0  502  501  0.00000000000E+00  0.00000000000E+00  0.48285280250E+03  0.48285280250E+03  0.00000000000E+00 0. -1.
         21   -1    0    0  503  502 -0.00000000000E+00 -0.00000000000E+00 -0.26937106402E+03  0.26937106402E+03  0.00000000000E+00 0.  1.
         25    1    1    2    0    0  0.29251438340E+02  0.28547300105E+03  0.31857705215E+03  0.44661708334E+03  0.12500000000E+03 0.  0.
         21    1    1    2  503  501 -0.29251438340E+02 -0.28547300105E+03 -0.10509531367E+03  0.30560678318E+03  0.00000000000E+00 0. -1.
<mgrwt>
<rscale>  3 0.31301035E+03</rscale>
<asrwt>0</asrwt>
<pdfrwt beam="1">  1       21 0.74285047E-01 0.31301035E+03</pdfrwt>
<pdfrwt beam="2">  1       21 0.41441702E-01 0.31301035E+03</pdfrwt>
<totfact> 0.85062670E+03</totfact>
</mgrwt>
</event>
<event>
 4    0  0.1325467E-001  0.3066660E+03  0.7546771E-02  0.1081955E+00
         21   -1    0    0  502  501  0.00000000000E+00  0.00000000000E+00  0.17619401085E+03  0.17619401085E+03  0.00000000000E+00 0. -1.
         21   -1    0    0  503  502 -0.00000000000E+00 -0.00000000000E+00 -0.50942680064E+03  0.50942680064E+03  0.00000000000E+00 0. -1.
         25    1    1    2    0    0  0.26829238253E+03  0.80238603218E+02 -0.10429977509E+03  0.32391739542E+03  0.12500000000E+03 0.  0.
         21    1    1    2  503  501 -0.26829238253E+03 -0.80238603218E+02 -0.22893301470E+03  0.36170341606E+03  0.00000000000E+00 0. -1.
<mgrwt>
<rscale>  3 0.30666600E+03</rscale>
<asrwt>0</asrwt>
<pdfrwt beam="1">  1       21 0.27106771E-01 0.30666600E+03</pdfrwt>
<pdfrwt beam="2">  1       21 0.78373354E-01 0.30666600E+03</pdfrwt>
<totfact> 0.17640019E+04</totfact>
</mgrwt>
</event>
<event>
 4    0  0.1005289E-001  0.2715315E+03  0.7546771E-02  0.1100406E+00
         21   -1    0    0  503  501  0.00000000000E+00  0.00000000000E+00  0.70228054504E+02  0.70228054504E+02  0.00000000000E+00 0. -1.
         21   -1    0    0  501  502 -0.00000000000E+00 -0.00000000000E+00 -0.16175119047E+04  0.16175119047E+04  0.00000000000E+00 0.  1.
         25    1    1    2    0    0 -0.18915650803E+02 -0.24030512401E+03 -0.13477224889E+04  0.13748037175E+04  0.12500000000E+03 0.  0.
         21    1    1    2  503  502  0.18915650803E+02  0.24030512401E+03 -0.19956136129E+03  0.31293624174E+03  0.00000000000E+00 0. -1.
<mgrwt>
<rscale>  3 0.27153150E+03</rscale>
<asrwt>0</asrwt>
<pdfrwt beam="1">  1       21 0.10804317E-01 0.27153150E+03</pdfrwt>
<pdfrwt beam="2">  1       21 0.24884796E+00 0.27153150E+03</pdfrwt>
<totfact> 0.44549772E+03</totfact>
</mgrwt>
</event>
<event>
 4    0  0.1267465E-001  0.3147784E+03  0.7546771E-02  0.1078078E+00
         21   -1    0    0  502  501  0.00000000000E+00  0.00000000000E+00  0.11841861478E+03  0.11841861478E+03  0.00000000000E+00 0. -1.
         21   -1    0    0  503  502 -0.00000000000E+00 -0.00000000000E+00 -0.10385758787E+04  0.10385758787E+04  0.00000000000E+00 0. -1.
         25    1    1    2    0    0 -0.36920495605E+02  0.28652628925E+03 -0.76902789551E+03  0.83095688306E+03  0.12500000000E+03 0.  0.
         21    1    1    2  503  501  0.36920495605E+02 -0.28652628925E+03 -0.15112936843E+03  0.32603761045E+03  0.00000000000E+00 0. -1.
<mgrwt>
<rscale>  3 0.31477839E+03</rscale>
<asrwt>0</asrwt>
<pdfrwt beam="1">  1       21 0.18218248E-01 0.31477839E+03</pdfrwt>
<pdfrwt beam="2">  1       21 0.15978091E+00 0.31477839E+03</pdfrwt>
<totfact> 0.64056871E+03</totfact>
</mgrwt>
</event>
<event>
 4    0  0.1469281E-001  0.3436525E+03  0.7546771E-02  0.1065251E+00
         21   -1    0    0  503  501  0.00000000000E+00  0.00000000000E+00  0.44270413444E+03  0.44270413444E+03  0.00000000000E+00 0.  1.
         21   -1    0    0  501  502 -0.00000000000E+00 -0.00000000000E+00 -0.24961707672E+03  0.24961707672E+03  0.00000000000E+00 0.  1.
         25    1    1    2    0    0  0.15903699970E+03 -0.27781164004E+03  0.11971432835E+03  0.36390739898E+03  0.12500000000E+03 0.  0.
         21    1    1    2  503  502 -0.15903699970E+03  0.27781164004E+03  0.73372729375E+02  0.32841381218E+03  0.00000000000E+00 0.  1.
<mgrwt>
<rscale>  3 0.34365255E+03</rscale>
<asrwt>0</asrwt>
<pdfrwt beam="1">  1       21 0.68108328E-01 0.34365255E+03</pdfrwt>
<pdfrwt beam="2">  1       21 0.38402627E-01 0.34365255E+03</pdfrwt>
<totfact> 0.11923394E+04</totfact>
</mgrwt>
</event>
<event>
 4    0  0.1267525E-001  0.5105245E+03  0.7546771E-02  0.1011068E+00
         21   -1    0    0  502  501  0.00000000000E+00  0.00000000000E+00  0.24557900099E+03  0.24557900099E+03  0.00000000000E+00 0. -1.
         21   -1    0    0  503  502 -0.00000000000E+00 -0.00000000000E+00 -0.12022724261E+04  0.12022724261E+04  0.00000000000E+00 0. -1.
         25    1    1    2    0    0  0.34221746275E+02 -0.49380071630E+03 -0.75927387114E+03  0.91494922632E+03  0.12500000000E+03 0.  0.
         21    1    1    2  503  501 -0.34221746275E+02  0.49380071630E+03 -0.19741955401E+03  0.53290220082E+03  0.00000000000E+00 0. -1.
<mgrwt>
<rscale>  3 0.51052451E+03</rscale>
<asrwt>0</asrwt>
<pdfrwt beam="1">  1       21 0.37781385E-01 0.51052451E+03</pdfrwt>
<pdfrwt beam="2">  1       21 0.18496499E+00 0.51052451E+03</pdfrwt>
<totfact> 0.92864547E+02</totfact>
</mgrwt>
</event>
<event>
 4    0  0.1391892E-001  0.3329494E+03  0.7546771E-02  0.1069839E+00
         21   -1    0    0  503  501  0.00000000000E+00  0.00000000000E+00  0.12632872415E+03  0.12632872415E+03  0.00000000000E+00 0.  1.
         21   -1    0    0  501  502 -0.00000000000E+00 -0.00000000000E+00 -0.97678107346E+03  0.97678107346E+03  0.00000000000E+00 0.  1.
         25    1    1    2    0    0 -0.18104512154E+03  0.24990585300E+03 -0.66336799557E+03  0.74223471284E+03  0.12500000000E+03 0.  0.
         21    1    1    2  503  502  0.18104512154E+03 -0.24990585300E+03 -0.18708435374E+03  0.36087508478E+03  0.00000000000E+00 0.  1.
<mgrwt>
<rscale>  3 0.33294935E+03</rscale>
<asrwt>0</asrwt>
<pdfrwt beam="1">  1       21 0.19435188E-01 0.33294935E+03</pdfrwt>
<pdfrwt beam="2">  1       21 0.15027401E+00 0.33294935E+03</pdfrwt>
<totfact> 0.66419306E+03</totfact>
</mgrwt>
</event>
<event>
 4    0  0.1005289E-001  0.2643777E+03  0.7546771E-02  0.1104541E+00
         21   -1    0    0  503  501  0.00000000000E+00  0.00000000000E+00  0.96836055576E+03  0.96836055576E+03  0.00000000000E+00 0. -1.
         21   -1    0    0  501  502 -0.00000000000E+00 -0.00000000000E+00 -0.90033096167E+02  0.90033096167E+02  0.00000000000E+00 0.  1.
         25    1    1    2    0    0 -0.63614924421E+02  0.22410642798E+03  0.17389865670E+03  0.31644318996E+03  0.12500000000E+03 0.  0.
         21    1    1    2  503  502  0.63614924421E+02 -0.22410642798E+03  0.70442880289E+03  0.74195046197E+03  0.00000000000E+00 0. -1.
<mgrwt>
<rscale>  3 0.26437766E+03</rscale>
<asrwt>0</asrwt>
<pdfrwt beam="1">  1       21 0.14897854E+00 0.26437766E+03</pdfrwt>
<pdfrwt beam="2">  1       21 0.13851246E-01 0.26437766E+03</pdfrwt>
<totfact> 0.13182632E+04</totfact>
</mgrwt>
</event>
<event>
 4    0  0.1005289E-001  0.2704825E+03  0.7546771E-02  0.1101004E+00
         21   -1    0    0  502  501  0.00000000000E+00  0.00000000000E+00  0.14211444595E+04  0.14211444595E+04  0.00000000000E+00 0. -1.
         21   -1    0    0  503  502 -0.00000000000E+00 -0.00000000000E+00 -0.20020860350E+03  0.20020860350E+03  0.00000000000E+00 0. -1.
         25    1    1    2    0    0 -0.41700851258E+02  0.23621348749E+03 -0.92754017133E+02  0.28594419099E+03  0.12500000000E+03 0.  0.
         21    1    1    2  503  501  0.41700851258E+02 -0.23621348749E+03  0.13136898732E+04  0.13354088720E+04  0.00000000000E+00 0. -1.
<mgrwt>
<rscale>  3 0.27048248E+03</rscale>
<asrwt>0</asrwt>
<pdfrwt beam="1">  1       21 0.21863760E+00 0.27048248E+03</pdfrwt>
<pdfrwt beam="2">  1       21 0.30801324E-01 0.27048248E+03</pdfrwt>
<totfact> 0.96095337E+02</totfact>
</mgrwt>
</event>
<event>
 4    0  0.1005289E-001  0.2669891E+03  0.7546771E-02  0.1103015E+00
         21   -1    0    0  503  501  0.00000000000E+00  0.00000000000E+00  0.19781633801E+04  0.19781633801E+04  0.00000000000E+00 0.  1.
         21   -1    0    0  501  502 -0.00000000000E+00 -0.00000000000E+00 -0.57007865795E+02  0.57007865795E+02  0.00000000000E+00 0.  1.
         25    1    1    2    0    0  0.11296592641E+03  0.20711563949E+03  0.32011167498E+03  0.41683890546E+03  0.12500000000E+03 0.  0.
         21    1    1    2  503  502 -0.11296592641E+03 -0.20711563949E+03  0.16010438394E+04  0.16183323405E+04  0.00000000000E+00 0.  1.
<mgrwt>
<rscale>  3 0.26698912E+03</rscale>
<asrwt>0</asrwt>
<pdfrwt beam="1">  1       21 0.30433278E+00 0.26698912E+03</pdfrwt>
<pdfrwt beam="2">  1       21 0.87704424E-02 0.26698912E+03</pdfrwt>
<totfact> 0.30487947E+03</totfact>
</mgrwt>
</event>
<event>
 4    0  0.1288417E-001  0.3150238E+03  0.7546771E-02  0.1077963E+00
         21   -1    0    0  502  501  0.00000000000E+00  0.00000000000E+00  0.81616679785E+02  0.81616679785E+02  0.00000000000E+00 0.  1.
         21   -1    0    0  503  502 -0.00000000000E+00 -0.00000000000E+00 -0.12016663123E+04  0.12016663123E+04  0.00000000000E+00 0.  1.
         25    1    1    2    0    0 -0.27038911139E+03 -0.10249261253E+03 -0.75133355814E+03  0.81470370244E+03  0.12500000000E+03 0.  0.
         21    1    1    2  503  501  0.27038911139E+03  0.10249261253E+03 -0.36871607437E+03  0.46857928964E+03  0.00000000000E+00 0.  1.
<mgrwt>
<rscale>  3 0.31502382E+03</rscale>
<asrwt>0</asrwt>
<pdfrwt beam="1">  1       21 0.12556413E-01 0.31502382E+03</pdfrwt>
<pdfrwt beam="2">  1       21 0.18487174E+00 0.31502382E+03</pdfrwt>
<totfact> 0.84211090E+03</totfact>
</mgrwt>
</event>
<event>
 4    0  0.1239776E-001  0.2461897E+03  0.7546771E-02  0.1115737E+00
         21   -1    0    0  502  501  0.00000000000E+00  0.00000000000E+00  0.37867540535E+03  0.37867540535E+03  0.00000000000E+00 0.  1.
         21   -1    0    0  503  502 -0.00000000000E+00 -0.00000000000E+00 -0.21182676575E+03  0.21182676575E+03  0.00000000000E+00 0. -1.
         25    1    1    2    0    0  0.11264594568E+03 -0.17970879147E+03 -0.85724598868E+02  0.26068767838E+03  0.12500000000E+03 0.  0.
         21    1    1    2  503  501 -0.11264594568E+03  0.17970879147E+03  0.25257323847E+03  0.32981449271E+03  0.00000000000E+00 0.  1.
<mgrwt>
<rscale>  3 0.24618968E+03</rscale>
<asrwt>0</asrwt>
<pdfrwt beam="1">  1       21 0.58257755E-01 0.24618968E+03</pdfrwt>
<pdfrwt beam="2">  1       21 0.32588733E-01 0.24618968E+03</pdfrwt>
<totfact> 0.24312076E+04</totfact>
</mgrwt>
</event>
<event>
 4    0  0.1522945E-001  0.2489647E+03  0.7546771E-02  0.1113961E+00
         21   -1    0    0  502  501  0.00000000000E+00  0.00000000000E+00  0.58118672539E+03  0.58118672539E+03  0.00000000000E+00 0.  1.
         21   -1    0    0  503  502 -0.00000000000E+00 -0.00000000000E+00 -0.95074272267E+02  0.95074272267E+02  0.00000000000E+00 0.  1.
         25    1    1    2    0    0  0.21473981269E+03 -0.15659862820E+02  0.20716923786E+03  0.32388657208E+03  0.12500000000E+03 0.  0.
         21    1    1    2  503  501 -0.21473981269E+03  0.15659862820E+02  0.27894321526E+03  0.35237442558E+03  0.00000000000E+00 0.  1.
<mgrwt>
<rscale>  3 0.24896469E+03</rscale>
<asrwt>0</asrwt>
<pdfrwt beam="1">  1       21 0.89413340E-01 0.24896469E+03</pdfrwt>
<pdfrwt beam="2">  1       21 0.14626812E-01 0.24896469E+03</pdfrwt>
<totfact> 0.42638841E+04</totfact>
</mgrwt>
</event>
<event>
 4    0  0.1659569E-001  0.2563573E+03  0.7546771E-02  0.1109352E+00
         21   -1    0    0  503  501  0.00000000000E+00  0.00000000000E+00  0.35419459345E+03  0.35419459345E+03  0.00000000000E+00 0. -1.
         21   -1    0    0  501  502 -0.00000000000E+00 -0.00000000000E+00 -0.17369265688E+03  0.17369265688E+03  0.00000000000E+00 0. -1.
         25    1    1    2    0    0 -0.22366658093E+03  0.82055240133E+01  0.29846434005E+02  0.25808889878E+03  0.12500000000E+03 0.  0.
         21    1    1    2  503  502  0.22366658093E+03 -0.82055240133E+01  0.15065550257E+03  0.26979835156E+03  0.00000000000E+00 0. -1.
<mgrwt>
<rscale>  3 0.25635731E+03</rscale>
<asrwt>0</asrwt>
<pdfrwt beam="1">  1       21 0.54491476E-01 0.25635731E+03</pdfrwt>
<pdfrwt beam="2">  1       21 0.26721947E-01 0.25635731E+03</pdfrwt>
<totfact> 0.41183787E+04</totfact>
</mgrwt>
</event>
<event>
 4    0  0.1524006E-001  0.2579866E+03  0.7546771E-02  0.1108359E+00
         21   -1    0    0  502  501  0.00000000000E+00  0.00000000000E+00  0.44181284113E+03  0.44181284113E+03  0.00000000000E+00 0.  1.
         21   -1    0    0  503  502 -0.00000000000E+00 -0.00000000000E+00 -0.19009650100E+03  0.19009650100E+03  0.00000000000E+00 0.  1.
         25    1    1    2    0    0  0.21088987816E+03  0.80358743594E+02 -0.42125097873E+02  0.26140312212E+03  0.12500000000E+03 0.  0.
         21    1    1    2  503  501 -0.21088987816E+03 -0.80358743594E+02  0.29384143800E+03  0.37050622001E+03  0.00000000000E+00 0.  1.
<mgrwt>
<rscale>  3 0.25798657E+03</rscale>
<asrwt>0</asrwt>
<pdfrwt beam="1">  1       21 0.67971206E-01 0.25798657E+03</pdfrwt>
<pdfrwt beam="2">  1       21 0.29245616E-01 0.25798657E+03</pdfrwt>
<totfact> 0.21378623E+04</totfact>
</mgrwt>
</event>
<event>
 4    0  0.1203471E-001  0.2423672E+03  0.7546771E-02  0.1118226E+00
         21   -1    0    0  503  501  0.00000000000E+00  0.00000000000E+00  0.18239147628E+03  0.18239147628E+03  0.00000000000E+00 0.  1.
         21   -1    0    0  501  502 -0.00000000000E+00 -0.00000000000E+00 -0.31210116681E+03  0.31210116681E+03  0.00000000000E+00 0.  1.
         25    1    1    2    0    0  0.13478161402E+03 -0.15795811971E+03  0.12707450900E+02  0.24270008317E+03  0.12500000000E+03 0.  0.
         21    1    1    2  503  502 -0.13478161402E+03  0.15795811971E+03 -0.14241714144E+03  0.25179255993E+03  0.00000000000E+00 0.  1.
<mgrwt>
<rscale>  3 0.24236718E+03</rscale>
<asrwt>0</asrwt>
<pdfrwt beam="1">  1       21 0.28060227E-01 0.24236718E+03</pdfrwt>
<pdfrwt beam="2">  1       21 0.48015564E-01 0.24236718E+03</pdfrwt>
<totfact> 0.49170948E+04</totfact>
</mgrwt>
</event>
<event>
 4    0  0.1315701E-001  0.4627541E+03  0.7546771E-02  0.1023985E+00
         21   -1    0    0  503  501  0.00000000000E+00  0.00000000000E+00  0.16028732834E+03  0.16028732834E+03  0.00000000000E+00 0.  1.
         21   -1    0    0  501  502 -0.00000000000E+00 -0.00000000000E+00 -0.12975911391E+04  0.12975911391E+04  0.00000000000E+00 0.  1.
         25    1    1    2    0    0 -0.94162062416E+02 -0.43548804066E+03 -0.51281359883E+03  0.69073809414E+03  0.12500000000E+03 0.  0.
         21    1    1    2  503  502  0.94162062416E+02  0.43548804066E+03 -0.62449021196E+03  0.76714037333E+03  0.00000000000E+00 0.  1.
<mgrwt>
<rscale>  3 0.46275407E+03</rscale>
<asrwt>0</asrwt>
<pdfrwt beam="1">  1       21 0.24659588E-01 0.46275407E+03</pdfrwt>
<pdfrwt beam="2">  1       21 0.19962941E+00 0.46275407E+03</pdfrwt>
<totfact> 0.17613857E+03</totfact>
</mgrwt>
</event>
<event>
 4    0  0.1471063E-001  0.3913504E+03  0.7546771E-02  0.1046817E+00
         21   -1    0    0  503  501  0.00000000000E+00  0.00000000000E+00  0.27732755652E+03  0.27732755652E+03  0.00000000000E+00 0.  1.
         21   -1    0    0  501  502 -0.00000000000E+00 -0.00000000000E+00 -0.53461783331E+03  0.53461783331E+03  0.00000000000E+00 0.  1.
         25    1    1    2    0    0  0.13300595650E+03  0.34617847611E+03 -0.19001861672E+03  0.43504275248E+03  0.12500000000E+03 0.  0.
         21    1    1    2  503  502 -0.13300595650E+03 -0.34617847611E+03 -0.67271660068E+02  0.37690263734E+03  0.00000000000E+00 0.  1.
<mgrwt>
<rscale>  3 0.39135038E+03</rscale>
<asrwt>0</asrwt>
<pdfrwt beam="1">  1       21 0.42665778E-01 0.39135038E+03</pdfrwt>
<pdfrwt beam="2">  1       21 0.82248898E-01 0.39135038E+03</pdfrwt>
<totfact> 0.61480748E+03</totfact>
</mgrwt>
</event>
<event>
 4    0  0.1061264E-001  0.2481652E+03  0.7546771E-02  0.1114470E+00
         21   -1    0    0  502  501  0.00000000000E+00  0.00000000000E+00  0.21454368398E+04  0.21454368398E+04  0.00000000000E+00 0.  1.
         21   -1    0    0  503  502 -0.00000000000E+00 -0.00000000000E+00 -0.24940974643E+02  0.24940974643E+02  0.00000000000E+00 0.  1.
         25    1    1    2    0    0 -0.11520326455E+03 -0.18080148336E+03  0.11161602052E+04  0.11434157478E+04  0.12500000000E+03 0.  0.
         21    1    1    2  503  501  0.11520326455E+03  0.18080148336E+03  0.10043356599E+04  0.10269620666E+04  0.00000000000E+00 0.  1.
<mgrwt>
<rscale>  3 0.24816520E+03</rscale>
<asrwt>0</asrwt>
<pdfrwt beam="1">  1       21 0.33006706E+00 0.24816520E+03</pdfrwt>
<pdfrwt beam="2">  1       21 0.38370747E-02 0.24816520E+03</pdfrwt>
<totfact> 0.90796032E+03</totfact>
</mgrwt>
</event>
<event>
 4    0  0.1644728E-001  0.2714596E+03  0.7546771E-02  0.1100447E+00
         21   -1    0    0  503  501  0.00000000000E+00  0.00000000000E+00  0.50917608646E+03  0.50917608646E+03  0.00000000000E+00 0.  1.
         21   -1    0    0  501  502 -0.00000000000E+00 -0.00000000000E+00 -0.17598571870E+03  0.17598571870E+03  0.00000000000E+00 0.  1.
         25    1    1    2    0    0  0.23980619955E+03 -0.23628612291E+02 -0.30682059237E+01  0.27147695767E+03  0.12500000000E+03 0.  0.
         21    1    1    2  503  502 -0.23980619955E+03  0.23628612291E+02  0.33625857368E+03  0.41368484748E+03  0.00000000000E+00 0.  1.
<mgrwt>
<rscale>  3 0.27145962E+03</rscale>
<asrwt>0</asrwt>
<pdfrwt beam="1">  1       21 0.78334782E-01 0.27145962E+03</pdfrwt>
<pdfrwt beam="2">  1       21 0.27074726E-01 0.27145962E+03</pdfrwt>
<totfact> 0.17968881E+04</totfact>
</mgrwt>
</event>
<event>
 4    0  0.1088941E-001  0.4114491E+03  0.7546771E-02  0.1039886E+00
         21   -1    0    0  502  501  0.00000000000E+00  0.00000000000E+00  0.18077187115E+03  0.18077187115E+03  0.00000000000E+00 0.  1.
         21   -1    0    0  503  502 -0.00000000000E+00 -0.00000000000E+00 -0.14221382385E+04  0.14221382385E+04  0.00000000000E+00 0. -1.
         25    1    1    2    0    0 -0.26111279554E+03  0.29237904163E+03 -0.11190109989E+04  0.11922566886E+04  0.12500000000E+03 0.  0.
         21    1    1    2  503  501  0.26111279554E+03 -0.29237904163E+03 -0.12235536844E+03  0.41065342098E+03  0.00000000000E+00 0.  1.
<mgrwt>
<rscale>  3 0.41144914E+03</rscale>
<asrwt>0</asrwt>
<pdfrwt beam="1">  1       21 0.27811058E-01 0.41144914E+03</pdfrwt>
<pdfrwt beam="2">  1       21 0.21879049E+00 0.41144914E+03</pdfrwt>
<totfact> 0.10691799E+03</totfact>
</mgrwt>
</event>
<event>
 4    0  0.1445234E-001  0.2593657E+03  0.7546771E-02  0.1107525E+00
         21   -1    0    0  502  501  0.00000000000E+00  0.00000000000E+00  0.16247240082E+03  0.16247240082E+03  0.00000000000E+00 0. -1.
         21   -1    0    0  503  502 -0.00000000000E+00 -0.00000000000E+00 -0.36448989399E+03  0.36448989399E+03  0.00000000000E+00 0. -1.
         25    1    1    2    0    0 -0.11813781903E+03 -0.19413658353E+03 -0.10293274916E+03  0.27904427641E+03  0.12500000000E+03 0.  0.
         21    1    1    2  503  501  0.11813781903E+03  0.19413658353E+03 -0.99084744020E+02  0.24791801840E+03  0.00000000000E+00 0. -1.
<mgrwt>
<rscale>  3 0.25936568E+03</rscale>
<asrwt>0</asrwt>
<pdfrwt beam="1">  1       21 0.24995754E-01 0.25936568E+03</pdfrwt>
<pdfrwt beam="2">  1       21 0.56075368E-01 0.25936568E+03</pdfrwt>
<totfact> 0.44016237E+04</totfact>
</mgrwt>
</event>
<event>
 4    0  0.1005289E-001  0.3101792E+03  0.7546771E-02  0.1080260E+00
         21   -1    0    0  502  501  0.00000000000E+00  0.00000000000E+00  0.28999472471E+04  0.28999472471E+04  0.00000000000E+00 0. -1.
         21   -1    0    0  503  502 -0.00000000000E+00 -0.00000000000E+00 -0.31491243216E+02  0.31491243216E+02  0.00000000000E+00 0. -1.
         25    1    1    2    0    0 -0.26106647084E+03 -0.11149185567E+03  0.17652490520E+04  0.17922933219E+04  0.12500000000E+03 0.  0.
         21    1    1    2  503  501  0.26106647084E+03  0.11149185567E+03  0.11032069519E+04  0.11391451684E+04  0.00000000000E+00 0. -1.
<mgrwt>
<rscale>  3 0.31017920E+03</rscale>
<asrwt>0</asrwt>
<pdfrwt beam="1">  1       21 0.44614552E+00 0.31017920E+03</pdfrwt>
<pdfrwt beam="2">  1       21 0.48448089E-02 0.31017920E+03</pdfrwt>
<totfact> 0.10859744E+03</totfact>
</mgrwt>
</event>
<event>
 4    0  0.1020234E-001  0.2541654E+03  0.7546771E-02  0.1110700E+00
         21   -1    0    0  502  501  0.00000000000E+00  0.00000000000E+00  0.14272631593E+03  0.14272631593E+03  0.00000000000E+00 0. -1.
         21   -1    0    0  503  502 -0.00000000000E+00 -0.00000000000E+00 -0.51204800434E+03  0.51204800434E+03  0.00000000000E+00 0. -1.
         25    1    1    2    0    0  0.22017916028E+03 -0.22275201241E+02 -0.38952821709E+02  0.25713298025E+03  0.12500000000E+03 0.  0.
         21    1    1    2  503  501 -0.22017916028E+03  0.22275201241E+02 -0.33036886670E+03  0.39764134003E+03  0.00000000000E+00 0. -1.
<mgrwt>
<rscale>  3 0.25416539E+03</rscale>
<asrwt>0</asrwt>
<pdfrwt beam="1">  1       21 0.21957895E-01 0.25416539E+03</pdfrwt>
<pdfrwt beam="2">  1       21 0.78776616E-01 0.25416539E+03</pdfrwt>
<totfact> 0.26725064E+04</totfact>
</mgrwt>
</event>
<event>
 4    0  0.1323493E-001  0.2383286E+03  0.7546771E-02  0.1120911E+00
         21   -1    0    0  502  501  0.00000000000E+00  0.00000000000E+00  0.29042209086E+03  0.29042209086E+03  0.00000000000E+00 0.  1.
         21   -1    0    0  503  502 -0.00000000000E+00 -0.00000000000E+00 -0.16763448334E+03  0.16763448334E+03  0.00000000000E+00 0.  1.
         25    1    1    2    0    0  0.20075475373E+03  0.29547584348E+02  0.63013403216E+02  0.24651819379E+03  0.12500000000E+03 0.  0.
         21    1    1    2  503  501 -0.20075475373E+03 -0.29547584348E+02  0.59774204305E+02  0.21153838041E+03  0.00000000000E+00 0.  1.
<mgrwt>
<rscale>  3 0.23832862E+03</rscale>
<asrwt>0</asrwt>
<pdfrwt beam="1">  1       21 0.44680322E-01 0.23832862E+03</pdfrwt>
<pdfrwt beam="2">  1       21 0.25789921E-01 0.23832862E+03</pdfrwt>
<totfact> 0.67316194E+04</totfact>
</mgrwt>
</event>
<event>
 4    0  0.1213545E-001  0.2944690E+03  0.7546771E-02  0.1088039E+00
         21   -1    0    0  503  501  0.00000000000E+00  0.00000000000E+00  0.19410424753E+03  0.19410424753E+03  0.00000000000E+00 0. -1.
         21   -1    0    0  501  502 -0.00000000000E+00 -0.00000000000E+00 -0.73685149307E+03  0.73685149307E+03  0.00000000000E+00 0. -1.
         25    1    1    2    0    0 -0.21465621953E+03 -0.15814446997E+03 -0.59072547002E+03  0.66005192743E+03  0.12500000000E+03 0.  0.
         21    1    1    2  503  502  0.21465621953E+03  0.15814446997E+03  0.47978224489E+02  0.27090381317E+03  0.00000000000E+00 0. -1.
<mgrwt>
<rscale>  3 0.29446896E+03</rscale>
<asrwt>0</asrwt>
<pdfrwt beam="1">  1       21 0.29862192E-01 0.29446896E+03</pdfrwt>
<pdfrwt beam="2">  1       21 0.11336177E+00 0.29446896E+03</pdfrwt>
<totfact> 0.61167886E+03</totfact>
</mgrwt>
</event>
<event>
 4    0  0.1741006E-001  0.2651063E+03  0.7546771E-02  0.1104113E+00
         21   -1    0    0  502  501  0.00000000000E+00  0.00000000000E+00  0.40862212595E+03  0.40862212595E+03  0.00000000000E+00 0. -1.
         21   -1    0    0  503  502 -0.00000000000E+00 -0.00000000000E+00 -0.59636056313E+03  0.59636056313E+03  0.00000000000E+00 0.  1.
         25    1    1    2    0    0  0.22747397122E+03  0.53962602098E+02 -0.52877299787E+03  0.59150845580E+03  0.12500000000E+03 0.  0.
         21    1    1    2  503  501 -0.22747397122E+03 -0.53962602098E+02  0.34103456069E+03  0.41347423328E+03  0.00000000000E+00 0. -1.
<mgrwt>
<rscale>  3 0.26510634E+03</rscale>
<asrwt>0</asrwt>
<pdfrwt beam="1">  1       21 0.62864943E-01 0.26510634E+03</pdfrwt>
<pdfrwt beam="2">  1       21 0.91747779E-01 0.26510634E+03</pdfrwt>
<totfact> 0.22260122E+03</totfact>
</mgrwt>
</event>
<event>
 4    0  0.1672546E-001  0.3439836E+03  0.7546771E-02  0.1065112E+00
         21   -1    0    0  503  501  0.00000000000E+00  0.00000000000E+00  0.95057863892E+03  0.95057863892E+03  0.00000000000E+00 0.  1.
         21   -1    0    0  501  502 -0.00000000000E+00 -0.00000000000E+00 -0.38306303056E+03  0.38306303056E+03  0.00000000000E+00 0. -1.
         25    1    1    2    0    0  0.31982120670E+03  0.20349746945E+02 -0.26975183773E+03  0.43713930321E+03  0.12500000000E+03 0.  0.
         21    1    1    2  503  502 -0.31982120670E+03 -0.20349746945E+02  0.83726744609E+03  0.89650236628E+03  0.00000000000E+00 0.  1.
<mgrwt>
<rscale>  3 0.34398360E+03</rscale>
<asrwt>0</asrwt>
<pdfrwt beam="1">  1       21 0.14624287E+00 0.34398360E+03</pdfrwt>
<pdfrwt beam="2">  1       21 0.58932774E-01 0.34398360E+03</pdfrwt>
<totfact> 0.76260545E+02</totfact>
</mgrwt>
</event>
<event>
 4    0  0.1005289E-001  0.5090120E+03  0.7546771E-02  0.1011453E+00
         21   -1    0    0  503  501  0.00000000000E+00  0.00000000000E+00  0.12274727671E+04  0.12274727671E+04  0.00000000000E+00 0. -1.
         21   -1    0    0  501  502 -0.00000000000E+00 -0.00000000000E+00 -0.23298123309E+03  0.23298123309E+03  0.00000000000E+00 0.  1.
         25    1    1    2    0    0  0.44089235454E+03 -0.22154499234E+03  0.24948759661E+03  0.56686622124E+03  0.12500000000E+03 0.  0.
         21    1    1    2  503  502 -0.44089235454E+03  0.22154499234E+03  0.74500393739E+03  0.89358777893E+03  0.00000000000E+00 0. -1.
<mgrwt>
<rscale>  3 0.50901204E+03</rscale>
<asrwt>0</asrwt>
<pdfrwt beam="1">  1       21 0.18884196E+00 0.50901204E+03</pdfrwt>
<pdfrwt beam="2">  1       21 0.35843267E-01 0.50901204E+03</pdfrwt>
<totfact> 0.97258447E+02</totfact>
</mgrwt>
</event>
<event>
 4    0  0.1071811E-001  0.2738710E+03  0.7546771E-02  0.1099084E+00
         21   -1    0    0  503  501  0.00000000000E+00  0.00000000000E+00  0.41573907753E+03  0.41573907753E+03  0.00000000000E+00 0.  1.
         21   -1    0    0  501  502 -0.00000000000E+00 -0.00000000000E+00 -0.60089289924E+03  0.60089289924E+03  0.00000000000E+00 0.  1.
         25    1    1    2    0    0 -0.18189851883E+03  0.16215189609E+03 -0.52870863965E+03  0.59543104907E+03  0.12500000000E+03 0.  0.
         21    1    1    2  503  502  0.18189851883E+03 -0.16215189609E+03  0.34355481795E+03  0.42120092770E+03  0.00000000000E+00 0.  1.
<mgrwt>
<rscale>  3 0.27387097E+03</rscale>
<asrwt>0</asrwt>
<pdfrwt beam="1">  1       21 0.63959858E-01 0.27387097E+03</pdfrwt>
<pdfrwt beam="2">  1       21 0.92445062E-01 0.27387097E+03</pdfrwt>
<totfact> 0.20937345E+03</totfact>
</mgrwt>
</event>
<event>
 4    0  0.1005289E-001  0.3396418E+03  0.7546771E-02  0.1066949E+00
         21   -1    0    0  502  501  0.00000000000E+00  0.00000000000E+00  0.44232489088E+03  0.44232489088E+03  0.00000000000E+00 0. -1.
         21   -1    0    0  503  502 -0.00000000000E+00 -0.00000000000E+00 -0.89671845905E+03  0.89671845905E+03  0.00000000000E+00 0. -1.
         25    1    1    2    0    0 -0.36181080125E+02  0.31372359517E+03 -0.80106619102E+03  0.87009402200E+03  0.12500000000E+03 0.  0.
         21    1    1    2  503  501  0.36181080125E+02 -0.31372359517E+03  0.34667262285E+03  0.46894932792E+03  0.00000000000E+00 0. -1.
<mgrwt>
<rscale>  3 0.33964182E+03</rscale>
<asrwt>0</asrwt>
<pdfrwt beam="1">  1       21 0.68049983E-01 0.33964182E+03</pdfrwt>
<pdfrwt beam="2">  1       21 0.13795669E+00 0.33964182E+03</pdfrwt>
<totfact> 0.65039736E+02</totfact>
</mgrwt>
</event>
