<event>
 5    0  0.1911311E+001  0.6721657E+03  0.7546771E-02  0.9766053E-01
         21   -1    0    0  504  501  0.00000000000E+00  0.00000000000E+00  0.73948298077E+03  0.73948298077E+03  0.00000000000E+00 0.  1.
         21   -1    0    0  503  502 -0.00000000000E+00 -0.00000000000E+00 -0.67026423176E+03  0.67026423176E+03  0.00000000000E+00 0.  1.
         25    1    1    2    0    0  0.41245499471E+03 -0.52753121799E+03  0.18519872841E+03  0.70592625509E+03  0.12500000000E+03 0.  0.
         21    1    1    2  503  501 -0.78667975567E+01  0.21679307062E+02 -0.47071682376E+02  0.52417765502E+02  0.00000000000E+00 0.  1.
         21    1    1    2  504  502 -0.40458819715E+03  0.50585191093E+03 -0.68908297024E+02  0.65140319194E+03  0.00000000000E+00 0.  1.
<mgrwt>
<rscale>  4 0.67216573E+03</rscale>
<asrwt>0</asrwt>
<pdfrwt beam="1">  1       21 0.11376661E+00 0.67216573E+03</pdfrwt>
<pdfrwt beam="2">  1       21 0.10311757E+00 0.67216573E+03</pdfrwt>
<totfact> 0.35115647E+02</totfact>
</mgrwt>
</event>
<event>
 5    0  0.1911311E+001  0.2364885E+03  0.7546771E-02  0.1122154E+00
         21   -1    0    0  504  501  0.00000000000E+00  0.00000000000E+00  0.28400722953E+03  0.28400722953E+03  0.00000000000E+00 0. -1.
         21   -1    0    0  503  502 -0.00000000000E+00 -0.00000000000E+00 -0.90565277849E+03  0.90565277849E+03  0.00000000000E+00 0. -1.
         25    1    1    2    0    0 -0.72479915273E+02 -0.20203491167E+03  0.12520454976E+03  0.27815934809E+03  0.12500000000E+03 0.  0.
         21    1    1    2  503  501  0.93931313960E+02  0.17661994541E+03 -0.81311335948E+03  0.83735955970E+03  0.00000000000E+00 0. -1.
         21    1    1    2  504  502 -0.21451398687E+02  0.25414966261E+02  0.66263260763E+02  0.74141100225E+02  0.00000000000E+00 0. -1.
<mgrwt>
<rscale>  4 0.23648846E+03</rscale>
<asrwt>0</asrwt>
<pdfrwt beam="1">  1       21 0.43693420E-01 0.23648846E+03</pdfrwt>
<pdfrwt beam="2">  1       21 0.13933120E+00 0.23648846E+03</pdfrwt>
<totfact> 0.17539592E+03</totfact>
</mgrwt>
</event>
<event>
 5    0  0.1911311E+001  0.3276276E+03  0.7546771E-02  0.1072191E+00
         21   -1    0    0  502  501  0.00000000000E+00  0.00000000000E+00  0.20781534404E+03  0.20781534404E+03  0.00000000000E+00 0.  1.
         21   -1    0    0  504  502 -0.00000000000E+00 -0.00000000000E+00 -0.80295712202E+03  0.80295712202E+03  0.00000000000E+00 0.  1.
         25    1    1    2    0    0  0.57759045871E+01  0.33812492250E+03 -0.26640951147E+03  0.44828657362E+03  0.12500000000E+03 0.  0.
         21    1    1    2  503  501  0.23645676188E+02 -0.28461424917E+03 -0.66496580202E+02  0.29323400896E+03  0.00000000000E+00 0.  1.
         21    1    1    2  504  503 -0.29421580775E+02 -0.53510673334E+02 -0.26223568631E+03  0.26925188347E+03  0.00000000000E+00 0.  1.
<mgrwt>
<rscale>  4 0.32762761E+03</rscale>
<asrwt>0</asrwt>
<pdfrwt beam="1">  1       21 0.31971591E-01 0.32762761E+03</pdfrwt>
<pdfrwt beam="2">  1       21 0.12353187E+00 0.32762761E+03</pdfrwt>
<totfact> 0.42397027E+03</totfact>
</mgrwt>
</event>
