<event>
 5    0  0.1856407E+000  0.2473485E+03  0.7546771E-02  0.1114992E+00
         21   -1    0    0  502  501  0.00000000000E+00  0.00000000000E+00  0.88707054966E+02  0.88707054966E+02  0.00000000000E+00 0. -1.
         21   -1    0    0  503  502 -0.00000000000E+00 -0.00000000000E+00 -0.64923634681E+03  0.64923634681E+03  0.00000000000E+00 0. -1.
         25    1    1    2    0    0  0.17786910773E+03 -0.11797824411E+03 -0.38535822727E+03  0.45791074337E+03  0.12500000000E+03 0.  0.
         21    1    1    2  503  504 -0.11223098474E+03  0.58094248621E+02 -0.78688442959E+02  0.14887110772E+03  0.00000000000E+00 0. -1.
         21    1    1    2  504  501 -0.65638122994E+02  0.59883995486E+02 -0.96482621616E+02  0.13116155069E+03  0.00000000000E+00 0. -1.
<mgrwt>
<rscale>  4 0.24734851E+03</rscale>
<asrwt>0</asrwt>
<pdfrwt beam="1">  1       21 0.13647239E-01 0.24734851E+03</pdfrwt>
<pdfrwt beam="2">  1       21 0.99882517E-01 0.24734851E+03</pdfrwt>
<totfact> 0.37299108E+04</totfact>
</mgrwt>
</event>
<event>
 5    0  0.1949627E+000  0.2467422E+03  0.7546771E-02  0.1115381E+00
         21   -1    0    0  502  501  0.00000000000E+00  0.00000000000E+00  0.33363220442E+03  0.33363220442E+03  0.00000000000E+00 0. -1.
         21   -1    0    0  503  502 -0.00000000000E+00 -0.00000000000E+00 -0.19215095386E+03  0.19215095386E+03  0.00000000000E+00 0. -1.
         25    1    1    2    0    0 -0.62397202755E+02  0.20337972335E+03  0.16200196395E+03  0.29517174510E+03  0.12500000000E+03 0.  0.
         21    1    1    2  503  504  0.36152747028E+02 -0.55295859093E+02 -0.42597905241E+02  0.78608108242E+02  0.00000000000E+00 0. -1.
         21    1    1    2  504  501  0.26244455727E+02 -0.14808386426E+03  0.22077191859E+02  0.15200330494E+03  0.00000000000E+00 0. -1.
<mgrwt>
<rscale>  4 0.24674222E+03</rscale>
<asrwt>0</asrwt>
<pdfrwt beam="1">  1       21 0.51328032E-01 0.24674222E+03</pdfrwt>
<pdfrwt beam="2">  1       21 0.29561685E-01 0.24674222E+03</pdfrwt>
<totfact> 0.38551597E+04</totfact>
</mgrwt>
</event>
<event>
 5    0  0.1856407E+000  0.3695191E+03  0.7546771E-02  0.1054877E+00
         21   -1    0    0  502  501  0.00000000000E+00  0.00000000000E+00  0.33877228723E+03  0.33877228723E+03  0.00000000000E+00 0.  1.
         21   -1    0    0  503  502 -0.00000000000E+00 -0.00000000000E+00 -0.80761999507E+03  0.80761999507E+03  0.00000000000E+00 0.  1.
         25    1    1    2    0    0  0.38626211248E+02  0.46573685247E+03 -0.11867116121E+03  0.49810706123E+03  0.12500000000E+03 0.  0.
         21    1    1    2  503  504 -0.12515195659E+03 -0.16491578675E+03 -0.46538620756E+02  0.21219347817E+03  0.00000000000E+00 0.  1.
         21    1    1    2  504  501  0.86525745344E+02 -0.30082106572E+03 -0.30363792587E+03  0.43609174289E+03  0.00000000000E+00 0.  1.
<mgrwt>
<rscale>  4 0.36951907E+03</rscale>
<asrwt>0</asrwt>
<pdfrwt beam="1">  1       21 0.52118814E-01 0.36951907E+03</pdfrwt>
<pdfrwt beam="2">  1       21 0.12424923E+00 0.36951907E+03</pdfrwt>
<totfact> 0.14984360E+03</totfact>
</mgrwt>
</event>
<event>
 5    0  0.1856407E+000  0.2560436E+03  0.7546771E-02  0.1109544E+00
         21   -1    0    0  502  501  0.00000000000E+00  0.00000000000E+00  0.90659993685E+03  0.90659993685E+03  0.00000000000E+00 0.  1.
         21   -1    0    0  503  502 -0.00000000000E+00 -0.00000000000E+00 -0.17316871082E+03  0.17316871082E+03  0.00000000000E+00 0.  1.
         25    1    1    2    0    0 -0.21307442546E+03  0.67324766778E+02  0.80296263720E+03  0.84279732542E+03  0.12500000000E+03 0.  0.
         21    1    1    2  503  504  0.19112147526E+02 -0.10522191624E+02  0.34524733006E+01  0.22088691033E+02  0.00000000000E+00 0. -1.
         21    1    1    2  504  501  0.19396227794E+03 -0.56802575154E+02 -0.72983884460E+02  0.21488263121E+03  0.00000000000E+00 0.  1.
<mgrwt>
<rscale>  4 0.25604362E+03</rscale>
<asrwt>0</asrwt>
<pdfrwt beam="1">  1       21 0.13947691E+00 0.25604362E+03</pdfrwt>
<pdfrwt beam="2">  1       21 0.26641341E-01 0.25604362E+03</pdfrwt>
<totfact> 0.46219912E+03</totfact>
</mgrwt>
</event>
<event>
 5    0  0.1856407E+000  0.2336275E+03  0.7546771E-02  0.1124112E+00
         21   -1    0    0  502  501  0.00000000000E+00  0.00000000000E+00  0.32205937413E+03  0.32205937413E+03  0.00000000000E+00 0. -1.
         21   -1    0    0  503  502 -0.00000000000E+00 -0.00000000000E+00 -0.86887771244E+03  0.86887771244E+03  0.00000000000E+00 0.  1.
         25    1    1    2    0    0 -0.16711334936E+03 -0.11274076505E+03  0.25961233172E+03  0.35165453846E+03  0.12500000000E+03 0.  0.
         21    1    1    2  503  504  0.14811570536E+02  0.66457235207E+02 -0.33041287681E+03  0.33735532587E+03  0.00000000000E+00 0.  1.
         21    1    1    2  504  501  0.15230177882E+03  0.46283529843E+02 -0.47601779321E+03  0.50192722224E+03  0.00000000000E+00 0.  1.
<mgrwt>
<rscale>  4 0.23362745E+03</rscale>
<asrwt>0</asrwt>
<pdfrwt beam="1">  1       21 0.49547596E-01 0.23362745E+03</pdfrwt>
<pdfrwt beam="2">  1       21 0.13367349E+00 0.23362745E+03</pdfrwt>
<totfact> 0.15071827E+03</totfact>
</mgrwt>
</event>
<event>
 5    0  0.1856407E+000  0.4745690E+03  0.7546771E-02  0.1020639E+00
         21   -1    0    0  502  501  0.00000000000E+00  0.00000000000E+00  0.37897343647E+03  0.37897343647E+03  0.00000000000E+00 0.  1.
         21   -1    0    0  503  502 -0.00000000000E+00 -0.00000000000E+00 -0.62424261664E+03  0.62424261664E+03  0.00000000000E+00 0.  1.
         25    1    1    2    0    0 -0.41083446339E+03 -0.20200432705E+03 -0.23761070540E+03  0.53073020620E+03  0.12500000000E+03 0.  0.
         21    1    1    2  503  504  0.27324312237E+02  0.54930661155E+02  0.49276098940E+01  0.61548979792E+02  0.00000000000E+00 0.  1.
         21    1    1    2  504  501  0.38351015115E+03  0.14707366589E+03 -0.12586084656E+02  0.41093686712E+03  0.00000000000E+00 0.  1.
<mgrwt>
<rscale>  4 0.47456897E+03</rscale>
<asrwt>0</asrwt>
<pdfrwt beam="1">  1       21 0.58303606E-01 0.47456897E+03</pdfrwt>
<pdfrwt beam="2">  1       21 0.96037325E-01 0.47456897E+03</pdfrwt>
<totfact> 0.21308234E+03</totfact>
</mgrwt>
</event>
<event>
 5    0  0.2311653E+000  0.2440315E+03  0.7546771E-02  0.1117136E+00
         21   -1    0    0  502  501  0.00000000000E+00  0.00000000000E+00  0.12533626826E+03  0.12533626826E+03  0.00000000000E+00 0.  1.
         21   -1    0    0  503  502 -0.00000000000E+00 -0.00000000000E+00 -0.43076082178E+03  0.43076082178E+03  0.00000000000E+00 0.  1.
         25    1    1    2    0    0  0.19544510696E+03 -0.75680726631E+02 -0.13645998011E+03  0.27959379176E+03  0.12500000000E+03 0.  0.
         21    1    1    2  503  504 -0.15287563191E+03  0.84344031234E+02 -0.12527992989E+03  0.21489517275E+03  0.00000000000E+00 0.  1.
         21    1    1    2  504  501 -0.42569475058E+02 -0.86633046023E+01 -0.43684643512E+02  0.61608125536E+02  0.00000000000E+00 0.  1.
<mgrwt>
<rscale>  4 0.24403148E+03</rscale>
<asrwt>0</asrwt>
<pdfrwt beam="1">  1       21 0.19282503E-01 0.24403148E+03</pdfrwt>
<pdfrwt beam="2">  1       21 0.66270896E-01 0.24403148E+03</pdfrwt>
<totfact> 0.50439138E+04</totfact>
</mgrwt>
</event>
<event>
 5    0  0.2351422E+000  0.2371412E+03  0.7546771E-02  0.1121712E+00
         21   -1    0    0  502  501  0.00000000000E+00  0.00000000000E+00  0.41501942552E+03  0.41501942552E+03  0.00000000000E+00 0. -1.
         21   -1    0    0  503  502 -0.00000000000E+00 -0.00000000000E+00 -0.17868171255E+03  0.17868171255E+03  0.00000000000E+00 0.  1.
         25    1    1    2    0    0  0.15038223660E+03  0.13579631043E+03  0.26224274440E+03  0.35419163175E+03  0.12500000000E+03 0.  0.
         21    1    1    2  503  504 -0.12245344004E+03 -0.15959611175E+03 -0.25852628291E+02  0.20281548820E+03  0.00000000000E+00 0.  1.
         21    1    1    2  504  501 -0.27928796555E+02  0.23799801318E+02 -0.52403144593E-01  0.36694018121E+02  0.00000000000E+00 0. -1.
<mgrwt>
<rscale>  4 0.23714117E+03</rscale>
<asrwt>0</asrwt>
<pdfrwt beam="1">  1       21 0.63849142E-01 0.23714117E+03</pdfrwt>
<pdfrwt beam="2">  1       21 0.27489494E-01 0.23714117E+03</pdfrwt>
<totfact> 0.27942708E+04</totfact>
</mgrwt>
</event>
<event>
 5    0  0.2430096E+000  0.2570981E+03  0.7546771E-02  0.1108899E+00
         21   -1    0    0  502  501  0.00000000000E+00  0.00000000000E+00  0.23052986142E+03  0.23052986142E+03  0.00000000000E+00 0. -1.
         21   -1    0    0  503  502 -0.00000000000E+00 -0.00000000000E+00 -0.29346679490E+03  0.29346679490E+03  0.00000000000E+00 0. -1.
         25    1    1    2    0    0 -0.97950368222E+02 -0.20218842889E+03  0.36655406524E+02  0.25969800584E+03  0.12500000000E+03 0.  0.
         21    1    1    2  503  504  0.11224665152E+03  0.15338060718E+03 -0.58353336316E+02  0.19882161174E+03  0.00000000000E+00 0. -1.
         21    1    1    2  504  501 -0.14296283298E+02  0.48807821713E+02 -0.41239003687E+02  0.65477038735E+02  0.00000000000E+00 0. -1.
<mgrwt>
<rscale>  4 0.25709810E+03</rscale>
<asrwt>0</asrwt>
<pdfrwt beam="1">  1       21 0.35466132E-01 0.25709810E+03</pdfrwt>
<pdfrwt beam="2">  1       21 0.45148738E-01 0.25709810E+03</pdfrwt>
<totfact> 0.34988040E+04</totfact>
</mgrwt>
</event>
<event>
 5    0  0.1856407E+000  0.4860047E+03  0.7546771E-02  0.1017498E+00
         21   -1    0    0  502  501  0.00000000000E+00  0.00000000000E+00  0.59987024536E+03  0.59987024536E+03  0.00000000000E+00 0.  1.
         21   -1    0    0  503  502 -0.00000000000E+00 -0.00000000000E+00 -0.41706658257E+03  0.41706658257E+03  0.00000000000E+00 0.  1.
         25    1    1    2    0    0  0.46725010821E+03 -0.47464422903E+02  0.22732793055E+03  0.53654312322E+03  0.12500000000E+03 0.  0.
         21    1    1    2  503  504 -0.40163520564E+03  0.31418144913E+02 -0.65767019326E+01  0.40291586125E+03  0.00000000000E+00 0.  1.
         21    1    1    2  504  501 -0.65614902568E+02  0.16046277990E+02 -0.37947565832E+02  0.77477843471E+02  0.00000000000E+00 0.  1.
<mgrwt>
<rscale>  4 0.48600467E+03</rscale>
<asrwt>0</asrwt>
<pdfrwt beam="1">  1       21 0.92287730E-01 0.48600467E+03</pdfrwt>
<pdfrwt beam="2">  1       21 0.64164090E-01 0.48600467E+03</pdfrwt>
<totfact> 0.18906944E+03</totfact>
</mgrwt>
</event>
<event>
 5    0  0.1856407E+000  0.3477918E+03  0.7546771E-02  0.1063525E+00
         21   -1    0    0  502  501  0.00000000000E+00  0.00000000000E+00  0.65456367899E+03  0.65456367899E+03  0.00000000000E+00 0.  1.
         21   -1    0    0  503  502 -0.00000000000E+00 -0.00000000000E+00 -0.19934356487E+03  0.19934356487E+03  0.00000000000E+00 0.  1.
         25    1    1    2    0    0  0.15931667778E+03  0.28275849136E+03  0.36345534259E+03  0.50304965392E+03  0.12500000000E+03 0.  0.
         21    1    1    2  503  504 -0.63620099963E+02 -0.15546434878E+03  0.18793623545E+01  0.16798872839E+03  0.00000000000E+00 0.  1.
         21    1    1    2  504  501 -0.95696577822E+02 -0.12729414257E+03  0.89885409183E+02  0.18286886155E+03  0.00000000000E+00 0.  1.
<mgrwt>
<rscale>  4 0.34779185E+03</rscale>
<asrwt>0</asrwt>
<pdfrwt beam="1">  1       21 0.10070210E+00 0.34779185E+03</pdfrwt>
<pdfrwt beam="2">  1       21 0.30668241E-01 0.34779185E+03</pdfrwt>
<totfact> 0.75633246E+03</totfact>
</mgrwt>
</event>
<event>
 5    0  0.1856407E+000  0.2474341E+03  0.7546771E-02  0.1114937E+00
         21   -1    0    0  502  501  0.00000000000E+00  0.00000000000E+00  0.38288631244E+03  0.38288631244E+03  0.00000000000E+00 0.  1.
         21   -1    0    0  503  502 -0.00000000000E+00 -0.00000000000E+00 -0.26817931501E+03  0.26817931501E+03  0.00000000000E+00 0.  1.
         25    1    1    2    0    0 -0.41396989206E+02  0.20948726860E+03  0.27732867532E+03  0.37166493052E+03  0.12500000000E+03 0.  0.
         21    1    1    2  503  504 -0.35934283569E+00 -0.65431464529E+02 -0.93829914559E+02  0.11439168914E+03  0.00000000000E+00 0.  1.
         21    1    1    2  504  501  0.41756332042E+02 -0.14405580407E+03 -0.68791763330E+02  0.16500900780E+03  0.00000000000E+00 0.  1.
<mgrwt>
<rscale>  4 0.24743409E+03</rscale>
<asrwt>0</asrwt>
<pdfrwt beam="1">  1       21 0.58905586E-01 0.24743409E+03</pdfrwt>
<pdfrwt beam="2">  1       21 0.41258356E-01 0.24743409E+03</pdfrwt>
<totfact> 0.14770476E+04</totfact>
</mgrwt>
</event>
