<event>
 5    0  0.1856407E+000  0.2484850E+03  0.7546771E-02  0.1114266E+00
         21   -1    0    0  502  501  0.00000000000E+00  0.00000000000E+00  0.19086289018E+03  0.19086289018E+03  0.00000000000E+00 0. -1.
         21   -1    0    0  503  502 -0.00000000000E+00 -0.00000000000E+00 -0.29904679318E+03  0.29904679318E+03  0.00000000000E+00 0. -1.
         25    1    1    2    0    0  0.21409780050E+03  0.16790836601E+02 -0.54085296359E+02  0.25430300756E+03  0.12500000000E+03 0.  0.
         21    1    1    2  503  504 -0.43314275050E+02 -0.29221995220E+02  0.91859977869E+01  0.53051239223E+02  0.00000000000E+00 0. -1.
         21    1    1    2  504  501 -0.17078352545E+03  0.12431158619E+02 -0.63284604432E+02  0.18255543658E+03  0.00000000000E+00 0. -1.
<mgrwt>
<rscale>  4 0.24848501E+03</rscale>
<asrwt>0</asrwt>
<pdfrwt beam="1">  1       21 0.29363522E-01 0.24848501E+03</pdfrwt>
<pdfrwt beam="2">  1       21 0.46007199E-01 0.24848501E+03</pdfrwt>
<totfact> 0.49063145E+04</totfact>
</mgrwt>
</event>
<event>
 5    0  0.2164774E+000  0.2248383E+03  0.7546771E-02  0.1130326E+00
         21   -1    0    0  502  501  0.00000000000E+00  0.00000000000E+00  0.26257545188E+03  0.26257545188E+03  0.00000000000E+00 0.  1.
         21   -1    0    0  503  502 -0.00000000000E+00 -0.00000000000E+00 -0.39587836154E+03  0.39587836154E+03  0.00000000000E+00 0.  1.
         25    1    1    2    0    0  0.17918936584E+03  0.21828123350E+03 -0.18974113570E+02  0.30941968702E+03  0.12500000000E+03 0.  0.
         21    1    1    2  503  504 -0.62574591547E+02 -0.10353506980E+03  0.36657625675E+02  0.12640756190E+03  0.00000000000E+00 0.  1.
         21    1    1    2  504  501 -0.11661477429E+03 -0.11474616370E+03 -0.15098642176E+03  0.22262656450E+03  0.00000000000E+00 0.  1.
<mgrwt>
<rscale>  4 0.22483825E+03</rscale>
<asrwt>0</asrwt>
<pdfrwt beam="1">  1       21 0.40396223E-01 0.22483825E+03</pdfrwt>
<pdfrwt beam="2">  1       21 0.60904363E-01 0.22483825E+03</pdfrwt>
<totfact> 0.14525310E+04</totfact>
</mgrwt>
</event>
<event>
 5    0  0.1856407E+000  0.2389994E+03  0.7546771E-02  0.1120461E+00
         21   -1    0    0  502  501  0.00000000000E+00  0.00000000000E+00  0.30768936147E+03  0.30768936147E+03  0.00000000000E+00 0.  1.
         21   -1    0    0  503  502 -0.00000000000E+00 -0.00000000000E+00 -0.16633396134E+03  0.16633396134E+03  0.00000000000E+00 0.  1.
         25    1    1    2    0    0 -0.16476129555E+03 -0.11978910647E+03  0.57051540624E+02  0.24571445384E+03  0.12500000000E+03 0.  0.
         21    1    1    2  503  504  0.13981750663E+03  0.75835869848E+02  0.48209979486E+02  0.16620534419E+03  0.00000000000E+00 0.  1.
         21    1    1    2  504  501  0.24943788918E+02  0.43953236622E+02  0.36093880016E+02  0.62103524777E+02  0.00000000000E+00 0.  1.
<mgrwt>
<rscale>  4 0.23899940E+03</rscale>
<asrwt>0</asrwt>
<pdfrwt beam="1">  1       21 0.47336825E-01 0.23899940E+03</pdfrwt>
<pdfrwt beam="2">  1       21 0.25589840E-01 0.23899940E+03</pdfrwt>
<totfact> 0.60613636E+04</totfact>
</mgrwt>
</event>
<event>
 5    0  0.2871634E+000  0.3124429E+03  0.7546771E-02  0.1079181E+00
         21   -1    0    0  502  501  0.00000000000E+00  0.00000000000E+00  0.96959234479E+03  0.96959234479E+03  0.00000000000E+00 0.  1.
         21   -1    0    0  503  502 -0.00000000000E+00 -0.00000000000E+00 -0.11278669787E+03  0.11278669787E+03  0.00000000000E+00 0.  1.
         25    1    1    2    0    0 -0.19931406388E+03  0.20323856330E+03  0.25926647825E+03  0.40481615137E+03  0.12500000000E+03 0.  0.
         21    1    1    2  503  504 -0.21903008883E+02 -0.19411881643E+02  0.33968557769E+02  0.44837772736E+02  0.00000000000E+00 0.  1.
         21    1    1    2  504  501  0.22121707276E+03 -0.18382668165E+03  0.56357061091E+03  0.63272511855E+03  0.00000000000E+00 0.  1.
<mgrwt>
<rscale>  4 0.31244287E+03</rscale>
<asrwt>0</asrwt>
<pdfrwt beam="1">  1       21 0.14916805E+00 0.31244287E+03</pdfrwt>
<pdfrwt beam="2">  1       21 0.17351800E-01 0.31244287E+03</pdfrwt>
<totfact> 0.84625174E+03</totfact>
</mgrwt>
</event>
<event>
 5    0  0.1856407E+000  0.2393732E+03  0.7546771E-02  0.1120211E+00
         21   -1    0    0  502  501  0.00000000000E+00  0.00000000000E+00  0.26185723588E+04  0.26185723588E+04  0.00000000000E+00 0.  1.
         21   -1    0    0  503  502 -0.00000000000E+00 -0.00000000000E+00 -0.10622976504E+03  0.10622976504E+03  0.00000000000E+00 0.  1.
         25    1    1    2    0    0 -0.10405748031E+03  0.17563192660E+03  0.24993991827E+04  0.25108356791E+04  0.12500000000E+03 0.  0.
         21    1    1    2  503  504  0.80584123378E+02 -0.14608096482E+03 -0.14263977365E+02  0.16744225952E+03  0.00000000000E+00 0.  1.
         21    1    1    2  504  501  0.23473356928E+02 -0.29550961775E+02  0.27207388410E+02  0.46524185231E+02  0.00000000000E+00 0. -1.
<mgrwt>
<rscale>  4 0.23937321E+03</rscale>
<asrwt>0</asrwt>
<pdfrwt beam="1">  1       21 0.40285724E+00 0.23937321E+03</pdfrwt>
<pdfrwt beam="2">  1       21 0.16343043E-01 0.23937321E+03</pdfrwt>
<totfact> 0.26104491E+02</totfact>
</mgrwt>
</event>
<event>
 5    0  0.1890233E+000  0.2142830E+03  0.7546771E-02  0.1138219E+00
         21   -1    0    0  502  501  0.00000000000E+00  0.00000000000E+00  0.12232302055E+03  0.12232302055E+03  0.00000000000E+00 0.  1.
         21   -1    0    0  503  502 -0.00000000000E+00 -0.00000000000E+00 -0.48922103702E+03  0.48922103702E+03  0.00000000000E+00 0.  1.
         25    1    1    2    0    0  0.18899391963E+03 -0.75675395110E+02 -0.13173091079E+03  0.27280670802E+03  0.12500000000E+03 0.  0.
         21    1    1    2  503  504 -0.14143352079E+03  0.65182964002E+02 -0.77953182564E+02  0.17415211245E+03  0.00000000000E+00 0.  1.
         21    1    1    2  504  501 -0.47560398840E+02  0.10492431108E+02 -0.15721392312E+03  0.16458523710E+03  0.00000000000E+00 0.  1.
<mgrwt>
<rscale>  4 0.21428298E+03</rscale>
<asrwt>0</asrwt>
<pdfrwt beam="1">  1       21 0.18818926E-01 0.21428298E+03</pdfrwt>
<pdfrwt beam="2">  1       21 0.75264777E-01 0.21428298E+03</pdfrwt>
<totfact> 0.40333768E+04</totfact>
</mgrwt>
</event>
<event>
 5    0  0.1856407E+000  0.2471093E+03  0.7546771E-02  0.1115145E+00
         21   -1    0    0  502  501  0.00000000000E+00  0.00000000000E+00  0.12101464711E+03  0.12101464711E+03  0.00000000000E+00 0.  1.
         21   -1    0    0  503  502 -0.00000000000E+00 -0.00000000000E+00 -0.89550365185E+03  0.89550365185E+03  0.00000000000E+00 0. -1.
         25    1    1    2    0    0  0.83990708989E+02 -0.19591728223E+03 -0.40396175416E+02  0.25038944000E+03  0.12500000000E+03 0.  0.
         21    1    1    2  503  504 -0.57310682859E+02  0.94069149038E+02 -0.30413722745E+03  0.32347020310E+03  0.00000000000E+00 0. -1.
         21    1    1    2  504  501 -0.26680026130E+02  0.10184813319E+03 -0.42995560187E+03  0.44265865586E+03  0.00000000000E+00 0. -1.
<mgrwt>
<rscale>  4 0.24710933E+03</rscale>
<asrwt>0</asrwt>
<pdfrwt beam="1">  1       21 0.18617637E-01 0.24710933E+03</pdfrwt>
<pdfrwt beam="2">  1       21 0.13776980E+00 0.24710933E+03</pdfrwt>
<totfact> 0.94796994E+03</totfact>
</mgrwt>
</event>
<event>
 5    0  0.4114555E+000  0.2740573E+03  0.7546771E-02  0.1098980E+00
         21   -1    0    0  502  501  0.00000000000E+00  0.00000000000E+00  0.21203586287E+03  0.21203586287E+03  0.00000000000E+00 0. -1.
         21   -1    0    0  503  502 -0.00000000000E+00 -0.00000000000E+00 -0.53748512074E+03  0.53748512074E+03  0.00000000000E+00 0. -1.
         25    1    1    2    0    0  0.98604651865E+02  0.23627134364E+03  0.38214246273E+02  0.28745843841E+03  0.12500000000E+03 0.  0.
         21    1    1    2  503  504 -0.20446895142E+02 -0.31605059427E+02 -0.15502037621E+03  0.15952514643E+03  0.00000000000E+00 0. -1.
         21    1    1    2  504  501 -0.78157756723E+02 -0.20466628421E+03 -0.20864312793E+03  0.30253739878E+03  0.00000000000E+00 0. -1.
<mgrwt>
<rscale>  4 0.27405734E+03</rscale>
<asrwt>0</asrwt>
<pdfrwt beam="1">  1       21 0.32620903E-01 0.27405734E+03</pdfrwt>
<pdfrwt beam="2">  1       21 0.82690017E-01 0.27405734E+03</pdfrwt>
<totfact> 0.11000755E+04</totfact>
</mgrwt>
</event>
<event>
 5    0  0.1856407E+000  0.2539950E+03  0.7546771E-02  0.1110806E+00
         21   -1    0    0  502  501  0.00000000000E+00  0.00000000000E+00  0.13115703071E+04  0.13115703071E+04  0.00000000000E+00 0.  1.
         21   -1    0    0  503  502 -0.00000000000E+00 -0.00000000000E+00 -0.12030987422E+03  0.12030987422E+03  0.00000000000E+00 0. -1.
         25    1    1    2    0    0 -0.16832304041E+03 -0.14337306341E+03  0.11711716530E+04  0.11983974808E+04  0.12500000000E+03 0.  0.
         21    1    1    2  503  504  0.58880174843E+01  0.27152563044E+02 -0.13595291800E+02  0.30931575920E+02  0.00000000000E+00 0.  1.
         21    1    1    2  504  501  0.16243502293E+03  0.11622050037E+03  0.33684071678E+02  0.20255112457E+03  0.00000000000E+00 0. -1.
<mgrwt>
<rscale>  4 0.25399504E+03</rscale>
<asrwt>0</asrwt>
<pdfrwt beam="1">  1       21 0.20178004E+00 0.25399504E+03</pdfrwt>
<pdfrwt beam="2">  1       21 0.18509212E-01 0.25399504E+03</pdfrwt>
<totfact> 0.33065802E+03</totfact>
</mgrwt>
</event>
<event>
 5    0  0.1856407E+000  0.2324428E+03  0.7546771E-02  0.1124932E+00
         21   -1    0    0  502  501  0.00000000000E+00  0.00000000000E+00  0.16981164777E+03  0.16981164777E+03  0.00000000000E+00 0.  1.
         21   -1    0    0  503  502 -0.00000000000E+00 -0.00000000000E+00 -0.95593973267E+03  0.95593973267E+03  0.00000000000E+00 0.  1.
         25    1    1    2    0    0 -0.11076053091E+03  0.23556359382E+03 -0.17619579314E+03  0.33827216773E+03  0.12500000000E+03 0.  0.
         21    1    1    2  503  504 -0.10635705478E+02 -0.10809335530E+03 -0.60152337655E+03  0.61125090121E+03  0.00000000000E+00 0.  1.
         21    1    1    2  504  501  0.12139623639E+03 -0.12747023852E+03 -0.84089152172E+01  0.17622831150E+03  0.00000000000E+00 0.  1.
<mgrwt>
<rscale>  4 0.23244276E+03</rscale>
<asrwt>0</asrwt>
<pdfrwt beam="1">  1       21 0.26124869E-01 0.23244276E+03</pdfrwt>
<pdfrwt beam="2">  1       21 0.14706765E+00 0.23244276E+03</pdfrwt>
<totfact> 0.42449101E+03</totfact>
</mgrwt>
</event>
<event>
 5    0  0.1856407E+000  0.3572066E+03  0.7546771E-02  0.1059695E+00
         21   -1    0    0  502  501  0.00000000000E+00  0.00000000000E+00  0.10815582023E+04  0.10815582023E+04  0.00000000000E+00 0. -1.
         21   -1    0    0  503  502 -0.00000000000E+00 -0.00000000000E+00 -0.17402821288E+03  0.17402821288E+03  0.00000000000E+00 0. -1.
         25    1    1    2    0    0 -0.10522221211E+03  0.31764732832E+03  0.83446829903E+03  0.90770803742E+03  0.12500000000E+03 0.  0.
         21    1    1    2  503  504  0.32877146458E+02 -0.44453795668E+02  0.27029545141E+02  0.61543830065E+02  0.00000000000E+00 0.  1.
         21    1    1    2  504  501  0.72345065649E+02 -0.27319353266E+03  0.46032145246E+02  0.28633454770E+03  0.00000000000E+00 0. -1.
<mgrwt>
<rscale>  4 0.35720658E+03</rscale>
<asrwt>0</asrwt>
<pdfrwt beam="1">  1       21 0.16639357E+00 0.35720658E+03</pdfrwt>
<pdfrwt beam="2">  1       21 0.26773572E-01 0.35720658E+03</pdfrwt>
<totfact> 0.26849743E+03</totfact>
</mgrwt>
</event>
<event>
 5    0  0.2378910E+000  0.2758320E+03  0.7546771E-02  0.1097987E+00
         21   -1    0    0  502  501  0.00000000000E+00  0.00000000000E+00  0.78021918532E+03  0.78021918532E+03  0.00000000000E+00 0. -1.
         21   -1    0    0  503  502 -0.00000000000E+00 -0.00000000000E+00 -0.17289045884E+03  0.17289045884E+03  0.00000000000E+00 0. -1.
         25    1    1    2    0    0  0.15983948816E+03 -0.18684124441E+03  0.64326441483E+03  0.69990886548E+03  0.12500000000E+03 0.  0.
         21    1    1    2  503  504 -0.20677273756E+02  0.24975540869E+02  0.11729252207E+02  0.34480467645E+02  0.00000000000E+00 0. -1.
         21    1    1    2  504  501 -0.13916221440E+03  0.16186570354E+03 -0.47664940560E+02  0.21872031103E+03  0.00000000000E+00 0. -1.
<mgrwt>
<rscale>  4 0.27583204E+03</rscale>
<asrwt>0</asrwt>
<pdfrwt beam="1">  1       21 0.12003372E+00 0.27583204E+03</pdfrwt>
<pdfrwt beam="2">  1       21 0.26598533E-01 0.27583204E+03</pdfrwt>
<totfact> 0.67202919E+03</totfact>
</mgrwt>
</event>
