<event>
 5    0  0.1615618E+000  0.2216981E+03  0.7546771E-02  0.1132623E+00
         21   -1    0    0  503  501  0.00000000000E+00  0.00000000000E+00  0.77392302992E+03  0.77392302992E+03  0.00000000000E+00 0. -1.
         21   -1    0    0  501  502 -0.00000000000E+00 -0.00000000000E+00 -0.10950759466E+03  0.10950759466E+03  0.00000000000E+00 0. -1.
         25    1    1    2    0    0 -0.18430282492E+03  0.13996892396E+03  0.30732007421E+03  0.40451138298E+03  0.12500000000E+03 0.  0.
         21    1    1    2  503  504  0.10864815222E+03  0.12110032443E+02  0.26282699189E+03  0.28465611100E+03  0.00000000000E+00 0. -1.
         21    1    1    2  504  502  0.75654672702E+02 -0.15207895641E+03  0.94268369154E+02  0.19426313059E+03  0.00000000000E+00 0. -1.
<mgrwt>
<rscale>  4 0.22169812E+03</rscale>
<asrwt>0</asrwt>
<pdfrwt beam="1">  1       21 0.11906508E+00 0.22169812E+03</pdfrwt>
<pdfrwt beam="2">  1       21 0.16847323E-01 0.22169812E+03</pdfrwt>
<totfact> 0.16766225E+04</totfact>
</mgrwt>
</event>
<event>
 5    0  0.1615618E+000  0.2721862E+03  0.7546771E-02  0.1100035E+00
         21   -1    0    0  502  501  0.00000000000E+00  0.00000000000E+00  0.31197206028E+03  0.31197206028E+03  0.00000000000E+00 0. -1.
         21   -1    0    0  503  502 -0.00000000000E+00 -0.00000000000E+00 -0.40794129537E+03  0.40794129537E+03  0.00000000000E+00 0. -1.
         25    1    1    2    0    0 -0.54524875394E+02 -0.29626991007E+03 -0.14612342534E+03  0.35738757264E+03  0.12500000000E+03 0.  0.
         21    1    1    2  503  504  0.58543187248E+01  0.75603102044E+02 -0.72929435867E+02  0.10520838703E+03  0.00000000000E+00 0. -1.
         21    1    1    2  504  501  0.48670556670E+02  0.22066680802E+03  0.12308362612E+03  0.25731739597E+03  0.00000000000E+00 0. -1.
<mgrwt>
<rscale>  4 0.27218622E+03</rscale>
<asrwt>0</asrwt>
<pdfrwt beam="1">  1       21 0.47995701E-01 0.27218622E+03</pdfrwt>
<pdfrwt beam="2">  1       21 0.62760200E-01 0.27218622E+03</pdfrwt>
<totfact> 0.93004221E+03</totfact>
</mgrwt>
</event>
<event>
 5    0  0.1615618E+000  0.4494117E+03  0.7546771E-02  0.1027898E+00
         21   -1    0    0  503  501  0.00000000000E+00  0.00000000000E+00  0.43670908452E+03  0.43670908452E+03  0.00000000000E+00 0.  1.
         21   -1    0    0  501  502 -0.00000000000E+00 -0.00000000000E+00 -0.16530494585E+04  0.16530494585E+04  0.00000000000E+00 0.  1.
         25    1    1    2    0    0  0.42658468035E+03  0.48611826605E+01 -0.13308371361E+04  0.14031217351E+04  0.12500000000E+03 0.  0.
         21    1    1    2  503  504  0.30340769597E+02  0.51437786947E+02  0.20839064504E+03  0.21677884852E+03  0.00000000000E+00 0.  1.
         21    1    1    2  504  502 -0.45692544995E+03 -0.56298969608E+02 -0.93893882918E+02  0.46985795943E+03  0.00000000000E+00 0.  1.
<mgrwt>
<rscale>  4 0.44941168E+03</rscale>
<asrwt>0</asrwt>
<pdfrwt beam="1">  1       21 0.67186010E-01 0.44941168E+03</pdfrwt>
<pdfrwt beam="2">  1       21 0.25431531E+00 0.44941168E+03</pdfrwt>
<totfact> 0.99768521E+01</totfact>
</mgrwt>
</event>
<event>
 5    0  0.1615618E+000  0.4333158E+03  0.7546771E-02  0.1032818E+00
         21   -1    0    0  502  501  0.00000000000E+00  0.00000000000E+00  0.52701894465E+03  0.52701894465E+03  0.00000000000E+00 0.  1.
         21   -1    0    0  503  502 -0.00000000000E+00 -0.00000000000E+00 -0.92697934377E+03  0.92697934377E+03  0.00000000000E+00 0.  1.
         25    1    1    2    0    0 -0.41550324824E+03 -0.53697833148E+02 -0.65062800368E+03  0.78388022411E+03  0.12500000000E+03 0.  0.
         21    1    1    2  503  504  0.46789752465E+02 -0.15753270289E+03  0.17214496929E+03  0.23799101636E+03  0.00000000000E+00 0.  1.
         21    1    1    2  504  501  0.36871349577E+03  0.21123053604E+03  0.78522635274E+02  0.43212704795E+03  0.00000000000E+00 0.  1.
<mgrwt>
<rscale>  4 0.43331579E+03</rscale>
<asrwt>0</asrwt>
<pdfrwt beam="1">  1       21 0.81079838E-01 0.43331579E+03</pdfrwt>
<pdfrwt beam="2">  1       21 0.14261221E+00 0.43331579E+03</pdfrwt>
<totfact> 0.38032227E+02</totfact>
</mgrwt>
</event>
<event>
 5    0  0.1615618E+000  0.2425117E+03  0.7546771E-02  0.1118131E+00
         21   -1    0    0  503  501  0.00000000000E+00  0.00000000000E+00  0.20893097292E+03  0.20893097292E+03  0.00000000000E+00 0. -1.
         21   -1    0    0  504  502 -0.00000000000E+00 -0.00000000000E+00 -0.47344121679E+03  0.47344121679E+03  0.00000000000E+00 0. -1.
         25    1    1    2    0    0 -0.16183962642E+03 -0.12080243575E+03 -0.29735930285E+03  0.38056911088E+03  0.12500000000E+03 0.  0.
         21    1    1    2  503  502  0.16045065611E+03  0.15379199137E+03 -0.36278682640E+02  0.22519443259E+03  0.00000000000E+00 0. -1.
         21    1    1    2  504  501  0.13889703154E+01 -0.32989555620E+02  0.69127741617E+02  0.76608646246E+02  0.00000000000E+00 0. -1.
<mgrwt>
<rscale>  4 0.24251173E+03</rscale>
<asrwt>0</asrwt>
<pdfrwt beam="1">  1       21 0.32143227E-01 0.24251173E+03</pdfrwt>
<pdfrwt beam="2">  1       21 0.72837110E-01 0.24251173E+03</pdfrwt>
<totfact> 0.15342463E+04</totfact>
</mgrwt>
</event>
<event>
 5    0  0.1615618E+000  0.3183468E+03  0.7546771E-02  0.1076413E+00
         21   -1    0    0  502  501  0.00000000000E+00  0.00000000000E+00  0.85801567100E+03  0.85801567100E+03  0.00000000000E+00 0. -1.
         21   -1    0    0  503  502 -0.00000000000E+00 -0.00000000000E+00 -0.16013135838E+03  0.16013135838E+03  0.00000000000E+00 0. -1.
         25    1    1    2    0    0  0.27331602679E+03 -0.10496670228E+03  0.77025442721E+02  0.32753256008E+03  0.12500000000E+03 0.  0.
         21    1    1    2  503  504 -0.91197911072E+02  0.41534796354E+02  0.13698713943E+03  0.16972823766E+03  0.00000000000E+00 0. -1.
         21    1    1    2  504  501 -0.18211811572E+03  0.63431905922E+02  0.48387173046E+03  0.52088623163E+03  0.00000000000E+00 0. -1.
<mgrwt>
<rscale>  4 0.31834676E+03</rscale>
<asrwt>0</asrwt>
<pdfrwt beam="1">  1       21 0.13200241E+00 0.31834676E+03</pdfrwt>
<pdfrwt beam="2">  1       21 0.24635594E-01 0.31834676E+03</pdfrwt>
<totfact> 0.59877957E+03</totfact>
</mgrwt>
</event>
<event>
 5    0  0.1615618E+000  0.2726501E+03  0.7546771E-02  0.1099772E+00
         21   -1    0    0  503  501  0.00000000000E+00  0.00000000000E+00  0.25468528342E+03  0.25468528342E+03  0.00000000000E+00 0.  1.
         21   -1    0    0  504  502 -0.00000000000E+00 -0.00000000000E+00 -0.29729172407E+03  0.29729172407E+03  0.00000000000E+00 0.  1.
         25    1    1    2    0    0 -0.50513639896E+02  0.24644602979E+03 -0.16703169935E+02  0.28140943357E+03  0.12500000000E+03 0.  0.
         21    1    1    2  503  502  0.64015892283E+02 -0.22690448185E+03 -0.45088524434E+02  0.24003469204E+03  0.00000000000E+00 0.  1.
         21    1    1    2  504  501 -0.13502252387E+02 -0.19541547942E+02  0.19185253719E+02  0.30532881878E+02  0.00000000000E+00 0.  1.
<mgrwt>
<rscale>  4 0.27265015E+03</rscale>
<asrwt>0</asrwt>
<pdfrwt beam="1">  1       21 0.39182351E-01 0.27265015E+03</pdfrwt>
<pdfrwt beam="2">  1       21 0.45737188E-01 0.27265015E+03</pdfrwt>
<totfact> 0.27683675E+04</totfact>
</mgrwt>
</event>
<event>
 5    0  0.1615618E+000  0.3024263E+03  0.7546771E-02  0.1084034E+00
         21   -1    0    0  503  501  0.00000000000E+00  0.00000000000E+00  0.22826183547E+04  0.22826183547E+04  0.00000000000E+00 0.  1.
         21   -1    0    0  504  502 -0.00000000000E+00 -0.00000000000E+00 -0.58561554142E+02  0.58561554142E+02  0.00000000000E+00 0.  1.
         25    1    1    2    0    0 -0.16064680772E+03  0.18238510913E+03  0.59670785382E+03  0.65632079631E+03  0.12500000000E+03 0.  0.
         21    1    1    2  503  502  0.22455797847E+03 -0.24368112270E+03  0.10584466114E+04  0.11091059482E+04  0.00000000000E+00 0.  1.
         21    1    1    2  504  501 -0.63911170747E+02  0.61296013570E+02  0.56890233537E+03  0.57575316431E+03  0.00000000000E+00 0.  1.
<mgrwt>
<rscale>  4 0.30242633E+03</rscale>
<asrwt>0</asrwt>
<pdfrwt beam="1">  1       21 0.35117198E+00 0.30242633E+03</pdfrwt>
<pdfrwt beam="2">  1       21 0.90094717E-02 0.30242633E+03</pdfrwt>
<totfact> 0.14858392E+03</totfact>
</mgrwt>
</event>
<event>
 5    0  0.1615618E+000  0.2662475E+03  0.7546771E-02  0.1103447E+00
         21   -1    0    0  503  501  0.00000000000E+00  0.00000000000E+00  0.79937612735E+03  0.79937612735E+03  0.00000000000E+00 0. -1.
         21   -1    0    0  504  502 -0.00000000000E+00 -0.00000000000E+00 -0.17963062384E+03  0.17963062384E+03  0.00000000000E+00 0. -1.
         25    1    1    2    0    0 -0.24284225470E+03  0.72302698277E+02 -0.15468696465E+02  0.28295639490E+03  0.12500000000E+03 0.  0.
         21    1    1    2  503  502  0.18516648350E+03 -0.42917055359E+02  0.30370696123E+03  0.35828259594E+03  0.00000000000E+00 0. -1.
         21    1    1    2  504  501  0.57675771202E+02 -0.29385642918E+02  0.33150723874E+03  0.33776776035E+03  0.00000000000E+00 0. -1.
<mgrwt>
<rscale>  4 0.26624750E+03</rscale>
<asrwt>0</asrwt>
<pdfrwt beam="1">  1       21 0.12298094E+00 0.26624750E+03</pdfrwt>
<pdfrwt beam="2">  1       21 0.27635481E-01 0.26624750E+03</pdfrwt>
<totfact> 0.59022471E+03</totfact>
</mgrwt>
</event>
<event>
 5    0  0.1615618E+000  0.2877206E+03  0.7546771E-02  0.1091545E+00
         21   -1    0    0  503  501  0.00000000000E+00  0.00000000000E+00  0.80108036871E+03  0.80108036871E+03  0.00000000000E+00 0.  1.
         21   -1    0    0  504  502 -0.00000000000E+00 -0.00000000000E+00 -0.12224405306E+03  0.12224405306E+03  0.00000000000E+00 0.  1.
         25    1    1    2    0    0  0.17894627038E+02 -0.27014757183E+03  0.49606825526E+03  0.57879931074E+03  0.12500000000E+03 0.  0.
         21    1    1    2  503  502  0.85190866709E+01  0.25478635306E+03  0.13676243021E+03  0.28929677299E+03  0.00000000000E+00 0.  1.
         21    1    1    2  504  501 -0.26413713709E+02  0.15361218769E+02  0.46005630179E+02  0.55228338036E+02  0.00000000000E+00 0.  1.
<mgrwt>
<rscale>  4 0.28772058E+03</rscale>
<asrwt>0</asrwt>
<pdfrwt beam="1">  1       21 0.12324313E+00 0.28772058E+03</pdfrwt>
<pdfrwt beam="2">  1       21 0.18806778E-01 0.28772058E+03</pdfrwt>
<totfact> 0.12097212E+04</totfact>
</mgrwt>
</event>
<event>
 5    0  0.1615618E+000  0.2571493E+03  0.7546771E-02  0.1108868E+00
         21   -1    0    0  503  501  0.00000000000E+00  0.00000000000E+00  0.51839189216E+03  0.51839189216E+03  0.00000000000E+00 0. -1.
         21   -1    0    0  504  502 -0.00000000000E+00 -0.00000000000E+00 -0.22174999913E+03  0.22174999913E+03  0.00000000000E+00 0. -1.
         25    1    1    2    0    0 -0.22703893426E+03  0.13198735847E+02 -0.77349205595E+02  0.27079288008E+03  0.12500000000E+03 0.  0.
         21    1    1    2  503  502  0.21820956745E+03  0.83715455595E+01  0.20749769391E+03  0.30123212159E+03  0.00000000000E+00 0. -1.
         21    1    1    2  504  501  0.88293668083E+01 -0.21570281406E+02  0.16649340472E+03  0.16811688962E+03  0.00000000000E+00 0. -1.
<mgrwt>
<rscale>  4 0.25714925E+03</rscale>
<asrwt>0</asrwt>
<pdfrwt beam="1">  1       21 0.79752599E-01 0.25714925E+03</pdfrwt>
<pdfrwt beam="2">  1       21 0.34115385E-01 0.25714925E+03</pdfrwt>
<totfact> 0.11025918E+04</totfact>
</mgrwt>
</event>
<event>
 5    0  0.1615618E+000  0.3318079E+03  0.7546771E-02  0.1070340E+00
         21   -1    0    0  503  501  0.00000000000E+00  0.00000000000E+00  0.10010608133E+03  0.10010608133E+03  0.00000000000E+00 0.  1.
         21   -1    0    0  501  502 -0.00000000000E+00 -0.00000000000E+00 -0.20151450737E+04  0.20151450737E+04  0.00000000000E+00 0. -1.
         25    1    1    2    0    0  0.55346412256E+01  0.30629061825E+03 -0.51119762099E+03  0.60892740355E+03  0.12500000000E+03 0.  0.
         21    1    1    2  503  504  0.16570499224E+03 -0.34084505733E+02 -0.20861124682E+03  0.26858620643E+03  0.00000000000E+00 0.  1.
         21    1    1    2  504  502 -0.17123963347E+03 -0.27220611252E+03 -0.11952301245E+04  0.12377375450E+04  0.00000000000E+00 0. -1.
<mgrwt>
<rscale>  4 0.33180792E+03</rscale>
<asrwt>0</asrwt>
<pdfrwt beam="1">  1       21 0.15400936E-01 0.33180792E+03</pdfrwt>
<pdfrwt beam="2">  1       21 0.31002231E+00 0.33180792E+03</pdfrwt>
<totfact> 0.96891393E+02</totfact>
</mgrwt>
</event>
<event>
 5    0  0.1615618E+000  0.2370528E+03  0.7546771E-02  0.1121772E+00
         21   -1    0    0  502  501  0.00000000000E+00  0.00000000000E+00  0.65650461637E+03  0.65650461637E+03  0.00000000000E+00 0. -1.
         21   -1    0    0  503  502 -0.00000000000E+00 -0.00000000000E+00 -0.93247165211E+02  0.93247165211E+02  0.00000000000E+00 0. -1.
         25    1    1    2    0    0 -0.83854612383E+02  0.19190073109E+03  0.38579612344E+03  0.45642210230E+03  0.12500000000E+03 0.  0.
         21    1    1    2  503  504  0.39278141062E+02 -0.42630443444E+01  0.19614887578E+02  0.44109973102E+02  0.00000000000E+00 0.  1.
         21    1    1    2  504  501  0.44576471321E+02 -0.18763768674E+03  0.15784644014E+03  0.24921970617E+03  0.00000000000E+00 0. -1.
<mgrwt>
<rscale>  4 0.23705279E+03</rscale>
<asrwt>0</asrwt>
<pdfrwt beam="1">  1       21 0.10100071E+00 0.23705279E+03</pdfrwt>
<pdfrwt beam="2">  1       21 0.14345718E-01 0.23705279E+03</pdfrwt>
<totfact> 0.33319676E+04</totfact>
</mgrwt>
</event>
<event>
 5    0  0.1615618E+000  0.2309710E+03  0.7546771E-02  0.1125958E+00
         21   -1    0    0  503  501  0.00000000000E+00  0.00000000000E+00  0.44598785451E+02  0.44598785451E+02  0.00000000000E+00 0. -1.
         21   -1    0    0  501  502 -0.00000000000E+00 -0.00000000000E+00 -0.14807983081E+04  0.14807983081E+04  0.00000000000E+00 0. -1.
         25    1    1    2    0    0  0.12047104098E+01 -0.21635259748E+03 -0.62455057450E+03  0.67267995204E+03  0.12500000000E+03 0.  0.
         21    1    1    2  503  504  0.31781767113E+02  0.34282976862E+02 -0.48125938888E+02  0.67093287423E+02  0.00000000000E+00 0. -1.
         21    1    1    2  504  502 -0.32986477523E+02  0.18206962061E+03 -0.76352300929E+03  0.78562385412E+03  0.00000000000E+00 0. -1.
<mgrwt>
<rscale>  4 0.23097097E+03</rscale>
<asrwt>0</asrwt>
<pdfrwt beam="1">  1       21 0.68613519E-02 0.23097097E+03</pdfrwt>
<pdfrwt beam="2">  1       21 0.22781511E+00 0.23097097E+03</pdfrwt>
<totfact> 0.13683513E+04</totfact>
</mgrwt>
</event>
<event>
 5    0  0.1615618E+000  0.2450952E+03  0.7546771E-02  0.1116444E+00
         21   -1    0    0  503  501  0.00000000000E+00  0.00000000000E+00  0.14361273698E+04  0.14361273698E+04  0.00000000000E+00 0.  1.
         21   -1    0    0  501  502 -0.00000000000E+00 -0.00000000000E+00 -0.27002847178E+03  0.27002847178E+03  0.00000000000E+00 0.  1.
         25    1    1    2    0    0 -0.14847690203E+03 -0.19329976181E+03 -0.12555048157E+03  0.30132725031E+03  0.12500000000E+03 0.  0.
         21    1    1    2  503  504  0.37615639081E+02  0.71030568836E+02  0.12237100906E+04  0.12263468775E+04  0.00000000000E+00 0.  1.
         21    1    1    2  504  502  0.11086126295E+03  0.12226919298E+03  0.67939288988E+02  0.17848171381E+03  0.00000000000E+00 0.  1.
<mgrwt>
<rscale>  4 0.24509523E+03</rscale>
<asrwt>0</asrwt>
<pdfrwt beam="1">  1       21 0.22094267E+00 0.24509523E+03</pdfrwt>
<pdfrwt beam="2">  1       21 0.41542843E-01 0.24509523E+03</pdfrwt>
<totfact> 0.52220546E+02</totfact>
</mgrwt>
</event>
<event>
 5    0  0.1615618E+000  0.2558506E+03  0.7546771E-02  0.1109662E+00
         21   -1    0    0  503  501  0.00000000000E+00  0.00000000000E+00  0.37710983700E+03  0.37710983700E+03  0.00000000000E+00 0.  1.
         21   -1    0    0  501  502 -0.00000000000E+00 -0.00000000000E+00 -0.20002252511E+03  0.20002252511E+03  0.00000000000E+00 0.  1.
         25    1    1    2    0    0  0.16251695485E+03 -0.15304499821E+03 -0.40343619953E+02  0.25901185255E+03  0.12500000000E+03 0.  0.
         21    1    1    2  503  504 -0.86654996255E+01  0.19887597391E+02  0.50400619072E+02  0.54871028937E+02  0.00000000000E+00 0.  1.
         21    1    1    2  504  502 -0.15385145522E+03  0.13315740082E+03  0.16703031277E+03  0.26324948063E+03  0.00000000000E+00 0.  1.
<mgrwt>
<rscale>  4 0.25585061E+03</rscale>
<asrwt>0</asrwt>
<pdfrwt beam="1">  1       21 0.58016898E-01 0.25585061E+03</pdfrwt>
<pdfrwt beam="2">  1       21 0.30772696E-01 0.25585061E+03</pdfrwt>
<totfact> 0.27348372E+04</totfact>
</mgrwt>
</event>
<event>
 5    0  0.1615618E+000  0.2419885E+03  0.7546771E-02  0.1118475E+00
         21   -1    0    0  503  501  0.00000000000E+00  0.00000000000E+00  0.12862244836E+04  0.12862244836E+04  0.00000000000E+00 0.  1.
         21   -1    0    0  501  502 -0.00000000000E+00 -0.00000000000E+00 -0.25012615331E+04  0.25012615331E+04  0.00000000000E+00 0.  1.
         25    1    1    2    0    0 -0.20202345622E+03  0.18620319295E+02 -0.20457304939E+04  0.20595626834E+04  0.12500000000E+03 0.  0.
         21    1    1    2  503  504 -0.20298155653E+02  0.18386616563E+02  0.12508416733E+04  0.12511414686E+04  0.00000000000E+00 0.  1.
         21    1    1    2  504  502  0.22232161187E+03 -0.37006935858E+02 -0.42014822880E+03  0.47678186477E+03  0.00000000000E+00 0.  1.
<mgrwt>
<rscale>  4 0.24198846E+03</rscale>
<asrwt>0</asrwt>
<pdfrwt beam="1">  1       21 0.19788069E+00 0.24198846E+03</pdfrwt>
<pdfrwt beam="2">  1       21 0.38480947E+00 0.24198846E+03</pdfrwt>
<totfact> 0.13424204E+00</totfact>
</mgrwt>
</event>
<event>
 5    0  0.1615618E+000  0.3256542E+03  0.7546771E-02  0.1073076E+00
         21   -1    0    0  503  501  0.00000000000E+00  0.00000000000E+00  0.81576630271E+03  0.81576630271E+03  0.00000000000E+00 0.  1.
         21   -1    0    0  501  502 -0.00000000000E+00 -0.00000000000E+00 -0.43074375014E+03  0.43074375014E+03  0.00000000000E+00 0.  1.
         25    1    1    2    0    0  0.14581882877E+03 -0.27292049612E+03 -0.16338905760E+03  0.37157733000E+03  0.12500000000E+03 0.  0.
         21    1    1    2  503  504 -0.16950329486E+02  0.13150103307E+02  0.58255570598E+03  0.58295058920E+03  0.00000000000E+00 0.  1.
         21    1    1    2  504  502 -0.12886849928E+03  0.25977039281E+03 -0.34144095800E+02  0.29198213364E+03  0.00000000000E+00 0.  1.
<mgrwt>
<rscale>  4 0.32565420E+03</rscale>
<asrwt>0</asrwt>
<pdfrwt beam="1">  1       21 0.12550251E+00 0.32565420E+03</pdfrwt>
<pdfrwt beam="2">  1       21 0.66268269E-01 0.32565420E+03</pdfrwt>
<totfact> 0.88809720E+02</totfact>
</mgrwt>
</event>
<event>
 5    0  0.1615618E+000  0.3174562E+03  0.7546771E-02  0.1076826E+00
         21   -1    0    0  503  501  0.00000000000E+00  0.00000000000E+00  0.33679417426E+03  0.33679417426E+03  0.00000000000E+00 0.  1.
         21   -1    0    0  501  502 -0.00000000000E+00 -0.00000000000E+00 -0.50713148682E+03  0.50713148682E+03  0.00000000000E+00 0.  1.
         25    1    1    2    0    0  0.19838761153E+03  0.21167438236E+03 -0.32232596081E+03  0.45131221296E+03  0.12500000000E+03 0.  0.
         21    1    1    2  503  504 -0.11763777907E+02  0.19786130377E+02  0.84695528946E+02  0.87767932922E+02  0.00000000000E+00 0. -1.
         21    1    1    2  504  502 -0.18662383362E+03 -0.23146051274E+03  0.67293119306E+02  0.30484551520E+03  0.00000000000E+00 0.  1.
<mgrwt>
<rscale>  4 0.31745619E+03</rscale>
<asrwt>0</asrwt>
<pdfrwt beam="1">  1       21 0.51814488E-01 0.31745619E+03</pdfrwt>
<pdfrwt beam="2">  1       21 0.78020229E-01 0.31745619E+03</pdfrwt>
<totfact> 0.47646109E+03</totfact>
</mgrwt>
</event>
<event>
 5    0  0.1615618E+000  0.2375816E+03  0.7546771E-02  0.1121414E+00
         21   -1    0    0  503  501  0.00000000000E+00  0.00000000000E+00  0.33322514511E+04  0.33322514511E+04  0.00000000000E+00 0.  1.
         21   -1    0    0  501  502 -0.00000000000E+00 -0.00000000000E+00 -0.27445054760E+02  0.27445054760E+02  0.00000000000E+00 0.  1.
         25    1    1    2    0    0  0.15405481709E+03  0.17761206088E+03  0.94346596489E+03  0.98032237439E+03  0.12500000000E+03 0.  0.
         21    1    1    2  503  504 -0.50687736403E+00 -0.96839489578E+02  0.13318961442E+04  0.13354121022E+04  0.00000000000E+00 0.  1.
         21    1    1    2  504  502 -0.15354793973E+03 -0.80772571299E+02  0.10294442872E+04  0.10439620293E+04  0.00000000000E+00 0.  1.
<mgrwt>
<rscale>  4 0.23758160E+03</rscale>
<asrwt>0</asrwt>
<pdfrwt beam="1">  1       21 0.51265375E+00 0.23758160E+03</pdfrwt>
<pdfrwt beam="2">  1       21 0.42223187E-02 0.23758160E+03</pdfrwt>
<totfact> 0.51488646E+02</totfact>
</mgrwt>
</event>
<event>
 5    0  0.1615618E+000  0.2377132E+03  0.7546771E-02  0.1121326E+00
         21   -1    0    0  503  501  0.00000000000E+00  0.00000000000E+00  0.71243607228E+02  0.71243607228E+02  0.00000000000E+00 0. -1.
         21   -1    0    0  504  502 -0.00000000000E+00 -0.00000000000E+00 -0.11344512264E+04  0.11344512264E+04  0.00000000000E+00 0. -1.
         25    1    1    2    0    0  0.19869138134E+03  0.52427446775E+02 -0.68760678894E+03  0.72846070477E+03  0.12500000000E+03 0.  0.
         21    1    1    2  503  502 -0.19632081698E+03 -0.32023211570E+02 -0.39915981818E+03  0.44597747668E+03  0.00000000000E+00 0. -1.
         21    1    1    2  504  501 -0.23705643564E+01 -0.20404235206E+02  0.23558987972E+02  0.31256652155E+02  0.00000000000E+00 0.  1.
<mgrwt>
<rscale>  4 0.23771323E+03</rscale>
<asrwt>0</asrwt>
<pdfrwt beam="1">  1       21 0.10960556E-01 0.23771323E+03</pdfrwt>
<pdfrwt beam="2">  1       21 0.17453095E+00 0.23771323E+03</pdfrwt>
<totfact> 0.13254981E+04</totfact>
</mgrwt>
</event>
<event>
 5    0  0.1615618E+000  0.2551569E+03  0.7546771E-02  0.1110088E+00
         21   -1    0    0  503  501  0.00000000000E+00  0.00000000000E+00  0.41066559716E+03  0.41066559716E+03  0.00000000000E+00 0.  1.
         21   -1    0    0  504  502 -0.00000000000E+00 -0.00000000000E+00 -0.22213465330E+03  0.22213465330E+03  0.00000000000E+00 0.  1.
         25    1    1    2    0    0 -0.21225465743E+03 -0.44296107739E+02 -0.30529069798E+02  0.25213331565E+03  0.12500000000E+03 0.  0.
         21    1    1    2  503  502  0.23217715901E+03  0.14398820520E+02  0.94596009745E+02  0.25112141338E+03  0.00000000000E+00 0.  1.
         21    1    1    2  504  501 -0.19922501583E+02  0.29897287219E+02  0.12446400391E+03  0.12954552143E+03  0.00000000000E+00 0. -1.
<mgrwt>
<rscale>  4 0.25515693E+03</rscale>
<asrwt>0</asrwt>
<pdfrwt beam="1">  1       21 0.63179323E-01 0.25515693E+03</pdfrwt>
<pdfrwt beam="2">  1       21 0.34174562E-01 0.25515693E+03</pdfrwt>
<totfact> 0.18480510E+04</totfact>
</mgrwt>
</event>
<event>
 5    0  0.1615618E+000  0.3151690E+03  0.7546771E-02  0.1087385E+00
         21   -1    0    0  502  501  0.00000000000E+00  0.00000000000E+00  0.68206484933E+03  0.68206484933E+03  0.00000000000E+00 0. -1.
         21   -1    0    0  503  502 -0.00000000000E+00 -0.00000000000E+00 -0.55106269444E+03  0.55106269444E+03  0.00000000000E+00 0. -1.
         25    1    1    2    0    0 -0.20948516888E+03  0.14610280823E+02 -0.18220065799E+03  0.30482712487E+03  0.12500000000E+03 0.  0.
         21    1    1    2  503  504  0.50753737093E+02 -0.31717395305E+03  0.45617804251E+03  0.55791904859E+03  0.00000000000E+00 0. -1.
         21    1    1    2  504  501  0.15873143178E+03  0.30256367222E+03 -0.14297522961E+03  0.37038137030E+03  0.00000000000E+00 0. -1.
<mgrwt>
<rscale>  4 0.29575007E+03</rscale>
<asrwt>0</asrwt>
<pdfrwt beam="1">  1       21 0.10493305E+00 0.31516900E+03</pdfrwt>
<pdfrwt beam="2">  1       21 0.84778876E-01 0.31516900E+03</pdfrwt>
<totfact> 0.79870223E+02</totfact>
</mgrwt>
</event>
<event>
 5    0  0.1615618E+000  0.2939440E+03  0.7546771E-02  0.1088308E+00
         21   -1    0    0  502  501  0.00000000000E+00  0.00000000000E+00  0.43584174276E+03  0.43584174276E+03  0.00000000000E+00 0. -1.
         21   -1    0    0  504  502 -0.00000000000E+00 -0.00000000000E+00 -0.27611476178E+03  0.27611476178E+03  0.00000000000E+00 0. -1.
         25    1    1    2    0    0 -0.78448420751E+02 -0.25321911063E+03 -0.88457712083E+02  0.30614349501E+03  0.12500000000E+03 0.  0.
         21    1    1    2  503  501  0.32025550255E+02  0.26980473380E+03  0.21326515140E+03  0.34540158519E+03  0.00000000000E+00 0. -1.
         21    1    1    2  504  503  0.46422870496E+02 -0.16585623170E+02  0.34919541669E+02  0.60411424345E+02  0.00000000000E+00 0. -1.
<mgrwt>
<rscale>  4 0.29394397E+03</rscale>
<asrwt>0</asrwt>
<pdfrwt beam="1">  1       21 0.67052576E-01 0.29394397E+03</pdfrwt>
<pdfrwt beam="2">  1       21 0.42479194E-01 0.29394397E+03</pdfrwt>
<totfact> 0.10251614E+04</totfact>
</mgrwt>
</event>
<event>
 5    0  0.1615618E+000  0.2926904E+03  0.7546771E-02  0.1088953E+00
         21   -1    0    0  503  501  0.00000000000E+00  0.00000000000E+00  0.52031980563E+03  0.52031980563E+03  0.00000000000E+00 0. -1.
         21   -1    0    0  501  502 -0.00000000000E+00 -0.00000000000E+00 -0.32728925072E+03  0.32728925072E+03  0.00000000000E+00 0. -1.
         25    1    1    2    0    0 -0.16514481023E+03  0.20207096277E+03 -0.19136613929E+03  0.34691711057E+03  0.12500000000E+03 0.  0.
         21    1    1    2  503  504 -0.35430169480E+02 -0.14433813673E+01  0.60461853136E+02  0.70092909369E+02  0.00000000000E+00 0.  1.
         21    1    1    2  504  502  0.20057497971E+03 -0.20062758140E+03  0.32393484107E+03  0.43059903641E+03  0.00000000000E+00 0. -1.
<mgrwt>
<rscale>  4 0.29269036E+03</rscale>
<asrwt>0</asrwt>
<pdfrwt beam="1">  1       21 0.80049201E-01 0.29269036E+03</pdfrwt>
<pdfrwt beam="2">  1       21 0.50352193E-01 0.29269036E+03</pdfrwt>
<totfact> 0.48336842E+03</totfact>
</mgrwt>
</event>
<event>
 5    0  0.1615618E+000  0.2809172E+03  0.7546771E-02  0.1095189E+00
         21   -1    0    0  503  501  0.00000000000E+00  0.00000000000E+00  0.92908638382E+02  0.92908638382E+02  0.00000000000E+00 0.  1.
         21   -1    0    0  501  502 -0.00000000000E+00 -0.00000000000E+00 -0.21088722794E+04  0.21088722794E+04  0.00000000000E+00 0.  1.
         25    1    1    2    0    0 -0.29725701226E+03  0.13087918380E+03 -0.78896410913E+03  0.86231111415E+03  0.12500000000E+03 0.  0.
         21    1    1    2  503  504  0.76522880458E+02 -0.64526651334E+02 -0.97281744951E+01  0.10056876923E+03  0.00000000000E+00 0.  1.
         21    1    1    2  504  502  0.22073413180E+03 -0.66352532461E+02 -0.12172713573E+04  0.12389010344E+04  0.00000000000E+00 0.  1.
<mgrwt>
<rscale>  4 0.28091720E+03</rscale>
<asrwt>0</asrwt>
<pdfrwt beam="1">  1       21 0.14293638E-01 0.28091720E+03</pdfrwt>
<pdfrwt beam="2">  1       21 0.32444186E+00 0.28091720E+03</pdfrwt>
<totfact> 0.95336331E+02</totfact>
</mgrwt>
</event>
<event>
 5    0  0.1615618E+000  0.2593796E+03  0.7546771E-02  0.1107517E+00
         21   -1    0    0  502  501  0.00000000000E+00  0.00000000000E+00  0.78149442384E+03  0.78149442384E+03  0.00000000000E+00 0.  1.
         21   -1    0    0  503  502 -0.00000000000E+00 -0.00000000000E+00 -0.26625192468E+03  0.26625192468E+03  0.00000000000E+00 0.  1.
         25    1    1    2    0    0 -0.20817939372E+03 -0.90794586694E+02 -0.17374792911E+03  0.31208277718E+03  0.12500000000E+03 0.  0.
         21    1    1    2  503  504 -0.10812092844E+02  0.20893043277E+02  0.32734462605E+02  0.40310862694E+02  0.00000000000E+00 0.  1.
         21    1    1    2  504  501  0.21899148656E+03  0.69901543416E+02  0.65625596567E+03  0.69535270865E+03  0.00000000000E+00 0.  1.
<mgrwt>
<rscale>  4 0.25937964E+03</rscale>
<asrwt>0</asrwt>
<pdfrwt beam="1">  1       21 0.12022991E+00 0.25937964E+03</pdfrwt>
<pdfrwt beam="2">  1       21 0.40961835E-01 0.25937964E+03</pdfrwt>
<totfact> 0.28658464E+03</totfact>
</mgrwt>
</event>
<event>
 5    0  0.1615618E+000  0.3391628E+03  0.7546771E-02  0.1067153E+00
         21   -1    0    0  502  501  0.00000000000E+00  0.00000000000E+00  0.63189160654E+03  0.63189160654E+03  0.00000000000E+00 0.  1.
         21   -1    0    0  504  502 -0.00000000000E+00 -0.00000000000E+00 -0.22430586003E+03  0.22430586003E+03  0.00000000000E+00 0. -1.
         25    1    1    2    0    0 -0.37853913267E+01 -0.28567933372E+03  0.14847874099E+02  0.31220581395E+03  0.12500000000E+03 0.  0.
         21    1    1    2  503  501 -0.63955852353E+01  0.32754099217E+03  0.37348103388E+03  0.49680185963E+03  0.00000000000E+00 0.  1.
         21    1    1    2  504  503  0.10180976562E+02 -0.41861658449E+02  0.19256838527E+02  0.47189792984E+02  0.00000000000E+00 0.  1.
<mgrwt>
<rscale>  4 0.33916280E+03</rscale>
<asrwt>0</asrwt>
<pdfrwt beam="1">  1       21 0.97214092E-01 0.33916280E+03</pdfrwt>
<pdfrwt beam="2">  1       21 0.34508594E-01 0.33916280E+03</pdfrwt>
<totfact> 0.65298299E+03</totfact>
</mgrwt>
</event>
<event>
 5    0  0.1615618E+000  0.6001006E+03  0.7546771E-02  0.9905197E-01
         21   -1    0    0  503  501  0.00000000000E+00  0.00000000000E+00  0.39569378114E+03  0.39569378114E+03  0.00000000000E+00 0. -1.
         21   -1    0    0  501  502 -0.00000000000E+00 -0.00000000000E+00 -0.11894028580E+04  0.11894028580E+04  0.00000000000E+00 0. -1.
         25    1    1    2    0    0 -0.55327919528E+02 -0.58961822302E+03 -0.74355379981E+03  0.95875339937E+03  0.12500000000E+03 0.  0.
         21    1    1    2  503  504 -0.42583299418E+02  0.22661952997E+02  0.42677550876E+01  0.48426389877E+02  0.00000000000E+00 0. -1.
         21    1    1    2  504  502  0.97911218947E+02  0.56695627003E+03 -0.54423032099E+02  0.57791684985E+03  0.00000000000E+00 0. -1.
<mgrwt>
<rscale>  4 0.60010062E+03</rscale>
<asrwt>0</asrwt>
<pdfrwt beam="1">  1       21 0.60875966E-01 0.60010062E+03</pdfrwt>
<pdfrwt beam="2">  1       21 0.18298505E+00 0.60010062E+03</pdfrwt>
<totfact> 0.33618275E+02</totfact>
</mgrwt>
</event>
<event>
 5    0  0.1615618E+000  0.3915524E+03  0.7546771E-02  0.1046745E+00
         21   -1    0    0  503  501  0.00000000000E+00  0.00000000000E+00  0.18610579902E+04  0.18610579902E+04  0.00000000000E+00 0.  1.
         21   -1    0    0  501  502 -0.00000000000E+00 -0.00000000000E+00 -0.14487409480E+03  0.14487409480E+03  0.00000000000E+00 0.  1.
         25    1    1    2    0    0 -0.32902441181E+03  0.15764273977E+03  0.24241151436E+03  0.45551799006E+03  0.12500000000E+03 0.  0.
         21    1    1    2  503  504  0.62099603043E+01  0.69673826254E+02  0.40607606289E+03  0.41205676129E+03  0.00000000000E+00 0.  1.
         21    1    1    2  504  502  0.32281445151E+03 -0.22731656602E+03  0.10676963181E+04  0.11383573336E+04  0.00000000000E+00 0.  1.
<mgrwt>
<rscale>  4 0.39155240E+03</rscale>
<asrwt>0</asrwt>
<pdfrwt beam="1">  1       21 0.28631660E+00 0.39155240E+03</pdfrwt>
<pdfrwt beam="2">  1       21 0.22288324E-01 0.39155240E+03</pdfrwt>
<totfact> 0.64155551E+02</totfact>
</mgrwt>
</event>
<event>
 5    0  0.1615618E+000  0.2756715E+03  0.7546771E-02  0.1098077E+00
         21   -1    0    0  503  501  0.00000000000E+00  0.00000000000E+00  0.11369179140E+04  0.11369179140E+04  0.00000000000E+00 0. -1.
         21   -1    0    0  501  502 -0.00000000000E+00 -0.00000000000E+00 -0.73852309589E+02  0.73852309589E+02  0.00000000000E+00 0. -1.
         25    1    1    2    0    0  0.10969958141E+03  0.21332884761E+03  0.34759276956E+03  0.44044174284E+03  0.12500000000E+03 0.  0.
         21    1    1    2  503  504 -0.10354474076E+02  0.21866342581E+02  0.12022900557E+03  0.12263916932E+03  0.00000000000E+00 0. -1.
         21    1    1    2  504  502 -0.99345107333E+02 -0.23519519019E+03  0.59524382925E+03  0.64768931140E+03  0.00000000000E+00 0. -1.
<mgrwt>
<rscale>  4 0.27567148E+03</rscale>
<asrwt>0</asrwt>
<pdfrwt beam="1">  1       21 0.17491044E+00 0.27567148E+03</pdfrwt>
<pdfrwt beam="2">  1       21 0.11361895E-01 0.27567148E+03</pdfrwt>
<totfact> 0.12076663E+04</totfact>
</mgrwt>
</event>
<event>
 5    0  0.1615618E+000  0.3612279E+03  0.7546771E-02  0.1058099E+00
         21   -1    0    0  503  501  0.00000000000E+00  0.00000000000E+00  0.20205342941E+04  0.20205342941E+04  0.00000000000E+00 0.  1.
         21   -1    0    0  504  502 -0.00000000000E+00 -0.00000000000E+00 -0.79993961558E+02  0.79993961558E+02  0.00000000000E+00 0.  1.
         25    1    1    2    0    0  0.25838508358E+03 -0.21173473687E+03  0.58331520527E+03  0.68372222350E+03  0.12500000000E+03 0.  0.
         21    1    1    2  503  502 -0.28137669361E+03  0.20333691661E+03  0.99628242251E+03  0.10550343173E+04  0.00000000000E+00 0.  1.
         21    1    1    2  504  501  0.22991610031E+02  0.83978202603E+01  0.36094270480E+03  0.36177171485E+03  0.00000000000E+00 0. -1.
<mgrwt>
<rscale>  4 0.36122786E+03</rscale>
<asrwt>0</asrwt>
<pdfrwt beam="1">  1       21 0.31085139E+00 0.36122786E+03</pdfrwt>
<pdfrwt beam="2">  1       21 0.12306765E-01 0.36122786E+03</pdfrwt>
<totfact> 0.14147161E+03</totfact>
</mgrwt>
</event>
<event>
 5    0  0.1615618E+000  0.3019078E+03  0.7546771E-02  0.1084291E+00
         21   -1    0    0  502  501  0.00000000000E+00  0.00000000000E+00  0.16568546059E+03  0.16568546059E+03  0.00000000000E+00 0. -1.
         21   -1    0    0  504  502 -0.00000000000E+00 -0.00000000000E+00 -0.59006200430E+03  0.59006200430E+03  0.00000000000E+00 0.  1.
         25    1    1    2    0    0  0.42802682092E+02  0.27146126920E+03 -0.82617354205E+02  0.31300785531E+03  0.12500000000E+03 0.  0.
         21    1    1    2  503  501 -0.26064315462E+02 -0.24182594181E+03 -0.32146975068E+03  0.40311528782E+03  0.00000000000E+00 0.  1.
         21    1    1    2  504  503 -0.16738366631E+02 -0.29635327388E+02 -0.20289438827E+02  0.39624321758E+02  0.00000000000E+00 0.  1.
<mgrwt>
<rscale>  4 0.30190775E+03</rscale>
<asrwt>0</asrwt>
<pdfrwt beam="1">  1       21 0.25490071E-01 0.30190775E+03</pdfrwt>
<pdfrwt beam="2">  1       21 0.90778769E-01 0.30190775E+03</pdfrwt>
<totfact> 0.14176075E+04</totfact>
</mgrwt>
</event>
<event>
 5    0  0.1615618E+000  0.2315846E+03  0.7546771E-02  0.1125529E+00
         21   -1    0    0  503  501  0.00000000000E+00  0.00000000000E+00  0.79838563866E+02  0.79838563866E+02  0.00000000000E+00 0. -1.
         21   -1    0    0  504  502 -0.00000000000E+00 -0.00000000000E+00 -0.23674396268E+04  0.23674396268E+04  0.00000000000E+00 0.  1.
         25    1    1    2    0    0 -0.16539575347E+03  0.12147547966E+03 -0.20160857646E+04  0.20303543675E+04  0.12500000000E+03 0.  0.
         21    1    1    2  503  502  0.11330934010E+03 -0.13423291728E+02 -0.27414678089E+03  0.29694384787E+03  0.00000000000E+00 0. -1.
         21    1    1    2  504  501  0.52086413368E+02 -0.10805218794E+03  0.26314825360E+01  0.11997997531E+03  0.00000000000E+00 0. -1.
<mgrwt>
<rscale>  4 0.23158455E+03</rscale>
<asrwt>0</asrwt>
<pdfrwt beam="1">  1       21 0.12282857E-01 0.23158455E+03</pdfrwt>
<pdfrwt beam="2">  1       21 0.36422144E+00 0.23158455E+03</pdfrwt>
<totfact> 0.76730422E+02</totfact>
</mgrwt>
</event>
<event>
 5    0  0.1615618E+000  0.3093689E+03  0.7546771E-02  0.1080649E+00
         21   -1    0    0  503  501  0.00000000000E+00  0.00000000000E+00  0.11101449400E+04  0.11101449400E+04  0.00000000000E+00 0. -1.
         21   -1    0    0  504  502 -0.00000000000E+00 -0.00000000000E+00 -0.17591621216E+04  0.17591621216E+04  0.00000000000E+00 0.  1.
         25    1    1    2    0    0 -0.26911656925E+03  0.27879121801E+02 -0.11896399712E+04  0.12264050042E+04  0.12500000000E+03 0.  0.
         21    1    1    2  503  502  0.31432608905E+03 -0.21417596296E+01 -0.50562203009E+03  0.59536469051E+03  0.00000000000E+00 0.  1.
         21    1    1    2  504  501 -0.45209519804E+02 -0.25737362171E+02  0.10462448196E+04  0.10475373669E+04  0.00000000000E+00 0. -1.
<mgrwt>
<rscale>  4 0.30936887E+03</rscale>
<asrwt>0</asrwt>
<pdfrwt beam="1">  1       21 0.17079153E+00 0.30936887E+03</pdfrwt>
<pdfrwt beam="2">  1       21 0.27064033E+00 0.30936887E+03</pdfrwt>
<totfact> 0.88873447E+00</totfact>
</mgrwt>
</event>
<event>
 5    0  0.1615618E+000  0.2450621E+03  0.7546771E-02  0.1116466E+00
         21   -1    0    0  502  501  0.00000000000E+00  0.00000000000E+00  0.59114217453E+03  0.59114217453E+03  0.00000000000E+00 0.  1.
         21   -1    0    0  503  502 -0.00000000000E+00 -0.00000000000E+00 -0.66133789443E+03  0.66133789443E+03  0.00000000000E+00 0. -1.
         25    1    1    2    0    0  0.18375979107E+03  0.10021230170E+03 -0.60376729571E+03  0.65112987460E+03  0.12500000000E+03 0.  0.
         21    1    1    2  503  504  0.19239230791E+02  0.28492222743E+02  0.98073224915E+02  0.10392455053E+03  0.00000000000E+00 0. -1.
         21    1    1    2  504  501 -0.20299902186E+03 -0.12870452445E+03  0.43549835090E+03  0.49742564382E+03  0.00000000000E+00 0.  1.
<mgrwt>
<rscale>  4 0.24506215E+03</rscale>
<asrwt>0</asrwt>
<pdfrwt beam="1">  1       21 0.90944951E-01 0.24506215E+03</pdfrwt>
<pdfrwt beam="2">  1       21 0.10174429E+00 0.24506215E+03</pdfrwt>
<totfact> 0.76893566E+02</totfact>
</mgrwt>
</event>
<event>
 5    0  0.1615618E+000  0.2749995E+03  0.7546771E-02  0.1098452E+00
         21   -1    0    0  503  501  0.00000000000E+00  0.00000000000E+00  0.40985730979E+02  0.40985730979E+02  0.00000000000E+00 0.  1.
         21   -1    0    0  504  502 -0.00000000000E+00 -0.00000000000E+00 -0.21132815193E+04  0.21132815193E+04  0.00000000000E+00 0.  1.
         25    1    1    2    0    0 -0.71308578957E+02  0.24274222106E+03 -0.14543761189E+04  0.14815004538E+04  0.12500000000E+03 0.  0.
         21    1    1    2  503  502  0.72266233495E+02 -0.22067172176E+03 -0.60285392417E+03  0.64602729910E+03  0.00000000000E+00 0.  1.
         21    1    1    2  504  501 -0.95765453794E+00 -0.22070499298E+02 -0.15065745246E+02  0.26739497402E+02  0.00000000000E+00 0.  1.
<mgrwt>
<rscale>  4 0.27499950E+03</rscale>
<asrwt>0</asrwt>
<pdfrwt beam="1">  1       21 0.63054958E-02 0.27499950E+03</pdfrwt>
<pdfrwt beam="2">  1       21 0.32512030E+00 0.27499950E+03</pdfrwt>
<totfact> 0.40646567E+03</totfact>
</mgrwt>
</event>
<event>
 5    0  0.1615618E+000  0.2738672E+03  0.7546771E-02  0.1099086E+00
         21   -1    0    0  503  501  0.00000000000E+00  0.00000000000E+00  0.40532399801E+03  0.40532399801E+03  0.00000000000E+00 0. -1.
         21   -1    0    0  504  502 -0.00000000000E+00 -0.00000000000E+00 -0.21246849301E+04  0.21246849301E+04  0.00000000000E+00 0.  1.
         25    1    1    2    0    0 -0.42998137836E+02 -0.23348182205E+03 -0.16354284746E+04  0.16572911321E+04  0.12500000000E+03 0.  0.
         21    1    1    2  503  502  0.32579935406E+02  0.26310889498E+03 -0.44084618635E+03  0.51442502158E+03  0.00000000000E+00 0.  1.
         21    1    1    2  504  501  0.10418202431E+02 -0.29627072936E+02  0.35691372882E+03  0.35829277444E+03  0.00000000000E+00 0. -1.
<mgrwt>
<rscale>  4 0.27386719E+03</rscale>
<asrwt>0</asrwt>
<pdfrwt beam="1">  1       21 0.62357539E-01 0.27386719E+03</pdfrwt>
<pdfrwt beam="2">  1       21 0.32687460E+00 0.27386719E+03</pdfrwt>
<totfact> 0.50477325E+01</totfact>
</mgrwt>
</event>
<event>
 5    0  0.1615618E+000  0.2710613E+03  0.7546771E-02  0.1100674E+00
         21   -1    0    0  503  501  0.00000000000E+00  0.00000000000E+00  0.22412169937E+03  0.22412169937E+03  0.00000000000E+00 0.  1.
         21   -1    0    0  504  502 -0.00000000000E+00 -0.00000000000E+00 -0.12618993191E+04  0.12618993191E+04  0.00000000000E+00 0.  1.
         25    1    1    2    0    0 -0.23910780095E+03  0.55763712269E+02 -0.10720741526E+04  0.11069101683E+04  0.12500000000E+03 0.  0.
         21    1    1    2  503  502  0.20974241308E+03 -0.68627182386E+02 -0.99101444502E+02  0.24191458474E+03  0.00000000000E+00 0.  1.
         21    1    1    2  504  501  0.29365387865E+02  0.12863470117E+02  0.13339797737E+03  0.13719626538E+03  0.00000000000E+00 0.  1.
<mgrwt>
<rscale>  4 0.27106129E+03</rscale>
<asrwt>0</asrwt>
<pdfrwt beam="1">  1       21 0.34480261E-01 0.27106129E+03</pdfrwt>
<pdfrwt beam="2">  1       21 0.19413836E+00 0.27106129E+03</pdfrwt>
<totfact> 0.11036299E+03</totfact>
</mgrwt>
</event>
<event>
 5    0  0.1615618E+000  0.2725730E+03  0.7546771E-02  0.1099816E+00
         21   -1    0    0  502  501  0.00000000000E+00  0.00000000000E+00  0.16422304485E+04  0.16422304485E+04  0.00000000000E+00 0. -1.
         21   -1    0    0  504  502 -0.00000000000E+00 -0.00000000000E+00 -0.15786443945E+03  0.15786443945E+03  0.00000000000E+00 0. -1.
         25    1    1    2    0    0  0.14033960404E+03  0.19636670542E+03 -0.18361265298E+02  0.27242838237E+03  0.12500000000E+03 0.  0.
         21    1    1    2  503  501 -0.13137850638E+03 -0.21565206669E+03  0.14181522517E+04  0.14404589320E+04  0.00000000000E+00 0. -1.
         21    1    1    2  504  503 -0.89610976553E+01  0.19285361279E+02  0.84575022661E+02  0.87207573575E+02  0.00000000000E+00 0.  1.
<mgrwt>
<rscale>  4 0.27257296E+03</rscale>
<asrwt>0</asrwt>
<pdfrwt beam="1">  1       21 0.25265083E+00 0.27257296E+03</pdfrwt>
<pdfrwt beam="2">  1       21 0.24286838E-01 0.27257296E+03</pdfrwt>
<totfact> 0.94418672E+02</totfact>
</mgrwt>
</event>
<event>
 5    0  0.1615618E+000  0.3768072E+03  0.7546771E-02  0.1052120E+00
         21   -1    0    0  503  501  0.00000000000E+00  0.00000000000E+00  0.46916291966E+03  0.46916291966E+03  0.00000000000E+00 0. -1.
         21   -1    0    0  501  502 -0.00000000000E+00 -0.00000000000E+00 -0.35720894817E+03  0.35720894817E+03  0.00000000000E+00 0. -1.
         25    1    1    2    0    0 -0.58366561046E+02  0.33580688936E+03  0.13439791067E+03  0.38711848417E+03  0.12500000000E+03 0.  0.
         21    1    1    2  503  504 -0.23312134403E+02  0.18727722648E+02  0.59253879318E+02  0.66371721540E+02  0.00000000000E+00 0. -1.
         21    1    1    2  504  502  0.81678695449E+02 -0.35453461201E+03 -0.81697818502E+02  0.37288166213E+03  0.00000000000E+00 0. -1.
<mgrwt>
<rscale>  4 0.37680723E+03</rscale>
<asrwt>0</asrwt>
<pdfrwt beam="1">  1       21 0.72178911E-01 0.37680723E+03</pdfrwt>
<pdfrwt beam="2">  1       21 0.54955223E-01 0.37680723E+03</pdfrwt>
<totfact> 0.48840545E+03</totfact>
</mgrwt>
</event>
<event>
 5    0  0.1615618E+000  0.2592545E+03  0.7546771E-02  0.1107592E+00
         21   -1    0    0  503  501  0.00000000000E+00  0.00000000000E+00  0.40868028493E+03  0.40868028493E+03  0.00000000000E+00 0. -1.
         21   -1    0    0  501  502 -0.00000000000E+00 -0.00000000000E+00 -0.16999742301E+03  0.16999742301E+03  0.00000000000E+00 0. -1.
         25    1    1    2    0    0  0.14892112015E+03 -0.15737898695E+03  0.89440108601E+02  0.26565048200E+03  0.12500000000E+03 0.  0.
         21    1    1    2  503  504  0.36647432796E+01 -0.25189511064E+02  0.48233574290E+02  0.54538238877E+02  0.00000000000E+00 0.  1.
         21    1    1    2  504  502 -0.15258586343E+03  0.18256849802E+03  0.10100917902E+03  0.25848898706E+03  0.00000000000E+00 0. -1.
<mgrwt>
<rscale>  4 0.25925447E+03</rscale>
<asrwt>0</asrwt>
<pdfrwt beam="1">  1       21 0.62873890E-01 0.25925447E+03</pdfrwt>
<pdfrwt beam="2">  1       21 0.26153450E-01 0.25925447E+03</pdfrwt>
<totfact> 0.31507683E+04</totfact>
</mgrwt>
</event>
<event>
 5    0  0.1615618E+000  0.3097284E+03  0.7546771E-02  0.1080476E+00
         21   -1    0    0  502  501  0.00000000000E+00  0.00000000000E+00  0.12803063754E+03  0.12803063754E+03  0.00000000000E+00 0. -1.
         21   -1    0    0  503  502 -0.00000000000E+00 -0.00000000000E+00 -0.15505229558E+04  0.15505229558E+04  0.00000000000E+00 0. -1.
         25    1    1    2    0    0 -0.21424783609E+03  0.22140601403E+03 -0.11366730591E+04  0.11843029180E+04  0.12500000000E+03 0.  0.
         21    1    1    2  503  504  0.57110503423E+02  0.10179189038E+02 -0.18965084085E+03  0.19832465033E+03  0.00000000000E+00 0.  1.
         21    1    1    2  504  501  0.15713733267E+03 -0.23158520307E+03 -0.96168418327E+02  0.29592602502E+03  0.00000000000E+00 0. -1.
<mgrwt>
<rscale>  4 0.30972839E+03</rscale>
<asrwt>0</asrwt>
<pdfrwt beam="1">  1       21 0.19697021E-01 0.30972839E+03</pdfrwt>
<pdfrwt beam="2">  1       21 0.23854199E+00 0.30972839E+03</pdfrwt>
<totfact> 0.16622840E+03</totfact>
</mgrwt>
</event>
<event>
 5    0  0.1615618E+000  0.4663337E+03  0.7546771E-02  0.1022960E+00
         21   -1    0    0  503  501  0.00000000000E+00  0.00000000000E+00  0.40243935069E+03  0.40243935069E+03  0.00000000000E+00 0. -1.
         21   -1    0    0  501  502 -0.00000000000E+00 -0.00000000000E+00 -0.74321943579E+03  0.74321943579E+03  0.00000000000E+00 0. -1.
         25    1    1    2    0    0  0.41681666734E+03 -0.13158751819E+03 -0.32409616984E+03  0.55831419149E+03  0.12500000000E+03 0.  0.
         21    1    1    2  503  504  0.11532452109E+02 -0.65130388333E+02  0.82419359556E+02  0.10567835997E+03  0.00000000000E+00 0. -1.
         21    1    1    2  504  502 -0.42834911945E+03  0.19671790652E+03 -0.99103274816E+02  0.48166623502E+03  0.00000000000E+00 0. -1.
<mgrwt>
<rscale>  4 0.46633371E+03</rscale>
<asrwt>0</asrwt>
<pdfrwt beam="1">  1       21 0.61913746E-01 0.46633371E+03</pdfrwt>
<pdfrwt beam="2">  1       21 0.11434145E+00 0.46633371E+03</pdfrwt>
<totfact> 0.12199088E+03</totfact>
</mgrwt>
</event>
<event>
 5    0  0.1615618E+000  0.2715240E+03  0.7546771E-02  0.1100411E+00
         21   -1    0    0  503  501  0.00000000000E+00  0.00000000000E+00  0.33029436117E+03  0.33029436117E+03  0.00000000000E+00 0. -1.
         21   -1    0    0  504  502 -0.00000000000E+00 -0.00000000000E+00 -0.17634563513E+04  0.17634563513E+04  0.00000000000E+00 0.  1.
         25    1    1    2    0    0 -0.23281358396E+03  0.88894139834E+02 -0.14671032708E+04  0.14933590795E+04  0.12500000000E+03 0.  0.
         21    1    1    2  503  502  0.21259914101E+03 -0.44130689673E+02 -0.23909419881E+03  0.32297360331E+03  0.00000000000E+00 0.  1.
         21    1    1    2  504  501  0.20214442951E+02 -0.44763450161E+02  0.27303547947E+03  0.27741802973E+03  0.00000000000E+00 0. -1.
<mgrwt>
<rscale>  4 0.27152404E+03</rscale>
<asrwt>0</asrwt>
<pdfrwt beam="1">  1       21 0.50814517E-01 0.27152404E+03</pdfrwt>
<pdfrwt beam="2">  1       21 0.27130098E+00 0.27152404E+03</pdfrwt>
<totfact> 0.16655913E+02</totfact>
</mgrwt>
</event>
<event>
 5    0  0.1615618E+000  0.2782514E+03  0.7546771E-02  0.1096648E+00
         21   -1    0    0  503  501  0.00000000000E+00  0.00000000000E+00  0.86053947346E+03  0.86053947346E+03  0.00000000000E+00 0. -1.
         21   -1    0    0  504  502 -0.00000000000E+00 -0.00000000000E+00 -0.28167186034E+03  0.28167186034E+03  0.00000000000E+00 0.  1.
         25    1    1    2    0    0  0.11899823954E+02  0.24458393828E+03 -0.13802057259E+03  0.30763222707E+03  0.12500000000E+03 0.  0.
         21    1    1    2  503  502  0.29190036572E+02 -0.26282262876E+03  0.24479533853E+03  0.36035059343E+03  0.00000000000E+00 0.  1.
         21    1    1    2  504  501 -0.41089860526E+02  0.18238690480E+02  0.47209284718E+03  0.47422851330E+03  0.00000000000E+00 0. -1.
<mgrwt>
<rscale>  4 0.27825143E+03</rscale>
<asrwt>0</asrwt>
<pdfrwt beam="1">  1       21 0.13239069E+00 0.27825143E+03</pdfrwt>
<pdfrwt beam="2">  1       21 0.43334133E-01 0.27825143E+03</pdfrwt>
<totfact> 0.19748558E+03</totfact>
</mgrwt>
</event>
<event>
 5    0  0.1615618E+000  0.1991120E+03  0.7546771E-02  0.1150490E+00
         21   -1    0    0  503  501  0.00000000000E+00  0.00000000000E+00  0.13245933837E+04  0.13245933837E+04  0.00000000000E+00 0. -1.
         21   -1    0    0  501  502 -0.00000000000E+00 -0.00000000000E+00 -0.13916825080E+03  0.13916825080E+03  0.00000000000E+00 0. -1.
         25    1    1    2    0    0 -0.20290155194E+03  0.21156135907E+02  0.23145222753E+03  0.33288399706E+03  0.12500000000E+03 0.  0.
         21    1    1    2  503  504  0.58230808164E+02 -0.31479353289E+02  0.98109446024E+03  0.98332503101E+03  0.00000000000E+00 0. -1.
         21    1    1    2  504  502  0.14467074378E+03  0.10323217382E+02 -0.27121554885E+02  0.14755260642E+03  0.00000000000E+00 0. -1.
<mgrwt>
<rscale>  4 0.19911204E+03</rscale>
<asrwt>0</asrwt>
<pdfrwt beam="1">  1       21 0.20378359E+00 0.19911204E+03</pdfrwt>
<pdfrwt beam="2">  1       21 0.21410501E-01 0.19911204E+03</pdfrwt>
<totfact> 0.25633546E+03</totfact>
</mgrwt>
</event>
<event>
 5    0  0.1615618E+000  0.4108507E+03  0.7546771E-02  0.1040086E+00
         21   -1    0    0  503  501  0.00000000000E+00  0.00000000000E+00  0.98276294961E+03  0.98276294961E+03  0.00000000000E+00 0.  1.
         21   -1    0    0  501  502 -0.00000000000E+00 -0.00000000000E+00 -0.81076774477E+03  0.81076774477E+03  0.00000000000E+00 0.  1.
         25    1    1    2    0    0  0.99490958159E+02  0.37917138647E+03 -0.70348176877E+03  0.81497299959E+03  0.12500000000E+03 0.  0.
         21    1    1    2  503  504  0.25040092172E+02 -0.15889279785E+02  0.19458208307E+03  0.19682901838E+03  0.00000000000E+00 0.  1.
         21    1    1    2  504  502 -0.12453105033E+03 -0.36328210668E+03  0.68089489055E+03  0.78172867641E+03  0.00000000000E+00 0.  1.
<mgrwt>
<rscale>  4 0.41085066E+03</rscale>
<asrwt>0</asrwt>
<pdfrwt beam="1">  1       21 0.15119430E+00 0.41085066E+03</pdfrwt>
<pdfrwt beam="2">  1       21 0.12473350E+00 0.41085066E+03</pdfrwt>
<totfact> 0.11549965E+02</totfact>
</mgrwt>
</event>
<event>
 5    0  0.1615618E+000  0.3078416E+03  0.7546771E-02  0.1081385E+00
         21   -1    0    0  502  501  0.00000000000E+00  0.00000000000E+00  0.29688977227E+03  0.29688977227E+03  0.00000000000E+00 0.  1.
         21   -1    0    0  504  502 -0.00000000000E+00 -0.00000000000E+00 -0.58691546738E+03  0.58691546738E+03  0.00000000000E+00 0.  1.
         25    1    1    2    0    0  0.55975468758E+02 -0.29949620839E+03 -0.40852833398E+03  0.52473958456E+03  0.12500000000E+03 0.  0.
         21    1    1    2  503  501 -0.28902502640E+02  0.69366599648E+02  0.10209435285E+03  0.12676883169E+03  0.00000000000E+00 0.  1.
         21    1    1    2  504  503 -0.27072966118E+02  0.23012960874E+03  0.16408286024E+02  0.23229682340E+03  0.00000000000E+00 0.  1.
<mgrwt>
<rscale>  4 0.30784165E+03</rscale>
<asrwt>0</asrwt>
<pdfrwt beam="1">  1       21 0.45675349E-01 0.30784165E+03</pdfrwt>
<pdfrwt beam="2">  1       21 0.90294688E-01 0.30784165E+03</pdfrwt>
<totfact> 0.44510230E+03</totfact>
</mgrwt>
</event>
<event>
 5    0  0.1615618E+000  0.2573612E+03  0.7546771E-02  0.1108739E+00
         21   -1    0    0  503  501  0.00000000000E+00  0.00000000000E+00  0.10121602473E+04  0.10121602473E+04  0.00000000000E+00 0. -1.
         21   -1    0    0  501  502 -0.00000000000E+00 -0.00000000000E+00 -0.22159563538E+03  0.22159563538E+03  0.00000000000E+00 0.  1.
         25    1    1    2    0    0 -0.27157386081E+02  0.21058699995E+03  0.79750900993E+02  0.25897801910E+03  0.12500000000E+03 0.  0.
         21    1    1    2  503  504 -0.42119545839E+02  0.12907992906E+02  0.73791419165E+03  0.73922799369E+03  0.00000000000E+00 0. -1.
         21    1    1    2  504  502  0.69276931920E+02 -0.22349499286E+03 -0.27100480764E+02  0.23554986985E+03  0.00000000000E+00 0.  1.
<mgrwt>
<rscale>  4 0.25736116E+03</rscale>
<asrwt>0</asrwt>
<pdfrwt beam="1">  1       21 0.15571696E+00 0.25736116E+03</pdfrwt>
<pdfrwt beam="2">  1       21 0.34091637E-01 0.25736116E+03</pdfrwt>
<totfact> 0.21253314E+03</totfact>
</mgrwt>
</event>
<event>
 5    0  0.1615618E+000  0.3998011E+03  0.7546771E-02  0.1043849E+00
         21   -1    0    0  503  501  0.00000000000E+00  0.00000000000E+00  0.51404043491E+03  0.51404043491E+03  0.00000000000E+00 0. -1.
         21   -1    0    0  504  502 -0.00000000000E+00 -0.00000000000E+00 -0.43631503982E+03  0.43631503982E+03  0.00000000000E+00 0. -1.
         25    1    1    2    0    0  0.16302098795E+03 -0.33565700686E+03 -0.18034366880E+03  0.43288602154E+03  0.12500000000E+03 0.  0.
         21    1    1    2  503  502 -0.20480575726E+03  0.34088802322E+03  0.19836444844E+03  0.44440802984E+03  0.00000000000E+00 0. -1.
         21    1    1    2  504  501  0.41784769304E+02 -0.52310163641E+01  0.59704615442E+02  0.73061423358E+02  0.00000000000E+00 0.  1.
<mgrwt>
<rscale>  4 0.39980110E+03</rscale>
<asrwt>0</asrwt>
<pdfrwt beam="1">  1       21 0.79083144E-01 0.39980110E+03</pdfrwt>
<pdfrwt beam="2">  1       21 0.67125391E-01 0.39980110E+03</pdfrwt>
<totfact> 0.25363926E+03</totfact>
</mgrwt>
</event>
<event>
 5    0  0.1615618E+000  0.4786474E+03  0.7546771E-02  0.1019508E+00
         21   -1    0    0  502  501  0.00000000000E+00  0.00000000000E+00  0.35570356508E+03  0.35570356508E+03  0.00000000000E+00 0.  1.
         21   -1    0    0  503  502 -0.00000000000E+00 -0.00000000000E+00 -0.10541209828E+04  0.10541209828E+04  0.00000000000E+00 0.  1.
         25    1    1    2    0    0  0.30740570020E+03 -0.34493486463E+03 -0.79735493172E+03  0.92998828621E+03  0.12500000000E+03 0.  0.
         21    1    1    2  503  504 -0.20193289543E+02  0.60958548527E+02  0.26621071566E+02  0.69515430175E+02  0.00000000000E+00 0. -1.
         21    1    1    2  504  501 -0.28721241066E+03  0.28397631610E+03  0.72316442406E+02  0.41032083153E+03  0.00000000000E+00 0.  1.
<mgrwt>
<rscale>  4 0.47864739E+03</rscale>
<asrwt>0</asrwt>
<pdfrwt beam="1">  1       21 0.54723625E-01 0.47864739E+03</pdfrwt>
<pdfrwt beam="2">  1       21 0.16217246E+00 0.47864739E+03</pdfrwt>
<totfact> 0.63081717E+02</totfact>
</mgrwt>
</event>
<event>
 5    0  0.1615618E+000  0.2822349E+03  0.7546771E-02  0.1094475E+00
         21   -1    0    0  503  501  0.00000000000E+00  0.00000000000E+00  0.99201661060E+02  0.99201661060E+02  0.00000000000E+00 0.  1.
         21   -1    0    0  504  502 -0.00000000000E+00 -0.00000000000E+00 -0.13115537935E+04  0.13115537935E+04  0.00000000000E+00 0.  1.
         25    1    1    2    0    0  0.23181415295E+03  0.60450970623E+02 -0.70978834679E+03  0.75948444263E+03  0.12500000000E+03 0.  0.
         21    1    1    2  503  502  0.28198245533E+02 -0.10768696813E+03 -0.29478175413E+03  0.31509983612E+03  0.00000000000E+00 0.  1.
         21    1    1    2  504  501 -0.26001239848E+03  0.47235997509E+02 -0.20778203153E+03  0.33617117582E+03  0.00000000000E+00 0.  1.
<mgrwt>
<rscale>  4 0.28223492E+03</rscale>
<asrwt>0</asrwt>
<pdfrwt beam="1">  1       21 0.15261793E-01 0.28223492E+03</pdfrwt>
<pdfrwt beam="2">  1       21 0.20177752E+00 0.28223492E+03</pdfrwt>
<totfact> 0.46338150E+03</totfact>
</mgrwt>
</event>
<event>
 5    0  0.1615618E+000  0.3087275E+03  0.7546771E-02  0.1080957E+00
         21   -1    0    0  503  501  0.00000000000E+00  0.00000000000E+00  0.28496917376E+03  0.28496917376E+03  0.00000000000E+00 0. -1.
         21   -1    0    0  501  502 -0.00000000000E+00 -0.00000000000E+00 -0.38248953635E+03  0.38248953635E+03  0.00000000000E+00 0. -1.
         25    1    1    2    0    0 -0.12056641030E+03 -0.25378837800E+03 -0.14476332835E+03  0.33989148465E+03  0.12500000000E+03 0.  0.
         21    1    1    2  503  504 -0.21376400361E+02  0.68647548102E+01  0.36128527539E+02  0.42536406208E+02  0.00000000000E+00 0. -1.
         21    1    1    2  504  502  0.14194281066E+03  0.24692362319E+03  0.11114438221E+02  0.28503081925E+03  0.00000000000E+00 0. -1.
<mgrwt>
<rscale>  4 0.30872754E+03</rscale>
<asrwt>0</asrwt>
<pdfrwt beam="1">  1       21 0.43841411E-01 0.30872754E+03</pdfrwt>
<pdfrwt beam="2">  1       21 0.58844544E-01 0.30872754E+03</pdfrwt>
<totfact> 0.12699668E+04</totfact>
</mgrwt>
</event>
<event>
 5    0  0.1615618E+000  0.2432453E+03  0.7546771E-02  0.1117650E+00
         21   -1    0    0  503  501  0.00000000000E+00  0.00000000000E+00  0.49003215053E+03  0.49003215053E+03  0.00000000000E+00 0.  1.
         21   -1    0    0  501  502 -0.00000000000E+00 -0.00000000000E+00 -0.26991117570E+03  0.26991117570E+03  0.00000000000E+00 0. -1.
         25    1    1    2    0    0  0.21051642955E+03 -0.15965907003E+02 -0.17332518531E+03  0.30039756517E+03  0.12500000000E+03 0.  0.
         21    1    1    2  503  504 -0.13118230978E+02  0.33379970921E+02  0.92559965856E+02  0.99265591833E+02  0.00000000000E+00 0. -1.
         21    1    1    2  504  502 -0.19739819858E+03 -0.17414063918E+02  0.30088619429E+03  0.36028016923E+03  0.00000000000E+00 0.  1.
<mgrwt>
<rscale>  4 0.24324530E+03</rscale>
<asrwt>0</asrwt>
<pdfrwt beam="1">  1       21 0.75389561E-01 0.24324530E+03</pdfrwt>
<pdfrwt beam="2">  1       21 0.41524796E-01 0.24324530E+03</pdfrwt>
<totfact> 0.84901450E+03</totfact>
</mgrwt>
</event>
<event>
 5    0  0.1615618E+000  0.3197492E+03  0.7546771E-02  0.1075765E+00
         21   -1    0    0  502  501  0.00000000000E+00  0.00000000000E+00  0.61149717214E+03  0.61149717214E+03  0.00000000000E+00 0. -1.
         21   -1    0    0  504  502 -0.00000000000E+00 -0.00000000000E+00 -0.31080991976E+03  0.31080991976E+03  0.00000000000E+00 0. -1.
         25    1    1    2    0    0 -0.23202631240E+03  0.17559227283E+03 -0.13717745188E+03  0.34512535292E+03  0.12500000000E+03 0.  0.
         21    1    1    2  503  501  0.28144020405E+03 -0.13649528920E+03  0.37206063189E+03  0.48607475375E+03  0.00000000000E+00 0. -1.
         21    1    1    2  504  503 -0.49413891652E+02 -0.39096983627E+02  0.65804072366E+02  0.91106985225E+02  0.00000000000E+00 0. -1.
<mgrwt>
<rscale>  4 0.31974916E+03</rscale>
<asrwt>0</asrwt>
<pdfrwt beam="1">  1       21 0.94076488E-01 0.31974916E+03</pdfrwt>
<pdfrwt beam="2">  1       21 0.47816911E-01 0.31974916E+03</pdfrwt>
<totfact> 0.36496471E+03</totfact>
</mgrwt>
</event>
<event>
 5    0  0.1615618E+000  0.2571028E+03  0.7546771E-02  0.1108897E+00
         21   -1    0    0  503  501  0.00000000000E+00  0.00000000000E+00  0.39001482822E+03  0.39001482822E+03  0.00000000000E+00 0. -1.
         21   -1    0    0  504  502 -0.00000000000E+00 -0.00000000000E+00 -0.22955251071E+03  0.22955251071E+03  0.00000000000E+00 0. -1.
         25    1    1    2    0    0 -0.22723086540E+03 -0.26678980845E+02 -0.82263652211E+02  0.27338241108E+03  0.12500000000E+03 0.  0.
         21    1    1    2  503  502  0.21491270673E+03  0.90500404197E+01  0.18201721444E+03  0.28177941922E+03  0.00000000000E+00 0. -1.
         21    1    1    2  504  501  0.12318158670E+02  0.17628940426E+02  0.60708755290E+02  0.64405508634E+02  0.00000000000E+00 0.  1.
<mgrwt>
<rscale>  4 0.25710283E+03</rscale>
<asrwt>0</asrwt>
<pdfrwt beam="1">  1       21 0.60002281E-01 0.25710283E+03</pdfrwt>
<pdfrwt beam="2">  1       21 0.35315771E-01 0.25710283E+03</pdfrwt>
<totfact> 0.19342018E+04</totfact>
</mgrwt>
</event>
<event>
 5    0  0.1615618E+000  0.2189026E+03  0.7546771E-02  0.1134704E+00
         21   -1    0    0  503  501  0.00000000000E+00  0.00000000000E+00  0.16749198717E+04  0.16749198717E+04  0.00000000000E+00 0.  1.
         21   -1    0    0  501  502 -0.00000000000E+00 -0.00000000000E+00 -0.95687105433E+02  0.95687105433E+02  0.00000000000E+00 0. -1.
         25    1    1    2    0    0  0.17370547819E+03 -0.10051809696E+03  0.41794805586E+03  0.48019064794E+03  0.12500000000E+03 0.  0.
         21    1    1    2  503  504 -0.18513858916E+02  0.21282368391E+02  0.11077780598E+04  0.11081371449E+04  0.00000000000E+00 0.  1.
         21    1    1    2  504  502 -0.15519161928E+03  0.79235728569E+02  0.53506650666E+02  0.18227918433E+03  0.00000000000E+00 0. -1.
<mgrwt>
<rscale>  4 0.21890258E+03</rscale>
<asrwt>0</asrwt>
<pdfrwt beam="1">  1       21 0.25767996E+00 0.21890258E+03</pdfrwt>
<pdfrwt beam="2">  1       21 0.14721094E-01 0.21890258E+03</pdfrwt>
<totfact> 0.23647089E+03</totfact>
</mgrwt>
</event>
<event>
 5    0  0.1615618E+000  0.2518335E+03  0.7546771E-02  0.1112152E+00
         21   -1    0    0  503  501  0.00000000000E+00  0.00000000000E+00  0.60808493931E+03  0.60808493931E+03  0.00000000000E+00 0. -1.
         21   -1    0    0  501  502 -0.00000000000E+00 -0.00000000000E+00 -0.13817793999E+03  0.13817793999E+03  0.00000000000E+00 0. -1.
         25    1    1    2    0    0  0.22737496365E+03  0.28872870836E+02  0.69047991962E+02  0.27004748094E+03  0.12500000000E+03 0.  0.
         21    1    1    2  503  504 -0.30304973155E+02  0.12937924649E+02  0.15449696790E+03  0.15797181515E+03  0.00000000000E+00 0. -1.
         21    1    1    2  504  502 -0.19706999050E+03 -0.41810795485E+02  0.24636203946E+03  0.31824358322E+03  0.00000000000E+00 0. -1.
<mgrwt>
<rscale>  4 0.25183352E+03</rscale>
<asrwt>0</asrwt>
<pdfrwt beam="1">  1       21 0.93551527E-01 0.25183352E+03</pdfrwt>
<pdfrwt beam="2">  1       21 0.21258145E-01 0.25183352E+03</pdfrwt>
<totfact> 0.19124075E+04</totfact>
</mgrwt>
</event>
<event>
 5    0  0.1615618E+000  0.5144657E+03  0.7546771E-02  0.1010071E+00
         21   -1    0    0  503  501  0.00000000000E+00  0.00000000000E+00  0.33481536476E+03  0.33481536476E+03  0.00000000000E+00 0.  1.
         21   -1    0    0  501  502 -0.00000000000E+00 -0.00000000000E+00 -0.20078963020E+04  0.20078963020E+04  0.00000000000E+00 0. -1.
         25    1    1    2    0    0 -0.10289503028E+03  0.49432203088E+03 -0.14715662480E+04  0.15607927087E+04  0.12500000000E+03 0.  0.
         21    1    1    2  503  504  0.23271565009E+03  0.71504245026E+01 -0.22740694814E+02  0.23393341268E+03  0.00000000000E+00 0.  1.
         21    1    1    2  504  502 -0.12982061981E+03 -0.50147245538E+03 -0.17877399446E+03  0.54798554536E+03  0.00000000000E+00 0.  1.
<mgrwt>
<rscale>  4 0.51446575E+03</rscale>
<asrwt>0</asrwt>
<pdfrwt beam="1">  1       21 0.51510056E-01 0.51446575E+03</pdfrwt>
<pdfrwt beam="2">  1       21 0.30890712E+00 0.51446575E+03</pdfrwt>
<totfact> 0.80161525E+01</totfact>
</mgrwt>
</event>
<event>
 5    0  0.1615618E+000  0.2596342E+03  0.7546771E-02  0.1107363E+00
         21   -1    0    0  503  501  0.00000000000E+00  0.00000000000E+00  0.23697660015E+03  0.23697660015E+03  0.00000000000E+00 0. -1.
         21   -1    0    0  504  502 -0.00000000000E+00 -0.00000000000E+00 -0.14016116216E+04  0.14016116216E+04  0.00000000000E+00 0.  1.
         25    1    1    2    0    0 -0.18000236711E+03  0.11417807432E+03 -0.10674748373E+04  0.10957029766E+04  0.12500000000E+03 0.  0.
         21    1    1    2  503  502  0.32801589579E+03 -0.12072455283E+03 -0.15691168226E+03  0.38313198977E+03  0.00000000000E+00 0. -1.
         21    1    1    2  504  501 -0.14801352869E+03  0.65464785104E+01  0.59751498109E+02  0.15975325531E+03  0.00000000000E+00 0. -1.
<mgrwt>
<rscale>  4 0.25963419E+03</rscale>
<asrwt>0</asrwt>
<pdfrwt beam="1">  1       21 0.36457939E-01 0.25963419E+03</pdfrwt>
<pdfrwt beam="2">  1       21 0.21563255E+00 0.25963419E+03</pdfrwt>
<totfact> 0.72436381E+02</totfact>
</mgrwt>
</event>
<event>
 5    0  0.1615618E+000  0.2467396E+03  0.7546771E-02  0.1115383E+00
         21   -1    0    0  503  501  0.00000000000E+00  0.00000000000E+00  0.15829607479E+03  0.15829607479E+03  0.00000000000E+00 0.  1.
         21   -1    0    0  501  502 -0.00000000000E+00 -0.00000000000E+00 -0.43985503393E+03  0.43985503393E+03  0.00000000000E+00 0.  1.
         25    1    1    2    0    0  0.16511171701E+03  0.14650936266E+03 -0.25912972041E+03  0.36262940372E+03  0.12500000000E+03 0.  0.
         21    1    1    2  503  504 -0.21508816296E+02 -0.68092228454E+01  0.20665092090E+02  0.30594782649E+02  0.00000000000E+00 0.  1.
         21    1    1    2  504  502 -0.14360290072E+03 -0.13970013981E+03 -0.43094330826E+02  0.20492692236E+03  0.00000000000E+00 0.  1.
<mgrwt>
<rscale>  4 0.24673961E+03</rscale>
<asrwt>0</asrwt>
<pdfrwt beam="1">  1       21 0.24353242E-01 0.24673961E+03</pdfrwt>
<pdfrwt beam="2">  1       21 0.67670006E-01 0.24673961E+03</pdfrwt>
<totfact> 0.30927068E+04</totfact>
</mgrwt>
</event>
<event>
 5    0  0.1615618E+000  0.2639185E+03  0.7546771E-02  0.1104812E+00
         21   -1    0    0  502  501  0.00000000000E+00  0.00000000000E+00  0.19638268886E+04  0.19638268886E+04  0.00000000000E+00 0.  1.
         21   -1    0    0  503  502 -0.00000000000E+00 -0.00000000000E+00 -0.16672372298E+03  0.16672372298E+03  0.00000000000E+00 0.  1.
         25    1    1    2    0    0  0.15688603260E+03 -0.16909317208E+03 -0.41507946559E+02  0.26561934737E+03  0.12500000000E+03 0.  0.
         21    1    1    2  503  504  0.20096187617E+02 -0.22460227215E+02  0.58398002880E+02  0.65716400568E+02  0.00000000000E+00 0.  1.
         21    1    1    2  504  501 -0.17698222021E+03  0.19155339929E+03  0.17802131093E+04  0.17992148637E+04  0.00000000000E+00 0.  1.
<mgrwt>
<rscale>  4 0.26391850E+03</rscale>
<asrwt>0</asrwt>
<pdfrwt beam="1">  1       21 0.30212720E+00 0.26391850E+03</pdfrwt>
<pdfrwt beam="2">  1       21 0.25649805E-01 0.26391850E+03</pdfrwt>
<totfact> 0.43812065E+02</totfact>
</mgrwt>
</event>
<event>
 5    0  0.1615618E+000  0.1763009E+03  0.7546771E-02  0.1171432E+00
         21   -1    0    0  503  501  0.00000000000E+00  0.00000000000E+00  0.58743358136E+03  0.58743358136E+03  0.00000000000E+00 0.  1.
         21   -1    0    0  504  502 -0.00000000000E+00 -0.00000000000E+00 -0.19059453056E+03  0.19059453056E+03  0.00000000000E+00 0. -1.
         25    1    1    2    0    0  0.21207926673E+03 -0.82073083583E+02 -0.98350344633E+01  0.25968314217E+03  0.12500000000E+03 0.  0.
         21    1    1    2  503  502 -0.98363732124E+02  0.51605765435E+02  0.18371156581E+02  0.11258809092E+03  0.00000000000E+00 0. -1.
         21    1    1    2  504  501 -0.11371553460E+03  0.30467318148E+02  0.38830292869E+03  0.40575687883E+03  0.00000000000E+00 0.  1.
<mgrwt>
<rscale>  4 0.17630090E+03</rscale>
<asrwt>0</asrwt>
<pdfrwt beam="1">  1       21 0.90374396E-01 0.17630090E+03</pdfrwt>
<pdfrwt beam="2">  1       21 0.29322236E-01 0.17630090E+03</pdfrwt>
<totfact> 0.11723858E+04</totfact>
</mgrwt>
</event>
<event>
 5    0  0.1615618E+000  0.3148023E+03  0.7546771E-02  0.1078067E+00
         21   -1    0    0  503  501  0.00000000000E+00  0.00000000000E+00  0.31018788665E+03  0.31018788665E+03  0.00000000000E+00 0.  1.
         21   -1    0    0  501  502 -0.00000000000E+00 -0.00000000000E+00 -0.11723721155E+04  0.11723721155E+04  0.00000000000E+00 0.  1.
         25    1    1    2    0    0 -0.30719509912E+02 -0.30257597366E+03 -0.48798981951E+03  0.58843433964E+03  0.12500000000E+03 0.  0.
         21    1    1    2  503  504  0.24889401556E+03  0.17301989504E+03  0.12988922978E+03  0.32978072574E+03  0.00000000000E+00 0.  1.
         21    1    1    2  504  502 -0.21817450565E+03  0.12955607862E+03 -0.50408363910E+03  0.56434493675E+03  0.00000000000E+00 0.  1.
<mgrwt>
<rscale>  4 0.31480231E+03</rscale>
<asrwt>0</asrwt>
<pdfrwt beam="1">  1       21 0.47721214E-01 0.31480231E+03</pdfrwt>
<pdfrwt beam="2">  1       21 0.18036494E+00 0.31480231E+03</pdfrwt>
<totfact> 0.68165677E+02</totfact>
</mgrwt>
</event>
<event>
 5    0  0.1615618E+000  0.3384941E+03  0.7546771E-02  0.1067439E+00
         21   -1    0    0  503  501  0.00000000000E+00  0.00000000000E+00  0.14022186303E+03  0.14022186303E+03  0.00000000000E+00 0.  1.
         21   -1    0    0  504  502 -0.00000000000E+00 -0.00000000000E+00 -0.22625873033E+04  0.22625873033E+04  0.00000000000E+00 0. -1.
         25    1    1    2    0    0 -0.38624117507E+02 -0.33583558307E+03 -0.18574281466E+04  0.18920733815E+04  0.12500000000E+03 0.  0.
         21    1    1    2  503  502  0.24125449302E+02  0.24043014606E+02 -0.18557516803E+03  0.18867497673E+03  0.00000000000E+00 0.  1.
         21    1    1    2  504  501  0.14498668206E+02  0.31179256846E+03 -0.79362125686E+02  0.32206080811E+03  0.00000000000E+00 0.  1.
<mgrwt>
<rscale>  4 0.33849407E+03</rscale>
<asrwt>0</asrwt>
<pdfrwt beam="1">  1       21 0.21572595E-01 0.33849407E+03</pdfrwt>
<pdfrwt beam="2">  1       21 0.34809034E+00 0.33849407E+03</pdfrwt>
<totfact> 0.30305779E+02</totfact>
</mgrwt>
</event>
<event>
 5    0  0.1615618E+000  0.2738714E+03  0.7546771E-02  0.1099084E+00
         21   -1    0    0  503  501  0.00000000000E+00  0.00000000000E+00  0.75535436475E+03  0.75535436475E+03  0.00000000000E+00 0. -1.
         21   -1    0    0  504  502 -0.00000000000E+00 -0.00000000000E+00 -0.80387990718E+03  0.80387990718E+03  0.00000000000E+00 0. -1.
         25    1    1    2    0    0  0.22417796957E+03 -0.15348392048E+03  0.52718692174E+02  0.30367307485E+03  0.12500000000E+03 0.  0.
         21    1    1    2  503  502 -0.21157669032E+03  0.11431878106E+03 -0.65630505066E+03  0.69897768141E+03  0.00000000000E+00 0. -1.
         21    1    1    2  504  501 -0.12601279242E+02  0.39165139414E+02  0.55506081606E+03  0.55658351567E+03  0.00000000000E+00 0. -1.
<mgrwt>
<rscale>  4 0.27387142E+03</rscale>
<asrwt>0</asrwt>
<pdfrwt beam="1">  1       21 0.11620836E+00 0.27387142E+03</pdfrwt>
<pdfrwt beam="2">  1       21 0.12367383E+00 0.27387142E+03</pdfrwt>
<totfact> 0.25754593E+02</totfact>
</mgrwt>
</event>
<event>
 5    0  0.1615618E+000  0.2832319E+03  0.7546771E-02  0.1093937E+00
         21   -1    0    0  503  501  0.00000000000E+00  0.00000000000E+00  0.14989487590E+03  0.14989487590E+03  0.00000000000E+00 0.  1.
         21   -1    0    0  504  502 -0.00000000000E+00 -0.00000000000E+00 -0.86484704728E+03  0.86484704728E+03  0.00000000000E+00 0.  1.
         25    1    1    2    0    0 -0.16435699745E+03  0.18635250568E+03 -0.64373838844E+03  0.70125928994E+03  0.12500000000E+03 0.  0.
         21    1    1    2  503  502  0.17333337635E+03 -0.21423591570E+03 -0.69144569781E+02  0.28411698025E+03  0.00000000000E+00 0.  1.
         21    1    1    2  504  501 -0.89763788968E+01  0.27883410018E+02 -0.20692131599E+01  0.29365652989E+02  0.00000000000E+00 0.  1.
<mgrwt>
<rscale>  4 0.28323187E+03</rscale>
<asrwt>0</asrwt>
<pdfrwt beam="1">  1       21 0.23060750E-01 0.28323187E+03</pdfrwt>
<pdfrwt beam="2">  1       21 0.13305339E+00 0.28323187E+03</pdfrwt>
<totfact> 0.67810008E+03</totfact>
</mgrwt>
</event>
<event>
 5    0  0.1615618E+000  0.2714188E+03  0.7546771E-02  0.1100470E+00
         21   -1    0    0  502  501  0.00000000000E+00  0.00000000000E+00  0.11529247834E+03  0.11529247834E+03  0.00000000000E+00 0. -1.
         21   -1    0    0  503  502 -0.00000000000E+00 -0.00000000000E+00 -0.11128633880E+04  0.11128633880E+04  0.00000000000E+00 0. -1.
         25    1    1    2    0    0  0.11232628565E+03 -0.20552085238E+03 -0.81748971630E+03  0.85951756902E+03  0.12500000000E+03 0.  0.
         21    1    1    2  503  504  0.49852800442E+02 -0.96140698161E+01 -0.42035689327E+02  0.65914575229E+02  0.00000000000E+00 0. -1.
         21    1    1    2  504  501 -0.16217908610E+03  0.21513492220E+03 -0.13804550401E+03  0.30272372206E+03  0.00000000000E+00 0. -1.
<mgrwt>
<rscale>  4 0.27141882E+03</rscale>
<asrwt>0</asrwt>
<pdfrwt beam="1">  1       21 0.17737304E-01 0.27141882E+03</pdfrwt>
<pdfrwt beam="2">  1       21 0.17120975E+00 0.27141882E+03</pdfrwt>
<totfact> 0.56964556E+03</totfact>
</mgrwt>
</event>
<event>
 5    0  0.1615618E+000  0.2264890E+03  0.7546771E-02  0.1129136E+00
         21   -1    0    0  503  501  0.00000000000E+00  0.00000000000E+00  0.28069551304E+03  0.28069551304E+03  0.00000000000E+00 0. -1.
         21   -1    0    0  501  502 -0.00000000000E+00 -0.00000000000E+00 -0.36801575993E+03  0.36801575993E+03  0.00000000000E+00 0. -1.
         25    1    1    2    0    0  0.11591209429E+03 -0.19420781380E+03 -0.23101393024E+03  0.34661899041E+03  0.12500000000E+03 0.  0.
         21    1    1    2  503  504 -0.77565049717E+02  0.58443618121E+02  0.12722725523E+03  0.16005863898E+03  0.00000000000E+00 0. -1.
         21    1    1    2  504  502 -0.38347044574E+02  0.13576419568E+03  0.16466428117E+02  0.14203364359E+03  0.00000000000E+00 0. -1.
<mgrwt>
<rscale>  4 0.22648899E+03</rscale>
<asrwt>0</asrwt>
<pdfrwt beam="1">  1       21 0.43183925E-01 0.22648899E+03</pdfrwt>
<pdfrwt beam="2">  1       21 0.56617809E-01 0.22648899E+03</pdfrwt>
<totfact> 0.14813711E+04</totfact>
</mgrwt>
</event>
<event>
 5    0  0.1615618E+000  0.3104681E+03  0.7546771E-02  0.1080122E+00
         21   -1    0    0  503  501  0.00000000000E+00  0.00000000000E+00  0.10087091674E+04  0.10087091674E+04  0.00000000000E+00 0. -1.
         21   -1    0    0  504  502 -0.00000000000E+00 -0.00000000000E+00 -0.34222316216E+03  0.34222316216E+03  0.00000000000E+00 0. -1.
         25    1    1    2    0    0 -0.76438422353E+02 -0.26504632372E+03 -0.17334198878E+03  0.34894817839E+03  0.12500000000E+03 0.  0.
         21    1    1    2  503  502  0.12549080904E+03  0.28982455722E+03  0.23250429538E+03  0.39217912297E+03  0.00000000000E+00 0. -1.
         21    1    1    2  504  501 -0.49052386690E+02 -0.24778233496E+02  0.60732369869E+03  0.60980502825E+03  0.00000000000E+00 0. -1.
<mgrwt>
<rscale>  4 0.31046807E+03</rscale>
<asrwt>0</asrwt>
<pdfrwt beam="1">  1       21 0.15518602E+00 0.31046807E+03</pdfrwt>
<pdfrwt beam="2">  1       21 0.52649718E-01 0.31046807E+03</pdfrwt>
<totfact> 0.84590993E+02</totfact>
</mgrwt>
</event>
<event>
 5    0  0.1615618E+000  0.2383124E+03  0.7546771E-02  0.1120922E+00
         21   -1    0    0  503  501  0.00000000000E+00  0.00000000000E+00  0.39301673521E+03  0.39301673521E+03  0.00000000000E+00 0. -1.
         21   -1    0    0  504  502 -0.00000000000E+00 -0.00000000000E+00 -0.16573343402E+03  0.16573343402E+03  0.00000000000E+00 0. -1.
         25    1    1    2    0    0  0.13987493486E+03  0.14530025601E+03  0.11673589542E+03  0.26444173475E+03  0.12500000000E+03 0.  0.
         21    1    1    2  503  502 -0.15707302421E+03 -0.13033909714E+03  0.24831470757E+02  0.20561327077E+03  0.00000000000E+00 0. -1.
         21    1    1    2  504  501  0.17198089345E+02 -0.14961158871E+02  0.85715935002E+02  0.88695163708E+02  0.00000000000E+00 0. -1.
<mgrwt>
<rscale>  4 0.23831242E+03</rscale>
<asrwt>0</asrwt>
<pdfrwt beam="1">  1       21 0.60464113E-01 0.23831242E+03</pdfrwt>
<pdfrwt beam="2">  1       21 0.25497452E-01 0.23831242E+03</pdfrwt>
<totfact> 0.36347891E+04</totfact>
</mgrwt>
</event>
<event>
 5    0  0.1615618E+000  0.2193288E+03  0.7546771E-02  0.1134384E+00
         21   -1    0    0  502  501  0.00000000000E+00  0.00000000000E+00  0.68034859775E+03  0.68034859775E+03  0.00000000000E+00 0.  1.
         21   -1    0    0  504  502 -0.00000000000E+00 -0.00000000000E+00 -0.16602787218E+03  0.16602787218E+03  0.00000000000E+00 0.  1.
         25    1    1    2    0    0 -0.18416801970E+03 -0.79976115449E+02 -0.45213092709E+02  0.24079713926E+03  0.12500000000E+03 0.  0.
         21    1    1    2  503  501  0.52675995126E+02  0.59606551226E+02  0.33732830094E+03  0.34658055922E+03  0.00000000000E+00 0. -1.
         21    1    1    2  504  503  0.13149202458E+03  0.20369564222E+02  0.22220551734E+03  0.25899877145E+03  0.00000000000E+00 0.  1.
<mgrwt>
<rscale>  4 0.21932881E+03</rscale>
<asrwt>0</asrwt>
<pdfrwt beam="1">  1       21 0.10466901E+00 0.21932881E+03</pdfrwt>
<pdfrwt beam="2">  1       21 0.25542750E-01 0.21932881E+03</pdfrwt>
<totfact> 0.10509486E+04</totfact>
</mgrwt>
</event>
<event>
 5    0  0.1615618E+000  0.4262256E+03  0.7546771E-02  0.1035059E+00
         21   -1    0    0  503  501  0.00000000000E+00  0.00000000000E+00  0.97126290685E+03  0.97126290685E+03  0.00000000000E+00 0.  1.
         21   -1    0    0  501  502 -0.00000000000E+00 -0.00000000000E+00 -0.22647835446E+03  0.22647835446E+03  0.00000000000E+00 0.  1.
         25    1    1    2    0    0  0.32227228225E+03  0.25939466881E+03  0.19811227528E+03  0.47541402139E+03  0.12500000000E+03 0.  0.
         21    1    1    2  503  504 -0.24164608317E+02  0.62899312633E+01  0.17509879836E+03  0.17687023695E+03  0.00000000000E+00 0. -1.
         21    1    1    2  504  502 -0.29810767394E+03 -0.26568460008E+03  0.37157347875E+03  0.54545700297E+03  0.00000000000E+00 0.  1.
<mgrwt>
<rscale>  4 0.42622559E+03</rscale>
<asrwt>0</asrwt>
<pdfrwt beam="1">  1       21 0.14942506E+00 0.42622559E+03</pdfrwt>
<pdfrwt beam="2">  1       21 0.34842824E-01 0.42622559E+03</pdfrwt>
<totfact> 0.20736566E+03</totfact>
</mgrwt>
</event>
<event>
 5    0  0.1615618E+000  0.2945270E+03  0.7546771E-02  0.1088009E+00
         21   -1    0    0  503  501  0.00000000000E+00  0.00000000000E+00  0.19271481646E+04  0.19271481646E+04  0.00000000000E+00 0. -1.
         21   -1    0    0  504  502 -0.00000000000E+00 -0.00000000000E+00 -0.11737061151E+03  0.11737061151E+03  0.00000000000E+00 0. -1.
         25    1    1    2    0    0  0.10376778316E+03 -0.26222591434E+03  0.41467323560E+03  0.51682596229E+03  0.12500000000E+03 0.  0.
         21    1    1    2  503  502 -0.18792761848E+03  0.18834147007E+03  0.21442036218E+03  0.34170951238E+03  0.00000000000E+00 0. -1.
         21    1    1    2  504  501  0.84159835315E+02  0.73884444269E+02  0.11806839553E+04  0.11859833014E+04  0.00000000000E+00 0. -1.
<mgrwt>
<rscale>  4 0.29452698E+03</rscale>
<asrwt>0</asrwt>
<pdfrwt beam="1">  1       21 0.29648431E+00 0.29452698E+03</pdfrwt>
<pdfrwt beam="2">  1       21 0.18057019E-01 0.29452698E+03</pdfrwt>
<totfact> 0.89382474E+02</totfact>
</mgrwt>
</event>
