<event>
 5    0  0.1856407E+000  0.2356784E+03  0.7546771E-02  0.1122706E+00
         21   -1    0    0  502  501  0.00000000000E+00  0.00000000000E+00  0.19303238060E+04  0.19303238060E+04  0.00000000000E+00 0. -1.
         21   -1    0    0  503  502 -0.00000000000E+00 -0.00000000000E+00 -0.18900210113E+03  0.18900210113E+03  0.00000000000E+00 0.  1.
         25    1    1    2    0    0  0.17983002458E+03  0.12890474599E+03  0.18067029020E+04  0.18244877767E+04  0.12500000000E+03 0.  0.
         21    1    1    2  503  504 -0.94780094637E+02 -0.66002406903E+02  0.60522461431E+02  0.13039383572E+03  0.00000000000E+00 0. -1.
         21    1    1    2  504  501 -0.85049929944E+02 -0.62902339089E+02 -0.12590365851E+03  0.16444429474E+03  0.00000000000E+00 0.  1.
<mgrwt>
<rscale>  4 0.23567842E+03</rscale>
<asrwt>0</asrwt>
<pdfrwt beam="1">  1       21 0.29697288E+00 0.23567842E+03</pdfrwt>
<pdfrwt beam="2">  1       21 0.29077248E-01 0.23567842E+03</pdfrwt>
<totfact> 0.37989742E+02</totfact>
</mgrwt>
</event>
<event>
 5    0  0.1856407E+000  0.2328968E+03  0.7546771E-02  0.1124617E+00
         21   -1    0    0  502  501  0.00000000000E+00  0.00000000000E+00  0.62541422992E+02  0.62541422992E+02  0.00000000000E+00 0.  1.
         21   -1    0    0  503  502 -0.00000000000E+00 -0.00000000000E+00 -0.13310671993E+04  0.13310671993E+04  0.00000000000E+00 0.  1.
         25    1    1    2    0    0  0.11540721289E+03 -0.17461901508E+03 -0.32269501857E+03  0.40443503833E+03  0.12500000000E+03 0.  0.
         21    1    1    2  503  504 -0.35298678252E+02  0.19332193264E+03 -0.77558678392E+03  0.80009638526E+03  0.00000000000E+00 0.  1.
         21    1    1    2  504  501 -0.80108534643E+02 -0.18702917563E+02 -0.17024397385E+03  0.18907719873E+03  0.00000000000E+00 0.  1.
<mgrwt>
<rscale>  4 0.23289684E+03</rscale>
<asrwt>0</asrwt>
<pdfrwt beam="1">  1       21 0.96217574E-02 0.23289684E+03</pdfrwt>
<pdfrwt beam="2">  1       21 0.20477957E+00 0.23289684E+03</pdfrwt>
<totfact> 0.10530272E+04</totfact>
</mgrwt>
</event>
<event>
 5    0  0.1856407E+000  0.2920956E+03  0.7546771E-02  0.1089260E+00
         21   -1    0    0  502  501  0.00000000000E+00  0.00000000000E+00  0.56592727360E+03  0.56592727360E+03  0.00000000000E+00 0.  1.
         21   -1    0    0  503  502 -0.00000000000E+00 -0.00000000000E+00 -0.48588602073E+03  0.48588602073E+03  0.00000000000E+00 0. -1.
         25    1    1    2    0    0  0.14785431871E+03 -0.22549689371E+03  0.46650959544E+03  0.55314189072E+03  0.12500000000E+03 0.  0.
         21    1    1    2  503  504 -0.12151774791E+03  0.17174960934E+03 -0.38507511223E+03  0.43880215750E+03  0.00000000000E+00 0. -1.
         21    1    1    2  504  501 -0.26336570800E+02  0.53747284371E+02 -0.13932303467E+01  0.59869246108E+02  0.00000000000E+00 0.  1.
<mgrwt>
<rscale>  4 0.29209561E+03</rscale>
<asrwt>0</asrwt>
<pdfrwt beam="1">  1       21 0.87065734E-01 0.29209561E+03</pdfrwt>
<pdfrwt beam="2">  1       21 0.74751696E-01 0.29209561E+03</pdfrwt>
<totfact> 0.16840593E+03</totfact>
</mgrwt>
</event>
<event>
 5    0  0.1856407E+000  0.2582681E+03  0.7546771E-02  0.1108188E+00
         21   -1    0    0  502  501  0.00000000000E+00  0.00000000000E+00  0.38859660766E+03  0.38859660766E+03  0.00000000000E+00 0. -1.
         21   -1    0    0  503  502 -0.00000000000E+00 -0.00000000000E+00 -0.20358016054E+03  0.20358016054E+03  0.00000000000E+00 0.  1.
         25    1    1    2    0    0 -0.51835584844E+01 -0.22594361837E+03  0.24299199336E+03  0.35460893502E+03  0.12500000000E+03 0.  0.
         21    1    1    2  503  504  0.11074130491E+02  0.40172970773E+02 -0.25595631129E+02  0.48904399391E+02  0.00000000000E+00 0.  1.
         21    1    1    2  504  501 -0.58905720062E+01  0.18577064760E+03 -0.32379915114E+02  0.18866343379E+03  0.00000000000E+00 0.  1.
<mgrwt>
<rscale>  4 0.25826805E+03</rscale>
<asrwt>0</asrwt>
<pdfrwt beam="1">  1       21 0.59784093E-01 0.25826805E+03</pdfrwt>
<pdfrwt beam="2">  1       21 0.31320025E-01 0.25826805E+03</pdfrwt>
<totfact> 0.24733200E+04</totfact>
</mgrwt>
</event>
<event>
 5    0  0.1856407E+000  0.2539860E+03  0.7546771E-02  0.1110811E+00
         21   -1    0    0  502  501  0.00000000000E+00  0.00000000000E+00  0.57389334703E+03  0.57389334703E+03  0.00000000000E+00 0. -1.
         21   -1    0    0  503  502 -0.00000000000E+00 -0.00000000000E+00 -0.40089396908E+03  0.40089396908E+03  0.00000000000E+00 0. -1.
         25    1    1    2    0    0 -0.78074143188E+02  0.20869316476E+03 -0.32840011170E+03  0.41607696670E+03  0.12500000000E+03 0.  0.
         21    1    1    2  503  504  0.39156136398E+02 -0.67848816840E+01  0.63050974910E+02  0.74529612063E+02  0.00000000000E+00 0.  1.
         21    1    1    2  504  501  0.38918006790E+02 -0.20190828308E+03  0.43834851474E+03  0.48418073734E+03  0.00000000000E+00 0. -1.
<mgrwt>
<rscale>  4 0.25398595E+03</rscale>
<asrwt>0</asrwt>
<pdfrwt beam="1">  1       21 0.88291284E-01 0.25398595E+03</pdfrwt>
<pdfrwt beam="2">  1       21 0.61675995E-01 0.25398595E+03</pdfrwt>
<totfact> 0.25570326E+03</totfact>
</mgrwt>
</event>
<event>
 5    0  0.1856407E+000  0.3299966E+03  0.7546771E-02  0.1071138E+00
         21   -1    0    0  502  501  0.00000000000E+00  0.00000000000E+00  0.12957216883E+04  0.12957216883E+04  0.00000000000E+00 0. -1.
         21   -1    0    0  503  502 -0.00000000000E+00 -0.00000000000E+00 -0.10072478793E+03  0.10072478793E+03  0.00000000000E+00 0. -1.
         25    1    1    2    0    0  0.16550204042E+03  0.25667457576E+03  0.28969387974E+03  0.43911309156E+03  0.12500000000E+03 0.  0.
         21    1    1    2  503  504 -0.85427128905E+02 -0.17110333419E+03  0.49632162005E+03  0.53189218442E+03  0.00000000000E+00 0. -1.
         21    1    1    2  504  501 -0.80074911510E+02 -0.85571241566E+02  0.40898140056E+03  0.42544120021E+03  0.00000000000E+00 0.  1.
<mgrwt>
<rscale>  4 0.32999661E+03</rscale>
<asrwt>0</asrwt>
<pdfrwt beam="1">  1       21 0.19934179E+00 0.32999661E+03</pdfrwt>
<pdfrwt beam="2">  1       21 0.15496122E-01 0.32999661E+03</pdfrwt>
<totfact> 0.45438593E+03</totfact>
</mgrwt>
</event>
<event>
 5    0  0.1856407E+000  0.3733680E+03  0.7546771E-02  0.1053413E+00
         21   -1    0    0  502  501  0.00000000000E+00  0.00000000000E+00  0.33299701006E+03  0.33299701006E+03  0.00000000000E+00 0.  1.
         21   -1    0    0  503  502 -0.00000000000E+00 -0.00000000000E+00 -0.13911207373E+04  0.13911207373E+04  0.00000000000E+00 0.  1.
         25    1    1    2    0    0 -0.84807450658E+02 -0.34179699859E+03  0.18662406418E+03  0.41769729861E+03  0.12500000000E+03 0.  0.
         21    1    1    2  503  504  0.40594914959E+02 -0.58985893018E+01 -0.77516024162E+02  0.87701051750E+02  0.00000000000E+00 0.  1.
         21    1    1    2  504  501  0.44212535700E+02  0.34769558789E+03 -0.11672317672E+04  0.12187193970E+04  0.00000000000E+00 0.  1.
<mgrwt>
<rscale>  4 0.37336802E+03</rscale>
<asrwt>0</asrwt>
<pdfrwt beam="1">  1       21 0.51230309E-01 0.37336802E+03</pdfrwt>
<pdfrwt beam="2">  1       21 0.21401858E+00 0.37336802E+03</pdfrwt>
<totfact> 0.33712658E+02</totfact>
</mgrwt>
</event>
<event>
 5    0  0.1856407E+000  0.3383056E+03  0.7546771E-02  0.1067520E+00
         21   -1    0    0  502  501  0.00000000000E+00  0.00000000000E+00  0.49305450771E+03  0.49305450771E+03  0.00000000000E+00 0. -1.
         21   -1    0    0  503  502 -0.00000000000E+00 -0.00000000000E+00 -0.65332437584E+03  0.65332437584E+03  0.00000000000E+00 0.  1.
         25    1    1    2    0    0 -0.28852138724E+03  0.12482420858E+03  0.38574598605E+03  0.51307956468E+03  0.12500000000E+03 0.  0.
         21    1    1    2  503  504  0.20163880611E+03 -0.10197587235E+03 -0.33639882716E+03  0.40524246764E+03  0.00000000000E+00 0.  1.
         21    1    1    2  504  501  0.86882581129E+02 -0.22848336230E+02 -0.20961702702E+03  0.22805685122E+03  0.00000000000E+00 0.  1.
<mgrwt>
<rscale>  4 0.33830559E+03</rscale>
<asrwt>0</asrwt>
<pdfrwt beam="1">  1       21 0.75854540E-01 0.33830559E+03</pdfrwt>
<pdfrwt beam="2">  1       21 0.10051144E+00 0.33830559E+03</pdfrwt>
<totfact> 0.11286953E+03</totfact>
</mgrwt>
</event>
<event>
 5    0  0.1856407E+000  0.2844420E+03  0.7546771E-02  0.1093287E+00
         21   -1    0    0  502  501  0.00000000000E+00  0.00000000000E+00  0.38941479426E+02  0.38941479426E+02  0.00000000000E+00 0.  1.
         21   -1    0    0  503  502 -0.00000000000E+00 -0.00000000000E+00 -0.24842151425E+04  0.24842151425E+04  0.00000000000E+00 0.  1.
         25    1    1    2    0    0 -0.18070121621E+03 -0.19189705537E+03 -0.15057093947E+04  0.15337089655E+04  0.12500000000E+03 0.  0.
         21    1    1    2  503  504  0.28923539297E+02 -0.26485673177E+01 -0.15328957780E+02  0.32841482623E+02  0.00000000000E+00 0.  1.
         21    1    1    2  504  501  0.15177767691E+03  0.19454562269E+03 -0.92423531058E+03  0.95660617384E+03  0.00000000000E+00 0.  1.
<mgrwt>
<rscale>  4 0.28444199E+03</rscale>
<asrwt>0</asrwt>
<pdfrwt beam="1">  1       21 0.59909966E-02 0.28444199E+03</pdfrwt>
<pdfrwt beam="2">  1       21 0.38218696E+00 0.28444199E+03</pdfrwt>
<totfact> 0.19912801E+03</totfact>
</mgrwt>
</event>
<event>
 5    0  0.1856407E+000  0.3331814E+03  0.7546771E-02  0.1069738E+00
         21   -1    0    0  502  501  0.00000000000E+00  0.00000000000E+00  0.10165592733E+03  0.10165592733E+03  0.00000000000E+00 0.  1.
         21   -1    0    0  503  502 -0.00000000000E+00 -0.00000000000E+00 -0.19315510847E+04  0.19315510847E+04  0.00000000000E+00 0. -1.
         25    1    1    2    0    0 -0.78425859767E+02  0.29872095418E+03 -0.24299345633E+03  0.41237803502E+03  0.12500000000E+03 0.  0.
         21    1    1    2  503  504  0.60011269386E+02 -0.56130839074E+02 -0.29558064983E+03  0.30678973924E+03  0.00000000000E+00 0.  1.
         21    1    1    2  504  501  0.18414590381E+02 -0.24259011511E+03 -0.12913210512E+04  0.13140392378E+04  0.00000000000E+00 0. -1.
<mgrwt>
<rscale>  4 0.33318137E+03</rscale>
<asrwt>0</asrwt>
<pdfrwt beam="1">  1       21 0.15639376E-01 0.33318137E+03</pdfrwt>
<pdfrwt beam="2">  1       21 0.29716166E+00 0.33318137E+03</pdfrwt>
<totfact> 0.11213599E+03</totfact>
</mgrwt>
</event>
<event>
 5    0  0.1856407E+000  0.2790326E+03  0.7546771E-02  0.1096218E+00
         21   -1    0    0  502  501  0.00000000000E+00  0.00000000000E+00  0.68225452432E+03  0.68225452432E+03  0.00000000000E+00 0. -1.
         21   -1    0    0  503  502 -0.00000000000E+00 -0.00000000000E+00 -0.22991725336E+04  0.22991725336E+04  0.00000000000E+00 0. -1.
         25    1    1    2    0    0  0.77571996975E+02  0.23683589625E+03  0.64160269868E+03  0.69956249143E+03  0.12500000000E+03 0.  0.
         21    1    1    2  503  504 -0.95703557358E+02 -0.25156156292E+03 -0.22237345726E+04  0.22399638033E+04  0.00000000000E+00 0. -1.
         21    1    1    2  504  501  0.18131560383E+02  0.14725666668E+02 -0.34786135350E+02  0.41900763159E+02  0.00000000000E+00 0.  1.
<mgrwt>
<rscale>  4 0.27903264E+03</rscale>
<asrwt>0</asrwt>
<pdfrwt beam="1">  1       21 0.10496223E+00 0.27903264E+03</pdfrwt>
<pdfrwt beam="2">  1       21 0.35371885E+00 0.27903264E+03</pdfrwt>
<totfact> 0.10505543E+01</totfact>
</mgrwt>
</event>
<event>
 5    0  0.5106687E+000  0.2417365E+03  0.7546771E-02  0.1118641E+00
         21   -1    0    0  502  501  0.00000000000E+00  0.00000000000E+00  0.34868496250E+03  0.34868496250E+03  0.00000000000E+00 0. -1.
         21   -1    0    0  503  502 -0.00000000000E+00 -0.00000000000E+00 -0.29074113762E+03  0.29074113762E+03  0.00000000000E+00 0. -1.
         25    1    1    2    0    0 -0.21399569191E+03  0.11451866962E+03  0.18014646775E+03  0.32708780425E+03  0.12500000000E+03 0.  0.
         21    1    1    2  503  504  0.16350035468E+03 -0.11560837611E+03 -0.15403659663E+03  0.25263597470E+03  0.00000000000E+00 0. -1.
         21    1    1    2  504  501  0.50495337228E+02  0.10897064898E+01  0.31833953757E+02  0.59702321176E+02  0.00000000000E+00 0.  1.
<mgrwt>
<rscale>  4 0.24173654E+03</rscale>
<asrwt>0</asrwt>
<pdfrwt beam="1">  1       21 0.53643840E-01 0.24173654E+03</pdfrwt>
<pdfrwt beam="2">  1       21 0.44729406E-01 0.24173654E+03</pdfrwt>
<totfact> 0.15328065E+04</totfact>
</mgrwt>
</event>
<event>
 5    0  0.1856407E+000  0.3135110E+03  0.7546771E-02  0.1078675E+00
         21   -1    0    0  502  501  0.00000000000E+00  0.00000000000E+00  0.97355470200E+03  0.97355470200E+03  0.00000000000E+00 0.  1.
         21   -1    0    0  503  502 -0.00000000000E+00 -0.00000000000E+00 -0.21687540077E+03  0.21687540077E+03  0.00000000000E+00 0.  1.
         25    1    1    2    0    0  0.11091559457E+03  0.28515270355E+03  0.72693591188E+03  0.79854564894E+03  0.12500000000E+03 0.  0.
         21    1    1    2  503  504  0.15332525001E+02 -0.23338326700E+03 -0.42148432501E+02  0.23765379442E+03  0.00000000000E+00 0.  1.
         21    1    1    2  504  501 -0.12624811957E+03 -0.51769436549E+02  0.71891821848E+02  0.15423065941E+03  0.00000000000E+00 0.  1.
<mgrwt>
<rscale>  4 0.31351099E+03</rscale>
<asrwt>0</asrwt>
<pdfrwt beam="1">  1       21 0.14977764E+00 0.31351099E+03</pdfrwt>
<pdfrwt beam="2">  1       21 0.33365447E-01 0.31351099E+03</pdfrwt>
<totfact> 0.23752180E+03</totfact>
</mgrwt>
</event>
<event>
 5    0  0.1856407E+000  0.3128052E+03  0.7546771E-02  0.1079009E+00
         21   -1    0    0  502  501  0.00000000000E+00  0.00000000000E+00  0.73445392771E+03  0.73445392771E+03  0.00000000000E+00 0.  1.
         21   -1    0    0  503  502 -0.00000000000E+00 -0.00000000000E+00 -0.53989452711E+03  0.53989452711E+03  0.00000000000E+00 0. -1.
         25    1    1    2    0    0  0.17063888862E+03 -0.23213472857E+03  0.65276690749E+03  0.72438511721E+03  0.12500000000E+03 0.  0.
         21    1    1    2  503  504  0.38624942447E+01  0.27268414600E+02 -0.14758635802E+02  0.31245841760E+02  0.00000000000E+00 0. -1.
         21    1    1    2  504  501 -0.17450138287E+03  0.20486631397E+03 -0.44344887110E+03  0.51871749585E+03  0.00000000000E+00 0. -1.
<mgrwt>
<rscale>  4 0.31280517E+03</rscale>
<asrwt>0</asrwt>
<pdfrwt beam="1">  1       21 0.11299291E+00 0.31280517E+03</pdfrwt>
<pdfrwt beam="2">  1       21 0.83060696E-01 0.31280517E+03</pdfrwt>
<totfact> 0.69952443E+02</totfact>
</mgrwt>
</event>
<event>
 5    0  0.2176688E+000  0.2494075E+03  0.7546771E-02  0.1113680E+00
         21   -1    0    0  502  501  0.00000000000E+00  0.00000000000E+00  0.31681387042E+03  0.31681387042E+03  0.00000000000E+00 0. -1.
         21   -1    0    0  503  502 -0.00000000000E+00 -0.00000000000E+00 -0.30473521396E+03  0.30473521396E+03  0.00000000000E+00 0.  1.
         25    1    1    2    0    0  0.13319508181E+03 -0.16981810244E+03  0.20614205949E+03  0.32357173304E+03  0.12500000000E+03 0.  0.
         21    1    1    2  503  504 -0.11443435368E+03  0.12693547410E+03 -0.18195296922E+03  0.24962916275E+03  0.00000000000E+00 0.  1.
         21    1    1    2  504  501 -0.18760728135E+02  0.42882628336E+02 -0.12110433812E+02  0.48348188594E+02  0.00000000000E+00 0.  1.
<mgrwt>
<rscale>  4 0.24940753E+03</rscale>
<asrwt>0</asrwt>
<pdfrwt beam="1">  1       21 0.48740595E-01 0.24940753E+03</pdfrwt>
<pdfrwt beam="2">  1       21 0.46882341E-01 0.24940753E+03</pdfrwt>
<totfact> 0.16948479E+04</totfact>
</mgrwt>
</event>
<event>
 5    0  0.1856407E+000  0.2643211E+03  0.7546771E-02  0.1104574E+00
         21   -1    0    0  502  501  0.00000000000E+00  0.00000000000E+00  0.83260006524E+03  0.83260006524E+03  0.00000000000E+00 0.  1.
         21   -1    0    0  503  502 -0.00000000000E+00 -0.00000000000E+00 -0.14734999606E+03  0.14734999606E+03  0.00000000000E+00 0.  1.
         25    1    1    2    0    0  0.21440835836E+03 -0.12419793220E+03  0.58365201149E+03  0.64627450903E+03  0.12500000000E+03 0.  0.
         21    1    1    2  503  504  0.53893237121E+01  0.53608764342E+02  0.87034717866E+02  0.10236203661E+03  0.00000000000E+00 0.  1.
         21    1    1    2  504  501 -0.21979768207E+03  0.70589167863E+02  0.14563339824E+02  0.23131351567E+03  0.00000000000E+00 0.  1.
<mgrwt>
<rscale>  4 0.26432112E+03</rscale>
<asrwt>0</asrwt>
<pdfrwt beam="1">  1       21 0.12809231E+00 0.26432112E+03</pdfrwt>
<pdfrwt beam="2">  1       21 0.22669231E-01 0.26432112E+03</pdfrwt>
<totfact> 0.78029882E+03</totfact>
</mgrwt>
</event>
