<event>
 5    0  0.1014204E+000  0.2585851E+03  0.7546771E-02  0.1107996E+00
          2   -1    0    0  503    0 -0.00000000000E+00  0.00000000000E+00  0.18946692903E+04  0.18946692903E+04  0.00000000000E+00 0. -1.
         21   -1    0    0  501  502  0.00000000000E+00 -0.00000000000E+00 -0.37289232415E+03  0.37289232415E+03  0.00000000000E+00 0.  1.
         25    1    1    2    0    0  0.13660112639E+03 -0.17921787787E+03 -0.31275546130E+03  0.40524053851E+03  0.12500000000E+03 0.  0.
         21    1    1    2  503  502  0.37319973634E+02 -0.20836775568E+02  0.11931176318E+03  0.12673692627E+03  0.00000000000E+00 0. -1.
          2    1    1    2  501    0 -0.17392110002E+03  0.20005465344E+03  0.17152206643E+04  0.17355841497E+04  0.00000000000E+00 0. -1.
<mgrwt>
<rscale>  4 0.25858506E+03</rscale>
<asrwt>0</asrwt>
<pdfrwt beam="1">  1       21 0.57368051E-01 0.25858506E+03</pdfrwt>
<pdfrwt beam="2">  1        2 0.29148758E+00 0.25858506E+03</pdfrwt>
<totfact> 0.29683243E+02</totfact>
</mgrwt>
</event>
<event>
 5    0  0.1014204E+000  0.3240939E+03  0.7546771E-02  0.1073780E+00
          3   -1    0    0  503    0 -0.00000000000E+00  0.00000000000E+00  0.60686273955E+03  0.60686273955E+03  0.00000000000E+00 0. -1.
         21   -1    0    0  501  502  0.00000000000E+00 -0.00000000000E+00 -0.30794468481E+03  0.30794468481E+03  0.00000000000E+00 0.  1.
         25    1    1    2    0    0 -0.27055817747E+03  0.61368305310E+01 -0.15785814340E+03  0.33731821997E+03  0.12500000000E+03 0.  0.
         21    1    1    2  503  502 -0.33769199813E+02 -0.10343671704E+01  0.71556802842E+01  0.34534512184E+02  0.00000000000E+00 0.  1.
          3    1    1    2  501    0  0.30432737728E+03 -0.51024633606E+01  0.44962051786E+03  0.54295469220E+03  0.00000000000E+00 0. -1.
<mgrwt>
<rscale>  4 0.32409392E+03</rscale>
<asrwt>0</asrwt>
<pdfrwt beam="1">  1       21 0.47376105E-01 0.32409392E+03</pdfrwt>
<pdfrwt beam="2">  1        3 0.93363498E-01 0.32409392E+03</pdfrwt>
<totfact> 0.21668108E+02</totfact>
</mgrwt>
</event>
<event>
 5    0  0.1014204E+000  0.2936114E+03  0.7546771E-02  0.1088479E+00
         21   -1    0    0  501  502  0.00000000000E+00  0.00000000000E+00  0.55612119923E+03  0.55612119923E+03  0.00000000000E+00 0.  1.
          1   -1    0    0  503    0 -0.00000000000E+00 -0.00000000000E+00 -0.46034894691E+03  0.46034894691E+03  0.00000000000E+00 0.  1.
         25    1    1    2    0    0 -0.94663039726E+02  0.25131118184E+03  0.44944126703E+03  0.53827581565E+03  0.12500000000E+03 0.  0.
         21    1    1    2  503  502  0.50689702932E+02 -0.35485554098E+01 -0.13704204553E+03  0.14615936669E+03  0.00000000000E+00 0.  1.
          1    1    1    2  501    0  0.43973336794E+02 -0.24776262643E+03 -0.21662696918E+03  0.33203496379E+03  0.00000000000E+00 0.  1.
<mgrwt>
<rscale>  4 0.29361145E+03</rscale>
<asrwt>0</asrwt>
<pdfrwt beam="1">  1       21 0.85557108E-01 0.29361145E+03</pdfrwt>
<pdfrwt beam="2">  1        1 0.70822915E-01 0.29361145E+03</pdfrwt>
<totfact> 0.62539007E+02</totfact>
</mgrwt>
</event>
<event>
 5    0  0.1014204E+000  0.3142410E+03  0.7546771E-02  0.1078331E+00
         -3   -1    0    0    0  501 -0.00000000000E+00  0.00000000000E+00  0.11009341335E+04  0.11009341335E+04  0.00000000000E+00 0. -1.
         21   -1    0    0  503  502  0.00000000000E+00 -0.00000000000E+00 -0.63980064176E+03  0.63980064176E+03  0.00000000000E+00 0. -1.
         25    1    1    2    0    0  0.25841395229E+03  0.12750916638E+03 -0.56609502206E+03  0.64739858839E+03  0.12500000000E+03 0.  0.
         21    1    1    2  503  501  0.33411247722E+02 -0.60482666894E+02  0.12646620595E+03  0.14411164323E+03  0.00000000000E+00 0. -1.
         -3    1    1    2    0  502 -0.29182520001E+03 -0.67026499481E+02  0.90076230780E+03  0.94922454359E+03  0.00000000000E+00 0. -1.
<mgrwt>
<rscale>  4 0.31424105E+03</rscale>
<asrwt>0</asrwt>
<pdfrwt beam="1">  1       21 0.98430868E-01 0.31424105E+03</pdfrwt>
<pdfrwt beam="2">  1       -3 0.16937448E+00 0.31424105E+03</pdfrwt>
<totfact> 0.99115501E+00</totfact>
</mgrwt>
</event>
<event>
 5    0  0.1014204E+000  0.2202840E+03  0.7546771E-02  0.1133671E+00
          2   -1    0    0  503    0 -0.00000000000E+00  0.00000000000E+00  0.80594779891E+02  0.80594779891E+02  0.00000000000E+00 0.  1.
         21   -1    0    0  501  502  0.00000000000E+00 -0.00000000000E+00 -0.15001512721E+04  0.15001512721E+04  0.00000000000E+00 0.  1.
         25    1    1    2    0    0  0.11287038246E+03 -0.20295683600E+03 -0.52595847587E+03  0.58837787080E+03  0.12500000000E+03 0.  0.
         21    1    1    2  503  502 -0.63833100108E+02  0.40704167084E+02  0.69335215315E+01  0.76023467483E+02  0.00000000000E+00 0.  1.
          2    1    1    2  501    0 -0.49037282355E+02  0.16225266891E+03 -0.90053153789E+03  0.91634471372E+03  0.00000000000E+00 0.  1.
<mgrwt>
<rscale>  4 0.22028403E+03</rscale>
<asrwt>0</asrwt>
<pdfrwt beam="1">  1       21 0.23079248E+00 0.22028403E+03</pdfrwt>
<pdfrwt beam="2">  1        2 0.12399198E-01 0.22028403E+03</pdfrwt>
<totfact> 0.50485918E+02</totfact>
</mgrwt>
</event>
<event>
 5    0  0.1014204E+000  0.2463129E+03  0.7546771E-02  0.1115657E+00
          1   -1    0    0  503    0 -0.00000000000E+00  0.00000000000E+00  0.96158690472E+03  0.96158690472E+03  0.00000000000E+00 0. -1.
         21   -1    0    0  501  502  0.00000000000E+00 -0.00000000000E+00 -0.64131784947E+02  0.64131784947E+02  0.00000000000E+00 0. -1.
         25    1    1    2    0    0  0.18234821298E+03 -0.86025412422E+02  0.35987686281E+03  0.43103085590E+03  0.12500000000E+03 0.  0.
         21    1    1    2  503  502  0.21233189564E+02 -0.89875453090E+01  0.10212658772E+03  0.10469701155E+03  0.00000000000E+00 0.  1.
          1    1    1    2  501    0 -0.20358140254E+03  0.95012957731E+02  0.43545166925E+03  0.48999082221E+03  0.00000000000E+00 0. -1.
<mgrwt>
<rscale>  4 0.24631286E+03</rscale>
<asrwt>0</asrwt>
<pdfrwt beam="1">  1       21 0.98664292E-02 0.24631286E+03</pdfrwt>
<pdfrwt beam="2">  1        1 0.14793644E+00 0.24631286E+03</pdfrwt>
<totfact> 0.15767642E+04</totfact>
</mgrwt>
</event>
<event>
 5    0  0.1014204E+000  0.2564926E+03  0.7546771E-02  0.1109269E+00
          2   -1    0    0  503    0 -0.00000000000E+00  0.00000000000E+00  0.14934096212E+04  0.14934096212E+04  0.00000000000E+00 0.  1.
         21   -1    0    0  501  502  0.00000000000E+00 -0.00000000000E+00 -0.36325342423E+03  0.36325342423E+03  0.00000000000E+00 0.  1.
         25    1    1    2    0    0 -0.21043378300E+03  0.83556459906E+02 -0.29322588220E+03  0.39098654326E+03  0.12500000000E+03 0.  0.
         21    1    1    2  503  502  0.64189975338E+02 -0.30437520341E+02  0.58703942846E+02  0.92157194424E+02  0.00000000000E+00 0.  1.
          2    1    1    2  501    0  0.14624380766E+03 -0.53118939565E+02  0.13646781363E+04  0.13735193077E+04  0.00000000000E+00 0.  1.
<mgrwt>
<rscale>  4 0.25649258E+03</rscale>
<asrwt>0</asrwt>
<pdfrwt beam="1">  1       21 0.55885143E-01 0.25649258E+03</pdfrwt>
<pdfrwt beam="2">  1        2 0.22975532E+00 0.25649258E+03</pdfrwt>
<totfact> 0.51184232E+02</totfact>
</mgrwt>
</event>
<event>
 5    0  0.1014204E+000  0.3992990E+03  0.7546771E-02  0.1044023E+00
          2   -1    0    0  503    0 -0.00000000000E+00  0.00000000000E+00  0.42306797436E+03  0.42306797436E+03  0.00000000000E+00 0.  1.
         21   -1    0    0  501  502  0.00000000000E+00 -0.00000000000E+00 -0.36802968459E+03  0.36802968459E+03  0.00000000000E+00 0.  1.
         25    1    1    2    0    0  0.37922863928E+03  0.59635855325E+00  0.26507552104E+02  0.40017791894E+03  0.12500000000E+03 0.  0.
         21    1    1    2  503  502 -0.14469865687E+03 -0.43171632067E+02  0.13092109526E+01  0.15100730164E+03  0.00000000000E+00 0. -1.
          2    1    1    2  501    0 -0.23452998241E+03  0.42575273514E+02  0.27221526712E+02  0.23991243836E+03  0.00000000000E+00 0.  1.
<mgrwt>
<rscale>  4 0.39929903E+03</rscale>
<asrwt>0</asrwt>
<pdfrwt beam="1">  1       21 0.56619951E-01 0.39929903E+03</pdfrwt>
<pdfrwt beam="2">  1        2 0.65087381E-01 0.39929903E+03</pdfrwt>
<totfact> 0.25908739E+03</totfact>
</mgrwt>
</event>
<event>
 5    0  0.1014204E+000  0.2521806E+03  0.7546771E-02  0.1111934E+00
          1   -1    0    0  503    0 -0.00000000000E+00  0.00000000000E+00  0.25278934907E+04  0.25278934907E+04  0.00000000000E+00 0. -1.
         21   -1    0    0  501  502  0.00000000000E+00 -0.00000000000E+00 -0.68684984970E+02  0.68684984970E+02  0.00000000000E+00 0.  1.
         25    1    1    2    0    0  0.14679726777E+03 -0.15243702239E+03  0.21869054340E+03  0.32899397775E+03  0.12500000000E+03 0.  0.
         21    1    1    2  503  502  0.66692506529E+02 -0.18620981151E+02  0.30057972189E+03  0.30845226629E+03  0.00000000000E+00 0. -1.
          1    1    1    2  501    0 -0.21348977430E+03  0.17105800355E+03  0.19399382404E+04  0.19591322316E+04  0.00000000000E+00 0. -1.
<mgrwt>
<rscale>  4 0.25218063E+03</rscale>
<asrwt>0</asrwt>
<pdfrwt beam="1">  1       21 0.10566923E-01 0.25218063E+03</pdfrwt>
<pdfrwt beam="2">  1        1 0.38890662E+00 0.25218063E+03</pdfrwt>
<totfact> 0.12462049E+03</totfact>
</mgrwt>
</event>
<event>
 5    0  0.1014204E+000  0.3386246E+03  0.7546771E-02  0.1067383E+00
          1   -1    0    0  503    0 -0.00000000000E+00  0.00000000000E+00  0.22143925169E+04  0.22143925169E+04  0.00000000000E+00 0.  1.
         21   -1    0    0  501  502  0.00000000000E+00 -0.00000000000E+00 -0.82910110043E+02  0.82910110043E+02  0.00000000000E+00 0.  1.
         25    1    1    2    0    0  0.15552577556E+03 -0.28458574936E+03  0.45503407388E+03  0.57258914066E+03  0.12500000000E+03 0.  0.
         21    1    1    2  503  502  0.65991738670E+02  0.78937797278E+02  0.41931123764E+03  0.43174992696E+03  0.00000000000E+00 0.  1.
          1    1    1    2  501    0 -0.22151751423E+03  0.20564795208E+03  0.12571370954E+04  0.12929635594E+04  0.00000000000E+00 0.  1.
<mgrwt>
<rscale>  4 0.33862462E+03</rscale>
<asrwt>0</asrwt>
<pdfrwt beam="1">  1       21 0.12755403E-01 0.33862462E+03</pdfrwt>
<pdfrwt beam="2">  1        1 0.34067573E+00 0.33862462E+03</pdfrwt>
<totfact> 0.13786919E+03</totfact>
</mgrwt>
</event>
<event>
 5    0  0.1014204E+000  0.3249654E+03  0.7546771E-02  0.1073386E+00
         21   -1    0    0  501  502  0.00000000000E+00  0.00000000000E+00  0.33687587524E+03  0.33687587524E+03  0.00000000000E+00 0. -1.
          2   -1    0    0  503    0 -0.00000000000E+00 -0.00000000000E+00 -0.22439358718E+04  0.22439358718E+04  0.00000000000E+00 0. -1.
         25    1    1    2    0    0  0.23610870165E+03 -0.18566315047E+03  0.24052482465E+03  0.40459277763E+03  0.12500000000E+03 0.  0.
         21    1    1    2  503  502  0.67143482273E+01  0.26008084523E+02 -0.37004918155E+02  0.45725998080E+02  0.00000000000E+00 0.  1.
          2    1    1    2  501    0 -0.24282304988E+03  0.15965506595E+03 -0.21105799030E+04  0.21304929713E+04  0.00000000000E+00 0. -1.
<mgrwt>
<rscale>  4 0.32496542E+03</rscale>
<asrwt>0</asrwt>
<pdfrwt beam="1">  1       21 0.51827058E-01 0.32496542E+03</pdfrwt>
<pdfrwt beam="2">  1        2 0.34522090E+00 0.32496542E+03</pdfrwt>
<totfact> 0.23164485E+02</totfact>
</mgrwt>
</event>
<event>
 5    0  0.1014204E+000  0.2309129E+03  0.7546771E-02  0.1125999E+00
          1   -1    0    0  503    0 -0.00000000000E+00  0.00000000000E+00  0.15489475400E+04  0.15489475400E+04  0.00000000000E+00 0. -1.
         21   -1    0    0  501  502  0.00000000000E+00 -0.00000000000E+00 -0.45833658315E+02  0.45833658315E+02  0.00000000000E+00 0. -1.
         25    1    1    2    0    0 -0.66443438127E+02 -0.18910365248E+03  0.37051550525E+03  0.43941058417E+03  0.12500000000E+03 0.  0.
         21    1    1    2  503  502 -0.67965270030E+01  0.21646520783E+02  0.38819615824E+03  0.38885861429E+03  0.00000000000E+00 0. -1.
          1    1    1    2  501    0  0.73239965130E+02  0.16745713170E+03  0.74440221816E+03  0.76651199981E+03  0.00000000000E+00 0. -1.
<mgrwt>
<rscale>  4 0.23091286E+03</rscale>
<asrwt>0</asrwt>
<pdfrwt beam="1">  1       21 0.70513332E-02 0.23091286E+03</pdfrwt>
<pdfrwt beam="2">  1        1 0.23829958E+00 0.23091286E+03</pdfrwt>
<totfact> 0.11140182E+04</totfact>
</mgrwt>
</event>
<event>
 5    0  0.1014204E+000  0.4378193E+03  0.7546771E-02  0.1031418E+00
         21   -1    0    0  501  502  0.00000000000E+00  0.00000000000E+00  0.15145993234E+03  0.15145993234E+03  0.00000000000E+00 0. -1.
          1   -1    0    0  503    0 -0.00000000000E+00 -0.00000000000E+00 -0.17009777894E+04  0.17009777894E+04  0.00000000000E+00 0. -1.
         25    1    1    2    0    0 -0.12726861391E+03 -0.37085283937E+03 -0.58604284562E+03  0.71610079280E+03  0.12500000000E+03 0.  0.
         21    1    1    2  503  502 -0.15081893932E+02 -0.49830883989E+02 -0.46827016232E+03  0.47115552150E+03  0.00000000000E+00 0. -1.
          1    1    1    2  501    0  0.14235050784E+03  0.42068372336E+03 -0.49520484910E+03  0.66518140740E+03  0.00000000000E+00 0. -1.
<mgrwt>
<rscale>  4 0.43781928E+03</rscale>
<asrwt>0</asrwt>
<pdfrwt beam="1">  1       21 0.23301529E-01 0.43781928E+03</pdfrwt>
<pdfrwt beam="2">  1        1 0.26168888E+00 0.43781928E+03</pdfrwt>
<totfact> 0.94075003E+02</totfact>
</mgrwt>
</event>
<event>
 5    0  0.1014204E+000  0.3344113E+03  0.7546771E-02  0.1069202E+00
         -2   -1    0    0    0  501 -0.00000000000E+00  0.00000000000E+00  0.32089801329E+03  0.32089801329E+03  0.00000000000E+00 0. -1.
         21   -1    0    0  503  502  0.00000000000E+00 -0.00000000000E+00 -0.41842046005E+03  0.41842046005E+03  0.00000000000E+00 0.  1.
         25    1    1    2    0    0  0.28304315554E+03  0.66995434060E+02 -0.12418862702E+03  0.34007297917E+03  0.12500000000E+03 0.  0.
         21    1    1    2  503  501  0.44743117059E+02  0.32096430718E+02  0.12773456716E+02  0.56526883741E+02  0.00000000000E+00 0. -1.
         -2    1    1    2    0  502 -0.32778627260E+03 -0.99091864778E+02  0.13892723549E+02  0.34271861043E+03  0.00000000000E+00 0. -1.
<mgrwt>
<rscale>  4 0.33441130E+03</rscale>
<asrwt>0</asrwt>
<pdfrwt beam="1">  1       21 0.64372378E-01 0.33441130E+03</pdfrwt>
<pdfrwt beam="2">  1       -2 0.49368926E-01 0.33441130E+03</pdfrwt>
<totfact> 0.67955824E+02</totfact>
</mgrwt>
</event>
<event>
 5    0  0.1014204E+000  0.2698028E+03  0.7546771E-02  0.1101393E+00
         21   -1    0    0  501  502  0.00000000000E+00  0.00000000000E+00  0.33712692873E+03  0.33712692873E+03  0.00000000000E+00 0. -1.
          3   -1    0    0  503    0 -0.00000000000E+00 -0.00000000000E+00 -0.32828938504E+03  0.32828938504E+03  0.00000000000E+00 0.  1.
         25    1    1    2    0    0  0.22289995706E+03 -0.11876544436E+03  0.18643277459E+03  0.33789317997E+03  0.12500000000E+03 0.  0.
         21    1    1    2  503  502 -0.26042633845E+02  0.42677868504E+02 -0.81528716136E+02  0.95637601352E+02  0.00000000000E+00 0. -1.
          3    1    1    2  501    0 -0.19685732321E+03  0.76087575854E+02 -0.96066514761E+02  0.23188553245E+03  0.00000000000E+00 0.  1.
<mgrwt>
<rscale>  4 0.26980282E+03</rscale>
<asrwt>0</asrwt>
<pdfrwt beam="1">  1       21 0.51865681E-01 0.26980282E+03</pdfrwt>
<pdfrwt beam="2">  1        3 0.50506059E-01 0.26980282E+03</pdfrwt>
<totfact> 0.67461543E+02</totfact>
</mgrwt>
</event>
<event>
 5    0  0.1014204E+000  0.3238183E+03  0.7546771E-02  0.1073905E+00
          1   -1    0    0  503    0 -0.00000000000E+00  0.00000000000E+00  0.42599719851E+03  0.42599719851E+03  0.00000000000E+00 0. -1.
         21   -1    0    0  501  502  0.00000000000E+00 -0.00000000000E+00 -0.17228135015E+04  0.17228135015E+04  0.00000000000E+00 0. -1.
         25    1    1    2    0    0 -0.28694982505E+03  0.89038108441E+02 -0.31094840594E+03  0.45009098858E+03  0.12500000000E+03 0.  0.
         21    1    1    2  503  502  0.25470178736E+01 -0.22801920548E+03  0.29866099004E+03  0.37576273410E+03  0.00000000000E+00 0. -1.
          1    1    1    2  501    0  0.28440280718E+03  0.13898109704E+03 -0.12845288871E+04  0.13229569773E+04  0.00000000000E+00 0. -1.
<mgrwt>
<rscale>  4 0.32381831E+03</rscale>
<asrwt>0</asrwt>
<pdfrwt beam="1">  1       21 0.26504823E+00 0.32381831E+03</pdfrwt>
<pdfrwt beam="2">  1        1 0.65538030E-01 0.32381831E+03</pdfrwt>
<totfact> 0.29527193E+01</totfact>
</mgrwt>
</event>
<event>
 5    0  0.1014204E+000  0.3117721E+03  0.7546771E-02  0.1079500E+00
         21   -1    0    0  501  502  0.00000000000E+00  0.00000000000E+00  0.26529971725E+03  0.26529971725E+03  0.00000000000E+00 0. -1.
          1   -1    0    0  503    0 -0.00000000000E+00 -0.00000000000E+00 -0.12584089502E+04  0.12584089502E+04  0.00000000000E+00 0. -1.
         25    1    1    2    0    0 -0.33693775602E+03 -0.86979064042E+01  0.38743897127E+02  0.36156437127E+03  0.12500000000E+03 0.  0.
         21    1    1    2  503  502  0.11562033954E+03  0.29600556393E+02 -0.89103820684E+03  0.89899574076E+03  0.00000000000E+00 0. -1.
          1    1    1    2  501    0  0.22131741648E+03 -0.20902649989E+02 -0.14081492326E+03  0.26314855543E+03  0.00000000000E+00 0. -1.
<mgrwt>
<rscale>  4 0.31177207E+03</rscale>
<asrwt>0</asrwt>
<pdfrwt beam="1">  1       21 0.40815341E-01 0.31177207E+03</pdfrwt>
<pdfrwt beam="2">  1        1 0.19360138E+00 0.31177207E+03</pdfrwt>
<totfact> 0.64086127E+02</totfact>
</mgrwt>
</event>
<event>
 5    0  0.1014204E+000  0.2606022E+03  0.7546771E-02  0.1106782E+00
         21   -1    0    0  503  502  0.00000000000E+00  0.00000000000E+00  0.41544906129E+03  0.41544906129E+03  0.00000000000E+00 0.  1.
         -1   -1    0    0    0  501 -0.00000000000E+00 -0.00000000000E+00 -0.30640912526E+03  0.30640912526E+03  0.00000000000E+00 0.  1.
         25    1    1    2    0    0 -0.11572738316E+03 -0.19721983596E+03  0.30976105015E+03  0.40480291390E+03  0.12500000000E+03 0.  0.
         21    1    1    2  503  501  0.36255390716E+02  0.26108647666E+02 -0.84167657120E+02  0.95290657170E+02  0.00000000000E+00 0.  1.
         -1    1    1    2    0  502  0.79471992447E+02  0.17111118830E+03 -0.11655345700E+03  0.22176461549E+03  0.00000000000E+00 0.  1.
<mgrwt>
<rscale>  4 0.26060217E+03</rscale>
<asrwt>0</asrwt>
<pdfrwt beam="1">  1       21 0.63915240E-01 0.26060217E+03</pdfrwt>
<pdfrwt beam="2">  1       -1 0.47139865E-01 0.26060217E+03</pdfrwt>
<totfact> 0.93239138E+02</totfact>
</mgrwt>
</event>
<event>
 5    0  0.1014204E+000  0.5557508E+03  0.7546771E-02  0.1000172E+00
          1   -1    0    0  503    0 -0.00000000000E+00  0.00000000000E+00  0.50418104824E+03  0.50418104824E+03  0.00000000000E+00 0. -1.
         21   -1    0    0  501  502  0.00000000000E+00 -0.00000000000E+00 -0.65493795613E+03  0.65493795613E+03  0.00000000000E+00 0. -1.
         25    1    1    2    0    0 -0.50582710529E+03 -0.14303953081E+03 -0.14022731863E+03  0.55822044813E+03  0.12500000000E+03 0.  0.
         21    1    1    2  503  502 -0.38275993927E+02  0.24253907953E+00 -0.81145924334E+00  0.38285362770E+02  0.00000000000E+00 0.  1.
          1    1    1    2  501    0  0.54410309921E+03  0.14279699173E+03 -0.97181300072E+01  0.56261319347E+03  0.00000000000E+00 0. -1.
<mgrwt>
<rscale>  4 0.55575079E+03</rscale>
<asrwt>0</asrwt>
<pdfrwt beam="1">  1       21 0.10075969E+00 0.55575079E+03</pdfrwt>
<pdfrwt beam="2">  1        1 0.77566315E-01 0.55575079E+03</pdfrwt>
<totfact> 0.34764380E+02</totfact>
</mgrwt>
</event>
<event>
 5    0  0.1014204E+000  0.2544253E+03  0.7546771E-02  0.1110540E+00
          3   -1    0    0  503    0 -0.00000000000E+00  0.00000000000E+00  0.56688025812E+02  0.56688025812E+02  0.00000000000E+00 0.  1.
         21   -1    0    0  501  502  0.00000000000E+00 -0.00000000000E+00 -0.14123641243E+04  0.14123641243E+04  0.00000000000E+00 0.  1.
         25    1    1    2    0    0  0.15001901672E+03 -0.14560023712E+03 -0.69408247413E+03  0.73558182095E+03  0.12500000000E+03 0.  0.
         21    1    1    2  503  502  0.27597718065E+01 -0.31914093165E+02 -0.41468494134E+00  0.32035880612E+02  0.00000000000E+00 0. -1.
          3    1    1    2  501    0 -0.15277878852E+03  0.17751433028E+03 -0.66117893940E+03  0.70143444853E+03  0.00000000000E+00 0.  1.
<mgrwt>
<rscale>  4 0.25442532E+03</rscale>
<asrwt>0</asrwt>
<pdfrwt beam="1">  1       21 0.21728678E+00 0.25442532E+03</pdfrwt>
<pdfrwt beam="2">  1        3 0.87212352E-02 0.25442532E+03</pdfrwt>
<totfact> 0.46456601E+02</totfact>
</mgrwt>
</event>
<event>
 5    0  0.1014204E+000  0.2482111E+03  0.7546771E-02  0.1114441E+00
         21   -1    0    0  501  502  0.00000000000E+00  0.00000000000E+00  0.49770444956E+02  0.49770444956E+02  0.00000000000E+00 0.  1.
          3   -1    0    0  503    0 -0.00000000000E+00 -0.00000000000E+00 -0.17497839359E+04  0.17497839359E+04  0.00000000000E+00 0. -1.
         25    1    1    2    0    0 -0.16887860933E+03 -0.16309851646E+03 -0.45255958078E+03  0.52493455299E+03  0.12500000000E+03 0.  0.
         21    1    1    2  503  502  0.25293996584E+02  0.10627184063E+02 -0.36357971926E+02  0.45548056235E+02  0.00000000000E+00 0. -1.
          3    1    1    2  501    0  0.14358461275E+03  0.15247133239E+03 -0.12110959383E+04  0.12290717717E+04  0.00000000000E+00 0. -1.
<mgrwt>
<rscale>  4 0.24821109E+03</rscale>
<asrwt>0</asrwt>
<pdfrwt beam="1">  1       21 0.76569918E-02 0.24821109E+03</pdfrwt>
<pdfrwt beam="2">  1        3 0.26919752E+00 0.24821109E+03</pdfrwt>
<totfact> 0.41629353E+02</totfact>
</mgrwt>
</event>
<event>
 5    0  0.1014204E+000  0.5701458E+03  0.7546771E-02  0.9969356E-01
         21   -1    0    0  503  502  0.00000000000E+00  0.00000000000E+00  0.12281855687E+04  0.12281855687E+04  0.00000000000E+00 0. -1.
         -2   -1    0    0    0  501 -0.00000000000E+00 -0.00000000000E+00 -0.37302419792E+03  0.37302419792E+03  0.00000000000E+00 0. -1.
         25    1    1    2    0    0  0.54504224802E+03  0.20385992640E+03  0.77197426289E+03  0.97478160850E+03  0.12500000000E+03 0.  0.
         21    1    1    2  503  501 -0.64046522982E+02 -0.40419975121E+02 -0.62227370546E+02  0.98020289430E+02  0.00000000000E+00 0.  1.
         -2    1    1    2    0  502 -0.48099572504E+03 -0.16343995127E+03  0.14541447848E+03  0.52840786872E+03  0.00000000000E+00 0. -1.
<mgrwt>
<rscale>  4 0.57014578E+03</rscale>
<asrwt>0</asrwt>
<pdfrwt beam="1">  1       21 0.18895162E+00 0.57014578E+03</pdfrwt>
<pdfrwt beam="2">  1       -2 0.57388339E-01 0.57014578E+03</pdfrwt>
<totfact> 0.31033208E+01</totfact>
</mgrwt>
</event>
<event>
 5    0  0.1014204E+000  0.4469035E+03  0.7546771E-02  0.1028649E+00
         21   -1    0    0  503  502  0.00000000000E+00  0.00000000000E+00  0.37498431883E+03  0.37498431883E+03  0.00000000000E+00 0. -1.
         -1   -1    0    0    0  501 -0.00000000000E+00 -0.00000000000E+00 -0.13325803472E+04  0.13325803472E+04  0.00000000000E+00 0. -1.
         25    1    1    2    0    0 -0.32975065700E+03 -0.29169597825E+03  0.14892420855E+03  0.48127482732E+03  0.12500000000E+03 0.  0.
         21    1    1    2  503  501 -0.25745485722E+02  0.53242434446E+02 -0.27029983671E+02  0.65024663614E+02  0.00000000000E+00 0.  1.
         -1    1    1    2    0  502  0.35549614272E+03  0.23845354381E+03 -0.10794902532E+04  0.11612651751E+04  0.00000000000E+00 0. -1.
<mgrwt>
<rscale>  4 0.44690347E+03</rscale>
<asrwt>0</asrwt>
<pdfrwt beam="1">  1       21 0.57689895E-01 0.44690347E+03</pdfrwt>
<pdfrwt beam="2">  1       -1 0.20501236E+00 0.44690347E+03</pdfrwt>
<totfact> 0.36522907E+01</totfact>
</mgrwt>
</event>
<event>
 5    0  0.1014204E+000  0.3604843E+03  0.7546771E-02  0.1058392E+00
          2   -1    0    0  503    0 -0.00000000000E+00  0.00000000000E+00  0.12150866836E+04  0.12150866836E+04  0.00000000000E+00 0. -1.
         21   -1    0    0  501  502  0.00000000000E+00 -0.00000000000E+00 -0.13852852770E+03  0.13852852770E+03  0.00000000000E+00 0. -1.
         25    1    1    2    0    0  0.28453859421E+03  0.14993616995E+03  0.60959472684E+03  0.70048111869E+03  0.12500000000E+03 0.  0.
         21    1    1    2  503  502  0.53309935085E+02 -0.20647993956E+02 -0.62319223577E+01  0.57507614187E+02  0.00000000000E+00 0. -1.
          2    1    1    2  501    0 -0.33784852929E+03 -0.12928817599E+03  0.47319535141E+03  0.59562647842E+03  0.00000000000E+00 0. -1.
<mgrwt>
<rscale>  4 0.36048427E+03</rscale>
<asrwt>0</asrwt>
<pdfrwt beam="1">  1       21 0.21312082E-01 0.36048427E+03</pdfrwt>
<pdfrwt beam="2">  1        2 0.18693641E+00 0.36048427E+03</pdfrwt>
<totfact> 0.48688320E+03</totfact>
</mgrwt>
</event>
<event>
 5    0  0.1014204E+000  0.2434949E+03  0.7546771E-02  0.1117486E+00
          1   -1    0    0  503    0 -0.00000000000E+00  0.00000000000E+00  0.89664423384E+03  0.89664423384E+03  0.00000000000E+00 0.  1.
         21   -1    0    0  501  502  0.00000000000E+00 -0.00000000000E+00 -0.73163064043E+02  0.73163064043E+02  0.00000000000E+00 0.  1.
         25    1    1    2    0    0  0.83571873585E+02  0.19166266679E+03  0.24302327825E+03  0.34409904050E+03  0.12500000000E+03 0.  0.
         21    1    1    2  503  502  0.18348193459E+02 -0.87809724632E+01  0.92869266249E+02  0.95070827777E+02  0.00000000000E+00 0.  1.
          1    1    1    2  501    0 -0.10192006704E+03 -0.18288169433E+03  0.48758862529E+03  0.53063742961E+03  0.00000000000E+00 0.  1.
<mgrwt>
<rscale>  4 0.24349489E+03</rscale>
<asrwt>0</asrwt>
<pdfrwt beam="1">  1       21 0.11255857E-01 0.24349489E+03</pdfrwt>
<pdfrwt beam="2">  1        1 0.13794526E+00 0.24349489E+03</pdfrwt>
<totfact> 0.14004182E+04</totfact>
</mgrwt>
</event>
<event>
 5    0  0.1014204E+000  0.2499142E+03  0.7546771E-02  0.1113359E+00
         21   -1    0    0  501  502  0.00000000000E+00  0.00000000000E+00  0.47245688531E+03  0.47245688531E+03  0.00000000000E+00 0. -1.
          1   -1    0    0  503    0 -0.00000000000E+00 -0.00000000000E+00 -0.52744388807E+03  0.52744388807E+03  0.00000000000E+00 0.  1.
         25    1    1    2    0    0  0.13653234775E+03  0.16258986234E+03  0.38040312686E+03  0.45321968651E+03  0.12500000000E+03 0.  0.
         21    1    1    2  503  502  0.11787006319E+01  0.48434077660E+02 -0.18579451465E+03  0.19200742404E+03  0.00000000000E+00 0. -1.
          1    1    1    2  501    0 -0.13771104838E+03 -0.21102393999E+03 -0.24959561497E+03  0.35467366284E+03  0.00000000000E+00 0.  1.
<mgrwt>
<rscale>  4 0.24991419E+03</rscale>
<asrwt>0</asrwt>
<pdfrwt beam="1">  1       21 0.72685675E-01 0.24991419E+03</pdfrwt>
<pdfrwt beam="2">  1        1 0.81145213E-01 0.24991419E+03</pdfrwt>
<totfact> 0.76994820E+02</totfact>
</mgrwt>
</event>
<event>
 5    0  0.1014204E+000  0.2998569E+03  0.7546771E-02  0.1085312E+00
          2   -1    0    0  503    0 -0.00000000000E+00  0.00000000000E+00  0.13392515466E+04  0.13392515466E+04  0.00000000000E+00 0. -1.
         21   -1    0    0  501  502  0.00000000000E+00 -0.00000000000E+00 -0.68054362888E+02  0.68054362888E+02  0.00000000000E+00 0. -1.
         25    1    1    2    0    0  0.34658497683E+02  0.27534916582E+03  0.63172590242E+03  0.70122820135E+03  0.12500000000E+03 0.  0.
         21    1    1    2  503  502  0.26312572935E+02 -0.13289131724E+02  0.48792587238E+02  0.57005868872E+02  0.00000000000E+00 0.  1.
          2    1    1    2  501    0 -0.60971070618E+02 -0.26206003409E+03  0.59067869407E+03  0.64907183928E+03  0.00000000000E+00 0. -1.
<mgrwt>
<rscale>  4 0.29985691E+03</rscale>
<asrwt>0</asrwt>
<pdfrwt beam="1">  1       21 0.10469903E-01 0.29985691E+03</pdfrwt>
<pdfrwt beam="2">  1        2 0.20603868E+00 0.29985691E+03</pdfrwt>
<totfact> 0.15581506E+04</totfact>
</mgrwt>
</event>
<event>
 5    0  0.1014204E+000  0.2996825E+03  0.7546771E-02  0.1085399E+00
         21   -1    0    0  501  502  0.00000000000E+00  0.00000000000E+00  0.33658151938E+03  0.33658151938E+03  0.00000000000E+00 0. -1.
          1   -1    0    0  503    0 -0.00000000000E+00 -0.00000000000E+00 -0.37912082922E+03  0.37912082922E+03  0.00000000000E+00 0.  1.
         25    1    1    2    0    0  0.27155994662E+03  0.20970951168E+02  0.18719383486E+03  0.35334277580E+03  0.12500000000E+03 0.  0.
         21    1    1    2  503  502 -0.59730070559E+02 -0.19994888129E+02 -0.85041534428E+02  0.10582787656E+03  0.00000000000E+00 0. -1.
          1    1    1    2  501    0 -0.21182987606E+03 -0.97606303943E+00 -0.14469161027E+03  0.25653169624E+03  0.00000000000E+00 0.  1.
<mgrwt>
<rscale>  4 0.29968247E+03</rscale>
<asrwt>0</asrwt>
<pdfrwt beam="1">  1       21 0.51781772E-01 0.29968247E+03</pdfrwt>
<pdfrwt beam="2">  1        1 0.58326281E-01 0.29968247E+03</pdfrwt>
<totfact> 0.24398621E+03</totfact>
</mgrwt>
</event>
<event>
 5    0  0.1014204E+000  0.2666007E+03  0.7546771E-02  0.1103241E+00
         21   -1    0    0  501  502  0.00000000000E+00  0.00000000000E+00  0.39553187591E+03  0.39553187591E+03  0.00000000000E+00 0. -1.
          1   -1    0    0  503    0 -0.00000000000E+00 -0.00000000000E+00 -0.17170265958E+04  0.17170265958E+04  0.00000000000E+00 0.  1.
         25    1    1    2    0    0 -0.10876534965E+03  0.20939855072E+03  0.33698205654E+03  0.42995297505E+03  0.12500000000E+03 0.  0.
         21    1    1    2  503  502 -0.41193849708E+02 -0.37596325313E+02 -0.34535509327E+03  0.34982932607E+03  0.00000000000E+00 0.  1.
          1    1    1    2  501    0  0.14995919936E+03 -0.17180222541E+03 -0.13131216831E+04  0.13327761706E+04  0.00000000000E+00 0.  1.
<mgrwt>
<rscale>  4 0.26660072E+03</rscale>
<asrwt>0</asrwt>
<pdfrwt beam="1">  1       21 0.60851058E-01 0.26660072E+03</pdfrwt>
<pdfrwt beam="2">  1        1 0.26415794E+00 0.26660072E+03</pdfrwt>
<totfact> 0.13959353E+02</totfact>
</mgrwt>
</event>
<event>
 5    0  0.1014204E+000  0.2193147E+03  0.7546771E-02  0.1134395E+00
          2   -1    0    0  503    0 -0.00000000000E+00  0.00000000000E+00  0.76779861928E+03  0.76779861928E+03  0.00000000000E+00 0. -1.
         21   -1    0    0  501  502  0.00000000000E+00 -0.00000000000E+00 -0.11351754902E+03  0.11351754902E+03  0.00000000000E+00 0.  1.
         25    1    1    2    0    0 -0.11817227228E+03  0.17589909061E+03  0.10681122334E+03  0.26821411865E+03  0.12500000000E+03 0.  0.
         21    1    1    2  503  502  0.26545897288E+02 -0.58055868335E+02  0.39352528873E+03  0.39866943873E+03  0.00000000000E+00 0.  1.
          2    1    1    2  501    0  0.91626374987E+02 -0.11784322227E+03  0.15394455819E+03  0.21443261092E+03  0.00000000000E+00 0. -1.
<mgrwt>
<rscale>  4 0.21931468E+03</rscale>
<asrwt>0</asrwt>
<pdfrwt beam="1">  1       21 0.17464239E-01 0.21931468E+03</pdfrwt>
<pdfrwt beam="2">  1        2 0.11812286E+00 0.21931468E+03</pdfrwt>
<totfact> 0.13936516E+04</totfact>
</mgrwt>
</event>
<event>
 5    0  0.1014204E+000  0.5589428E+03  0.7546771E-02  0.9994450E-01
         -1   -1    0    0    0  501 -0.00000000000E+00  0.00000000000E+00  0.60683314988E+03  0.60683314988E+03  0.00000000000E+00 0. -1.
         21   -1    0    0  503  502  0.00000000000E+00 -0.00000000000E+00 -0.62269017722E+03  0.62269017722E+03  0.00000000000E+00 0. -1.
         25    1    1    2    0    0  0.17040312555E+03  0.52342677150E+03 -0.20573283658E+03  0.60080263845E+03  0.12500000000E+03 0.  0.
         21    1    1    2  503  501 -0.45724415096E+02 -0.19914416884E+01  0.62842689813E+02  0.77742469981E+02  0.00000000000E+00 0.  1.
         -1    1    1    2    0  502 -0.12467871045E+03 -0.52143532981E+03  0.12703311942E+03  0.55097821867E+03  0.00000000000E+00 0. -1.
<mgrwt>
<rscale>  4 0.55894279E+03</rscale>
<asrwt>0</asrwt>
<pdfrwt beam="1">  1       21 0.95798489E-01 0.55894279E+03</pdfrwt>
<pdfrwt beam="2">  1       -1 0.93358946E-01 0.55894279E+03</pdfrwt>
<totfact> 0.86239667E+01</totfact>
</mgrwt>
</event>
<event>
 5    0  0.1014204E+000  0.3422343E+03  0.7546771E-02  0.1065848E+00
         21   -1    0    0  501  502  0.00000000000E+00  0.00000000000E+00  0.14263844242E+03  0.14263844242E+03  0.00000000000E+00 0. -1.
          3   -1    0    0  503    0 -0.00000000000E+00 -0.00000000000E+00 -0.18917318779E+04  0.18917318779E+04  0.00000000000E+00 0. -1.
         25    1    1    2    0    0  0.16970560936E+03 -0.27013972540E+03 -0.11814301615E+03  0.36243376960E+03  0.12500000000E+03 0.  0.
         21    1    1    2  503  502  0.31286196371E+02  0.23870019686E+02 -0.85335838590E+02  0.93972385683E+02  0.00000000000E+00 0.  1.
          3    1    1    2  501    0 -0.20099180573E+03  0.24626970571E+03 -0.15456145807E+04  0.15779641650E+04  0.00000000000E+00 0. -1.
<mgrwt>
<rscale>  4 0.34223428E+03</rscale>
<asrwt>0</asrwt>
<pdfrwt beam="1">  1       21 0.21944375E-01 0.34223428E+03</pdfrwt>
<pdfrwt beam="2">  1        3 0.29103569E+00 0.34223428E+03</pdfrwt>
<totfact> 0.45532014E+01</totfact>
</mgrwt>
</event>
<event>
 5    0  0.1014204E+000  0.2515980E+03  0.7546771E-02  0.1112299E+00
         -1   -1    0    0    0  501 -0.00000000000E+00  0.00000000000E+00  0.18952065965E+04  0.18952065965E+04  0.00000000000E+00 0. -1.
         21   -1    0    0  503  502  0.00000000000E+00 -0.00000000000E+00 -0.81534137726E+03  0.81534137726E+03  0.00000000000E+00 0.  1.
         25    1    1    2    0    0  0.33500472719E+02 -0.22113691776E+03 -0.76894544441E+03  0.81050966345E+03  0.12500000000E+03 0.  0.
         21    1    1    2  503  501 -0.29319726072E+02  0.15323942193E+03  0.21945285621E+03  0.26926106824E+03  0.00000000000E+00 0.  1.
         -1    1    1    2    0  502 -0.41807466473E+01  0.67897495834E+02  0.16293578074E+04  0.16307772420E+04  0.00000000000E+00 0. -1.
<mgrwt>
<rscale>  4 0.25159797E+03</rscale>
<asrwt>0</asrwt>
<pdfrwt beam="1">  1       21 0.12543714E+00 0.25159797E+03</pdfrwt>
<pdfrwt beam="2">  1       -1 0.29157024E+00 0.25159797E+03</pdfrwt>
<totfact> 0.18643814E+00</totfact>
</mgrwt>
</event>
<event>
 5    0  0.1014204E+000  0.2037802E+03  0.7546771E-02  0.1146588E+00
         -4   -1    0    0    0  501 -0.00000000000E+00  0.00000000000E+00  0.88824551062E+03  0.88824551062E+03  0.00000000000E+00 0. -1.
         21   -1    0    0  503  502  0.00000000000E+00 -0.00000000000E+00 -0.85999489335E+02  0.85999489335E+02  0.00000000000E+00 0. -1.
         25    1    1    2    0    0 -0.41128079832E+02 -0.19577297225E+03  0.14904715687E+03  0.27903159424E+03  0.12500000000E+03 0.  0.
         21    1    1    2  503  501  0.47586638556E+02  0.40396396361E+02  0.81013845369E+02  0.10227218659E+03  0.00000000000E+00 0. -1.
         -4    1    1    2    0  502 -0.64585587237E+01  0.15537657589E+03  0.57218501905E+03  0.59294121913E+03  0.00000000000E+00 0. -1.
<mgrwt>
<rscale>  4 0.20378016E+03</rscale>
<asrwt>0</asrwt>
<pdfrwt beam="1">  1       21 0.13230691E-01 0.20378016E+03</pdfrwt>
<pdfrwt beam="2">  1       -4 0.13665315E+00 0.20378016E+03</pdfrwt>
<totfact> 0.83354249E+02</totfact>
</mgrwt>
</event>
<event>
 5    0  0.1014204E+000  0.3192793E+03  0.7546771E-02  0.1075981E+00
          2   -1    0    0  503    0 -0.00000000000E+00  0.00000000000E+00  0.29652759611E+04  0.29652759611E+04  0.00000000000E+00 0.  1.
         21   -1    0    0  501  502  0.00000000000E+00 -0.00000000000E+00 -0.51845595882E+03  0.51845595882E+03  0.00000000000E+00 0.  1.
         25    1    1    2    0    0 -0.22537440936E+02 -0.29332568055E+03 -0.45686333211E+03  0.55758138002E+03  0.12500000000E+03 0.  0.
         21    1    1    2  503  502  0.85998412524E+01  0.22568441398E+02  0.25116130893E+02  0.34844107790E+02  0.00000000000E+00 0.  1.
          2    1    1    2  501    0  0.13937599683E+02  0.27075723916E+03  0.28785672035E+04  0.28913064321E+04  0.00000000000E+00 0.  1.
<mgrwt>
<rscale>  4 0.31927929E+03</rscale>
<asrwt>0</asrwt>
<pdfrwt beam="1">  1       21 0.79762457E-01 0.31927929E+03</pdfrwt>
<pdfrwt beam="2">  1        2 0.45619629E+00 0.31927929E+03</pdfrwt>
<totfact> 0.35430011E+01</totfact>
</mgrwt>
</event>
<event>
 5    0  0.1014204E+000  0.3246799E+03  0.7546771E-02  0.1073515E+00
         21   -1    0    0  501  502  0.00000000000E+00  0.00000000000E+00  0.21038046520E+03  0.21038046520E+03  0.00000000000E+00 0. -1.
          1   -1    0    0  503    0 -0.00000000000E+00 -0.00000000000E+00 -0.82412996272E+03  0.82412996272E+03  0.00000000000E+00 0. -1.
         25    1    1    2    0    0 -0.27050455437E+03 -0.10525698603E+03 -0.19692016700E+03  0.37236312816E+03  0.12500000000E+03 0.  0.
         21    1    1    2  503  502 -0.40035447414E+01 -0.31055508013E+02 -0.34621530473E+03  0.34762840819E+03  0.00000000000E+00 0. -1.
          1    1    1    2  501    0  0.27450809911E+03  0.13631249405E+03 -0.70614025787E+02  0.31451889156E+03  0.00000000000E+00 0. -1.
<mgrwt>
<rscale>  4 0.32467988E+03</rscale>
<asrwt>0</asrwt>
<pdfrwt beam="1">  1       21 0.32366226E-01 0.32467988E+03</pdfrwt>
<pdfrwt beam="2">  1        1 0.12678922E+00 0.32467988E+03</pdfrwt>
<totfact> 0.21544340E+03</totfact>
</mgrwt>
</event>
<event>
 5    0  0.1014204E+000  0.2525018E+03  0.7546771E-02  0.1111734E+00
         21   -1    0    0  501  502  0.00000000000E+00  0.00000000000E+00  0.36926316404E+03  0.36926316404E+03  0.00000000000E+00 0.  1.
          2   -1    0    0  503    0 -0.00000000000E+00 -0.00000000000E+00 -0.80734373865E+03  0.80734373865E+03  0.00000000000E+00 0. -1.
         25    1    1    2    0    0  0.64444526287E+01  0.22081811657E+03  0.28862493200E+03  0.38435858641E+03  0.12500000000E+03 0.  0.
         21    1    1    2  503  502 -0.92418639475E+02 -0.16924726523E+02 -0.23245280281E+03  0.25072286857E+03  0.00000000000E+00 0.  1.
          2    1    1    2  501    0  0.85974186846E+02 -0.20389339005E+03 -0.49425270380E+03  0.54152544771E+03  0.00000000000E+00 0. -1.
<mgrwt>
<rscale>  4 0.25250184E+03</rscale>
<asrwt>0</asrwt>
<pdfrwt beam="1">  1       21 0.56809717E-01 0.25250184E+03</pdfrwt>
<pdfrwt beam="2">  1        2 0.12420673E+00 0.25250184E+03</pdfrwt>
<totfact> 0.12546837E+03</totfact>
</mgrwt>
</event>
<event>
 5    0  0.1014204E+000  0.2565906E+03  0.7546771E-02  0.1109209E+00
         21   -1    0    0  501  502  0.00000000000E+00  0.00000000000E+00  0.43271439386E+03  0.43271439386E+03  0.00000000000E+00 0.  1.
          2   -1    0    0  503    0 -0.00000000000E+00 -0.00000000000E+00 -0.66078115604E+03  0.66078115604E+03  0.00000000000E+00 0. -1.
         25    1    1    2    0    0 -0.10393211958E+03  0.18528489944E+03  0.30549622801E+03  0.39253703617E+03  0.12500000000E+03 0.  0.
         21    1    1    2  503  502 -0.51045224621E+02  0.77697607724E+02 -0.30713451969E+03  0.32089584975E+03  0.00000000000E+00 0. -1.
          2    1    1    2  501    0  0.15497734420E+03 -0.26298250717E+03 -0.22642847050E+03  0.38006266397E+03  0.00000000000E+00 0. -1.
<mgrwt>
<rscale>  4 0.25659056E+03</rscale>
<asrwt>0</asrwt>
<pdfrwt beam="1">  1       21 0.66571445E-01 0.25659056E+03</pdfrwt>
<pdfrwt beam="2">  1        2 0.10165864E+00 0.25659056E+03</pdfrwt>
<totfact> 0.11368902E+03</totfact>
</mgrwt>
</event>
<event>
 5    0  0.1014204E+000  0.3654340E+03  0.7546771E-02  0.1056453E+00
          2   -1    0    0  503    0 -0.00000000000E+00  0.00000000000E+00  0.13731663384E+04  0.13731663384E+04  0.00000000000E+00 0. -1.
         21   -1    0    0  501  502  0.00000000000E+00 -0.00000000000E+00 -0.24983227159E+03  0.24983227159E+03  0.00000000000E+00 0. -1.
         25    1    1    2    0    0 -0.74912943983E+02 -0.35496565636E+03 -0.33912462174E+02  0.38521113881E+03  0.12500000000E+03 0.  0.
         21    1    1    2  503  502  0.83432318934E+02  0.11593752641E+03  0.17029396812E+03  0.22226672592E+03  0.00000000000E+00 0. -1.
          2    1    1    2  501    0 -0.85193749513E+01  0.23902812994E+03  0.98695256082E+03  0.10155207452E+04  0.00000000000E+00 0. -1.
<mgrwt>
<rscale>  4 0.36543401E+03</rscale>
<asrwt>0</asrwt>
<pdfrwt beam="1">  1       21 0.38435735E-01 0.36543401E+03</pdfrwt>
<pdfrwt beam="2">  1        2 0.21125635E+00 0.36543401E+03</pdfrwt>
<totfact> 0.12407534E+03</totfact>
</mgrwt>
</event>
<event>
 5    0  0.1014204E+000  0.4405037E+03  0.7546771E-02  0.1030592E+00
         21   -1    0    0  501  502  0.00000000000E+00  0.00000000000E+00  0.30558633039E+03  0.30558633039E+03  0.00000000000E+00 0.  1.
          2   -1    0    0  503    0 -0.00000000000E+00 -0.00000000000E+00 -0.71398394119E+03  0.71398394119E+03  0.00000000000E+00 0. -1.
         25    1    1    2    0    0 -0.42235044689E+03  0.62135902842E+01 -0.27811778669E+02  0.44138079220E+03  0.12500000000E+03 0.  0.
         21    1    1    2  503  502  0.52780268726E+02 -0.98270249492E+01 -0.10235276853E+03  0.11557861572E+03  0.00000000000E+00 0.  1.
          2    1    1    2  501    0  0.36957017816E+03  0.36134346650E+01 -0.27823306360E+03  0.46261086366E+03  0.00000000000E+00 0. -1.
<mgrwt>
<rscale>  4 0.44050370E+03</rscale>
<asrwt>0</asrwt>
<pdfrwt beam="1">  1       21 0.47013282E-01 0.44050370E+03</pdfrwt>
<pdfrwt beam="2">  1        2 0.10984368E+00 0.44050370E+03</pdfrwt>
<totfact> 0.20731175E+03</totfact>
</mgrwt>
</event>
<event>
 5    0  0.1014204E+000  0.3172973E+03  0.7546771E-02  0.1076900E+00
          1   -1    0    0  503    0 -0.00000000000E+00  0.00000000000E+00  0.66008711659E+03  0.66008711659E+03  0.00000000000E+00 0.  1.
         21   -1    0    0  501  502  0.00000000000E+00 -0.00000000000E+00 -0.22518706620E+03  0.22518706620E+03  0.00000000000E+00 0.  1.
         25    1    1    2    0    0  0.27544508746E+03 -0.88084674098E+02 -0.26222199389E+02  0.31613527130E+03  0.12500000000E+03 0.  0.
         21    1    1    2  503  502  0.18991731344E+02  0.26758646551E+02  0.43282634664E+02  0.54314799900E+02  0.00000000000E+00 0.  1.
          1    1    1    2  501    0 -0.29443681881E+03  0.61326027547E+02  0.41783961511E+03  0.51482411159E+03  0.00000000000E+00 0.  1.
<mgrwt>
<rscale>  4 0.31729728E+03</rscale>
<asrwt>0</asrwt>
<pdfrwt beam="1">  1       21 0.34644164E-01 0.31729728E+03</pdfrwt>
<pdfrwt beam="2">  1        1 0.10155186E+00 0.31729728E+03</pdfrwt>
<totfact> 0.26317088E+03</totfact>
</mgrwt>
</event>
