<event>
 5    0  0.1014204E+000  0.4067330E+03  0.7546771E-02  0.1041473E+00
         21   -1    0    0  501  502  0.00000000000E+00  0.00000000000E+00  0.43277793857E+03  0.43277793857E+03  0.00000000000E+00 0. -1.
          2   -1    0    0  503    0 -0.00000000000E+00 -0.00000000000E+00 -0.87797368364E+03  0.87797368364E+03  0.00000000000E+00 0.  1.
         25    1    1    2    0    0  0.25191997205E+03 -0.28982769090E+03  0.26133151758E+03  0.48102279032E+03  0.12500000000E+03 0.  0.
         21    1    1    2  503  502  0.60406186962E+01 -0.24169049609E+02 -0.72392673649E+02  0.76559331445E+02  0.00000000000E+00 0.  1.
          2    1    1    2  501    0 -0.25796059074E+03  0.31399674051E+03 -0.63413458901E+03  0.75316950045E+03  0.00000000000E+00 0.  1.
<mgrwt>
<rscale>  4 0.40673296E+03</rscale>
<asrwt>0</asrwt>
<pdfrwt beam="1">  1       21 0.66581222E-01 0.40673296E+03</pdfrwt>
<pdfrwt beam="2">  1        2 0.13507287E+00 0.40673296E+03</pdfrwt>
<totfact> 0.75296109E+02</totfact>
</mgrwt>
</event>
<event>
 5    0  0.1014204E+000  0.4769504E+03  0.7546771E-02  0.1019977E+00
         21   -1    0    0  501  502  0.00000000000E+00  0.00000000000E+00  0.23176056608E+03  0.23176056608E+03  0.00000000000E+00 0. -1.
          2   -1    0    0  503    0 -0.00000000000E+00 -0.00000000000E+00 -0.22979570277E+04  0.22979570277E+04  0.00000000000E+00 0. -1.
         25    1    1    2    0    0 -0.50731916747E+03  0.74240804377E+02 -0.18088795539E+03  0.55787981422E+03  0.12500000000E+03 0.  0.
         21    1    1    2  503  502  0.25258455147E+03 -0.24153455865E+02 -0.48190255961E+03  0.54462135656E+03  0.00000000000E+00 0. -1.
          2    1    1    2  501    0  0.25473461600E+03 -0.50087348511E+02 -0.14034059466E+04  0.14272164230E+04  0.00000000000E+00 0. -1.
<mgrwt>
<rscale>  4 0.47695040E+03</rscale>
<asrwt>0</asrwt>
<pdfrwt beam="1">  1       21 0.35655471E-01 0.47695040E+03</pdfrwt>
<pdfrwt beam="2">  1        2 0.35353185E+00 0.47695040E+03</pdfrwt>
<totfact> 0.44207434E+02</totfact>
</mgrwt>
</event>
<event>
 5    0  0.1014204E+000  0.4148641E+03  0.7546771E-02  0.1038751E+00
          2   -1    0    0  503    0 -0.00000000000E+00  0.00000000000E+00  0.19279528076E+04  0.19279528076E+04  0.00000000000E+00 0.  1.
         21   -1    0    0  501  502  0.00000000000E+00 -0.00000000000E+00 -0.19922593849E+03  0.19922593849E+03  0.00000000000E+00 0.  1.
         25    1    1    2    0    0  0.85325503895E+02 -0.38350101853E+03  0.78839642800E+02  0.41975488336E+03  0.12500000000E+03 0.  0.
         21    1    1    2  503  502  0.60604871796E+01 -0.19657505455E+02  0.36280842387E+02  0.41706672726E+02  0.00000000000E+00 0. -1.
          2    1    1    2  501    0 -0.91385991075E+02  0.40315852398E+03  0.16136063840E+04  0.16657171900E+04  0.00000000000E+00 0.  1.
<mgrwt>
<rscale>  4 0.41486406E+03</rscale>
<asrwt>0</asrwt>
<pdfrwt beam="1">  1       21 0.30650146E-01 0.41486406E+03</pdfrwt>
<pdfrwt beam="2">  1        2 0.29660811E+00 0.41486406E+03</pdfrwt>
<totfact> 0.96772329E+02</totfact>
</mgrwt>
</event>
<event>
 5    0  0.1014204E+000  0.2875238E+03  0.7546771E-02  0.1091649E+00
          1   -1    0    0  503    0 -0.00000000000E+00  0.00000000000E+00  0.16263427069E+04  0.16263427069E+04  0.00000000000E+00 0.  1.
         21   -1    0    0  501  502  0.00000000000E+00 -0.00000000000E+00 -0.13216324918E+03  0.13216324918E+03  0.00000000000E+00 0.  1.
         25    1    1    2    0    0  0.25577236052E+03  0.27225140573E+02  0.64062096433E+02  0.29306937896E+03  0.12500000000E+03 0.  0.
         21    1    1    2  503  502  0.14300624122E+02 -0.23506634385E+02  0.38498002050E+03  0.38596202650E+03  0.00000000000E+00 0. -1.
          1    1    1    2  501    0 -0.27007298464E+03 -0.37185061883E+01  0.10451373408E+04  0.10794745506E+04  0.00000000000E+00 0.  1.
<mgrwt>
<rscale>  4 0.28752376E+03</rscale>
<asrwt>0</asrwt>
<pdfrwt beam="1">  1       21 0.20332809E-01 0.28752376E+03</pdfrwt>
<pdfrwt beam="2">  1        1 0.25020656E+00 0.28752376E+03</pdfrwt>
<totfact> 0.14368326E+03</totfact>
</mgrwt>
</event>
<event>
 5    0  0.1014204E+000  0.3216963E+03  0.7546771E-02  0.1074871E+00
         21   -1    0    0  501  502  0.00000000000E+00  0.00000000000E+00  0.50930858303E+03  0.50930858303E+03  0.00000000000E+00 0. -1.
          2   -1    0    0  503    0 -0.00000000000E+00 -0.00000000000E+00 -0.63684126396E+03  0.63684126396E+03  0.00000000000E+00 0. -1.
         25    1    1    2    0    0  0.29301288373E+03 -0.44799210626E+02  0.41474495770E+03  0.52488274808E+03  0.12500000000E+03 0.  0.
         21    1    1    2  503  502 -0.31690798712E+02  0.22209742765E+02 -0.47549565967E+02  0.61306937783E+02  0.00000000000E+00 0. -1.
          2    1    1    2  501    0 -0.26132208501E+03  0.22589467861E+02 -0.49472807266E+03  0.55996016113E+03  0.00000000000E+00 0. -1.
<mgrwt>
<rscale>  4 0.32169632E+03</rscale>
<asrwt>0</asrwt>
<pdfrwt beam="1">  1       21 0.78355167E-01 0.32169632E+03</pdfrwt>
<pdfrwt beam="2">  1        2 0.97975579E-01 0.32169632E+03</pdfrwt>
<totfact> 0.80434580E+02</totfact>
</mgrwt>
</event>
<event>
 5    0  0.1014204E+000  0.2414917E+03  0.7546771E-02  0.1118803E+00
         21   -1    0    0  501  502  0.00000000000E+00  0.00000000000E+00  0.49207235839E+03  0.49207235839E+03  0.00000000000E+00 0.  1.
          2   -1    0    0  503    0 -0.00000000000E+00 -0.00000000000E+00 -0.28587017267E+03  0.28587017267E+03  0.00000000000E+00 0.  1.
         25    1    1    2    0    0 -0.18885539877E+03  0.14277284024E+03  0.37109954802E+03  0.45759187067E+03  0.12500000000E+03 0.  0.
         21    1    1    2  503  502  0.49350845512E+02 -0.12360048483E+03 -0.91935774494E+02  0.16175528565E+03  0.00000000000E+00 0.  1.
          2    1    1    2  501    0  0.13950455326E+03 -0.19172355410E+02 -0.72961587809E+02  0.15859537474E+03  0.00000000000E+00 0.  1.
<mgrwt>
<rscale>  4 0.24149170E+03</rscale>
<asrwt>0</asrwt>
<pdfrwt beam="1">  1       21 0.75703440E-01 0.24149170E+03</pdfrwt>
<pdfrwt beam="2">  1        2 0.43980027E-01 0.24149170E+03</pdfrwt>
<totfact> 0.21821311E+03</totfact>
</mgrwt>
</event>
<event>
 5    0  0.1014204E+000  0.3301472E+03  0.7546771E-02  0.1071072E+00
         21   -1    0    0  501  502  0.00000000000E+00  0.00000000000E+00  0.11430862647E+04  0.11430862647E+04  0.00000000000E+00 0.  1.
          1   -1    0    0  503    0 -0.00000000000E+00 -0.00000000000E+00 -0.14044786595E+03  0.14044786595E+03  0.00000000000E+00 0. -1.
         25    1    1    2    0    0 -0.46298453363E+02 -0.30700162567E+03  0.84608693866E+03  0.90988002106E+03  0.12500000000E+03 0.  0.
         21    1    1    2  503  502 -0.24443352640E+02  0.22190341278E+02 -0.12121687682E+02  0.35168509303E+02  0.00000000000E+00 0.  1.
          1    1    1    2  501    0  0.70741806003E+02  0.28481128439E+03  0.16867314781E+03  0.33848560032E+03  0.00000000000E+00 0. -1.
<mgrwt>
<rscale>  4 0.33014724E+03</rscale>
<asrwt>0</asrwt>
<pdfrwt beam="1">  1       21 0.17585942E+00 0.33014724E+03</pdfrwt>
<pdfrwt beam="2">  1        1 0.21607365E-01 0.33014724E+03</pdfrwt>
<totfact> 0.44983244E+02</totfact>
</mgrwt>
</event>
<event>
 5    0  0.1014204E+000  0.2294453E+03  0.7546771E-02  0.1127031E+00
         21   -1    0    0  501  502  0.00000000000E+00  0.00000000000E+00  0.96098059196E+03  0.96098059196E+03  0.00000000000E+00 0. -1.
          2   -1    0    0  503    0 -0.00000000000E+00 -0.00000000000E+00 -0.75057869681E+02  0.75057869681E+02  0.00000000000E+00 0. -1.
         25    1    1    2    0    0 -0.19033541288E+03 -0.79956289143E+02  0.39420708881E+03  0.46221727190E+03  0.12500000000E+03 0.  0.
         21    1    1    2  503  502  0.36470443906E+02 -0.25912548424E+02 -0.31842273475E+01  0.44851897934E+02  0.00000000000E+00 0. -1.
          2    1    1    2  501    0  0.15386496897E+03  0.10586883757E+03  0.49489986081E+03  0.52896929181E+03  0.00000000000E+00 0. -1.
<mgrwt>
<rscale>  4 0.22944527E+03</rscale>
<asrwt>0</asrwt>
<pdfrwt beam="1">  1       21 0.14784316E+00 0.22944527E+03</pdfrwt>
<pdfrwt beam="2">  1        2 0.11547365E-01 0.22944527E+03</pdfrwt>
<totfact> 0.19844779E+03</totfact>
</mgrwt>
</event>
<event>
 5    0  0.1014204E+000  0.2409468E+03  0.7546771E-02  0.1119164E+00
         21   -1    0    0  503  502  0.00000000000E+00  0.00000000000E+00  0.66485456520E+02  0.66485456520E+02  0.00000000000E+00 0.  1.
         -3   -1    0    0    0  501 -0.00000000000E+00 -0.00000000000E+00 -0.12202299930E+04  0.12202299930E+04  0.00000000000E+00 0.  1.
         25    1    1    2    0    0  0.20552066485E+03 -0.15714489261E+02 -0.23856695953E+03  0.33915318520E+03  0.12500000000E+03 0.  0.
         21    1    1    2  503  501 -0.35975966786E+01 -0.31649383686E+02 -0.21386291245E+03  0.21622204215E+03  0.00000000000E+00 0. -1.
         -3    1    1    2    0  502 -0.20192306817E+03  0.47363872948E+02 -0.70131466445E+03  0.73134022212E+03  0.00000000000E+00 0.  1.
<mgrwt>
<rscale>  4 0.24094683E+03</rscale>
<asrwt>0</asrwt>
<pdfrwt beam="1">  1       21 0.10228533E-01 0.24094683E+03</pdfrwt>
<pdfrwt beam="2">  1       -3 0.18772767E+00 0.24094683E+03</pdfrwt>
<totfact> 0.73097362E+02</totfact>
</mgrwt>
</event>
<event>
 5    0  0.1014204E+000  0.3003470E+03  0.7546771E-02  0.1085067E+00
          1   -1    0    0  503    0 -0.00000000000E+00  0.00000000000E+00  0.13698552538E+04  0.13698552538E+04  0.00000000000E+00 0.  1.
         21   -1    0    0  501  502  0.00000000000E+00 -0.00000000000E+00 -0.16371128850E+03  0.16371128850E+03  0.00000000000E+00 0. -1.
         25    1    1    2    0    0  0.26231325046E+03 -0.86960948061E+02  0.14224270468E+02  0.30364086966E+03  0.12500000000E+03 0.  0.
         21    1    1    2  503  502 -0.32881206370E+02 -0.13528999200E+02  0.53226220837E+02  0.64009672209E+02  0.00000000000E+00 0.  1.
          1    1    1    2  501    0 -0.22943204409E+03  0.10048994726E+03  0.11386934740E+04  0.11659160004E+04  0.00000000000E+00 0.  1.
<mgrwt>
<rscale>  4 0.30034703E+03</rscale>
<asrwt>0</asrwt>
<pdfrwt beam="1">  1       21 0.25186353E-01 0.30034703E+03</pdfrwt>
<pdfrwt beam="2">  1        1 0.21074695E+00 0.30034703E+03</pdfrwt>
<totfact> 0.14085882E+03</totfact>
</mgrwt>
</event>
<event>
 5    0  0.1014204E+000  0.2850074E+03  0.7546771E-02  0.1092985E+00
         21   -1    0    0  501  502  0.00000000000E+00  0.00000000000E+00  0.19908534991E+03  0.19908534991E+03  0.00000000000E+00 0.  1.
          2   -1    0    0  503    0 -0.00000000000E+00 -0.00000000000E+00 -0.26069748472E+04  0.26069748472E+04  0.00000000000E+00 0.  1.
         25    1    1    2    0    0  0.13739101213E+03  0.21678510382E+03  0.70687292450E+02  0.29409822299E+03  0.12500000000E+03 0.  0.
         21    1    1    2  503  502 -0.86353582513E+02  0.40712105301E+02 -0.24388978871E+03  0.26190961373E+03  0.00000000000E+00 0.  1.
          2    1    1    2  501    0 -0.51037429618E+02 -0.25749720912E+03 -0.22346870010E+04  0.22500523604E+04  0.00000000000E+00 0.  1.
<mgrwt>
<rscale>  4 0.28500743E+03</rscale>
<asrwt>0</asrwt>
<pdfrwt beam="1">  1       21 0.30628515E-01 0.28500743E+03</pdfrwt>
<pdfrwt beam="2">  1        2 0.40107306E+00 0.28500743E+03</pdfrwt>
<totfact> 0.43943429E+02</totfact>
</mgrwt>
</event>
<event>
 5    0  0.1014204E+000  0.4637943E+03  0.7546771E-02  0.1023686E+00
         21   -1    0    0  501  502  0.00000000000E+00  0.00000000000E+00  0.16978476640E+03  0.16978476640E+03  0.00000000000E+00 0.  1.
          2   -1    0    0  503    0 -0.00000000000E+00 -0.00000000000E+00 -0.20635146298E+04  0.20635146298E+04  0.00000000000E+00 0.  1.
         25    1    1    2    0    0  0.41452078586E+03  0.17087485638E+03 -0.29025902333E+03  0.54854443674E+03  0.12500000000E+03 0.  0.
         21    1    1    2  503  502  0.31639999076E+01 -0.25800140763E+02 -0.42935917449E+03  0.43014527648E+03  0.00000000000E+00 0.  1.
          2    1    1    2  501    0 -0.41768478577E+03 -0.14507471562E+03 -0.11741116656E+04  0.12546096830E+04  0.00000000000E+00 0.  1.
<mgrwt>
<rscale>  4 0.46379429E+03</rscale>
<asrwt>0</asrwt>
<pdfrwt beam="1">  1       21 0.26120733E-01 0.46379429E+03</pdfrwt>
<pdfrwt beam="2">  1        2 0.31746379E+00 0.46379429E+03</pdfrwt>
<totfact> 0.11058955E+03</totfact>
</mgrwt>
</event>
<event>
 5    0  0.1014204E+000  0.2619796E+03  0.7546771E-02  0.1105960E+00
         21   -1    0    0  501  502  0.00000000000E+00  0.00000000000E+00  0.81273415658E+02  0.81273415658E+02  0.00000000000E+00 0.  1.
          2   -1    0    0  503    0 -0.00000000000E+00 -0.00000000000E+00 -0.32133406020E+04  0.32133406020E+04  0.00000000000E+00 0. -1.
         25    1    1    2    0    0 -0.22439877385E+03  0.39979526042E+02 -0.17074688090E+03  0.31101876076E+03  0.12500000000E+03 0.  0.
         21    1    1    2  503  502 -0.11343177936E+02  0.82559676369E+02 -0.40367687698E+03  0.41218902079E+03  0.00000000000E+00 0. -1.
          2    1    1    2  501    0  0.23574195178E+03 -0.12253920241E+03 -0.25576434284E+04  0.25714062361E+04  0.00000000000E+00 0. -1.
<mgrwt>
<rscale>  4 0.26197959E+03</rscale>
<asrwt>0</asrwt>
<pdfrwt beam="1">  1       21 0.12503603E-01 0.26197959E+03</pdfrwt>
<pdfrwt beam="2">  1        2 0.49436005E+00 0.26197959E+03</pdfrwt>
<totfact> 0.10634235E+03</totfact>
</mgrwt>
</event>
<event>
 5    0  0.1014204E+000  0.2646449E+03  0.7546771E-02  0.1104384E+00
         21   -1    0    0  501  502  0.00000000000E+00  0.00000000000E+00  0.26377848560E+03  0.26377848560E+03  0.00000000000E+00 0. -1.
          2   -1    0    0  503    0 -0.00000000000E+00 -0.00000000000E+00 -0.52648626897E+03  0.52648626897E+03  0.00000000000E+00 0. -1.
         25    1    1    2    0    0 -0.17912024701E+03 -0.14320662437E+03  0.14274487764E+03  0.29764626698E+03  0.12500000000E+03 0.  0.
         21    1    1    2  503  502 -0.15727820832E+02 -0.18231035901E+02 -0.57933423768E+02  0.62737680924E+02  0.00000000000E+00 0. -1.
          2    1    1    2  501    0  0.19484806784E+03  0.16143766027E+03 -0.34751923724E+03  0.42988080668E+03  0.00000000000E+00 0. -1.
<mgrwt>
<rscale>  4 0.26464488E+03</rscale>
<asrwt>0</asrwt>
<pdfrwt beam="1">  1       21 0.40581306E-01 0.26464488E+03</pdfrwt>
<pdfrwt beam="2">  1        2 0.80997887E-01 0.26464488E+03</pdfrwt>
<totfact> 0.42083146E+03</totfact>
</mgrwt>
</event>
<event>
 5    0  0.1014204E+000  0.2702042E+03  0.7546771E-02  0.1101163E+00
          2   -1    0    0  503    0 -0.00000000000E+00  0.00000000000E+00  0.47417323270E+03  0.47417323270E+03  0.00000000000E+00 0. -1.
         21   -1    0    0  501  502  0.00000000000E+00 -0.00000000000E+00 -0.21485645487E+03  0.21485645487E+03  0.00000000000E+00 0. -1.
         25    1    1    2    0    0  0.15935489679E+03  0.20117569304E+03  0.19336864837E+03  0.34479280267E+03  0.12500000000E+03 0.  0.
         21    1    1    2  503  502 -0.10498086025E+03  0.22088190043E+02  0.32019794895E+02  0.11195595752E+03  0.00000000000E+00 0.  1.
          2    1    1    2  501    0 -0.54374036544E+02 -0.22326388308E+03  0.33928334571E+02  0.23228092738E+03  0.00000000000E+00 0. -1.
<mgrwt>
<rscale>  4 0.27020420E+03</rscale>
<asrwt>0</asrwt>
<pdfrwt beam="1">  1       21 0.33054839E-01 0.27020420E+03</pdfrwt>
<pdfrwt beam="2">  1        2 0.72949728E-01 0.27020420E+03</pdfrwt>
<totfact> 0.71440195E+03</totfact>
</mgrwt>
</event>
<event>
 5    0  0.1014204E+000  0.2407527E+03  0.7546771E-02  0.1119292E+00
          2   -1    0    0  503    0 -0.00000000000E+00  0.00000000000E+00  0.11278327901E+04  0.11278327901E+04  0.00000000000E+00 0. -1.
         21   -1    0    0  501  502  0.00000000000E+00 -0.00000000000E+00 -0.49910946518E+02  0.49910946518E+02  0.00000000000E+00 0. -1.
         25    1    1    2    0    0  0.15297275323E+03  0.13760887853E+03  0.40108351988E+03  0.46779253585E+03  0.12500000000E+03 0.  0.
         21    1    1    2  503  502 -0.58902903188E+02 -0.63919586914E+02  0.38309973416E+03  0.39283669878E+03  0.00000000000E+00 0. -1.
          2    1    1    2  501    0 -0.94069850040E+02 -0.73689291614E+02  0.29373858958E+03  0.31711450202E+03  0.00000000000E+00 0. -1.
<mgrwt>
<rscale>  4 0.24075271E+03</rscale>
<asrwt>0</asrwt>
<pdfrwt beam="1">  1       21 0.76786080E-02 0.24075271E+03</pdfrwt>
<pdfrwt beam="2">  1        2 0.17351272E+00 0.24075271E+03</pdfrwt>
<totfact> 0.35876516E+04</totfact>
</mgrwt>
</event>
<event>
 5    0  0.1014204E+000  0.3428530E+03  0.7546771E-02  0.1065587E+00
          1   -1    0    0  503    0 -0.00000000000E+00  0.00000000000E+00  0.10932420542E+04  0.10932420542E+04  0.00000000000E+00 0. -1.
         21   -1    0    0  501  502  0.00000000000E+00 -0.00000000000E+00 -0.60171955941E+03  0.60171955941E+03  0.00000000000E+00 0.  1.
         25    1    1    2    0    0 -0.10933423404E+03 -0.30702829066E+03 -0.45806017983E+03  0.57590318140E+03  0.12500000000E+03 0.  0.
         21    1    1    2  503  502  0.22687928183E+01  0.36426719422E+02  0.78278185105E+03  0.78363223495E+03  0.00000000000E+00 0. -1.
          1    1    1    2  501    0  0.10706544122E+03  0.27060157124E+03  0.16680082352E+03  0.33542619723E+03  0.00000000000E+00 0. -1.
<mgrwt>
<rscale>  4 0.34285298E+03</rscale>
<asrwt>0</asrwt>
<pdfrwt beam="1">  1       21 0.92572240E-01 0.34285298E+03</pdfrwt>
<pdfrwt beam="2">  1        1 0.16819108E+00 0.34285298E+03</pdfrwt>
<totfact> 0.13764683E+02</totfact>
</mgrwt>
</event>
<event>
 5    0  0.1014204E+000  0.2653727E+03  0.7546771E-02  0.1103958E+00
          1   -1    0    0  503    0 -0.00000000000E+00  0.00000000000E+00  0.10428653916E+04  0.10428653916E+04  0.00000000000E+00 0. -1.
         21   -1    0    0  501  502  0.00000000000E+00 -0.00000000000E+00 -0.29768662593E+03  0.29768662593E+03  0.00000000000E+00 0.  1.
         25    1    1    2    0    0 -0.19485024390E+03 -0.14192685462E+03 -0.19525581390E+03  0.33445430550E+03  0.12500000000E+03 0.  0.
         21    1    1    2  503  502 -0.16014846065E+02  0.10967546072E+03  0.55128223380E+03  0.56231422113E+03  0.00000000000E+00 0.  1.
          1    1    1    2  501    0  0.21086508996E+03  0.32251393893E+02  0.38915234576E+03  0.44378349089E+03  0.00000000000E+00 0. -1.
<mgrwt>
<rscale>  4 0.26537267E+03</rscale>
<asrwt>0</asrwt>
<pdfrwt beam="1">  1       21 0.45797943E-01 0.26537267E+03</pdfrwt>
<pdfrwt beam="2">  1        1 0.16044083E+00 0.26537267E+03</pdfrwt>
<totfact> 0.73470715E+02</totfact>
</mgrwt>
</event>
<event>
 5    0  0.1014204E+000  0.2560893E+03  0.7546771E-02  0.1109516E+00
         21   -1    0    0  501  502  0.00000000000E+00  0.00000000000E+00  0.58164711040E+03  0.58164711040E+03  0.00000000000E+00 0.  1.
          2   -1    0    0  503    0 -0.00000000000E+00 -0.00000000000E+00 -0.22527886641E+04  0.22527886641E+04  0.00000000000E+00 0.  1.
         25    1    1    2    0    0 -0.76953819060E+02 -0.20983659623E+03  0.54608659921E+03  0.60314912022E+03  0.12500000000E+03 0.  0.
         21    1    1    2  503  502 -0.22464806659E+02  0.76875578791E+01 -0.27980428665E+03  0.28080990885E+03  0.00000000000E+00 0.  1.
          2    1    1    2  501    0  0.99418625719E+02  0.20214903835E+03 -0.19374238662E+04  0.19504767454E+04  0.00000000000E+00 0.  1.
<mgrwt>
<rscale>  4 0.25608934E+03</rscale>
<asrwt>0</asrwt>
<pdfrwt beam="1">  1       21 0.89484174E-01 0.25608934E+03</pdfrwt>
<pdfrwt beam="2">  1        2 0.34658286E+00 0.25608934E+03</pdfrwt>
<totfact> 0.71298249E+01</totfact>
</mgrwt>
</event>
<event>
 5    0  0.1014204E+000  0.2196704E+03  0.7546771E-02  0.1134129E+00
          2   -1    0    0  503    0 -0.00000000000E+00  0.00000000000E+00  0.22408113383E+04  0.22408113383E+04  0.00000000000E+00 0. -1.
         21   -1    0    0  501  502  0.00000000000E+00 -0.00000000000E+00 -0.27457427880E+03  0.27457427880E+03  0.00000000000E+00 0.  1.
         25    1    1    2    0    0 -0.24323968299E+03  0.94422850825E+02 -0.17400276272E+03  0.33761395050E+03  0.12500000000E+03 0.  0.
         21    1    1    2  503  502  0.74734061879E+02 -0.32843965944E+02  0.97470022556E+02  0.12713894526E+03  0.00000000000E+00 0. -1.
          2    1    1    2  501    0  0.16850562111E+03 -0.61578884880E+02  0.20427697997E+04  0.20506327214E+04  0.00000000000E+00 0. -1.
<mgrwt>
<rscale>  4 0.21967039E+03</rscale>
<asrwt>0</asrwt>
<pdfrwt beam="1">  1       21 0.42242198E-01 0.21967039E+03</pdfrwt>
<pdfrwt beam="2">  1        2 0.34474019E+00 0.21967039E+03</pdfrwt>
<totfact> 0.38046827E+02</totfact>
</mgrwt>
</event>
<event>
 5    0  0.1014204E+000  0.2634617E+03  0.7546771E-02  0.1105081E+00
         21   -1    0    0  501  502  0.00000000000E+00  0.00000000000E+00  0.97419178609E+02  0.97419178609E+02  0.00000000000E+00 0.  1.
          2   -1    0    0  503    0 -0.00000000000E+00 -0.00000000000E+00 -0.22656734034E+04  0.22656734034E+04  0.00000000000E+00 0. -1.
         25    1    1    2    0    0 -0.23183688641E+03 -0.22906251526E+02 -0.10994612570E+03  0.28633230488E+03  0.12500000000E+03 0.  0.
         21    1    1    2  503  502  0.61612976592E+01  0.26504709149E+02 -0.64236984371E+03  0.64294593653E+03  0.00000000000E+00 0.  1.
          2    1    1    2  501    0  0.22567558875E+03 -0.35984576233E+01 -0.14159382554E+04  0.14338143406E+04  0.00000000000E+00 0. -1.
<mgrwt>
<rscale>  4 0.26346171E+03</rscale>
<asrwt>0</asrwt>
<pdfrwt beam="1">  1       21 0.14987566E-01 0.26346171E+03</pdfrwt>
<pdfrwt beam="2">  1        2 0.34856513E+00 0.26346171E+03</pdfrwt>
<totfact> 0.26471667E+03</totfact>
</mgrwt>
</event>
<event>
 5    0  0.1014204E+000  0.2968004E+03  0.7546771E-02  0.1086851E+00
         21   -1    0    0  501  502  0.00000000000E+00  0.00000000000E+00  0.47232036440E+03  0.47232036440E+03  0.00000000000E+00 0. -1.
          2   -1    0    0  503    0 -0.00000000000E+00 -0.00000000000E+00 -0.14178200967E+04  0.14178200967E+04  0.00000000000E+00 0. -1.
         25    1    1    2    0    0  0.26756906105E+03  0.78771408025E+00  0.39957758890E+03  0.49687128361E+03  0.12500000000E+03 0.  0.
         21    1    1    2  503  502  0.44054615407E+02  0.36088586234E+01 -0.92738321716E+02  0.10273377884E+03  0.00000000000E+00 0.  1.
          2    1    1    2  501    0 -0.31162367646E+03 -0.43965727036E+01 -0.12523389994E+04  0.12905353986E+04  0.00000000000E+00 0. -1.
<mgrwt>
<rscale>  4 0.29680038E+03</rscale>
<asrwt>0</asrwt>
<pdfrwt beam="1">  1       21 0.72664673E-01 0.29680038E+03</pdfrwt>
<pdfrwt beam="2">  1        2 0.21812616E+00 0.29680038E+03</pdfrwt>
<totfact> 0.30964830E+02</totfact>
</mgrwt>
</event>
<event>
 5    0  0.1014204E+000  0.2911594E+03  0.7546771E-02  0.1089745E+00
         21   -1    0    0  501  502  0.00000000000E+00  0.00000000000E+00  0.43306959697E+03  0.43306959697E+03  0.00000000000E+00 0.  1.
          1   -1    0    0  503    0 -0.00000000000E+00 -0.00000000000E+00 -0.24615179815E+04  0.24615179815E+04  0.00000000000E+00 0. -1.
         25    1    1    2    0    0  0.45208448708E+02 -0.25904628463E+03  0.37585849347E+03  0.47544020500E+03  0.12500000000E+03 0.  0.
         21    1    1    2  503  502  0.13434730648E+01  0.27885351483E+02 -0.15308766928E+03  0.15561244241E+03  0.00000000000E+00 0. -1.
          1    1    1    2  501    0 -0.46551921773E+02  0.23116093315E+03 -0.22512192087E+04  0.22635349310E+04  0.00000000000E+00 0. -1.
<mgrwt>
<rscale>  4 0.29115937E+03</rscale>
<asrwt>0</asrwt>
<pdfrwt beam="1">  1       21 0.66626090E-01 0.29115937E+03</pdfrwt>
<pdfrwt beam="2">  1        1 0.37869508E+00 0.29115937E+03</pdfrwt>
<totfact> 0.36696143E+01</totfact>
</mgrwt>
</event>
<event>
 5    0  0.1014204E+000  0.4907188E+03  0.7546771E-02  0.1016230E+00
         -1   -1    0    0    0  501 -0.00000000000E+00  0.00000000000E+00  0.38371750066E+03  0.38371750066E+03  0.00000000000E+00 0.  1.
         21   -1    0    0  503  502  0.00000000000E+00 -0.00000000000E+00 -0.72652090290E+03  0.72652090290E+03  0.00000000000E+00 0.  1.
         25    1    1    2    0    0 -0.46763729145E+03  0.68473841573E+02 -0.58663235845E+02  0.49238163915E+03  0.12500000000E+03 0.  0.
         21    1    1    2  503  501 -0.80830199847E+01 -0.42816167882E+02  0.24710855215E+02  0.50091773872E+02  0.00000000000E+00 0.  1.
         -1    1    1    2    0  502  0.47572031143E+03 -0.25657673692E+02 -0.30885102161E+03  0.56776499054E+03  0.00000000000E+00 0.  1.
<mgrwt>
<rscale>  4 0.49071879E+03</rscale>
<asrwt>0</asrwt>
<pdfrwt beam="1">  1       21 0.11177245E+00 0.49071879E+03</pdfrwt>
<pdfrwt beam="2">  1       -1 0.59033462E-01 0.49071879E+03</pdfrwt>
<totfact> 0.15499298E+02</totfact>
</mgrwt>
</event>
<event>
 5    0  0.1014204E+000  0.2992126E+03  0.7546771E-02  0.1085635E+00
          1   -1    0    0  503    0 -0.00000000000E+00  0.00000000000E+00  0.75875001741E+03  0.75875001741E+03  0.00000000000E+00 0.  1.
         21   -1    0    0  501  502  0.00000000000E+00 -0.00000000000E+00 -0.27524019166E+03  0.27524019166E+03  0.00000000000E+00 0. -1.
         25    1    1    2    0    0  0.24893608293E+03  0.10924289162E+03 -0.15373013901E+03  0.33639431980E+03  0.12500000000E+03 0.  0.
         21    1    1    2  503  502 -0.11197903187E+03 -0.84751757052E+01  0.21900592259E+03  0.24611933348E+03  0.00000000000E+00 0.  1.
          1    1    1    2  501    0 -0.13695705106E+03 -0.10076771591E+03  0.41823404217E+03  0.45147655580E+03  0.00000000000E+00 0.  1.
<mgrwt>
<rscale>  4 0.29921260E+03</rscale>
<asrwt>0</asrwt>
<pdfrwt beam="1">  1       21 0.42344645E-01 0.29921260E+03</pdfrwt>
<pdfrwt beam="2">  1        1 0.11673077E+00 0.29921260E+03</pdfrwt>
<totfact> 0.14325362E+03</totfact>
</mgrwt>
</event>
<event>
 5    0  0.1014204E+000  0.2704175E+03  0.7546771E-02  0.1101041E+00
         21   -1    0    0  501  502  0.00000000000E+00  0.00000000000E+00  0.12713947866E+03  0.12713947866E+03  0.00000000000E+00 0. -1.
          2   -1    0    0  503    0 -0.00000000000E+00 -0.00000000000E+00 -0.96012561249E+03  0.96012561249E+03  0.00000000000E+00 0. -1.
         25    1    1    2    0    0 -0.11515036298E+03 -0.22830938470E+03 -0.19353407207E+03  0.34418776604E+03  0.12500000000E+03 0.  0.
         21    1    1    2  503  502  0.44714129309E+02  0.13410829811E+02 -0.43719122375E+03  0.43967643766E+03  0.00000000000E+00 0. -1.
          2    1    1    2  501    0  0.70436233673E+02  0.21489855489E+03 -0.20226083802E+03  0.30340088745E+03  0.00000000000E+00 0. -1.
<mgrwt>
<rscale>  4 0.27041749E+03</rscale>
<asrwt>0</asrwt>
<pdfrwt beam="1">  1       21 0.19559921E-01 0.27041749E+03</pdfrwt>
<pdfrwt beam="2">  1        2 0.14771163E+00 0.27041749E+03</pdfrwt>
<totfact> 0.83107745E+03</totfact>
</mgrwt>
</event>
<event>
 5    0  0.1014204E+000  0.3517003E+03  0.7546771E-02  0.1061919E+00
          3   -1    0    0  503    0 -0.00000000000E+00  0.00000000000E+00  0.27359772480E+03  0.27359772480E+03  0.00000000000E+00 0. -1.
         21   -1    0    0  501  502  0.00000000000E+00 -0.00000000000E+00 -0.67531975805E+03  0.67531975805E+03  0.00000000000E+00 0. -1.
         25    1    1    2    0    0 -0.30953150000E+03 -0.98594951411E+02 -0.22506436645E+03  0.41449931602E+03  0.12500000000E+03 0.  0.
         21    1    1    2  503  502 -0.15258572988E+02  0.27080046353E+02  0.98178342122E+02  0.10298125957E+03  0.00000000000E+00 0. -1.
          3    1    1    2  501    0  0.32479007298E+03  0.71514905058E+02 -0.27483600891E+03  0.43143690726E+03  0.00000000000E+00 0. -1.
<mgrwt>
<rscale>  4 0.35170033E+03</rscale>
<asrwt>0</asrwt>
<pdfrwt beam="1">  1       21 0.10389535E+00 0.35170033E+03</pdfrwt>
<pdfrwt beam="2">  1        3 0.42091958E-01 0.35170033E+03</pdfrwt>
<totfact> 0.19940184E+02</totfact>
</mgrwt>
</event>
<event>
 5    0  0.1014204E+000  0.2425858E+03  0.7546771E-02  0.1118082E+00
         21   -1    0    0  501  502  0.00000000000E+00  0.00000000000E+00  0.74336281180E+03  0.74336281180E+03  0.00000000000E+00 0.  1.
          2   -1    0    0  503    0 -0.00000000000E+00 -0.00000000000E+00 -0.12054281124E+03  0.12054281124E+03  0.00000000000E+00 0.  1.
         25    1    1    2    0    0  0.22521288451E+03 -0.63002785242E+02  0.43690370567E+03  0.51107733498E+03  0.12500000000E+03 0.  0.
         21    1    1    2  503  502 -0.22936318699E+02  0.62388257766E+02  0.12500452186E+03  0.14157859975E+03  0.00000000000E+00 0.  1.
          2    1    1    2  501    0 -0.20227656581E+03  0.61452747615E+00  0.60911773026E+02  0.21124968831E+03  0.00000000000E+00 0.  1.
<mgrwt>
<rscale>  4 0.24258578E+03</rscale>
<asrwt>0</asrwt>
<pdfrwt beam="1">  1       21 0.11436351E+00 0.24258578E+03</pdfrwt>
<pdfrwt beam="2">  1        2 0.18545048E-01 0.24258578E+03</pdfrwt>
<totfact> 0.21583631E+03</totfact>
</mgrwt>
</event>
<event>
 5    0  0.1014204E+000  0.3141063E+03  0.7546771E-02  0.1078394E+00
          4   -1    0    0  503    0 -0.00000000000E+00  0.00000000000E+00  0.89680624633E+03  0.89680624633E+03  0.00000000000E+00 0. -1.
         21   -1    0    0  501  502  0.00000000000E+00 -0.00000000000E+00 -0.20614199372E+03  0.20614199372E+03  0.00000000000E+00 0. -1.
         25    1    1    2    0    0 -0.11564350607E+03  0.28166733108E+03  0.66709235963E+01  0.32921027797E+03  0.12500000000E+03 0.  0.
         21    1    1    2  503  502  0.40260012730E+02 -0.40719893016E+02  0.35214713846E+03  0.35677245611E+03  0.00000000000E+00 0. -1.
          4    1    1    2  501    0  0.75383493343E+02 -0.24094743807E+03  0.33184619056E+03  0.41696550597E+03  0.00000000000E+00 0. -1.
<mgrwt>
<rscale>  4 0.31410628E+03</rscale>
<asrwt>0</asrwt>
<pdfrwt beam="1">  1       21 0.31714153E-01 0.31410628E+03</pdfrwt>
<pdfrwt beam="2">  1        4 0.13797019E+00 0.31410628E+03</pdfrwt>
<totfact> 0.15471262E+02</totfact>
</mgrwt>
</event>
<event>
 5    0  0.1014204E+000  0.4222589E+03  0.7546771E-02  0.1036334E+00
         21   -1    0    0  501  502  0.00000000000E+00  0.00000000000E+00  0.50082215295E+03  0.50082215295E+03  0.00000000000E+00 0.  1.
          2   -1    0    0  503    0 -0.00000000000E+00 -0.00000000000E+00 -0.14937157101E+04  0.14937157101E+04  0.00000000000E+00 0.  1.
         25    1    1    2    0    0  0.33912815657E+03 -0.22705967557E+03  0.34246732816E+03  0.54724114767E+03  0.12500000000E+03 0.  0.
         21    1    1    2  503  502  0.11087556870E+02  0.13192396093E+03 -0.11920286983E+03  0.17814653957E+03  0.00000000000E+00 0.  1.
          2    1    1    2  501    0 -0.35021571344E+03  0.95135714636E+02 -0.12161580155E+04  0.12691501758E+04  0.00000000000E+00 0.  1.
<mgrwt>
<rscale>  4 0.42225895E+03</rscale>
<asrwt>0</asrwt>
<pdfrwt beam="1">  1       21 0.77049562E-01 0.42225895E+03</pdfrwt>
<pdfrwt beam="2">  1        2 0.22980242E+00 0.42225895E+03</pdfrwt>
<totfact> 0.23339813E+02</totfact>
</mgrwt>
</event>
<event>
 5    0  0.1014204E+000  0.2583830E+03  0.7546771E-02  0.1108119E+00
          2   -1    0    0  503    0 -0.00000000000E+00  0.00000000000E+00  0.33041883088E+03  0.33041883088E+03  0.00000000000E+00 0.  1.
         21   -1    0    0  501  502  0.00000000000E+00 -0.00000000000E+00 -0.68056090253E+03  0.68056090253E+03  0.00000000000E+00 0.  1.
         25    1    1    2    0    0  0.21610568442E+03 -0.72349548116E+02 -0.54634133746E+03  0.60502064508E+03  0.12500000000E+03 0.  0.
         21    1    1    2  503  502 -0.37811697800E+02 -0.72957066860E+02  0.15047791986E+03  0.17145279951E+03  0.00000000000E+00 0.  1.
          2    1    1    2  501    0 -0.17829398662E+03  0.14530661498E+03  0.45721345951E+02  0.23450628882E+03  0.00000000000E+00 0.  1.
<mgrwt>
<rscale>  4 0.25838301E+03</rscale>
<asrwt>0</asrwt>
<pdfrwt beam="1">  1       21 0.10470168E+00 0.25838301E+03</pdfrwt>
<pdfrwt beam="2">  1        2 0.50833667E-01 0.25838301E+03</pdfrwt>
<totfact> 0.87105641E+02</totfact>
</mgrwt>
</event>
<event>
 5    0  0.1014204E+000  0.2962405E+03  0.7546771E-02  0.1087135E+00
          3   -1    0    0  503    0 -0.00000000000E+00  0.00000000000E+00  0.23064820639E+03  0.23064820639E+03  0.00000000000E+00 0.  1.
         21   -1    0    0  501  502  0.00000000000E+00 -0.00000000000E+00 -0.51806206771E+03  0.51806206771E+03  0.00000000000E+00 0. -1.
         25    1    1    2    0    0  0.14797636137E+03 -0.21850301940E+03 -0.29858821278E+03  0.41763679654E+03  0.12500000000E+03 0.  0.
         21    1    1    2  503  502  0.44485677751E+02  0.12661776031E+02  0.16817771855E+02  0.49215175987E+02  0.00000000000E+00 0.  1.
          3    1    1    2  501    0 -0.19246203912E+03  0.20584124337E+03 -0.56434203919E+01  0.28185830158E+03  0.00000000000E+00 0.  1.
<mgrwt>
<rscale>  4 0.29624048E+03</rscale>
<asrwt>0</asrwt>
<pdfrwt beam="1">  1       21 0.79701857E-01 0.29624048E+03</pdfrwt>
<pdfrwt beam="2">  1        3 0.35484339E-01 0.29624048E+03</pdfrwt>
<totfact> 0.52493309E+02</totfact>
</mgrwt>
</event>
<event>
 5    0  0.1014204E+000  0.2809178E+03  0.7546771E-02  0.1095189E+00
          1   -1    0    0  503    0 -0.00000000000E+00  0.00000000000E+00  0.10311236106E+04  0.10311236106E+04  0.00000000000E+00 0.  1.
         21   -1    0    0  501  502  0.00000000000E+00 -0.00000000000E+00 -0.10952420427E+04  0.10952420427E+04  0.00000000000E+00 0.  1.
         25    1    1    2    0    0 -0.22591453266E+03 -0.10477687596E+03 -0.10208850606E+04  0.10582281780E+04  0.12500000000E+03 0.  0.
         21    1    1    2  503  502 -0.44605417226E+02 -0.70091845669E+02  0.51357465640E+03  0.52025132174E+03  0.00000000000E+00 0.  1.
          1    1    1    2  501    0  0.27051994989E+03  0.17486872163E+03  0.44319197206E+03  0.54788615349E+03  0.00000000000E+00 0.  1.
<mgrwt>
<rscale>  4 0.28091782E+03</rscale>
<asrwt>0</asrwt>
<pdfrwt beam="1">  1       21 0.16849878E+00 0.28091782E+03</pdfrwt>
<pdfrwt beam="2">  1        1 0.15863440E+00 0.28091782E+03</pdfrwt>
<totfact> 0.34399257E+01</totfact>
</mgrwt>
</event>
<event>
 5    0  0.1414546E+000  0.2943370E+03  0.7546771E-02  0.1088106E+00
         21   -1    0    0  501  502  0.00000000000E+00  0.00000000000E+00  0.90124602852E+02  0.90124602852E+02  0.00000000000E+00 0.  1.
          2   -1    0    0  503    0 -0.00000000000E+00 -0.00000000000E+00 -0.24108519782E+04  0.24108519782E+04  0.00000000000E+00 0.  1.
         25    1    1    2    0    0  0.25857527497E+03 -0.56404412270E+02 -0.19577069856E+03  0.35212752940E+03  0.12500000000E+03 0.  0.
         21    1    1    2  503  502  0.19753875062E+02  0.18292262547E+02 -0.74063525863E+02  0.78805001823E+02  0.00000000000E+00 0. -1.
          2    1    1    2  501    0 -0.27832915003E+03  0.38112149723E+02 -0.20508931509E+04  0.20700440498E+04  0.00000000000E+00 0.  1.
<mgrwt>
<rscale>  4 0.29433704E+03</rscale>
<asrwt>0</asrwt>
<pdfrwt beam="1">  1       21 0.13865327E-01 0.29433704E+03</pdfrwt>
<pdfrwt beam="2">  1        2 0.37090022E+00 0.29433704E+03</pdfrwt>
<totfact> 0.25148982E+03</totfact>
</mgrwt>
</event>
