<event>
 5    0  0.1911311E+001  0.2226992E+03  0.7546771E-02  0.1131887E+00
         21   -1    0    0  504  501  0.00000000000E+00  0.00000000000E+00  0.26027179288E+04  0.26027179288E+04  0.00000000000E+00 0. -1.
         21   -1    0    0  503  502 -0.00000000000E+00 -0.00000000000E+00 -0.11552997682E+04  0.11552997682E+04  0.00000000000E+00 0. -1.
         25    1    1    2    0    0 -0.16161058390E+03  0.19396510583E+03  0.11369008000E+03  0.30379413654E+03  0.12500000000E+03 0.  0.
         21    1    1    2  503  501  0.11448842891E+03 -0.14117712296E+03 -0.10519289962E+04  0.10675173036E+04  0.00000000000E+00 0. -1.
         21    1    1    2  504  502  0.47122154990E+02 -0.52787982870E+02  0.23856570768E+04  0.23867062569E+04  0.00000000000E+00 0. -1.
<mgrwt>
<rscale>  4 0.22269922E+03</rscale>
<asrwt>0</asrwt>
<pdfrwt beam="1">  1       21 0.40041814E+00 0.22269922E+03</pdfrwt>
<pdfrwt beam="2">  1       21 0.17773843E+00 0.22269922E+03</pdfrwt>
<totfact> 0.15240349E+00</totfact>
</mgrwt>
</event>
<event>
 5    0  0.1911311E+001  0.2011719E+03  0.7546771E-02  0.1148754E+00
         21   -1    0    0  504  501  0.00000000000E+00  0.00000000000E+00  0.95334208833E+02  0.95334208833E+02  0.00000000000E+00 0. -1.
         21   -1    0    0  503  502 -0.00000000000E+00 -0.00000000000E+00 -0.10978057311E+04  0.10978057311E+04  0.00000000000E+00 0. -1.
         25    1    1    2    0    0  0.71590845477E+02  0.19811050814E+03 -0.25940771170E+03  0.35677777885E+03  0.12500000000E+03 0.  0.
         21    1    1    2  503  501 -0.24459718312E+02 -0.67299531293E+02 -0.67987357477E+03  0.68363409979E+03  0.00000000000E+00 0. -1.
         21    1    1    2  504  502 -0.47131127165E+02 -0.13081097685E+03 -0.63190235839E+02  0.15272806133E+03  0.00000000000E+00 0. -1.
<mgrwt>
<rscale>  4 0.20117191E+03</rscale>
<asrwt>0</asrwt>
<pdfrwt beam="1">  1       21 0.14666801E-01 0.20117191E+03</pdfrwt>
<pdfrwt beam="2">  1       21 0.16889319E+00 0.20117191E+03</pdfrwt>
<totfact> 0.88174015E+03</totfact>
</mgrwt>
</event>
<event>
 5    0  0.1911311E+001  0.3061787E+03  0.7546771E-02  0.1082192E+00
         21   -1    0    0  504  501  0.00000000000E+00  0.00000000000E+00  0.41242933074E+03  0.41242933074E+03  0.00000000000E+00 0. -1.
         21   -1    0    0  503  502 -0.00000000000E+00 -0.00000000000E+00 -0.34160482847E+03  0.34160482847E+03  0.00000000000E+00 0. -1.
         25    1    1    2    0    0 -0.86435678962E+02 -0.26666222557E+03 -0.46667413083E+02  0.31045565962E+03  0.12500000000E+03 0.  0.
         21    1    1    2  503  501  0.12391396199E+03 -0.19434905916E+02 -0.14530686644E+02  0.12626767757E+03  0.00000000000E+00 0. -1.
         21    1    1    2  504  502 -0.37478283026E+02  0.28609713149E+03  0.13202260199E+03  0.31731082204E+03  0.00000000000E+00 0. -1.
<mgrwt>
<rscale>  4 0.30617869E+03</rscale>
<asrwt>0</asrwt>
<pdfrwt beam="1">  1       21 0.63450667E-01 0.30617869E+03</pdfrwt>
<pdfrwt beam="2">  1       21 0.52554589E-01 0.30617869E+03</pdfrwt>
<totfact> 0.73773374E+03</totfact>
</mgrwt>
</event>
