<event>
 5    0  0.3022578E+001  0.3085079E+03  0.7546771E-02  0.1081063E+00
         21   -1    0    0  502  501  0.00000000000E+00  0.00000000000E+00  0.17118744901E+03  0.17118744901E+03  0.00000000000E+00 0.  1.
         21   -1    0    0  504  502 -0.00000000000E+00 -0.00000000000E+00 -0.79181613083E+03  0.79181613083E+03  0.00000000000E+00 0.  1.
         25    1    1    2    0    0  0.19136632088E+03  0.22228386612E+03 -0.14195890570E+03  0.34901076890E+03  0.12500000000E+03 0.  0.
         21    1    1    2  503  501 -0.33160635035E+02  0.69766812959E+01  0.22458057062E+02  0.40652996505E+02  0.00000000000E+00 0. -1.
         21    1    1    2  504  503 -0.15820568584E+03 -0.22926054741E+03 -0.50112783318E+03  0.57333981444E+03  0.00000000000E+00 0.  1.
<mgrwt>
<rscale>  4 0.30850795E+03</rscale>
<asrwt>0</asrwt>
<pdfrwt beam="1">  1       21 0.26336530E-01 0.30850795E+03</pdfrwt>
<pdfrwt beam="2">  1       21 0.12181787E+00 0.30850795E+03</pdfrwt>
<totfact> 0.64898125E+03</totfact>
</mgrwt>
</event>
<event>
 5    0  0.1911311E+001  0.2528062E+03  0.7546771E-02  0.1111544E+00
         21   -1    0    0  504  501  0.00000000000E+00  0.00000000000E+00  0.66928678003E+03  0.66928678003E+03  0.00000000000E+00 0.  1.
         21   -1    0    0  503  502 -0.00000000000E+00 -0.00000000000E+00 -0.21705738748E+03  0.21705738748E+03  0.00000000000E+00 0.  1.
         25    1    1    2    0    0  0.23636283949E+03  0.67215692799E+01  0.30431214391E+03  0.40514621104E+03  0.12500000000E+03 0.  0.
         21    1    1    2  503  501 -0.21640617182E+03  0.52711329508E+01 -0.95549680722E+02  0.23662028131E+03  0.00000000000E+00 0.  1.
         21    1    1    2  504  502 -0.19956667673E+02 -0.11992702231E+02  0.24346692936E+03  0.24457767516E+03  0.00000000000E+00 0.  1.
<mgrwt>
<rscale>  4 0.25280624E+03</rscale>
<asrwt>0</asrwt>
<pdfrwt beam="1">  1       21 0.10296720E+00 0.25280624E+03</pdfrwt>
<pdfrwt beam="2">  1       21 0.33393444E-01 0.25280624E+03</pdfrwt>
<totfact> 0.63456333E+03</totfact>
</mgrwt>
</event>
<event>
 5    0  0.1911311E+001  0.2769278E+03  0.7546771E-02  0.1097379E+00
         21   -1    0    0  502  501  0.00000000000E+00  0.00000000000E+00  0.92420748967E+03  0.92420748967E+03  0.00000000000E+00 0. -1.
         21   -1    0    0  504  502 -0.00000000000E+00 -0.00000000000E+00 -0.35014040005E+03  0.35014040005E+03  0.00000000000E+00 0. -1.
         25    1    1    2    0    0 -0.20049828638E+03 -0.14227480821E+03 -0.16269321609E+03  0.32021206482E+03  0.12500000000E+03 0.  0.
         21    1    1    2  503  501  0.24508270679E+03  0.43644395734E+02  0.79370716458E+03  0.83183016869E+03  0.00000000000E+00 0. -1.
         21    1    1    2  504  503 -0.44584420411E+02  0.98630412478E+02 -0.56946858859E+02  0.12230565622E+03  0.00000000000E+00 0. -1.
<mgrwt>
<rscale>  4 0.27692781E+03</rscale>
<asrwt>0</asrwt>
<pdfrwt beam="1">  1       21 0.14218577E+00 0.27692781E+03</pdfrwt>
<pdfrwt beam="2">  1       21 0.53867754E-01 0.27692781E+03</pdfrwt>
<totfact> 0.10412670E+03</totfact>
</mgrwt>
</event>
<event>
 5    0  0.1911311E+001  0.2310413E+03  0.7546771E-02  0.1125909E+00
         21   -1    0    0  504  501  0.00000000000E+00  0.00000000000E+00  0.87374831146E+02  0.87374831146E+02  0.00000000000E+00 0.  1.
         21   -1    0    0  503  502 -0.00000000000E+00 -0.00000000000E+00 -0.70216978080E+03  0.70216978080E+03  0.00000000000E+00 0.  1.
         25    1    1    2    0    0 -0.20691620600E+03  0.41886429620E+02 -0.39273653228E+03  0.46307210354E+03  0.12500000000E+03 0.  0.
         21    1    1    2  503  501  0.15970371854E+03 -0.79156053820E+02 -0.15312512680E+03  0.23498566558E+03  0.00000000000E+00 0.  1.
         21    1    1    2  504  502  0.47212487459E+02  0.37269624200E+02 -0.68933290584E+02  0.91486842829E+02  0.00000000000E+00 0.  1.
<mgrwt>
<rscale>  4 0.23104135E+03</rscale>
<asrwt>0</asrwt>
<pdfrwt beam="1">  1       21 0.13442282E-01 0.23104135E+03</pdfrwt>
<pdfrwt beam="2">  1       21 0.10802612E+00 0.23104135E+03</pdfrwt>
<totfact> 0.31978872E+04</totfact>
</mgrwt>
</event>
