<event>
 5    0  0.1911311E+001  0.3015786E+03  0.7546771E-02  0.1084454E+00
         21   -1    0    0  502  501  0.00000000000E+00  0.00000000000E+00  0.48514590733E+03  0.48514590733E+03  0.00000000000E+00 0. -1.
         21   -1    0    0  504  502 -0.00000000000E+00 -0.00000000000E+00 -0.25574274487E+03  0.25574274487E+03  0.00000000000E+00 0. -1.
         25    1    1    2    0    0  0.26685169006E+03  0.11564825712E+03  0.20071826227E+01  0.31656495802E+03  0.12500000000E+03 0.  0.
         21    1    1    2  503  501 -0.25958813678E+03 -0.71267951368E+02  0.25562532829E+03  0.37122692536E+03  0.00000000000E+00 0. -1.
         21    1    1    2  504  503 -0.72635532885E+01 -0.44380305756E+02 -0.28229348445E+02  0.53096768819E+02  0.00000000000E+00 0. -1.
<mgrwt>
<rscale>  4 0.30157855E+03</rscale>
<asrwt>0</asrwt>
<pdfrwt beam="1">  1       21 0.74637832E-01 0.30157855E+03</pdfrwt>
<pdfrwt beam="2">  1       21 0.39345038E-01 0.30157855E+03</pdfrwt>
<totfact> 0.94072622E+03</totfact>
</mgrwt>
</event>
<event>
 5    0  0.1911311E+001  0.2104235E+03  0.7546771E-02  0.1141231E+00
         21   -1    0    0  503  501  0.00000000000E+00  0.00000000000E+00  0.16302229972E+04  0.16302229972E+04  0.00000000000E+00 0. -1.
         21   -1    0    0  504  502 -0.00000000000E+00 -0.00000000000E+00 -0.56719493237E+02  0.56719493237E+02  0.00000000000E+00 0. -1.
         25    1    1    2    0    0 -0.20642829697E+03  0.82610958090E+02  0.33409265745E+03  0.42033333908E+03  0.12500000000E+03 0.  0.
         21    1    1    2  503  502  0.70287902493E+02  0.57834378591E+01  0.15723182957E+03  0.17232436166E+03  0.00000000000E+00 0. -1.
         21    1    1    2  504  501  0.13614039448E+03 -0.88394395949E+02  0.10821790169E+04  0.10942847897E+04  0.00000000000E+00 0. -1.
<mgrwt>
<rscale>  4 0.21042349E+03</rscale>
<asrwt>0</asrwt>
<pdfrwt beam="1">  1       21 0.25080350E+00 0.21042349E+03</pdfrwt>
<pdfrwt beam="2">  1       21 0.87260771E-02 0.21042349E+03</pdfrwt>
<totfact> 0.66660143E+03</totfact>
</mgrwt>
</event>
<event>
 5    0  0.1911311E+001  0.2743082E+03  0.7546771E-02  0.1098839E+00
         21   -1    0    0  502  501  0.00000000000E+00  0.00000000000E+00  0.18908056419E+03  0.18908056419E+03  0.00000000000E+00 0.  1.
         21   -1    0    0  504  502 -0.00000000000E+00 -0.00000000000E+00 -0.42140707391E+03  0.42140707391E+03  0.00000000000E+00 0.  1.
         25    1    1    2    0    0 -0.71231353057E+02 -0.21245558179E+03 -0.15121431590E+03  0.29782889253E+03  0.12500000000E+03 0.  0.
         21    1    1    2  503  501  0.98297179168E+02  0.23890631357E+03 -0.48822221874E+02  0.26291095725E+03  0.00000000000E+00 0.  1.
         21    1    1    2  504  503 -0.27065826111E+02 -0.26450731775E+02 -0.32289971944E+02  0.49747788319E+02  0.00000000000E+00 0. -1.
<mgrwt>
<rscale>  4 0.27430824E+03</rscale>
<asrwt>0</asrwt>
<pdfrwt beam="1">  1       21 0.29089318E-01 0.27430824E+03</pdfrwt>
<pdfrwt beam="2">  1       21 0.64831858E-01 0.27430824E+03</pdfrwt>
<totfact> 0.23802558E+04</totfact>
</mgrwt>
</event>
<event>
 5    0  0.1911311E+001  0.7192800E+03  0.7546771E-02  0.9684817E-01
         21   -1    0    0  502  501  0.00000000000E+00  0.00000000000E+00  0.92370824593E+03  0.92370824593E+03  0.00000000000E+00 0.  1.
         21   -1    0    0  504  502 -0.00000000000E+00 -0.00000000000E+00 -0.61728786086E+03  0.61728786086E+03  0.00000000000E+00 0.  1.
         25    1    1    2    0    0 -0.21487424374E+03 -0.66716876068E+03  0.87034540578E+02  0.71727617213E+03  0.12500000000E+03 0.  0.
         21    1    1    2  503  501  0.27887714111E+03  0.65905447999E+03  0.24187131479E+03  0.75539857053E+03  0.00000000000E+00 0.  1.
         21    1    1    2  504  503 -0.64002897372E+02  0.81142806929E+01 -0.22485470302E+02  0.68321364139E+02  0.00000000000E+00 0.  1.
<mgrwt>
<rscale>  4 0.71928003E+03</rscale>
<asrwt>0</asrwt>
<pdfrwt beam="1">  1       21 0.14210896E+00 0.71928003E+03</pdfrwt>
<pdfrwt beam="2">  1       21 0.94967363E-01 0.71928003E+03</pdfrwt>
<totfact> 0.23674280E+02</totfact>
</mgrwt>
</event>
<event>
 5    0  0.1911311E+001  0.3436241E+03  0.7546771E-02  0.1065263E+00
         21   -1    0    0  504  501  0.00000000000E+00  0.00000000000E+00  0.26992363064E+03  0.26992363064E+03  0.00000000000E+00 0.  1.
         21   -1    0    0  503  502 -0.00000000000E+00 -0.00000000000E+00 -0.76130496554E+03  0.76130496554E+03  0.00000000000E+00 0.  1.
         25    1    1    2    0    0 -0.19293599841E+03 -0.16773627946E+03 -0.15626767738E+03  0.32466035471E+03  0.12500000000E+03 0.  0.
         21    1    1    2  503  501 -0.48066161042E+02 -0.12273814144E+03 -0.29978338019E+03  0.32748294954E+03  0.00000000000E+00 0.  1.
         21    1    1    2  504  502  0.24100215945E+03  0.29047442091E+03 -0.35330277338E+02  0.37908529193E+03  0.00000000000E+00 0.  1.
<mgrwt>
<rscale>  4 0.34362406E+03</rscale>
<asrwt>0</asrwt>
<pdfrwt beam="1">  1       21 0.41526712E-01 0.34362406E+03</pdfrwt>
<pdfrwt beam="2">  1       21 0.11712384E+00 0.34362406E+03</pdfrwt>
<totfact> 0.28355593E+03</totfact>
</mgrwt>
</event>
<event>
 5    0  0.1911311E+001  0.1960674E+03  0.7546771E-02  0.1153100E+00
         21   -1    0    0  504  501  0.00000000000E+00  0.00000000000E+00  0.26305512383E+03  0.26305512383E+03  0.00000000000E+00 0.  1.
         21   -1    0    0  503  502 -0.00000000000E+00 -0.00000000000E+00 -0.26589400402E+03  0.26589400402E+03  0.00000000000E+00 0.  1.
         25    1    1    2    0    0  0.17858750376E+03  0.10815789422E+03  0.55234282418E+02  0.24953447164E+03  0.12500000000E+03 0.  0.
         21    1    1    2  503  501 -0.11438463891E+03 -0.79215823162E+02 -0.12143867270E+03  0.18467902827E+03  0.00000000000E+00 0.  1.
         21    1    1    2  504  502 -0.64202864854E+02 -0.28942071056E+02  0.63365510093E+02  0.94735627944E+02  0.00000000000E+00 0.  1.
<mgrwt>
<rscale>  4 0.19606736E+03</rscale>
<asrwt>0</asrwt>
<pdfrwt beam="1">  1       21 0.40470019E-01 0.19606736E+03</pdfrwt>
<pdfrwt beam="2">  1       21 0.40906770E-01 0.19606736E+03</pdfrwt>
<totfact> 0.33803217E+04</totfact>
</mgrwt>
</event>
