<event>
 5    0  0.6041737E-002  0.5064321E+03  0.7546771E-02  0.1012114E+00
         -1   -1    0    0    0  501 -0.00000000000E+00  0.00000000000E+00  0.29016829216E+02  0.29016829216E+02  0.00000000000E+00 0. -1.
          1   -1    0    0  503    0  0.00000000000E+00 -0.00000000000E+00 -0.22096962120E+04  0.22096962120E+04  0.00000000000E+00 0.  1.
         25    1    1    2    0    0  0.20751117290E+03  0.36599124663E+02 -0.15601936978E+04  0.15793130650E+04  0.12500000000E+03 0.  0.
         21    1    1    2  502  501 -0.45092112334E+02  0.67815817164E+01 -0.22653659153E+03  0.23108032315E+03  0.00000000000E+00 0. -1.
         21    1    1    2  503  502 -0.16241906057E+03 -0.43380706380E+02 -0.39394909349E+03  0.42831965304E+03  0.00000000000E+00 0. -1.
<mgrwt>
<rscale>  4 0.50643214E+03</rscale>
<asrwt>0</asrwt>
<pdfrwt beam="1">  1        1 0.33995331E+00 0.50643214E+03</pdfrwt>
<pdfrwt beam="2">  1       -1 0.44641270E-02 0.50643214E+03</pdfrwt>
<totfact> 0.49985808E+02</totfact>
</mgrwt>
</event>
<event>
 5    0  0.6041737E-002  0.5067129E+03  0.7546771E-02  0.1012041E+00
         -1   -1    0    0    0  501 -0.00000000000E+00  0.00000000000E+00  0.14803082124E+03  0.14803082124E+03  0.00000000000E+00 0.  1.
          1   -1    0    0  503    0  0.00000000000E+00 -0.00000000000E+00 -0.43362245012E+03  0.43362245012E+03  0.00000000000E+00 0. -1.
         25    1    1    2    0    0  0.22437774774E+03  0.95692123221E+01 -0.67677289501E+02  0.26578592705E+03  0.12500000000E+03 0.  0.
         21    1    1    2  502  501 -0.16197922236E+03 -0.25194667808E+02 -0.14784270473E+03  0.22074760498E+03  0.00000000000E+00 0. -1.
         21    1    1    2  503  502 -0.62398525375E+02  0.15625455486E+02 -0.70071634650E+02  0.95119739332E+02  0.00000000000E+00 0. -1.
<mgrwt>
<rscale>  4 0.50671289E+03</rscale>
<asrwt>0</asrwt>
<pdfrwt beam="1">  1        1 0.66711146E-01 0.50671289E+03</pdfrwt>
<pdfrwt beam="2">  1       -1 0.22773972E-01 0.50671289E+03</pdfrwt>
<totfact> 0.88843016E+02</totfact>
</mgrwt>
</event>
<event>
 5    0  0.6041737E-002  0.4572146E+03  0.7546771E-02  0.1025592E+00
         -1   -1    0    0    0  501 -0.00000000000E+00  0.00000000000E+00  0.89715108506E+03  0.89715108506E+03  0.00000000000E+00 0. -1.
          1   -1    0    0  503    0  0.00000000000E+00 -0.00000000000E+00 -0.58252511324E+02  0.58252511324E+02  0.00000000000E+00 0.  1.
         25    1    1    2    0    0 -0.18819735320E+03  0.75544127310E+02  0.53984666055E+03  0.59007167008E+03  0.12500000000E+03 0.  0.
         21    1    1    2  502  501  0.10570927138E+03 -0.41028495141E+02  0.11943958627E+03  0.16469244742E+03  0.00000000000E+00 0.  1.
         21    1    1    2  503  502  0.82488081819E+02 -0.34515632169E+02  0.17961232691E+03  0.20063947888E+03  0.00000000000E+00 0.  1.
<mgrwt>
<rscale>  4 0.45721463E+03</rscale>
<asrwt>0</asrwt>
<pdfrwt beam="1">  1        1 0.89619254E-02 0.45721463E+03</pdfrwt>
<pdfrwt beam="2">  1       -1 0.13802323E+00 0.45721463E+03</pdfrwt>
<totfact> 0.34745451E+02</totfact>
</mgrwt>
</event>
<event>
 5    0  0.6041737E-002  0.5213681E+03  0.7546771E-02  0.1008347E+00
          1   -1    0    0  503    0  0.00000000000E+00  0.00000000000E+00  0.28522217238E+03  0.28522217238E+03  0.00000000000E+00 0.  1.
         -1   -1    0    0    0  501 -0.00000000000E+00 -0.00000000000E+00 -0.27959447217E+03  0.27959447217E+03  0.00000000000E+00 0. -1.
         25    1    1    2    0    0  0.19164573232E+03  0.15465507836E+03 -0.18453083757E+01  0.27617871957E+03  0.12500000000E+03 0.  0.
         21    1    1    2  502  501 -0.18535388654E+02  0.16139462931E+02 -0.33990765470E+02  0.41945381552E+02  0.00000000000E+00 0.  1.
         21    1    1    2  503  502 -0.17311034367E+03 -0.17079454129E+03  0.41463774053E+02  0.24669254342E+03  0.00000000000E+00 0. -1.
<mgrwt>
<rscale>  4 0.52136814E+03</rscale>
<asrwt>0</asrwt>
<pdfrwt beam="1">  1        1 0.43880334E-01 0.52136814E+03</pdfrwt>
<pdfrwt beam="2">  1       -1 0.43014534E-01 0.52136814E+03</pdfrwt>
<totfact> 0.50495270E+02</totfact>
</mgrwt>
</event>
<event>
 5    0  0.6041737E-002  0.7045106E+03  0.7546771E-02  0.9709549E-01
         -2   -1    0    0    0  501 -0.00000000000E+00  0.00000000000E+00  0.49147721210E+02  0.49147721210E+02  0.00000000000E+00 0.  1.
          2   -1    0    0  503    0  0.00000000000E+00 -0.00000000000E+00 -0.25247110882E+04  0.25247110882E+04  0.00000000000E+00 0. -1.
         25    1    1    2    0    0 -0.31517933940E+03 -0.10942823549E+03 -0.10750513918E+04  0.11325515661E+04  0.12500000000E+03 0.  0.
         21    1    1    2  502  501  0.25240197410E+02 -0.44621035361E+01 -0.17290361572E+03  0.17479312991E+03  0.00000000000E+00 0. -1.
         21    1    1    2  503  502  0.28993914199E+03  0.11389033903E+03 -0.12276083594E+04  0.12665141134E+04  0.00000000000E+00 0. -1.
<mgrwt>
<rscale>  4 0.70451060E+03</rscale>
<asrwt>0</asrwt>
<pdfrwt beam="1">  1        2 0.38841715E+00 0.70451060E+03</pdfrwt>
<pdfrwt beam="2">  1       -2 0.75611867E-02 0.70451060E+03</pdfrwt>
<totfact> 0.37823790E+02</totfact>
</mgrwt>
</event>
<event>
 5    0  0.6041737E-002  0.3972485E+03  0.7546771E-02  0.1044737E+00
         -3   -1    0    0    0  501 -0.00000000000E+00  0.00000000000E+00  0.24003439519E+03  0.24003439519E+03  0.00000000000E+00 0.  1.
          3   -1    0    0  503    0  0.00000000000E+00 -0.00000000000E+00 -0.23508565367E+03  0.23508565367E+03  0.00000000000E+00 0. -1.
         25    1    1    2    0    0  0.17067084170E+03  0.11009030329E+03  0.14450160375E+02  0.23891885279E+03  0.12500000000E+03 0.  0.
         21    1    1    2  502  501 -0.11503662186E+03 -0.10696583692E+03  0.39527606785E+02  0.16198008006E+03  0.00000000000E+00 0. -1.
         21    1    1    2  503  502 -0.55634219841E+02 -0.31244663651E+01 -0.49029025640E+02  0.74221116016E+02  0.00000000000E+00 0. -1.
<mgrwt>
<rscale>  4 0.39724848E+03</rscale>
<asrwt>0</asrwt>
<pdfrwt beam="1">  1        3 0.36167023E-01 0.39724848E+03</pdfrwt>
<pdfrwt beam="2">  1       -3 0.36928369E-01 0.39724848E+03</pdfrwt>
<totfact> 0.14119974E+02</totfact>
</mgrwt>
</event>
<event>
 5    0  0.6041737E-002  0.5993545E+03  0.7546771E-02  0.9906746E-01
          1   -1    0    0  503    0  0.00000000000E+00  0.00000000000E+00  0.86748754857E+03  0.86748754857E+03  0.00000000000E+00 0.  1.
         -1   -1    0    0    0  501 -0.00000000000E+00 -0.00000000000E+00 -0.10352476254E+03  0.10352476254E+03  0.00000000000E+00 0. -1.
         25    1    1    2    0    0  0.14797999829E+03 -0.22196877129E+03  0.54314112376E+03  0.61789602333E+03  0.12500000000E+03 0.  0.
         21    1    1    2  502  501 -0.80316041932E+02  0.69231190754E+02  0.10914241939E+03  0.15216994472E+03  0.00000000000E+00 0. -1.
         21    1    1    2  503  502 -0.67663956357E+02  0.15273758054E+03  0.11167924287E+03  0.20094634305E+03  0.00000000000E+00 0. -1.
<mgrwt>
<rscale>  4 0.59935446E+03</rscale>
<asrwt>0</asrwt>
<pdfrwt beam="1">  1        1 0.13345962E+00 0.59935446E+03</pdfrwt>
<pdfrwt beam="2">  1       -1 0.15926887E-01 0.59935446E+03</pdfrwt>
<totfact> 0.58445963E+02</totfact>
</mgrwt>
</event>
<event>
 5    0  0.6041737E-002  0.4750794E+03  0.7546771E-02  0.1020496E+00
         -2   -1    0    0    0  501 -0.00000000000E+00  0.00000000000E+00  0.51319716513E+02  0.51319716513E+02  0.00000000000E+00 0.  1.
          2   -1    0    0  503    0  0.00000000000E+00 -0.00000000000E+00 -0.10994821135E+04  0.10994821135E+04  0.00000000000E+00 0. -1.
         25    1    1    2    0    0 -0.11082852817E+03 -0.18568000486E+03 -0.61037182346E+03  0.65949889290E+03  0.12500000000E+03 0.  0.
         21    1    1    2  502  501  0.33438310565E+02  0.10233968826E+03 -0.24216063861E+03  0.26501567369E+03  0.00000000000E+00 0.  1.
         21    1    1    2  503  502  0.77390217610E+02  0.83340316599E+02 -0.19562993488E+03  0.22628726339E+03  0.00000000000E+00 0.  1.
<mgrwt>
<rscale>  4 0.47507941E+03</rscale>
<asrwt>0</asrwt>
<pdfrwt beam="1">  1        2 0.16915108E+00 0.47507941E+03</pdfrwt>
<pdfrwt beam="2">  1       -2 0.78953416E-02 0.47507941E+03</pdfrwt>
<totfact> 0.22071886E+03</totfact>
</mgrwt>
</event>
<event>
 5    0  0.6041737E-002  0.9068507E+03  0.7546771E-02  0.9417058E-01
          1   -1    0    0  503    0  0.00000000000E+00  0.00000000000E+00  0.90627827626E+03  0.90627827626E+03  0.00000000000E+00 0. -1.
         -1   -1    0    0    0  501 -0.00000000000E+00 -0.00000000000E+00 -0.22685587260E+03  0.22685587260E+03  0.00000000000E+00 0.  1.
         25    1    1    2    0    0  0.34067517904E+02  0.39401437767E+03  0.12260090349E+03  0.43250885207E+03  0.12500000000E+03 0.  0.
         21    1    1    2  502  501  0.54623313432E+02 -0.21427923936E+03  0.24593187795E+03  0.33072917528E+03  0.00000000000E+00 0. -1.
         21    1    1    2  503  502 -0.88690831336E+02 -0.17973513830E+03  0.31088962222E+03  0.36989612151E+03  0.00000000000E+00 0. -1.
<mgrwt>
<rscale>  4 0.90685070E+03</rscale>
<asrwt>0</asrwt>
<pdfrwt beam="1">  1        1 0.13942743E+00 0.90685070E+03</pdfrwt>
<pdfrwt beam="2">  1       -1 0.34900904E-01 0.90685070E+03</pdfrwt>
<totfact> 0.14110086E+02</totfact>
</mgrwt>
</event>
<event>
 5    0  0.6041737E-002  0.5038227E+03  0.7546771E-02  0.1012786E+00
         -2   -1    0    0    0  501 -0.00000000000E+00  0.00000000000E+00  0.88958495629E+02  0.88958495629E+02  0.00000000000E+00 0. -1.
          2   -1    0    0  503    0  0.00000000000E+00 -0.00000000000E+00 -0.71335871173E+03  0.71335871173E+03  0.00000000000E+00 0.  1.
         25    1    1    2    0    0 -0.19346827684E+03 -0.11786281044E+03 -0.23472477845E+03  0.34934558513E+03  0.12500000000E+03 0.  0.
         21    1    1    2  502  501  0.12923042086E+03  0.10166598608E+03 -0.26764877495E+03  0.31412153879E+03  0.00000000000E+00 0. -1.
         21    1    1    2  503  502  0.64237855985E+02  0.16196824368E+02 -0.12202666270E+03  0.13885008344E+03  0.00000000000E+00 0. -1.
<mgrwt>
<rscale>  4 0.50382266E+03</rscale>
<asrwt>0</asrwt>
<pdfrwt beam="1">  1        2 0.10974749E+00 0.50382266E+03</pdfrwt>
<pdfrwt beam="2">  1       -2 0.13685923E-01 0.50382266E+03</pdfrwt>
<totfact> 0.16375980E+03</totfact>
</mgrwt>
</event>
<event>
 5    0  0.6041737E-002  0.5892474E+03  0.7546771E-02  0.9927969E-01
          1   -1    0    0  503    0  0.00000000000E+00  0.00000000000E+00  0.18638438753E+04  0.18638438753E+04  0.00000000000E+00 0.  1.
         -1   -1    0    0    0  501 -0.00000000000E+00 -0.00000000000E+00 -0.58285522430E+02  0.58285522430E+02  0.00000000000E+00 0. -1.
         25    1    1    2    0    0  0.23418090385E+03  0.12906320869E+03  0.47890722545E+03  0.56256123058E+03  0.12500000000E+03 0.  0.
         21    1    1    2  502  501 -0.17429009286E+03 -0.10101828670E+03  0.11989823255E+04  0.12157879534E+04  0.00000000000E+00 0.  1.
         21    1    1    2  503  502 -0.59890810981E+02 -0.28044921984E+02  0.12766880193E+03  0.14378021378E+03  0.00000000000E+00 0.  1.
<mgrwt>
<rscale>  4 0.58924738E+03</rscale>
<asrwt>0</asrwt>
<pdfrwt beam="1">  1        1 0.28674517E+00 0.58924738E+03</pdfrwt>
<pdfrwt beam="2">  1       -1 0.89670049E-02 0.58924738E+03</pdfrwt>
<totfact> 0.28722683E+02</totfact>
</mgrwt>
</event>
<event>
 5    0  0.6041737E-002  0.2304855E+04  0.7546771E-02  0.8476009E-01
         -2   -1    0    0    0  501 -0.00000000000E+00  0.00000000000E+00  0.84885558256E+03  0.84885558256E+03  0.00000000000E+00 0.  1.
          2   -1    0    0  503    0  0.00000000000E+00 -0.00000000000E+00 -0.15645647299E+04  0.15645647299E+04  0.00000000000E+00 0. -1.
         25    1    1    2    0    0 -0.46937443096E+03 -0.80931975702E+03  0.33264093844E+03  0.10007925956E+04  0.12500000000E+03 0.  0.
         21    1    1    2  502  501  0.31838281929E+02  0.50647888724E+02 -0.22831702763E+02  0.64032581390E+02  0.00000000000E+00 0.  1.
         21    1    1    2  503  502  0.43753614903E+03  0.75867186829E+03 -0.10255183831E+04  0.13485951355E+04  0.00000000000E+00 0. -1.
<mgrwt>
<rscale>  4 0.23048553E+04</rscale>
<asrwt>0</asrwt>
<pdfrwt beam="1">  1        2 0.24070227E+00 0.23048553E+04</pdfrwt>
<pdfrwt beam="2">  1       -2 0.13059317E+00 0.23048553E+04</pdfrwt>
<totfact> 0.45427629E+00</totfact>
</mgrwt>
</event>
<event>
 5    0  0.6041737E-002  0.5711561E+03  0.7546771E-02  0.9967124E-01
         -2   -1    0    0    0  501 -0.00000000000E+00  0.00000000000E+00  0.93853517425E+03  0.93853517425E+03  0.00000000000E+00 0. -1.
          2   -1    0    0  503    0  0.00000000000E+00 -0.00000000000E+00 -0.86895864598E+02  0.86895864598E+02  0.00000000000E+00 0.  1.
         25    1    1    2    0    0  0.17916683888E+03  0.90167806541E+02  0.11951485323E+03  0.26483917692E+03  0.12500000000E+03 0.  0.
         21    1    1    2  502  501 -0.54175549583E+02 -0.51519956110E+02  0.24008042732E+03  0.25145160097E+03  0.00000000000E+00 0. -1.
         21    1    1    2  503  502 -0.12499128930E+03 -0.38647850431E+02  0.49204402911E+03  0.50914026095E+03  0.00000000000E+00 0.  1.
<mgrwt>
<rscale>  4 0.57115611E+03</rscale>
<asrwt>0</asrwt>
<pdfrwt beam="1">  1        2 0.13368595E-01 0.57115611E+03</pdfrwt>
<pdfrwt beam="2">  1       -2 0.14439002E+00 0.57115611E+03</pdfrwt>
<totfact> 0.15552887E+02</totfact>
</mgrwt>
</event>
<event>
 5    0  0.6041737E-002  0.6007377E+03  0.7546771E-02  0.9903877E-01
          1   -1    0    0  503    0  0.00000000000E+00  0.00000000000E+00  0.18821725805E+04  0.18821725805E+04  0.00000000000E+00 0.  1.
         -1   -1    0    0    0  501 -0.00000000000E+00 -0.00000000000E+00 -0.47934739423E+02  0.47934739423E+02  0.00000000000E+00 0. -1.
         25    1    1    2    0    0 -0.15765358090E+03 -0.23025850389E+03  0.88494349697E+03  0.93628180747E+03  0.12500000000E+03 0.  0.
         21    1    1    2  502  501  0.13879618152E+03  0.17796442833E+03  0.61845155869E+03  0.65834493102E+03  0.00000000000E+00 0. -1.
         21    1    1    2  503  502  0.18857399375E+02  0.52294075564E+02  0.33084278540E+03  0.33548058141E+03  0.00000000000E+00 0. -1.
<mgrwt>
<rscale>  4 0.60073772E+03</rscale>
<asrwt>0</asrwt>
<pdfrwt beam="1">  1        1 0.28956496E+00 0.60073772E+03</pdfrwt>
<pdfrwt beam="2">  1       -1 0.73745767E-02 0.60073772E+03</pdfrwt>
<totfact> 0.37855043E+02</totfact>
</mgrwt>
</event>
<event>
 5    0  0.6041737E-002  0.4580948E+03  0.7546771E-02  0.1025335E+00
         -1   -1    0    0    0  501 -0.00000000000E+00  0.00000000000E+00  0.49467837221E+03  0.49467837221E+03  0.00000000000E+00 0.  1.
          1   -1    0    0  503    0  0.00000000000E+00 -0.00000000000E+00 -0.17687418989E+03  0.17687418989E+03  0.00000000000E+00 0. -1.
         25    1    1    2    0    0 -0.21766717687E+03 -0.24981369604E+02 -0.51225558121E+01  0.25229805646E+03  0.12500000000E+03 0.  0.
         21    1    1    2  502  501  0.17416348889E+03 -0.25434940967E+02  0.14100014508E+03  0.22552360852E+03  0.00000000000E+00 0.  1.
         21    1    1    2  503  502  0.43503687975E+02  0.50416310571E+02  0.18192659306E+03  0.19373089713E+03  0.00000000000E+00 0.  1.
<mgrwt>
<rscale>  4 0.45809478E+03</rscale>
<asrwt>0</asrwt>
<pdfrwt beam="1">  1        1 0.27211414E-01 0.45809478E+03</pdfrwt>
<pdfrwt beam="2">  1       -1 0.76104365E-01 0.45809478E+03</pdfrwt>
<totfact> 0.30909784E+02</totfact>
</mgrwt>
</event>
<event>
 5    0  0.6041737E-002  0.5709634E+03  0.7546771E-02  0.9967549E-01
         -1   -1    0    0    0  501 -0.00000000000E+00  0.00000000000E+00  0.11180940757E+03  0.11180940757E+03  0.00000000000E+00 0.  1.
          1   -1    0    0  503    0  0.00000000000E+00 -0.00000000000E+00 -0.72891722870E+03  0.72891722870E+03  0.00000000000E+00 0. -1.
         25    1    1    2    0    0 -0.21921460470E+03 -0.12491075728E+03 -0.45892534521E+03  0.53841917933E+03  0.12500000000E+03 0.  0.
         21    1    1    2  502  501  0.19735100488E+03  0.94047811474E+02 -0.14464795542E+03  0.26213630229E+03  0.00000000000E+00 0.  1.
         21    1    1    2  503  502  0.21863599814E+02  0.30862945810E+02 -0.13534520495E+02  0.40171154650E+02  0.00000000000E+00 0.  1.
<mgrwt>
<rscale>  4 0.57096341E+03</rscale>
<asrwt>0</asrwt>
<pdfrwt beam="1">  1        1 0.11214111E+00 0.57096341E+03</pdfrwt>
<pdfrwt beam="2">  1       -1 0.17201448E-01 0.57096341E+03</pdfrwt>
<totfact> 0.67941172E+02</totfact>
</mgrwt>
</event>
<event>
 5    0  0.6041737E-002  0.9022266E+03  0.7546771E-02  0.9422802E-01
          2   -1    0    0  503    0  0.00000000000E+00  0.00000000000E+00  0.19177619137E+04  0.19177619137E+04  0.00000000000E+00 0.  1.
         -2   -1    0    0    0  501 -0.00000000000E+00 -0.00000000000E+00 -0.10611494740E+03  0.10611494740E+03  0.00000000000E+00 0. -1.
         25    1    1    2    0    0  0.29513727127E+03  0.77659491972E+02  0.20684317646E+03  0.38928923082E+03  0.12500000000E+03 0.  0.
         21    1    1    2  502  501 -0.34585493216E+02  0.20468308368E+01  0.11627901592E+03  0.12133076857E+03  0.00000000000E+00 0. -1.
         21    1    1    2  503  502 -0.26055177806E+03 -0.79706322808E+02  0.14885247740E+04  0.15132568617E+04  0.00000000000E+00 0.  1.
<mgrwt>
<rscale>  4 0.90222659E+03</rscale>
<asrwt>0</asrwt>
<pdfrwt beam="1">  1        2 0.29504027E+00 0.90222659E+03</pdfrwt>
<pdfrwt beam="2">  1       -2 0.16325378E-01 0.90222659E+03</pdfrwt>
<totfact> 0.22742936E+02</totfact>
</mgrwt>
</event>
<event>
 5    0  0.6041737E-002  0.5858097E+03  0.7546771E-02  0.9935292E-01
          1   -1    0    0  503    0  0.00000000000E+00  0.00000000000E+00  0.28725342772E+03  0.28725342772E+03  0.00000000000E+00 0. -1.
         -1   -1    0    0    0  501 -0.00000000000E+00 -0.00000000000E+00 -0.39758130830E+03  0.39758130830E+03  0.00000000000E+00 0.  1.
         25    1    1    2    0    0 -0.22750626286E+03  0.20165387245E+03 -0.76794486828E+02  0.33755855362E+03  0.12500000000E+03 0.  0.
         21    1    1    2  502  501 -0.14808600701E+01 -0.89887031183E+02 -0.20074906060E+02  0.92113371313E+02  0.00000000000E+00 0. -1.
         21    1    1    2  503  502  0.22898712293E+03 -0.11176684127E+03 -0.13458487690E+02  0.25516281109E+03  0.00000000000E+00 0. -1.
<mgrwt>
<rscale>  4 0.58580971E+03</rscale>
<asrwt>0</asrwt>
<pdfrwt beam="1">  1        1 0.44192835E-01 0.58580971E+03</pdfrwt>
<pdfrwt beam="2">  1       -1 0.61166355E-01 0.58580971E+03</pdfrwt>
<totfact> 0.25616923E+02</totfact>
</mgrwt>
</event>
<event>
 5    0  0.6041737E-002  0.4777731E+03  0.7546771E-02  0.1019749E+00
          1   -1    0    0  503    0  0.00000000000E+00  0.00000000000E+00  0.17622505011E+04  0.17622505011E+04  0.00000000000E+00 0. -1.
         -1   -1    0    0    0  501 -0.00000000000E+00 -0.00000000000E+00 -0.32382894419E+02  0.32382894419E+02  0.00000000000E+00 0.  1.
         25    1    1    2    0    0  0.15535737388E+03 -0.14932926988E+03  0.78983388628E+03  0.82818941817E+03  0.12500000000E+03 0.  0.
         21    1    1    2  502  501  0.40128509256E+00  0.21621705067E+02  0.64070028468E+02  0.67621207529E+02  0.00000000000E+00 0.  1.
         21    1    1    2  503  502 -0.15575865897E+03  0.12770756481E+03  0.87596369195E+03  0.89882276983E+03  0.00000000000E+00 0. -1.
<mgrwt>
<rscale>  4 0.47777305E+03</rscale>
<asrwt>0</asrwt>
<pdfrwt beam="1">  1        1 0.27111539E+00 0.47777305E+03</pdfrwt>
<pdfrwt beam="2">  1       -1 0.49819851E-02 0.47777305E+03</pdfrwt>
<totfact> 0.83849209E+02</totfact>
</mgrwt>
</event>
<event>
 5    0  0.6041737E-002  0.4989709E+03  0.7546771E-02  0.1014048E+00
          2   -1    0    0  503    0  0.00000000000E+00  0.00000000000E+00  0.33220678831E+04  0.33220678831E+04  0.00000000000E+00 0.  1.
         -2   -1    0    0    0  501 -0.00000000000E+00 -0.00000000000E+00 -0.18736215032E+02  0.18736215032E+02  0.00000000000E+00 0. -1.
         25    1    1    2    0    0  0.15406504994E+03  0.17140345559E+03  0.18879778489E+04  0.19060956277E+04  0.12500000000E+03 0.  0.
         21    1    1    2  502  501 -0.14158943699E+03 -0.15062257570E+03  0.11663911472E+04  0.11845687136E+04  0.00000000000E+00 0. -1.
         21    1    1    2  503  502 -0.12475612952E+02 -0.20780879889E+02  0.24896267199E+03  0.25013975680E+03  0.00000000000E+00 0. -1.
<mgrwt>
<rscale>  4 0.49897085E+03</rscale>
<asrwt>0</asrwt>
<pdfrwt beam="1">  1        2 0.51108690E+00 0.49897085E+03</pdfrwt>
<pdfrwt beam="2">  1       -2 0.28824973E-02 0.49897085E+03</pdfrwt>
<totfact> 0.57044369E+02</totfact>
</mgrwt>
</event>
<event>
 5    0  0.6041737E-002  0.8130580E+03  0.7546771E-02  0.9541306E-01
          3   -1    0    0  503    0  0.00000000000E+00  0.00000000000E+00  0.29486287642E+04  0.29486287642E+04  0.00000000000E+00 0. -1.
         -3   -1    0    0    0  501 -0.00000000000E+00 -0.00000000000E+00 -0.56048368911E+02  0.56048368911E+02  0.00000000000E+00 0.  1.
         25    1    1    2    0    0  0.29504384769E+03 -0.16108938945E+03  0.22463825862E+04  0.22748319470E+04  0.12500000000E+03 0.  0.
         21    1    1    2  502  501 -0.27369804595E+03  0.15723422073E+03  0.62085551607E+03  0.69648746749E+03  0.00000000000E+00 0.  1.
         21    1    1    2  503  502 -0.21345801741E+02  0.38551687165E+01  0.25342293027E+02  0.33357718652E+02  0.00000000000E+00 0. -1.
<mgrwt>
<rscale>  4 0.81305801E+03</rscale>
<asrwt>0</asrwt>
<pdfrwt beam="1">  1        3 0.45363507E+00 0.81305801E+03</pdfrwt>
<pdfrwt beam="2">  1       -3 0.86228283E-02 0.81305801E+03</pdfrwt>
<totfact> 0.15942269E+00</totfact>
</mgrwt>
</event>
<event>
 5    0  0.6041737E-002  0.4934930E+03  0.7546771E-02  0.1015491E+00
          2   -1    0    0  503    0  0.00000000000E+00  0.00000000000E+00  0.54886842399E+03  0.54886842399E+03  0.00000000000E+00 0. -1.
         -2   -1    0    0    0  501 -0.00000000000E+00 -0.00000000000E+00 -0.11092611598E+03  0.11092611598E+03  0.00000000000E+00 0.  1.
         25    1    1    2    0    0  0.20910335186E+03 -0.77147403675E+02  0.26249065655E+03  0.36633629145E+03  0.12500000000E+03 0.  0.
         21    1    1    2  502  501 -0.14093533299E+03  0.80021704418E+02  0.14940465650E+03  0.22042684194E+03  0.00000000000E+00 0.  1.
         21    1    1    2  503  502 -0.68168018870E+02 -0.28743007428E+01  0.26046994956E+02  0.73031406584E+02  0.00000000000E+00 0.  1.
<mgrwt>
<rscale>  4 0.49349303E+03</rscale>
<asrwt>0</asrwt>
<pdfrwt beam="1">  1        2 0.84441294E-01 0.49349303E+03</pdfrwt>
<pdfrwt beam="2">  1       -2 0.17065557E-01 0.49349303E+03</pdfrwt>
<totfact> 0.15499315E+03</totfact>
</mgrwt>
</event>
