<event>
 4    0  0.1775285E-001  0.1073680E+04  0.7546771E-02  0.9231232E-01
         21   -1    0    0  503  501  0.00000000000E+00  0.00000000000E+00  0.21116598373E+04  0.21116598373E+04  0.00000000000E+00 0. -1.
         21   -1    0    0  501  502 -0.00000000000E+00 -0.00000000000E+00 -0.13647889378E+03  0.13647889378E+03  0.00000000000E+00 0. -1.
         25    1    1    2    0    0  0.37048156536E+03  0.27664201237E+03  0.15415422466E+04  0.16142381768E+04  0.12500000000E+03 0.  0.
         21    1    1    2  503  502 -0.37048156536E+03 -0.27664201237E+03  0.43363869690E+03  0.63390055429E+03  0.00000000000E+00 0. -1.
<mgrwt>
<rscale>  3 0.10736797E+04</rscale>
<asrwt>0</asrwt>
<pdfrwt beam="1">  1       21 0.32487072E+00 0.10736797E+04</pdfrwt>
<pdfrwt beam="2">  1       21 0.20996754E-01 0.10736797E+04</pdfrwt>
<totfact> 0.32544274E+02</totfact>
</mgrwt>
</event>
<event>
 4    0  0.1775285E-001  0.5853930E+03  0.7546771E-02  0.9936183E-01
         21   -1    0    0  503  501  0.00000000000E+00  0.00000000000E+00  0.33623023774E+03  0.33623023774E+03  0.00000000000E+00 0. -1.
         21   -1    0    0  501  502 -0.00000000000E+00 -0.00000000000E+00 -0.25479934888E+03  0.25479934888E+03  0.00000000000E+00 0. -1.
         25    1    1    2    0    0 -0.46894942614E+02  0.25779648451E+03 -0.55204222953E+02  0.29551762942E+03  0.12500000000E+03 0.  0.
         21    1    1    2  503  502  0.46894942614E+02 -0.25779648451E+03  0.13663511180E+03  0.29551195720E+03  0.00000000000E+00 0. -1.
<mgrwt>
<rscale>  3 0.58539302E+03</rscale>
<asrwt>0</asrwt>
<pdfrwt beam="1">  1       21 0.51727729E-01 0.58539302E+03</pdfrwt>
<pdfrwt beam="2">  1       21 0.39199900E-01 0.58539302E+03</pdfrwt>
<totfact> 0.19543837E+04</totfact>
</mgrwt>
</event>
<event>
 4    0  0.1775285E-001  0.5434160E+03  0.7546771E-02  0.1003029E+00
         21   -1    0    0  503  501  0.00000000000E+00  0.00000000000E+00  0.10598829432E+04  0.10598829432E+04  0.00000000000E+00 0.  1.
         21   -1    0    0  501  502 -0.00000000000E+00 -0.00000000000E+00 -0.69654154723E+02  0.69654154723E+02  0.00000000000E+00 0.  1.
         25    1    1    2    0    0  0.16581542930E+03  0.12620228732E+03  0.20746838530E+03  0.31951510890E+03  0.12500000000E+03 0.  0.
         21    1    1    2  503  502 -0.16581542930E+03 -0.12620228732E+03  0.78276040315E+03  0.81002198900E+03  0.00000000000E+00 0. -1.
<mgrwt>
<rscale>  3 0.54341605E+03</rscale>
<asrwt>0</asrwt>
<pdfrwt beam="1">  1       21 0.16305890E+00 0.54341605E+03</pdfrwt>
<pdfrwt beam="2">  1       21 0.10716025E-01 0.54341605E+03</pdfrwt>
<totfact> 0.14825128E+04</totfact>
</mgrwt>
</event>
<event>
 4    0  0.1775285E-001  0.4992607E+03  0.7546771E-02  0.1013972E+00
         21   -1    0    0  502  501  0.00000000000E+00  0.00000000000E+00  0.16288123636E+03  0.16288123636E+03  0.00000000000E+00 0. -1.
         21   -1    0    0  503  502 -0.00000000000E+00 -0.00000000000E+00 -0.38258132292E+03  0.38258132292E+03  0.00000000000E+00 0. -1.
         25    1    1    2    0    0 -0.24163441462E+02  0.23269483924E+03 -0.11224157878E+03  0.28801724274E+03  0.12500000000E+03 0.  0.
         21    1    1    2  503  501  0.24163441462E+02 -0.23269483924E+03 -0.10745850779E+03  0.25744531654E+03  0.00000000000E+00 0. -1.
<mgrwt>
<rscale>  3 0.49926073E+03</rscale>
<asrwt>0</asrwt>
<pdfrwt beam="1">  1       21 0.25058652E-01 0.49926073E+03</pdfrwt>
<pdfrwt beam="2">  1       21 0.58858664E-01 0.49926073E+03</pdfrwt>
<totfact> 0.36869724E+04</totfact>
</mgrwt>
</event>
<event>
 4    0  0.1775285E-001  0.5393380E+03  0.7546771E-02  0.1003992E+00
         21   -1    0    0  503  501  0.00000000000E+00  0.00000000000E+00  0.31451728438E+03  0.31451728438E+03  0.00000000000E+00 0.  1.
         21   -1    0    0  501  502 -0.00000000000E+00 -0.00000000000E+00 -0.23121583568E+03  0.23121583568E+03  0.00000000000E+00 0.  1.
         25    1    1    2    0    0  0.10078866490E+03 -0.21267028200E+03  0.14370709089E+03  0.30276018858E+03  0.12500000000E+03 0.  0.
         21    1    1    2  503  502 -0.10078866490E+03  0.21267028200E+03 -0.60405642195E+02  0.24297293147E+03  0.00000000000E+00 0.  1.
<mgrwt>
<rscale>  3 0.53933803E+03</rscale>
<asrwt>0</asrwt>
<pdfrwt beam="1">  1       21 0.48387274E-01 0.53933803E+03</pdfrwt>
<pdfrwt beam="2">  1       21 0.35571667E-01 0.53933803E+03</pdfrwt>
<totfact> 0.27762598E+04</totfact>
</mgrwt>
</event>
<event>
 4    0  0.1775285E-001  0.5764937E+03  0.7546771E-02  0.9955411E-01
         21   -1    0    0  503  501  0.00000000000E+00  0.00000000000E+00  0.69833895636E+02  0.69833895636E+02  0.00000000000E+00 0. -1.
         21   -1    0    0  501  502 -0.00000000000E+00 -0.00000000000E+00 -0.11897696079E+04  0.11897696079E+04  0.00000000000E+00 0. -1.
         25    1    1    2    0    0 -0.14192096309E+03  0.18531050076E+03 -0.90274006010E+03  0.94076891827E+03  0.12500000000E+03 0.  0.
         21    1    1    2  503  502  0.14192096309E+03 -0.18531050076E+03 -0.21719565220E+03  0.31883458531E+03  0.00000000000E+00 0. -1.
<mgrwt>
<rscale>  3 0.57649370E+03</rscale>
<asrwt>0</asrwt>
<pdfrwt beam="1">  1       21 0.10743677E-01 0.57649370E+03</pdfrwt>
<pdfrwt beam="2">  1       21 0.18304147E+00 0.57649370E+03</pdfrwt>
<totfact> 0.10469809E+04</totfact>
</mgrwt>
</event>
<event>
 4    0  0.1775285E-001  0.6863670E+03  0.7546771E-02  0.9740835E-01
         21   -1    0    0  502  501  0.00000000000E+00  0.00000000000E+00  0.53562794778E+02  0.53562794778E+02  0.00000000000E+00 0.  1.
         21   -1    0    0  503  502 -0.00000000000E+00 -0.00000000000E+00 -0.21988192940E+04  0.21988192940E+04  0.00000000000E+00 0.  1.
         25    1    1    2    0    0  0.33158238796E+03 -0.12035602499E+02 -0.11066311655E+04  0.11620452969E+04  0.12500000000E+03 0.  0.
         21    1    1    2  503  501 -0.33158238796E+03  0.12035602499E+02 -0.10386253337E+04  0.10903367918E+04  0.00000000000E+00 0.  1.
<mgrwt>
<rscale>  3 0.68636698E+03</rscale>
<asrwt>0</asrwt>
<pdfrwt beam="1">  1       21 0.82404286E-02 0.68636698E+03</pdfrwt>
<pdfrwt beam="2">  1       21 0.33827995E+00 0.68636698E+03</pdfrwt>
<totfact> 0.17043550E+03</totfact>
</mgrwt>
</event>
<event>
 4    0  0.1775285E-001  0.4483394E+03  0.7546771E-02  0.1028218E+00
         21   -1    0    0  502  501  0.00000000000E+00  0.00000000000E+00  0.92187825469E+02  0.92187825469E+02  0.00000000000E+00 0. -1.
         21   -1    0    0  503  502 -0.00000000000E+00 -0.00000000000E+00 -0.54510502270E+03  0.54510502270E+03  0.00000000000E+00 0. -1.
         25    1    1    2    0    0  0.11250138406E+03 -0.17240107291E+03 -0.21692372825E+03  0.32412897931E+03  0.12500000000E+03 0.  0.
         21    1    1    2  503  501 -0.11250138406E+03  0.17240107291E+03 -0.23599346898E+03  0.31316386886E+03  0.00000000000E+00 0. -1.
<mgrwt>
<rscale>  3 0.44833937E+03</rscale>
<asrwt>0</asrwt>
<pdfrwt beam="1">  1       21 0.14182742E-01 0.44833937E+03</pdfrwt>
<pdfrwt beam="2">  1       21 0.83862313E-01 0.44833937E+03</pdfrwt>
<totfact> 0.49311107E+04</totfact>
</mgrwt>
</event>
<event>
 4    0  0.1775285E-001  0.5982218E+03  0.7546771E-02  0.9909102E-01
         21   -1    0    0  503  501  0.00000000000E+00  0.00000000000E+00  0.50047846421E+03  0.50047846421E+03  0.00000000000E+00 0. -1.
         21   -1    0    0  501  502 -0.00000000000E+00 -0.00000000000E+00 -0.17876362348E+03  0.17876362348E+03  0.00000000000E+00 0. -1.
         25    1    1    2    0    0 -0.35858028752E+02  0.25124082366E+03  0.18030542896E+02  0.28347460235E+03  0.12500000000E+03 0.  0.
         21    1    1    2  503  502  0.35858028752E+02 -0.25124082366E+03  0.30368429784E+03  0.39576748534E+03  0.00000000000E+00 0. -1.
<mgrwt>
<rscale>  3 0.59822184E+03</rscale>
<asrwt>0</asrwt>
<pdfrwt beam="1">  1       21 0.76996686E-01 0.59822184E+03</pdfrwt>
<pdfrwt beam="2">  1       21 0.27502096E-01 0.59822184E+03</pdfrwt>
<totfact> 0.16457244E+04</totfact>
</mgrwt>
</event>
<event>
 4    0  0.1775285E-001  0.6298268E+03  0.7546771E-02  0.9845387E-01
         21   -1    0    0  503  501  0.00000000000E+00  0.00000000000E+00  0.15803725540E+04  0.15803725540E+04  0.00000000000E+00 0.  1.
         21   -1    0    0  501  502 -0.00000000000E+00 -0.00000000000E+00 -0.62751316270E+02  0.62751316270E+02  0.00000000000E+00 0.  1.
         25    1    1    2    0    0  0.73284583199E+02  0.29089275859E+03  0.89049809631E+03  0.94794571926E+03  0.12500000000E+03 0.  0.
         21    1    1    2  503  502 -0.73284583199E+02 -0.29089275859E+03  0.62712314145E+03  0.69517815104E+03  0.00000000000E+00 0.  1.
<mgrwt>
<rscale>  3 0.62982683E+03</rscale>
<asrwt>0</asrwt>
<pdfrwt beam="1">  1       21 0.24313421E+00 0.62982683E+03</pdfrwt>
<pdfrwt beam="2">  1       21 0.96540499E-02 0.62982683E+03</pdfrwt>
<totfact> 0.50282476E+03</totfact>
</mgrwt>
</event>
<event>
 4    0  0.1775285E-001  0.4465525E+03  0.7546771E-02  0.1028755E+00
         21   -1    0    0  503  501  0.00000000000E+00  0.00000000000E+00  0.44513458342E+03  0.44513458342E+03  0.00000000000E+00 0.  1.
         21   -1    0    0  501  502 -0.00000000000E+00 -0.00000000000E+00 -0.11199372872E+03  0.11199372872E+03  0.00000000000E+00 0.  1.
         25    1    1    2    0    0 -0.81960949001E+02 -0.18872221571E+03  0.17526634026E+03  0.29778677253E+03  0.12500000000E+03 0.  0.
         21    1    1    2  503  502  0.81960949001E+02  0.18872221571E+03  0.15787451443E+03  0.25934153962E+03  0.00000000000E+00 0.  1.
<mgrwt>
<rscale>  3 0.44655249E+03</rscale>
<asrwt>0</asrwt>
<pdfrwt beam="1">  1       21 0.68482243E-01 0.44655249E+03</pdfrwt>
<pdfrwt beam="2">  1       21 0.17229805E-01 0.44655249E+03</pdfrwt>
<totfact> 0.54570030E+04</totfact>
</mgrwt>
</event>
<event>
 4    0  0.1775285E-001  0.5005424E+03  0.7546771E-02  0.1013637E+00
         21   -1    0    0  503  501  0.00000000000E+00  0.00000000000E+00  0.92910401873E+02  0.92910401873E+02  0.00000000000E+00 0.  1.
         21   -1    0    0  501  502 -0.00000000000E+00 -0.00000000000E+00 -0.67415131338E+03  0.67415131338E+03  0.00000000000E+00 0.  1.
         25    1    1    2    0    0 -0.18833631631E+03  0.13878553273E+03 -0.33678470498E+03  0.42869678054E+03  0.12500000000E+03 0.  0.
         21    1    1    2  503  502  0.18833631631E+03 -0.13878553273E+03 -0.24445620652E+03  0.33836493471E+03  0.00000000000E+00 0.  1.
<mgrwt>
<rscale>  3 0.50054238E+03</rscale>
<asrwt>0</asrwt>
<pdfrwt beam="1">  1       21 0.14293909E-01 0.50054238E+03</pdfrwt>
<pdfrwt beam="2">  1       21 0.10371558E+00 0.50054238E+03</pdfrwt>
<totfact> 0.28887612E+04</totfact>
</mgrwt>
</event>
<event>
 4    0  0.1775285E-001  0.5670016E+03  0.7546771E-02  0.9976336E-01
         21   -1    0    0  502  501  0.00000000000E+00  0.00000000000E+00  0.83761220441E+02  0.83761220441E+02  0.00000000000E+00 0.  1.
         21   -1    0    0  503  502 -0.00000000000E+00 -0.00000000000E+00 -0.95954543169E+03  0.95954543169E+03  0.00000000000E+00 0.  1.
         25    1    1    2    0    0  0.21263355102E+03  0.12862342118E+03 -0.26625029011E+03  0.38506003230E+03  0.12500000000E+03 0.  0.
         21    1    1    2  503  501 -0.21263355102E+03 -0.12862342118E+03 -0.60953392114E+03  0.65824661983E+03  0.00000000000E+00 0. -1.
<mgrwt>
<rscale>  3 0.56700157E+03</rscale>
<asrwt>0</asrwt>
<pdfrwt beam="1">  1       21 0.12886341E-01 0.56700157E+03</pdfrwt>
<pdfrwt beam="2">  1       21 0.14762238E+00 0.56700157E+03</pdfrwt>
<totfact> 0.13861890E+04</totfact>
</mgrwt>
</event>
<event>
 4    0  0.1775285E-001  0.6206071E+03  0.7546771E-02  0.9863552E-01
         21   -1    0    0  502  501  0.00000000000E+00  0.00000000000E+00  0.10589219828E+04  0.10589219828E+04  0.00000000000E+00 0. -1.
         21   -1    0    0  503  502 -0.00000000000E+00 -0.00000000000E+00 -0.90930502541E+02  0.90930502541E+02  0.00000000000E+00 0. -1.
         25    1    1    2    0    0  0.16955352773E+03 -0.23544554273E+03  0.62724459027E+03  0.70231316261E+03  0.12500000000E+03 0.  0.
         21    1    1    2  503  501 -0.16955352773E+03  0.23544554273E+03  0.34074689001E+03  0.44753932274E+03  0.00000000000E+00 0. -1.
<mgrwt>
<rscale>  3 0.62060715E+03</rscale>
<asrwt>0</asrwt>
<pdfrwt beam="1">  1       21 0.16291107E+00 0.62060715E+03</pdfrwt>
<pdfrwt beam="2">  1       21 0.13989309E-01 0.62060715E+03</pdfrwt>
<totfact> 0.89421630E+03</totfact>
</mgrwt>
</event>
<event>
 4    0  0.1775285E-001  0.8472263E+03  0.7546771E-02  0.9494067E-01
         21   -1    0    0  503  501  0.00000000000E+00  0.00000000000E+00  0.51329035730E+03  0.51329035730E+03  0.00000000000E+00 0. -1.
         21   -1    0    0  501  502 -0.00000000000E+00 -0.00000000000E+00 -0.34960350061E+03  0.34960350061E+03  0.00000000000E+00 0. -1.
         25    1    1    2    0    0 -0.24170397414E+03 -0.33438923250E+03  0.12285572394E+03  0.44828060278E+03  0.12500000000E+03 0.  0.
         21    1    1    2  503  502  0.24170397414E+03  0.33438923250E+03  0.40831132751E+02  0.41461325513E+03  0.00000000000E+00 0. -1.
<mgrwt>
<rscale>  3 0.84722631E+03</rscale>
<asrwt>0</asrwt>
<pdfrwt beam="1">  1       21 0.78967748E-01 0.84722631E+03</pdfrwt>
<pdfrwt beam="2">  1       21 0.53785154E-01 0.84722631E+03</pdfrwt>
<totfact> 0.36898740E+03</totfact>
</mgrwt>
</event>
<event>
 4    0  0.1775285E-001  0.5245658E+03  0.7546771E-02  0.1007559E+00
         21   -1    0    0  502  501  0.00000000000E+00  0.00000000000E+00  0.50480124401E+02  0.50480124401E+02  0.00000000000E+00 0. -1.
         21   -1    0    0  503  502 -0.00000000000E+00 -0.00000000000E+00 -0.13627603567E+04  0.13627603567E+04  0.00000000000E+00 0. -1.
         25    1    1    2    0    0  0.18034780926E+03 -0.16845656682E+03 -0.73995812276E+03  0.78997846214E+03  0.12500000000E+03 0.  0.
         21    1    1    2  503  501 -0.18034780926E+03  0.16845656682E+03 -0.57232210953E+03  0.62326201895E+03  0.00000000000E+00 0. -1.
<mgrwt>
<rscale>  3 0.52456577E+03</rscale>
<asrwt>0</asrwt>
<pdfrwt beam="1">  1       21 0.77661728E-02 0.52456577E+03</pdfrwt>
<pdfrwt beam="2">  1       21 0.20965544E+00 0.52456577E+03</pdfrwt>
<totfact> 0.12547169E+04</totfact>
</mgrwt>
</event>
<event>
 4    0  0.1775285E-001  0.4640939E+03  0.7546771E-02  0.1023601E+00
         21   -1    0    0  502  501  0.00000000000E+00  0.00000000000E+00  0.43811352773E+02  0.43811352773E+02  0.00000000000E+00 0. -1.
         21   -1    0    0  503  502 -0.00000000000E+00 -0.00000000000E+00 -0.12290372417E+04  0.12290372417E+04  0.00000000000E+00 0. -1.
         25    1    1    2    0    0 -0.21189185228E+03 -0.18310394292E+02 -0.54533641977E+03  0.59854008916E+03  0.12500000000E+03 0.  0.
         21    1    1    2  503  501  0.21189185228E+03  0.18310394292E+02 -0.63988946919E+03  0.67430850535E+03  0.00000000000E+00 0. -1.
<mgrwt>
<rscale>  3 0.46409389E+03</rscale>
<asrwt>0</asrwt>
<pdfrwt beam="1">  1       21 0.67402088E-02 0.46409389E+03</pdfrwt>
<pdfrwt beam="2">  1       21 0.18908263E+00 0.46409389E+03</pdfrwt>
<totfact> 0.22545800E+04</totfact>
</mgrwt>
</event>
<event>
 4    0  0.1775285E-001  0.4475874E+03  0.7546771E-02  0.1028444E+00
         21   -1    0    0  502  501  0.00000000000E+00  0.00000000000E+00  0.13245972609E+03  0.13245972609E+03  0.00000000000E+00 0.  1.
         21   -1    0    0  503  502 -0.00000000000E+00 -0.00000000000E+00 -0.37810455482E+03  0.37810455482E+03  0.00000000000E+00 0.  1.
         25    1    1    2    0    0  0.19575835228E+02 -0.20332888725E+03 -0.99146103862E+02  0.25919259177E+03  0.12500000000E+03 0.  0.
         21    1    1    2  503  501 -0.19575835228E+02  0.20332888725E+03 -0.14649872487E+03  0.25137168915E+03  0.00000000000E+00 0.  1.
<mgrwt>
<rscale>  3 0.44758743E+03</rscale>
<asrwt>0</asrwt>
<pdfrwt beam="1">  1       21 0.20378420E-01 0.44758743E+03</pdfrwt>
<pdfrwt beam="2">  1       21 0.58169931E-01 0.44758743E+03</pdfrwt>
<totfact> 0.56977812E+04</totfact>
</mgrwt>
</event>
<event>
 4    0  0.1775285E-001  0.8252796E+03  0.7546771E-02  0.9524130E-01
         21   -1    0    0  502  501  0.00000000000E+00  0.00000000000E+00  0.16829544896E+03  0.16829544896E+03  0.00000000000E+00 0.  1.
         21   -1    0    0  503  502 -0.00000000000E+00 -0.00000000000E+00 -0.10117420601E+04  0.10117420601E+04  0.00000000000E+00 0.  1.
         25    1    1    2    0    0 -0.22646257206E+03  0.30223627679E+03 -0.22960675578E+03  0.45932159306E+03  0.12500000000E+03 0.  0.
         21    1    1    2  503  501  0.22646257206E+03 -0.30223627679E+03 -0.61383985534E+03  0.72071591598E+03  0.00000000000E+00 0.  1.
<mgrwt>
<rscale>  3 0.82527955E+03</rscale>
<asrwt>0</asrwt>
<pdfrwt beam="1">  1       21 0.25891608E-01 0.82527955E+03</pdfrwt>
<pdfrwt beam="2">  1       21 0.15565262E+00 0.82527955E+03</pdfrwt>
<totfact> 0.29967636E+03</totfact>
</mgrwt>
</event>
<event>
 4    0  0.1775285E-001  0.4609187E+03  0.7546771E-02  0.1024515E+00
         21   -1    0    0  502  501  0.00000000000E+00  0.00000000000E+00  0.88223581865E+02  0.88223581865E+02  0.00000000000E+00 0.  1.
         21   -1    0    0  503  502 -0.00000000000E+00 -0.00000000000E+00 -0.60201037802E+03  0.60201037802E+03  0.00000000000E+00 0.  1.
         25    1    1    2    0    0 -0.19863536629E+03  0.53853477645E+02 -0.36089733902E+03  0.43385261911E+03  0.12500000000E+03 0.  0.
         21    1    1    2  503  501  0.19863536629E+03 -0.53853477645E+02 -0.15288945714E+03  0.25638134078E+03  0.00000000000E+00 0.  1.
<mgrwt>
<rscale>  3 0.46091870E+03</rscale>
<asrwt>0</asrwt>
<pdfrwt beam="1">  1       21 0.13572859E-01 0.46091870E+03</pdfrwt>
<pdfrwt beam="2">  1       21 0.92616981E-01 0.46091870E+03</pdfrwt>
<totfact> 0.42188639E+04</totfact>
</mgrwt>
</event>
<event>
 4    0  0.1775285E-001  0.6697851E+03  0.7546771E-02  0.9770346E-01
         21   -1    0    0  502  501  0.00000000000E+00  0.00000000000E+00  0.92766165321E+03  0.92766165321E+03  0.00000000000E+00 0. -1.
         21   -1    0    0  503  502 -0.00000000000E+00 -0.00000000000E+00 -0.12089861853E+03  0.12089861853E+03  0.00000000000E+00 0. -1.
         25    1    1    2    0    0  0.16871392882E+02 -0.30609905202E+03  0.25704931182E+03  0.41914272301E+03  0.12500000000E+03 0.  0.
         21    1    1    2  503  501 -0.16871392882E+02  0.30609905202E+03  0.54971372286E+03  0.62941754873E+03  0.00000000000E+00 0. -1.
<mgrwt>
<rscale>  3 0.66978508E+03</rscale>
<asrwt>0</asrwt>
<pdfrwt beam="1">  1       21 0.14271717E+00 0.66978508E+03</pdfrwt>
<pdfrwt beam="2">  1       21 0.18599788E-01 0.66978508E+03</pdfrwt>
<totfact> 0.74675753E+03</totfact>
</mgrwt>
</event>
