<LesHouchesEvents version="3.0">
<header>
<!--
#*********************************************************************
#                                                                    *
#                        MadGraph5_aMC@NLO                           *
#                                                                    *
#                           Going Beyond                             *
#                                                                    *
#                   http://madgraph.hep.uiuc.edu                     *
#                   http://madgraph.phys.ucl.ac.be                   *
#                   http://amcatnlo.cern.ch                          *
#                                                                    *
#                     The MadGraph5_aMC@NLO team                     *
#                                                                    *
#....................................................................*
#                                                                    *
# This file contains all the information necessary to reproduce      *
# the events generated:                                              *
#                                                                    *
# 1. software version                                                *
# 2. proc_card          : code generation info including model       *
# 3. param_card         : model primary parameters in the LH format  *
# 4. run_card           : running parameters (collider and cuts)     *
# 5. pythia_card        : present only if pythia has been run        *
# 6. pgs_card           : present only if pgs has been run           *
# 7. delphes_cards      : present only if delphes has been run       *
#                                                                    *
#                                                                    *
#*********************************************************************
-->
<MGVersion>
2.6.7
</MGVersion>
<MG5ProcCard>
<![CDATA[
#************************************************************
#*                     MadGraph5_aMC@NLO                    *
#*                                                          *
#*                *                       *                 *
#*                  *        * *        *                   *
#*                    * * * * 5 * * * *                     *
#*                  *        * *        *                   *
#*                *                       *                 *
#*                                                          *
#*                                                          *
#*         VERSION 2.6.7                 2019-10-16         *
#*                                                          *
#*    The MadGraph5_aMC@NLO Development Team - Find us at   *
#*    https://server06.fynu.ucl.ac.be/projects/madgraph     *
#*                                                          *
#************************************************************
#*                                                          *
#*               Command File for MadGraph5_aMC@NLO         *
#*                                                          *
#*     run as ./bin/mg5_aMC  filename                       *
#*                                                          *
#************************************************************
set default_unset_couplings 99
set group_subprocesses Auto
set ignore_six_quark_processes False
set loop_optimized_output True
set loop_color_flows False
set gauge unitary
set complex_mass_scheme False
set max_npoint_for_channel 0
import model sm
define p = g u c d s u~ c~ d~ s~
define j = g u c d s u~ c~ d~ s~
define l+ = e+ mu+
define l- = e- mu-
define vl = ve vm vt
define vl~ = ve~ vm~ vt~
import model loop_sm
generate p p > H j [QCD]
output ~/scratch/higgs-classifier/MG5/ggh-hj
]]>
</MG5ProcCard>
<MGProcCard>
#*********************************************************************
#                        MadGraph/MadEvent                           *
#                   http://madgraph.hep.uiuc.edu                     *
#                                                                    *
#                          proc_card.dat                             *
#*********************************************************************
#                                                                    *
#            This Files is generated by MADGRAPH 5                   *
#                                                                    *
# WARNING: This Files is generated for MADEVENT (compatibility issue)*
#          This files is NOT a valid MG4 proc_card.dat               *
#          Running this in MG4 will NEVER reproduce the result of MG5*
#                                                                    *
#*********************************************************************
#*********************************************************************
# Process(es) requested : mg2 input                                  *
#*********************************************************************
# Begin PROCESS # This is TAG. Do not modify this line
p p > H j [QCD]           #Process
# Be carefull the coupling are here in MG5 convention
          
end_coup           # End the couplings input

done               # this tells MG there are no more procs
# End PROCESS  # This is TAG. Do not modify this line
#*********************************************************************
# Model information                                                  *
#*********************************************************************
# Begin MODEL  # This is TAG. Do not modify this line
loop_sm
# End   MODEL  # This is TAG. Do not modify this line
#*********************************************************************
# Start multiparticle definitions                                    *
#*********************************************************************
# Begin MULTIPARTICLES # This is TAG. Do not modify this line

# End  MULTIPARTICLES # This is TAG. Do not modify this line
</MGProcCard>
<MGRunCard>
<![CDATA[
#*********************************************************************
#                       MadGraph5_aMC@NLO                            *
#                                                                    *
#                     run_card.dat MadEvent                          *
#                                                                    *
#  This file is used to set the parameters of the run.               *
#                                                                    *
#  Some notation/conventions:                                        *
#                                                                    *
#   Lines starting with a '# ' are info or comments                  *
#                                                                    *
#   mind the format:   value    = variable     ! comment             *
#                                                                    *
#   To display more options, you can type the command:               *
#      update full_run_card                                          *
#*********************************************************************
#
#*******************                                                 
# Running parameters
#*******************                                                 
#                                                                    
#*********************************************************************
# Tag name for the run (one word)                                    *
#*********************************************************************
  tag_1     = run_tag ! name of the run 
#*********************************************************************
# Number of events and rnd seed                                      *
# Warning: Do not generate more than 1M events in a single run       *
#*********************************************************************
  100 = nevents ! Number of unweighted events requested 
 8021 = iseed   ! rnd seed (0=assigned automatically=default))
#*********************************************************************
# Collider type and energy                                           *
# lpp: 0=No PDF, 1=proton, -1=antiproton, 2=photon from proton,      *
#                                         3=photon from electron     *
#*********************************************************************
     1        = lpp1    ! beam 1 type 
     1        = lpp2    ! beam 2 type
     6500.0     = ebeam1  ! beam 1 total energy in GeV
     6500.0     = ebeam2  ! beam 2 total energy in GeV
# To see polarised beam options: type "update beam_pol"#*********************************************************************
# PDF CHOICE: this automatically fixes also alpha_s and its evol.    *
#*********************************************************************
     nn23lo1    = pdlabel     ! PDF set                                     
     230000    = lhaid     ! if pdlabel=lhapdf, this is the lhapdf number
# To see heavy ion options: type "update ion_pdf"#*********************************************************************
# Renormalization and factorization scales                           *
#*********************************************************************
 False = fixed_ren_scale  ! if .true. use fixed ren scale
 False        = fixed_fac_scale  ! if .true. use fixed fac scale
 91.188  = scale            ! fixed ren scale
 91.188  = dsqrt_q2fact1    ! fixed fact scale for pdf1
 91.188  = dsqrt_q2fact2    ! fixed fact scale for pdf2
 -1 = dynamical_scale_choice ! Choose one of the preselected dynamical choices
 1.0  = scalefact        ! scale factor for event-by-event scales
#*********************************************************************
# Type and output format
#*********************************************************************
  False     = gridpack  !True = setting up the grid pack
  -1.0 = time_of_flight ! threshold (in mm) below which the invariant livetime is not written (-1 means not written)
  3.0 = lhe_version       ! Change the way clustering information pass to shower.        
  True = clusinfo         ! include clustering tag in output
  average =  event_norm       ! average/sum. Normalization of the weight in the LHEF

#*********************************************************************
# Matching parameter (MLM only)
#*********************************************************************
 0 = ickkw            ! 0 no matching, 1 MLM
 1.0 = alpsfact         ! scale factor for QCD emission vx
 False = chcluster        ! cluster only according to channel diag
 4 = asrwgtflavor     ! highest quark flavor for a_s reweight
 True  = auto_ptj_mjj  ! Automatic setting of ptj and mjj if xqcut >0
                                   ! (turn off for VBF and single top processes) 
 0.0   = xqcut   ! minimum kt jet measure between partons
#*********************************************************************
#
#*********************************************************************
# handling of the helicities:
#  0: sum over all helicities
#  1: importance sampling over helicities
#*********************************************************************
   1  = nhel          ! using helicities importance sampling or not.
#*********************************************************************
# Generation bias, check the wiki page below for more information:   *
#  'cp3.irmp.ucl.ac.be/projects/madgraph/wiki/LOEventGenerationBias' *
#*********************************************************************
 None = bias_module  ! Bias type of bias, [None, ptj_bias, -custom_folder-]
 {} = bias_parameters ! Specifies the parameters of the module.
#
#*******************************                                                 
# Parton level cuts definition *
#*******************************                                     
#                                                                    
#
#*********************************************************************
# BW cutoff (M+/-bwcutoff*Gamma) ! Define on/off-shell for "$$" and decay  
#*********************************************************************
  15.0  = bwcutoff      ! (M+/-bwcutoff*Gamma)
#*********************************************************************
# Apply pt/E/eta/dr/mij/kt_durham cuts on decay products or not
# (note that etmiss/ptll/ptheavy/ht/sorted cuts always apply)
#*********************************************************************
   False  = cut_decays    ! Cut decay products 
#*********************************************************************
# Standard Cuts                                                      *
#*********************************************************************
# Minimum and maximum pt's (for max, -1 means no cut)                *
#*********************************************************************
 20.0  = ptj       ! minimum pt for the jets 
 0.0  = ptb       ! minimum pt for the b 
 10.0  = pta       ! minimum pt for the photons 
 10.0  = ptl       ! minimum pt for the charged leptons 
 0.0  = misset    ! minimum missing Et (sum of neutrino's momenta)
 -1.0  = ptjmax    ! maximum pt for the jets
 -1.0  = ptbmax    ! maximum pt for the b
 -1.0  = ptamax    ! maximum pt for the photons
 -1.0  = ptlmax    ! maximum pt for the charged leptons
 -1.0  = missetmax ! maximum missing Et (sum of neutrino's momenta)
 {'25': 450.0} = pt_min_pdg ! pt cut for other particles (use pdg code). Applied on particle and anti-particle
 {'25': 1700.0}	= pt_max_pdg ! pt cut for other particles (syntax e.g. {6: 100, 25: 50}) 
#
# For display option for energy cut in the partonic center of mass frame type 'update ecut'
##*********************************************************************
# Maximum and minimum absolute rapidity (for max, -1 means no cut)   *
#*********************************************************************
  5.0 = etaj    ! max rap for the jets 
  -1.0  = etab    ! max rap for the b
 2.5  = etaa    ! max rap for the photons 
 2.5  = etal    ! max rap for the charged leptons 
 0.0  = etajmin ! min rap for the jets
 0.0  = etabmin ! min rap for the b
 0.0  = etaamin ! min rap for the photons
 0.0  = etalmin ! main rap for the charged leptons
 {} = eta_min_pdg ! rap cut for other particles (use pdg code). Applied on particle and anti-particle
 {} = eta_max_pdg ! rap cut for other particles (syntax e.g. {6: 2.5, 23: 5})
#*********************************************************************
# Minimum and maximum DeltaR distance                                *
#*********************************************************************
 0.4 = drjj    ! min distance between jets 
 0.0   = drbb    ! min distance between b's 
 0.4 = drll    ! min distance between leptons 
 0.4 = draa    ! min distance between gammas 
 0.0   = drbj    ! min distance between b and jet 
 0.4 = draj    ! min distance between gamma and jet 
 0.4 = drjl    ! min distance between jet and lepton 
 0.0   = drab    ! min distance between gamma and b 
 0.0   = drbl    ! min distance between b and lepton 
 0.4 = dral    ! min distance between gamma and lepton 
 -1.0  = drjjmax ! max distance between jets
 -1.0  = drbbmax ! max distance between b's
 -1.0  = drllmax ! max distance between leptons
 -1.0  = draamax ! max distance between gammas
 -1.0  = drbjmax ! max distance between b and jet
 -1.0  = drajmax ! max distance between gamma and jet
 -1.0  = drjlmax ! max distance between jet and lepton
 -1.0  = drabmax ! max distance between gamma and b
 -1.0  = drblmax ! max distance between b and lepton
 -1.0  = dralmax ! maxdistance between gamma and lepton
#*********************************************************************
# Minimum and maximum invariant mass for pairs                       *
# WARNING: for four lepton final state mmll cut require to have      *
#          different lepton masses for each flavor!                  *           
#*********************************************************************
 0.0   = mmjj    ! min invariant mass of a jet pair 
 0.0   = mmbb    ! min invariant mass of a b pair 
 0.0   = mmaa    ! min invariant mass of gamma gamma pair
 0.0   = mmll    ! min invariant mass of l+l- (same flavour) lepton pair
 -1.0  = mmjjmax ! max invariant mass of a jet pair
 -1.0  = mmbbmax ! max invariant mass of a b pair
 -1.0  = mmaamax ! max invariant mass of gamma gamma pair
 -1.0  = mmllmax ! max invariant mass of l+l- (same flavour) lepton pair
 {} = mxx_min_pdg ! min invariant mass of a pair of particles X/X~ (e.g. {6:250})
 {'default': False} = mxx_only_part_antipart ! if True the invariant mass is applied only 
                       ! to pairs of particle/antiparticle and not to pairs of the same pdg codes.  
#*********************************************************************
# Minimum and maximum invariant mass for all letpons                 *
#*********************************************************************
 0.0   = mmnl    ! min invariant mass for all letpons (l+- and vl) 
 -1.0  = mmnlmax ! max invariant mass for all letpons (l+- and vl) 
#*********************************************************************
# Minimum and maximum pt for 4-momenta sum of leptons                *
#*********************************************************************
 0.0   = ptllmin  ! Minimum pt for 4-momenta sum of leptons(l and vl)
 -1.0  = ptllmax  ! Maximum pt for 4-momenta sum of leptons(l and vl)
#*********************************************************************
# Inclusive cuts                                                     *
#*********************************************************************
 0.0  = ptheavy   ! minimum pt for at least one heavy final state
 0.0  = xptj ! minimum pt for at least one jet  
 0.0  = xptb ! minimum pt for at least one b 
 0.0  = xpta ! minimum pt for at least one photon 
 0.0  = xptl ! minimum pt for at least one charged lepton 
#*********************************************************************
# Control the pt's of the jets sorted by pt                          *
#*********************************************************************
 0.0   = ptj1min ! minimum pt for the leading jet in pt
 0.0   = ptj2min ! minimum pt for the second jet in pt
 0.0   = ptj3min ! minimum pt for the third jet in pt
 0.0   = ptj4min ! minimum pt for the fourth jet in pt
 -1.0  = ptj1max ! maximum pt for the leading jet in pt 
 -1.0  = ptj2max ! maximum pt for the second jet in pt
 -1.0  = ptj3max ! maximum pt for the third jet in pt
 -1.0  = ptj4max ! maximum pt for the fourth jet in pt
 0   = cutuse  ! reject event if fails any (0) / all (1) jet pt cuts
#*********************************************************************
# Control the pt's of leptons sorted by pt                           *
#*********************************************************************
 0.0   = ptl1min ! minimum pt for the leading lepton in pt
 0.0   = ptl2min ! minimum pt for the second lepton in pt
 0.0   = ptl3min ! minimum pt for the third lepton in pt
 0.0   = ptl4min ! minimum pt for the fourth lepton in pt
 -1.0  = ptl1max ! maximum pt for the leading lepton in pt 
 -1.0  = ptl2max ! maximum pt for the second lepton in pt
 -1.0  = ptl3max ! maximum pt for the third lepton in pt
 -1.0  = ptl4max ! maximum pt for the fourth lepton in pt
#*********************************************************************
# Control the Ht(k)=Sum of k leading jets                            *
#*********************************************************************
 0.0   = htjmin ! minimum jet HT=Sum(jet pt)
 -1.0  = htjmax ! maximum jet HT=Sum(jet pt)
 0.0   = ihtmin  !inclusive Ht for all partons (including b)
 -1.0  = ihtmax  !inclusive Ht for all partons (including b)
 0.0   = ht2min ! minimum Ht for the two leading jets
 0.0   = ht3min ! minimum Ht for the three leading jets
 0.0   = ht4min ! minimum Ht for the four leading jets
 -1.0  = ht2max ! maximum Ht for the two leading jets
 -1.0  = ht3max ! maximum Ht for the three leading jets
 -1.0  = ht4max ! maximum Ht for the four leading jets
#***********************************************************************
# Photon-isolation cuts, according to hep-ph/9801442                   *
# When ptgmin=0, all the other parameters are ignored                  *
# When ptgmin>0, pta and draj are not going to be used                 *
#***********************************************************************
 0.0 = ptgmin ! Min photon transverse momentum
 0.4 = R0gamma ! Radius of isolation code
 1.0 = xn ! n parameter of eq.(3.4) in hep-ph/9801442
 1.0 = epsgamma ! epsilon_gamma parameter of eq.(3.4) in hep-ph/9801442
 True = isoEM ! isolate photons from EM energy (photons and leptons)
#*********************************************************************
# WBF cuts                                                           *
#*********************************************************************
 0.0   = xetamin ! minimum rapidity for two jets in the WBF case  
 0.0   = deltaeta ! minimum rapidity for two jets in the WBF case 
#***********************************************************************
# Turn on either the ktdurham or ptlund cut to activate                *
# CKKW(L) merging with Pythia8 [arXiv:1410.3012, arXiv:1109.4829]      *
#***********************************************************************
 -1.0  =  ktdurham        
 0.4   =  dparameter
 -1.0  =  ptlund
 1, 2, 3, 4, 5, 6, 21, 82  =  pdgs_for_merging_cut ! PDGs for two cuts above   
#*********************************************************************
# maximal pdg code for quark to be considered as a light jet         *
# (otherwise b cuts are applied)                                     *
#*********************************************************************
 4 = maxjetflavor    ! Maximum jet pdg code
#*********************************************************************
#
#*********************************************************************
# Store info for systematics studies                                 *
# WARNING: Do not use for interference type of computation           *
#*********************************************************************
   True  = use_syst      ! Enable systematics studies
#
systematics = systematics_program ! none, systematics [python], SysCalc [depreceted, C++]
['--mur=0.5,1,2', '--muf=0.5,1,2', '--pdf=errorset'] = systematics_arguments ! see: https://cp3.irmp.ucl.ac.be/projects/madgraph/wiki/Systematics#Systematicspythonmodule
# Syscalc is deprecated but to see the associate options type'update syscalc'
]]>
</MGRunCard>
<slha>
######################################################################
## PARAM_CARD AUTOMATICALY GENERATED BY MG5 FOLLOWING UFO MODEL   ####
######################################################################
##                                                                  ##
##  Width set on Auto will be computed following the information    ##
##        present in the decay.py files of the model.               ##
##        See  arXiv:1402.1178 for more details.                    ##
##                                                                  ##
######################################################################

###################################
## INFORMATION FOR LOOP
###################################
Block loop 
    1 9.118800e+01 # MU_R 

###################################
## INFORMATION FOR MASS
###################################
Block mass 
    5 4.700000e+00 # MB 
    6 1.730000e+02 # MT 
   15 1.777000e+00 # MTA 
   23 9.118800e+01 # MZ 
   25 1.250000e+02 # MH 
## Dependent parameters, given by model restrictions.
## Those values should be edited following the 
## analytical expression. MG5 ignores those values 
## but they are important for interfacing the output of MG5
## to external program such as Pythia.
  1 0.000000e+00 # d : 0.0 
  2 0.000000e+00 # u : 0.0 
  3 0.000000e+00 # s : 0.0 
  4 0.000000e+00 # c : 0.0 
  11 0.000000e+00 # e- : 0.0 
  12 0.000000e+00 # ve : 0.0 
  13 0.000000e+00 # mu- : 0.0 
  14 0.000000e+00 # vm : 0.0 
  16 0.000000e+00 # vt : 0.0 
  21 0.000000e+00 # g : 0.0 
  22 0.000000e+00 # a : 0.0 
  24 8.041900e+01 # w+ : cmath.sqrt(MZ__exp__2/2. + cmath.sqrt(MZ__exp__4/4. - (aEW*cmath.pi*MZ__exp__2)/(Gf*sqrt__2))) 

###################################
## INFORMATION FOR SMINPUTS
###################################
Block sminputs 
    1 1.325070e+02 # aEWM1 
    2 1.166390e-05 # Gf 
    3 1.180000e-01 # aS 

###################################
## INFORMATION FOR YUKAWA
###################################
Block yukawa 
    5 4.700000e+00 # ymb 
    6 1.730000e+02 # ymt 
   15 1.777000e+00 # ymtau 

###################################
## INFORMATION FOR DECAY
###################################
DECAY   6 1.491500e+00 # WT 
DECAY  23 2.441404e+00 # WZ 
DECAY  24 2.047600e+00 # WW 
DECAY  25 6.382339e-03 # WH 
## Dependent parameters, given by model restrictions.
## Those values should be edited following the 
## analytical expression. MG5 ignores those values 
## but they are important for interfacing the output of MG5
## to external program such as Pythia.
DECAY  1 0.000000e+00 # d : 0.0 
DECAY  2 0.000000e+00 # u : 0.0 
DECAY  3 0.000000e+00 # s : 0.0 
DECAY  4 0.000000e+00 # c : 0.0 
DECAY  5 0.000000e+00 # b : 0.0 
DECAY  11 0.000000e+00 # e- : 0.0 
DECAY  12 0.000000e+00 # ve : 0.0 
DECAY  13 0.000000e+00 # mu- : 0.0 
DECAY  14 0.000000e+00 # vm : 0.0 
DECAY  15 0.000000e+00 # ta- : 0.0 
DECAY  16 0.000000e+00 # vt : 0.0 
DECAY  21 0.000000e+00 # g : 0.0 
DECAY  22 0.000000e+00 # a : 0.0 
#===========================================================
# QUANTUM NUMBERS OF NEW STATE(S) (NON SM PDG CODE)
#===========================================================

Block QNUMBERS 82  # gh 
        1 0  # 3 times electric charge
        2 1  # number of spin states (2S+1)
        3 8  # colour rep (1: singlet, 3: triplet, 8: octet)
        4 1  # Particle/Antiparticle distinction (0=own anti)
</slha>
<MGGenerationInfo>
#  Number of Events        :       100
#  Integrated weight (pb)  :       0.008013255
</MGGenerationInfo>
</header>
<init>
2212 2212 6.500000e+03 6.500000e+03 0 0 247000 247000 -4 1
8.013255e-03 5.187802e-05 8.013255e-03 0
<generator name='MadGraph5_aMC@NLO' version='2.6.7'>please cite 1405.0301 </generator>
</init>
<event>
 4      0 +8.0132550e-03 4.77135400e+02 7.54677100e-03 1.01992500e-01
       21 -1    0    0  503  501 +0.0000000000e+00 +0.0000000000e+00 +9.6222912057e+02 9.6222912057e+02 0.0000000000e+00 0.0000e+00 -1.0000e+00
       21 -1    0    0  501  502 -0.0000000000e+00 -0.0000000000e+00 -2.3799122953e+02 2.3799122953e+02 0.0000000000e+00 0.0000e+00 -1.0000e+00
       25  1    1    2    0    0 -1.3048937838e+02 +4.4159450493e+02 +4.8872963217e+02 6.8301891483e+02 1.2500000000e+02 0.0000e+00 0.0000e+00
       21  1    1    2  503  502 +1.3048937838e+02 -4.4159450493e+02 +2.3550825887e+02 5.1720143527e+02 0.0000000000e+00 0.0000e+00 -1.0000e+00
<mgrwt>
<rscale>  3 0.47713539E+03</rscale>
<asrwt>0</asrwt>
<pdfrwt beam="1">  1       21 0.14803525E+00 0.47713539E+03</pdfrwt>
<pdfrwt beam="2">  1       21 0.36614036E-01 0.47713539E+03</pdfrwt>
<totfact> 0.18849120E+03</totfact>
</mgrwt>
</event>
<event>
 4      0 +8.0132550e-03 4.85948900e+02 7.54677100e-03 1.01751300e-01
        1 -1    0    0  502    0 -0.0000000000e+00 +0.0000000000e+00 +4.4704664458e+02 4.4704664458e+02 0.0000000000e+00 0.0000e+00 1.0000e+00
       21 -1    0    0  501  502 +0.0000000000e+00 -0.0000000000e+00 -1.3292888729e+03 1.3292888729e+03 0.0000000000e+00 0.0000e+00 -1.0000e+00
       25  1    1    2    0    0 +3.4257810346e+02 -3.2118779446e+02 -1.1409960410e+03 1.2401686667e+03 1.2500000000e+02 0.0000e+00 0.0000e+00
        1  1    1    2  501    0 -3.4257810346e+02 +3.2118779446e+02 +2.5875381270e+02 5.3616685077e+02 0.0000000000e+00 0.0000e+00 1.0000e+00
<mgrwt>
<rscale>  3 0.48594892E+03</rscale>
<asrwt>0</asrwt>
<pdfrwt beam="1">  1       21 0.20450598E+00 0.48594892E+03</pdfrwt>
<pdfrwt beam="2">  1        1 0.68776407E-01 0.48594892E+03</pdfrwt>
<totfact> 0.60801550E+01</totfact>
</mgrwt>
</event>
<event>
 4      0 +8.0132550e-03 5.20743500e+02 7.54677100e-03 1.00850200e-01
       21 -1    0    0  503  501 +0.0000000000e+00 +0.0000000000e+00 +8.6034797206e+02 8.6034797206e+02 0.0000000000e+00 0.0000e+00 1.0000e+00
       21 -1    0    0  501  502 -0.0000000000e+00 -0.0000000000e+00 -3.8044646617e+02 3.8044646617e+02 0.0000000000e+00 0.0000e+00 1.0000e+00
       25  1    1    2    0    0 +4.3506022572e+02 +2.5743228710e+02 -3.1520928319e+01 5.2169660854e+02 1.2500000000e+02 0.0000e+00 0.0000e+00
       21  1    1    2  503  502 -4.3506022572e+02 -2.5743228710e+02 +5.1142243421e+02 7.1909782969e+02 0.0000000000e+00 0.0000e+00 1.0000e+00
<mgrwt>
<rscale>  3 0.52074349E+03</rscale>
<asrwt>0</asrwt>
<pdfrwt beam="1">  1       21 0.13236123E+00 0.52074349E+03</pdfrwt>
<pdfrwt beam="2">  1       21 0.58530226E-01 0.52074349E+03</pdfrwt>
<totfact> 0.92924234E+02</totfact>
</mgrwt>
</event>
<event>
 4      0 +8.0132550e-03 5.20344000e+02 7.54677100e-03 1.00860100e-01
        1 -1    0    0  502    0 -0.0000000000e+00 +0.0000000000e+00 +1.9909270378e+03 1.9909270378e+03 0.0000000000e+00 0.0000e+00 1.0000e+00
       21 -1    0    0  501  502 +0.0000000000e+00 -0.0000000000e+00 -7.6513109225e+02 7.6513109225e+02 0.0000000000e+00 0.0000e+00 -1.0000e+00
       25  1    1    2    0    0 +5.3849524997e+01 -5.0222809581e+02 -6.3900160106e+02 8.2406363694e+02 1.2500000000e+02 0.0000e+00 0.0000e+00
        1  1    1    2  501    0 -5.3849524997e+01 +5.0222809581e+02 +1.8647975466e+03 1.9319944931e+03 0.0000000000e+00 0.0000e+00 1.0000e+00
<mgrwt>
<rscale>  3 0.52034396E+03</rscale>
<asrwt>0</asrwt>
<pdfrwt beam="1">  1       21 0.11771248E+00 0.52034396E+03</pdfrwt>
<pdfrwt beam="2">  1        1 0.30629647E+00 0.52034396E+03</pdfrwt>
<totfact> 0.17385879E+01</totfact>
</mgrwt>
</event>
<event>
 4      0 +8.0132550e-03 5.34676500e+02 7.54677100e-03 1.00510400e-01
       21 -1    0    0  502  501 +0.0000000000e+00 +0.0000000000e+00 +2.1405078765e+03 2.1405078765e+03 0.0000000000e+00 0.0000e+00 1.0000e+00
       21 -1    0    0  503  502 -0.0000000000e+00 -0.0000000000e+00 -1.4465703671e+02 1.4465703671e+02 0.0000000000e+00 0.0000e+00 -1.0000e+00
       25  1    1    2    0    0 -4.7724813266e+02 -2.0612650674e+02 +6.4537701112e+02 8.3808734831e+02 1.2500000000e+02 0.0000e+00 0.0000e+00
       21  1    1    2  503  501 +4.7724813266e+02 +2.0612650674e+02 +1.3504738286e+03 1.4470775649e+03 0.0000000000e+00 0.0000e+00 1.0000e+00
<mgrwt>
<rscale>  3 0.53467646E+03</rscale>
<asrwt>0</asrwt>
<pdfrwt beam="1">  1       21 0.32930888E+00 0.53467646E+03</pdfrwt>
<pdfrwt beam="2">  1       21 0.22254930E-01 0.53467646E+03</pdfrwt>
<totfact> 0.32666462E+02</totfact>
</mgrwt>
</event>
<event>
 4      0 +8.0132550e-03 5.72559000e+02 7.54677100e-03 9.96403200e-02
       21 -1    0    0  503  501 +0.0000000000e+00 +0.0000000000e+00 +1.6841935937e+03 1.6841935937e+03 0.0000000000e+00 0.0000e+00 -1.0000e+00
       21 -1    0    0  501  502 -0.0000000000e+00 -0.0000000000e+00 -2.4439804943e+02 2.4439804943e+02 0.0000000000e+00 0.0000e+00 -1.0000e+00
       25  1    1    2    0    0 +3.7376534906e+02 -4.1532908523e+02 +1.1817246039e+03 1.3131248321e+03 1.2500000000e+02 0.0000e+00 0.0000e+00
       21  1    1    2  503  502 -3.7376534906e+02 +4.1532908523e+02 +2.5807094033e+02 6.1546681099e+02 0.0000000000e+00 0.0000e+00 -1.0000e+00
<mgrwt>
<rscale>  3 0.57255898E+03</rscale>
<asrwt>0</asrwt>
<pdfrwt beam="1">  1       21 0.25910670E+00 0.57255898E+03</pdfrwt>
<pdfrwt beam="2">  1       21 0.37599701E-01 0.57255898E+03</pdfrwt>
<totfact> 0.30279392E+02</totfact>
</mgrwt>
</event>
<event>
 4      0 +8.0132550e-03 4.76928300e+02 7.54677100e-03 1.01998300e-01
       21 -1    0    0  502  501 +0.0000000000e+00 +0.0000000000e+00 +1.2384330706e+02 1.2384330706e+02 0.0000000000e+00 0.0000e+00 1.0000e+00
       21 -1    0    0  503  502 -0.0000000000e+00 -0.0000000000e+00 -1.7969823845e+03 1.7969823845e+03 0.0000000000e+00 0.0000e+00 -1.0000e+00
       25  1    1    2    0    0 +2.1645034555e+02 +4.0618325279e+02 -7.4040208163e+02 8.8071325039e+02 1.2500000000e+02 0.0000e+00 0.0000e+00
       21  1    1    2  503  501 -2.1645034555e+02 -4.0618325279e+02 -9.3273699584e+02 1.0401124412e+03 0.0000000000e+00 0.0000e+00 -1.0000e+00
<mgrwt>
<rscale>  3 0.47692828E+03</rscale>
<asrwt>0</asrwt>
<pdfrwt beam="1">  1       21 0.19052817E-01 0.47692828E+03</pdfrwt>
<pdfrwt beam="2">  1       21 0.27645881E+00 0.47692828E+03</pdfrwt>
<totfact> 0.94559088E+02</totfact>
</mgrwt>
</event>
<event>
 4      0 +8.0132550e-03 1.15533100e+03 7.54677100e-03 9.15287900e-02
       21 -1    0    0  503  501 +0.0000000000e+00 +0.0000000000e+00 +1.3450526805e+03 1.3450526805e+03 0.0000000000e+00 0.0000e+00 -1.0000e+00
       21 -1    0    0  501  502 -0.0000000000e+00 -0.0000000000e+00 -2.4809248802e+02 2.4809248802e+02 0.0000000000e+00 0.0000e+00 -1.0000e+00
       25  1    1    2    0    0 +8.8542489228e+01 +5.4284994537e+02 +7.6586144762e+02 9.5115434738e+02 1.2500000000e+02 0.0000e+00 0.0000e+00
       21  1    1    2  503  502 -8.8542489228e+01 -5.4284994537e+02 +3.3109874486e+02 6.4199082114e+02 0.0000000000e+00 0.0000e+00 -1.0000e+00
<mgrwt>
<rscale>  3 0.11553311E+04</rscale>
<asrwt>0</asrwt>
<pdfrwt beam="1">  1       21 0.20693118E+00 0.11553311E+04</pdfrwt>
<pdfrwt beam="2">  1       21 0.38168076E-01 0.11553311E+04</pdfrwt>
<totfact> 0.54440838E+02</totfact>
</mgrwt>
</event>
<event>
 4      0 +8.0132550e-03 4.75840200e+02 7.54677100e-03 1.02028500e-01
       21 -1    0    0  502  501 +0.0000000000e+00 +0.0000000000e+00 +6.0575408977e+02 6.0575408977e+02 0.0000000000e+00 0.0000e+00 1.0000e+00
       21 -1    0    0  503  502 -0.0000000000e+00 -0.0000000000e+00 -3.6801973291e+02 3.6801973291e+02 0.0000000000e+00 0.0000e+00 -1.0000e+00
       25  1    1    2    0    0 -3.5655752943e+02 -2.8925007675e+02 +1.8924750138e+02 5.1209227242e+02 1.2500000000e+02 0.0000e+00 0.0000e+00
       21  1    1    2  503  501 +3.5655752943e+02 +2.8925007675e+02 +4.8486855474e+01 4.6168155026e+02 0.0000000000e+00 0.0000e+00 -1.0000e+00
<mgrwt>
<rscale>  3 0.47584018E+03</rscale>
<asrwt>0</asrwt>
<pdfrwt beam="1">  1       21 0.93192937E-01 0.47584018E+03</pdfrwt>
<pdfrwt beam="2">  1       21 0.56618420E-01 0.47584018E+03</pdfrwt>
<totfact> 0.24400956E+03</totfact>
</mgrwt>
</event>
<event>
 4      0 +8.0132550e-03 4.77100600e+02 7.54677100e-03 1.01993500e-01
       21 -1    0    0  502  501 +0.0000000000e+00 +0.0000000000e+00 +5.3189518981e+02 5.3189518981e+02 0.0000000000e+00 0.0000e+00 1.0000e+00
       21 -1    0    0  503  502 -0.0000000000e+00 -0.0000000000e+00 -5.2129278177e+02 5.2129278177e+02 0.0000000000e+00 0.0000e+00 1.0000e+00
       25  1    1    2    0    0 -4.4903505656e+02 -1.0182107908e+02 -2.3446045216e+02 5.3159826730e+02 1.2500000000e+02 0.0000e+00 0.0000e+00
       21  1    1    2  503  501 +4.4903505656e+02 +1.0182107908e+02 +2.4506286020e+02 5.2158970428e+02 0.0000000000e+00 0.0000e+00 1.0000e+00
<mgrwt>
<rscale>  3 0.47710063E+03</rscale>
<asrwt>0</asrwt>
<pdfrwt beam="1">  1       21 0.81830029E-01 0.47710063E+03</pdfrwt>
<pdfrwt beam="2">  1       21 0.80198890E-01 0.47710063E+03</pdfrwt>
<totfact> 0.15186490E+03</totfact>
</mgrwt>
</event>
<event>
 4      0 +8.0132550e-03 5.01028700e+02 7.54677100e-03 1.01351100e-01
       21 -1    0    0  501  502 +0.0000000000e+00 +0.0000000000e+00 +1.3373482368e+02 1.3373482368e+02 0.0000000000e+00 0.0000e+00 -1.0000e+00
        1 -1    0    0  502    0 -0.0000000000e+00 -0.0000000000e+00 -1.8752401959e+03 1.8752401959e+03 0.0000000000e+00 0.0000e+00 -1.0000e+00
       25  1    1    2    0    0 +1.6414325943e+02 -4.5657608334e+02 -7.0912359836e+02 8.6826609243e+02 1.2500000000e+02 0.0000e+00 0.0000e+00
        1  1    1    2  501    0 -1.6414325943e+02 +4.5657608334e+02 -1.0323817738e+03 1.1407089271e+03 0.0000000000e+00 0.0000e+00 -1.0000e+00
<mgrwt>
<rscale>  3 0.50102867E+03</rscale>
<asrwt>0</asrwt>
<pdfrwt beam="1">  1       21 0.20574589E-01 0.50102867E+03</pdfrwt>
<pdfrwt beam="2">  1        1 0.28849849E+00 0.50102867E+03</pdfrwt>
<totfact> 0.90113306E+02</totfact>
</mgrwt>
</event>
<event>
 4      0 +8.0132550e-03 5.03346200e+02 7.54677100e-03 1.01290900e-01
        2 -1    0    0  502    0 -0.0000000000e+00 +0.0000000000e+00 +9.8449585528e+02 9.8449585528e+02 0.0000000000e+00 0.0000e+00 -1.0000e+00
       21 -1    0    0  501  502 +0.0000000000e+00 -0.0000000000e+00 -1.2734603516e+03 1.2734603516e+03 0.0000000000e+00 0.0000e+00 1.0000e+00
       25  1    1    2    0    0 +4.7275735817e+02 +1.1930175083e+02 -1.1573407020e+03 1.2620597957e+03 1.2500000000e+02 0.0000e+00 0.0000e+00
        2  1    1    2  501    0 -4.7275735817e+02 -1.1930175083e+02 +8.6837620560e+02 9.9589641123e+02 0.0000000000e+00 0.0000e+00 -1.0000e+00
<mgrwt>
<rscale>  3 0.50334623E+03</rscale>
<asrwt>0</asrwt>
<pdfrwt beam="1">  1       21 0.19591698E+00 0.50334623E+03</pdfrwt>
<pdfrwt beam="2">  1        2 0.15146090E+00 0.50334623E+03</pdfrwt>
<totfact> 0.39703474E+01</totfact>
</mgrwt>
</event>
<event>
 4      0 +8.0132550e-03 5.46251600e+02 7.54677100e-03 1.00236500e-01
       21 -1    0    0  503  501 +0.0000000000e+00 +0.0000000000e+00 +2.4887895232e+02 2.4887895232e+02 0.0000000000e+00 0.0000e+00 -1.0000e+00
       21 -1    0    0  501  502 -0.0000000000e+00 -0.0000000000e+00 -1.1938937440e+03 1.1938937440e+03 0.0000000000e+00 0.0000e+00 -1.0000e+00
       25  1    1    2    0    0 -3.2099048312e+02 -4.2394689439e+02 -5.8629793285e+02 8.0133396633e+02 1.2500000000e+02 0.0000e+00 0.0000e+00
       21  1    1    2  503  502 +3.2099048312e+02 +4.2394689439e+02 -3.5871685882e+02 6.4143872998e+02 0.0000000000e+00 0.0000e+00 -1.0000e+00
<mgrwt>
<rscale>  3 0.54625164E+03</rscale>
<asrwt>0</asrwt>
<pdfrwt beam="1">  1       21 0.38289070E-01 0.54625164E+03</pdfrwt>
<pdfrwt beam="2">  1       21 0.18367596E+00 0.54625164E+03</pdfrwt>
<totfact> 0.91013633E+02</totfact>
</mgrwt>
</event>
<event>
 4      0 +8.0132550e-03 5.11810400e+02 7.54677100e-03 1.01074100e-01
       21 -1    0    0  501  502 +0.0000000000e+00 +0.0000000000e+00 +5.1650311249e+02 5.1650311249e+02 0.0000000000e+00 0.0000e+00 1.0000e+00
        1 -1    0    0  502    0 -0.0000000000e+00 -0.0000000000e+00 -9.9864994004e+02 9.9864994004e+02 0.0000000000e+00 0.0000e+00 -1.0000e+00
       25  1    1    2    0    0 -4.5021006151e+02 +2.0889185148e+02 +2.9671537745e+02 5.9159945936e+02 1.2500000000e+02 0.0000e+00 0.0000e+00
        1  1    1    2  501    0 +4.5021006151e+02 -2.0889185148e+02 -7.7886220499e+02 9.2355359317e+02 0.0000000000e+00 0.0000e+00 -1.0000e+00
<mgrwt>
<rscale>  3 0.51181042E+03</rscale>
<asrwt>0</asrwt>
<pdfrwt beam="1">  1       21 0.79462017E-01 0.51181042E+03</pdfrwt>
<pdfrwt beam="2">  1        1 0.15363845E+00 0.51181042E+03</pdfrwt>
<totfact> 0.21798799E+02</totfact>
</mgrwt>
</event>
<event>
 4      0 +8.0132550e-03 4.84108400e+02 7.54677100e-03 1.01801200e-01
       21 -1    0    0  503  501 +0.0000000000e+00 +0.0000000000e+00 +2.7222383332e+02 2.7222383332e+02 0.0000000000e+00 0.0000e+00 -1.0000e+00
       21 -1    0    0  501  502 -0.0000000000e+00 -0.0000000000e+00 -1.1158447290e+03 1.1158447290e+03 0.0000000000e+00 0.0000e+00 -1.0000e+00
       25  1    1    2    0    0 +4.6748401317e+02 -1.3949708725e+01 -7.7725825769e+02 9.1569170363e+02 1.2500000000e+02 0.0000e+00 0.0000e+00
       21  1    1    2  503  502 -4.6748401317e+02 +1.3949708725e+01 -6.6362638031e+01 4.7237685874e+02 0.0000000000e+00 0.0000e+00 -1.0000e+00
<mgrwt>
<rscale>  3 0.48410835E+03</rscale>
<asrwt>0</asrwt>
<pdfrwt beam="1">  1       21 0.41880589E-01 0.48410835E+03</pdfrwt>
<pdfrwt beam="2">  1       21 0.17166842E+00 0.48410835E+03</pdfrwt>
<totfact> 0.94360217E+02</totfact>
</mgrwt>
</event>
<event>
 4      0 +8.0132550e-03 5.60748700e+02 7.54677100e-03 9.99036200e-02
       21 -1    0    0  502  501 +0.0000000000e+00 +0.0000000000e+00 +8.0300135399e+02 8.0300135399e+02 0.0000000000e+00 0.0000e+00 -1.0000e+00
       21 -1    0    0  503  502 -0.0000000000e+00 -0.0000000000e+00 -5.4756841096e+02 5.4756841096e+02 0.0000000000e+00 0.0000e+00 -1.0000e+00
       25  1    1    2    0    0 -4.7876477828e+02 -2.6381508402e+02 +5.0039397971e+02 7.5155388789e+02 1.2500000000e+02 0.0000e+00 0.0000e+00
       21  1    1    2  503  501 +4.7876477828e+02 +2.6381508402e+02 -2.4496103668e+02 5.9901587706e+02 0.0000000000e+00 0.0000e+00 -1.0000e+00
<mgrwt>
<rscale>  3 0.56074871E+03</rscale>
<asrwt>0</asrwt>
<pdfrwt beam="1">  1       21 0.12353867E+00 0.56074871E+03</pdfrwt>
<pdfrwt beam="2">  1       21 0.84241293E-01 0.56074871E+03</pdfrwt>
<totfact> 0.48038893E+02</totfact>
</mgrwt>
</event>
<event>
 4      0 +8.0132550e-03 4.75597100e+02 7.54677100e-03 1.02035200e-01
       21 -1    0    0  501  502 +0.0000000000e+00 +0.0000000000e+00 +9.4869013923e+02 9.4869013923e+02 0.0000000000e+00 0.0000e+00 1.0000e+00
        3 -1    0    0  502    0 -0.0000000000e+00 -0.0000000000e+00 -7.7316291476e+02 7.7316291476e+02 0.0000000000e+00 0.0000e+00 1.0000e+00
       25  1    1    2    0    0 +2.0387153237e+02 -4.1110096081e+02 +8.0971709307e+02 9.3906036680e+02 1.2500000000e+02 0.0000e+00 0.0000e+00
        3  1    1    2  501    0 -2.0387153237e+02 +4.1110096081e+02 -6.3418986859e+02 7.8279268719e+02 0.0000000000e+00 0.0000e+00 1.0000e+00
<mgrwt>
<rscale>  3 0.47559710E+03</rscale>
<asrwt>0</asrwt>
<pdfrwt beam="1">  1       21 0.14595233E+00 0.47559710E+03</pdfrwt>
<pdfrwt beam="2">  1        3 0.11894814E+00 0.47559710E+03</pdfrwt>
<totfact> 0.84525660E+00</totfact>
</mgrwt>
</event>
<event>
 4      0 +8.0132550e-03 7.33878400e+02 7.54677100e-03 9.66098800e-02
       21 -1    0    0  501  502 +0.0000000000e+00 +0.0000000000e+00 +4.7930495479e+02 4.7930495479e+02 0.0000000000e+00 0.0000e+00 -1.0000e+00
        2 -1    0    0  502    0 -0.0000000000e+00 -0.0000000000e+00 -1.5580559304e+03 1.5580559304e+03 0.0000000000e+00 0.0000e+00 1.0000e+00
       25  1    1    2    0    0 +4.9504283823e+02 -5.2714803360e+02 +5.7103160345e+00 7.3390058503e+02 1.2500000000e+02 0.0000e+00 0.0000e+00
        2  1    1    2  501    0 -4.9504283823e+02 +5.2714803360e+02 -1.0844612917e+03 1.3034603002e+03 0.0000000000e+00 0.0000e+00 1.0000e+00
<mgrwt>
<rscale>  3 0.73387837E+03</rscale>
<asrwt>0</asrwt>
<pdfrwt beam="1">  1       21 0.73739223E-01 0.73387837E+03</pdfrwt>
<pdfrwt beam="2">  1        2 0.23970091E+00 0.73387837E+03</pdfrwt>
<totfact> 0.21859451E+02</totfact>
</mgrwt>
</event>
<event>
 4      0 +8.0132550e-03 5.99666400e+02 7.54677100e-03 9.90609800e-02
       21 -1    0    0  503  501 +0.0000000000e+00 +0.0000000000e+00 +4.8230378771e+02 4.8230378771e+02 0.0000000000e+00 0.0000e+00 1.0000e+00
       21 -1    0    0  501  502 -0.0000000000e+00 -0.0000000000e+00 -7.3183073360e+02 7.3183073360e+02 0.0000000000e+00 0.0000e+00 1.0000e+00
       25  1    1    2    0    0 +2.1866134206e+02 +5.4420773498e+02 -1.6184372138e+02 6.2112255753e+02 1.2500000000e+02 0.0000e+00 0.0000e+00
       21  1    1    2  503  502 -2.1866134206e+02 -5.4420773498e+02 -8.7683224505e+01 5.9301196378e+02 0.0000000000e+00 0.0000e+00 1.0000e+00
<mgrwt>
<rscale>  3 0.59966644E+03</rscale>
<asrwt>0</asrwt>
<pdfrwt beam="1">  1       21 0.74200583E-01 0.59966644E+03</pdfrwt>
<pdfrwt beam="2">  1       21 0.11258934E+00 0.59966644E+03</pdfrwt>
<totfact> 0.80580147E+02</totfact>
</mgrwt>
</event>
<event>
 4      0 +8.0132550e-03 5.40221500e+02 7.54677100e-03 1.00378300e-01
       21 -1    0    0  502  501 +0.0000000000e+00 +0.0000000000e+00 +9.7945380434e+02 9.7945380434e+02 0.0000000000e+00 0.0000e+00 -1.0000e+00
       21 -1    0    0  503  502 -0.0000000000e+00 -0.0000000000e+00 -3.4765005012e+02 3.4765005012e+02 0.0000000000e+00 0.0000e+00 -1.0000e+00
       25  1    1    2    0    0 +2.5988861133e+02 -4.5680644316e+02 +5.8988002689e+02 7.9987352934e+02 1.2500000000e+02 0.0000e+00 0.0000e+00
       21  1    1    2  503  501 -2.5988861133e+02 +4.5680644316e+02 +4.1923727327e+01 5.2723032512e+02 0.0000000000e+00 0.0000e+00 -1.0000e+00
<mgrwt>
<rscale>  3 0.54022145E+03</rscale>
<asrwt>0</asrwt>
<pdfrwt beam="1">  1       21 0.15068520E+00 0.54022145E+03</pdfrwt>
<pdfrwt beam="2">  1       21 0.53484624E-01 0.54022145E+03</pdfrwt>
<totfact> 0.79306709E+02</totfact>
</mgrwt>
</event>
<event>
 4      0 +8.0132550e-03 4.70130200e+02 7.54677100e-03 1.02188300e-01
        1 -1    0    0  502    0 -0.0000000000e+00 +0.0000000000e+00 +1.7210783763e+03 1.7210783763e+03 0.0000000000e+00 0.0000e+00 1.0000e+00
       21 -1    0    0  501  502 +0.0000000000e+00 -0.0000000000e+00 -3.5790915330e+02 3.5790915330e+02 0.0000000000e+00 0.0000e+00 -1.0000e+00
       25  1    1    2    0    0 -2.0738885113e+02 -4.0297298167e+02 -1.5467961642e+02 4.9492236084e+02 1.2500000000e+02 0.0000e+00 0.0000e+00
        1  1    1    2  501    0 +2.0738885113e+02 +4.0297298167e+02 +1.5178488394e+03 1.5840651687e+03 0.0000000000e+00 0.0000e+00 1.0000e+00
<mgrwt>
<rscale>  3 0.47013015E+03</rscale>
<asrwt>0</asrwt>
<pdfrwt beam="1">  1       21 0.55062948E-01 0.47013015E+03</pdfrwt>
<pdfrwt beam="2">  1        1 0.26478128E+00 0.47013015E+03</pdfrwt>
<totfact> 0.15685539E+02</totfact>
</mgrwt>
</event>
<event>
 4      0 +8.0132550e-03 5.07121600e+02 7.54677100e-03 1.01193700e-01
       21 -1    0    0  503  501 +0.0000000000e+00 +0.0000000000e+00 +6.0078845310e+02 6.0078845310e+02 0.0000000000e+00 0.0000e+00 -1.0000e+00
       21 -1    0    0  501  502 -0.0000000000e+00 -0.0000000000e+00 -5.5795999497e+02 5.5795999497e+02 0.0000000000e+00 0.0000e+00 -1.0000e+00
       25  1    1    2    0    0 +3.3515577325e+02 -3.5946901749e+02 +3.1495387402e+02 5.9696592000e+02 1.2500000000e+02 0.0000e+00 0.0000e+00
       21  1    1    2  503  502 -3.3515577325e+02 +3.5946901749e+02 -2.7212541588e+02 5.6178252807e+02 0.0000000000e+00 0.0000e+00 -1.0000e+00
<mgrwt>
<rscale>  3 0.50712165E+03</rscale>
<asrwt>0</asrwt>
<pdfrwt beam="1">  1       21 0.92428993E-01 0.50712165E+03</pdfrwt>
<pdfrwt beam="2">  1       21 0.85839999E-01 0.50712165E+03</pdfrwt>
<totfact> 0.96198005E+02</totfact>
</mgrwt>
</event>
<event>
 4      0 +8.0132550e-03 4.70641800e+02 7.54677100e-03 1.02173900e-01
        2 -1    0    0  502    0 -0.0000000000e+00 +0.0000000000e+00 +2.3205766156e+03 2.3205766156e+03 0.0000000000e+00 0.0000e+00 1.0000e+00
       21 -1    0    0  501  502 +0.0000000000e+00 -0.0000000000e+00 -2.0969340222e+02 2.0969340222e+02 0.0000000000e+00 0.0000e+00 1.0000e+00
       25  1    1    2    0    0 +4.5279632163e+02 -2.9227248393e+01 +1.1639528566e+02 4.8482120772e+02 1.2500000000e+02 0.0000e+00 0.0000e+00
        2  1    1    2  501    0 -4.5279632163e+02 +2.9227248393e+01 +1.9944879278e+03 2.0454488102e+03 0.0000000000e+00 0.0000e+00 1.0000e+00
<mgrwt>
<rscale>  3 0.47064184E+03</rscale>
<asrwt>0</asrwt>
<pdfrwt beam="1">  1       21 0.32260525E-01 0.47064184E+03</pdfrwt>
<pdfrwt beam="2">  1        2 0.35701177E+00 0.47064184E+03</pdfrwt>
<totfact> 0.52685835E+02</totfact>
</mgrwt>
</event>
<event>
 4      0 +8.0132550e-03 5.01544000e+02 7.54677100e-03 1.01337700e-01
       21 -1    0    0  502  501 +0.0000000000e+00 +0.0000000000e+00 +6.2611689082e+02 6.2611689082e+02 0.0000000000e+00 0.0000e+00 1.0000e+00
       21 -1    0    0  503  502 -0.0000000000e+00 -0.0000000000e+00 -4.2706945254e+02 4.2706945254e+02 0.0000000000e+00 0.0000e+00 1.0000e+00
       25  1    1    2    0    0 -3.1267684711e+02 -3.7169143932e+02 +2.5781262387e+02 5.6392702171e+02 1.2500000000e+02 0.0000e+00 0.0000e+00
       21  1    1    2  503  501 +3.1267684711e+02 +3.7169143932e+02 -5.8765185580e+01 4.8925932165e+02 0.0000000000e+00 0.0000e+00 1.0000e+00
<mgrwt>
<rscale>  3 0.50154395E+03</rscale>
<asrwt>0</asrwt>
<pdfrwt beam="1">  1       21 0.96325675E-01 0.50154395E+03</pdfrwt>
<pdfrwt beam="2">  1       21 0.65702993E-01 0.50154395E+03</pdfrwt>
<totfact> 0.16097237E+03</totfact>
</mgrwt>
</event>
<event>
 4      0 +8.0132550e-03 5.17318300e+02 7.54677100e-03 1.00935500e-01
       21 -1    0    0  501  502 +0.0000000000e+00 +0.0000000000e+00 +2.8582124079e+02 2.8582124079e+02 0.0000000000e+00 0.0000e+00 -1.0000e+00
        2 -1    0    0  502    0 -0.0000000000e+00 -0.0000000000e+00 -9.7517085331e+02 9.7517085331e+02 0.0000000000e+00 0.0000e+00 1.0000e+00
       25  1    1    2    0    0 -1.7219840330e+02 +4.7153044778e+02 -1.8500420041e+02 5.4940404754e+02 1.2500000000e+02 0.0000e+00 0.0000e+00
        2  1    1    2  501    0 +1.7219840330e+02 -4.7153044778e+02 -5.0434541211e+02 7.1158804656e+02 0.0000000000e+00 0.0000e+00 1.0000e+00
<mgrwt>
<rscale>  3 0.51731833E+03</rscale>
<asrwt>0</asrwt>
<pdfrwt beam="1">  1       21 0.43972498E-01 0.51731833E+03</pdfrwt>
<pdfrwt beam="2">  1        2 0.15002629E+00 0.51731833E+03</pdfrwt>
<totfact> 0.15507941E+03</totfact>
</mgrwt>
</event>
<event>
 4      0 +8.0132550e-03 5.11792200e+02 7.54677100e-03 1.01074600e-01
       21 -1    0    0  503  501 +0.0000000000e+00 +0.0000000000e+00 +2.5913286094e+02 2.5913286094e+02 0.0000000000e+00 0.0000e+00 -1.0000e+00
       21 -1    0    0  501  502 -0.0000000000e+00 -0.0000000000e+00 -9.9248724671e+02 9.9248724671e+02 0.0000000000e+00 0.0000e+00 -1.0000e+00
       25  1    1    2    0    0 +2.1763201863e+02 -4.4602981872e+02 -4.4124731867e+02 6.7574439765e+02 1.2500000000e+02 0.0000e+00 0.0000e+00
       21  1    1    2  503  502 -2.1763201863e+02 +4.4602981872e+02 -2.9210706710e+02 5.7587571000e+02 0.0000000000e+00 0.0000e+00 -1.0000e+00
<mgrwt>
<rscale>  3 0.51179224E+03</rscale>
<asrwt>0</asrwt>
<pdfrwt beam="1">  1       21 0.39866593E-01 0.51179224E+03</pdfrwt>
<pdfrwt beam="2">  1       21 0.15269035E+00 0.51179224E+03</pdfrwt>
<totfact> 0.14365704E+03</totfact>
</mgrwt>
</event>
<event>
 4      0 +8.0132550e-03 4.71045000e+02 7.54677100e-03 1.02162600e-01
       21 -1    0    0  503  501 +0.0000000000e+00 +0.0000000000e+00 +5.1216271358e+02 5.1216271358e+02 0.0000000000e+00 0.0000e+00 1.0000e+00
       21 -1    0    0  501  502 -0.0000000000e+00 -0.0000000000e+00 -8.0497370493e+02 8.0497370493e+02 0.0000000000e+00 0.0000e+00 -1.0000e+00
       25  1    1    2    0    0 -3.4152028547e+02 +2.9936984976e+02 +3.0888055713e+02 5.6328555007e+02 1.2500000000e+02 0.0000e+00 0.0000e+00
       21  1    1    2  503  502 +3.4152028547e+02 -2.9936984976e+02 -6.0169154848e+02 7.5385086844e+02 0.0000000000e+00 0.0000e+00 -1.0000e+00
<mgrwt>
<rscale>  3 0.47104502E+03</rscale>
<asrwt>0</asrwt>
<pdfrwt beam="1">  1       21 0.78794264E-01 0.47104502E+03</pdfrwt>
<pdfrwt beam="2">  1       21 0.12384211E+00 0.47104502E+03</pdfrwt>
<totfact> 0.57754054E+02</totfact>
</mgrwt>
</event>
<event>
 4      0 +8.0132550e-03 5.05008400e+02 7.54677100e-03 1.01248000e-01
       21 -1    0    0  502  501 +0.0000000000e+00 +0.0000000000e+00 +2.7721794640e+02 2.7721794640e+02 0.0000000000e+00 0.0000e+00 -1.0000e+00
       21 -1    0    0  503  502 -0.0000000000e+00 -0.0000000000e+00 -1.1603852551e+03 1.1603852551e+03 0.0000000000e+00 0.0000e+00 -1.0000e+00
       25  1    1    2    0    0 +3.4859817168e+02 +3.4334796396e+02 -7.9287974565e+02 9.4004882890e+02 1.2500000000e+02 0.0000e+00 0.0000e+00
       21  1    1    2  503  501 -3.4859817168e+02 -3.4334796396e+02 -9.0287563046e+01 4.9755437260e+02 0.0000000000e+00 0.0000e+00 -1.0000e+00
<mgrwt>
<rscale>  3 0.50500843E+03</rscale>
<asrwt>0</asrwt>
<pdfrwt beam="1">  1       21 0.42648915E-01 0.50500843E+03</pdfrwt>
<pdfrwt beam="2">  1       21 0.17852081E+00 0.50500843E+03</pdfrwt>
<totfact> 0.80431683E+02</totfact>
</mgrwt>
</event>
<event>
 4      0 +8.0132550e-03 4.91238200e+02 7.54677100e-03 1.01609200e-01
       21 -1    0    0  501  502 +0.0000000000e+00 +0.0000000000e+00 +2.0096159574e+02 2.0096159574e+02 0.0000000000e+00 0.0000e+00 -1.0000e+00
       -1 -1    0    0    0  501 -0.0000000000e+00 -0.0000000000e+00 -1.2149651527e+03 1.2149651527e+03 0.0000000000e+00 0.0000e+00 -1.0000e+00
       25  1    1    2    0    0 +4.3667180746e+02 +1.8710346584e+02 -3.6675982039e+02 6.1304791021e+02 1.2500000000e+02 0.0000e+00 0.0000e+00
       -1  1    1    2    0  502 -4.3667180746e+02 -1.8710346584e+02 -6.4724373662e+02 8.0287883828e+02 0.0000000000e+00 0.0000e+00 -1.0000e+00
<mgrwt>
<rscale>  3 0.49123821E+03</rscale>
<asrwt>0</asrwt>
<pdfrwt beam="1">  1       21 0.30917169E-01 0.49123821E+03</pdfrwt>
<pdfrwt beam="2">  1       -1 0.18691771E+00 0.49123821E+03</pdfrwt>
<totfact> 0.17546206E+02</totfact>
</mgrwt>
</event>
<event>
 4      0 +8.0132550e-03 5.09289600e+02 7.54677100e-03 1.01138200e-01
       21 -1    0    0  503  501 +0.0000000000e+00 +0.0000000000e+00 +4.9452775618e+02 4.9452775618e+02 0.0000000000e+00 0.0000e+00 1.0000e+00
       21 -1    0    0  501  502 -0.0000000000e+00 -0.0000000000e+00 -6.2234215112e+02 6.2234215112e+02 0.0000000000e+00 0.0000e+00 1.0000e+00
       25  1    1    2    0    0 +9.0633900896e+01 -4.8532092301e+02 -3.0346111457e+02 5.9284445714e+02 1.2500000000e+02 0.0000e+00 0.0000e+00
       21  1    1    2  503  502 -9.0633900896e+01 +4.8532092301e+02 +1.7564671963e+02 5.2402545016e+02 0.0000000000e+00 0.0000e+00 1.0000e+00
<mgrwt>
<rscale>  3 0.50928961E+03</rscale>
<asrwt>0</asrwt>
<pdfrwt beam="1">  1       21 0.76081194E-01 0.50928961E+03</pdfrwt>
<pdfrwt beam="2">  1       21 0.95744945E-01 0.50928961E+03</pdfrwt>
<totfact> 0.11690129E+03</totfact>
</mgrwt>
</event>
<event>
 4      0 +8.0132550e-03 4.68543700e+02 7.54677100e-03 1.02233200e-01
        1 -1    0    0  502    0 -0.0000000000e+00 +0.0000000000e+00 +7.5319345170e+02 7.5319345170e+02 0.0000000000e+00 0.0000e+00 -1.0000e+00
       21 -1    0    0  501  502 +0.0000000000e+00 -0.0000000000e+00 -3.0609663293e+02 3.0609663293e+02 0.0000000000e+00 0.0000e+00 -1.0000e+00
       25  1    1    2    0    0 +4.0487682674e+02 +1.9995726898e+02 +7.5707239751e+01 4.7462062787e+02 1.2500000000e+02 0.0000e+00 0.0000e+00
        1  1    1    2  501    0 -4.0487682674e+02 -1.9995726898e+02 +3.7138957903e+02 5.8466945675e+02 0.0000000000e+00 0.0000e+00 -1.0000e+00
<mgrwt>
<rscale>  3 0.46854365E+03</rscale>
<asrwt>0</asrwt>
<pdfrwt beam="1">  1       21 0.47091790E-01 0.46854365E+03</pdfrwt>
<pdfrwt beam="2">  1        1 0.11587592E+00 0.46854365E+03</pdfrwt>
<totfact> 0.11095091E+03</totfact>
</mgrwt>
</event>
<event>
 4      0 +8.0132550e-03 5.55145700e+02 7.54677100e-03 1.00031000e-01
       -2 -1    0    0    0  501 -0.0000000000e+00 +0.0000000000e+00 +1.3129771950e+03 1.3129771950e+03 0.0000000000e+00 0.0000e+00 -1.0000e+00
       21 -1    0    0  501  502 +0.0000000000e+00 -0.0000000000e+00 -1.1543387767e+03 1.1543387767e+03 0.0000000000e+00 0.0000e+00 -1.0000e+00
       25  1    1    2    0    0 +2.2277843607e+02 -4.9288085205e+02 -1.0251486986e+03 1.1658115714e+03 1.2500000000e+02 0.0000e+00 0.0000e+00
       -2  1    1    2    0  502 -2.2277843607e+02 +4.9288085205e+02 +1.1837871169e+03 1.3015044003e+03 0.0000000000e+00 0.0000e+00 -1.0000e+00
<mgrwt>
<rscale>  3 0.55514572E+03</rscale>
<asrwt>0</asrwt>
<pdfrwt beam="1">  1       21 0.17759058E+00 0.55514572E+03</pdfrwt>
<pdfrwt beam="2">  1       -2 0.20199649E+00 0.55514572E+03</pdfrwt>
<totfact> 0.17439270E+00</totfact>
</mgrwt>
</event>
<event>
 4      0 +8.0132550e-03 5.08986000e+02 7.54677100e-03 1.01146000e-01
       21 -1    0    0  503  501 +0.0000000000e+00 +0.0000000000e+00 +6.4558905953e+02 6.4558905953e+02 0.0000000000e+00 0.0000e+00 -1.0000e+00
       21 -1    0    0  501  502 -0.0000000000e+00 -0.0000000000e+00 -3.9153727918e+02 3.9153727918e+02 0.0000000000e+00 0.0000e+00 -1.0000e+00
       25  1    1    2    0    0 -3.3456236193e+02 -3.6264282358e+02 +8.8013234548e+01 5.1653956380e+02 1.2500000000e+02 0.0000e+00 0.0000e+00
       21  1    1    2  503  502 +3.3456236193e+02 +3.6264282358e+02 +1.6603854580e+02 5.2058677491e+02 0.0000000000e+00 0.0000e+00 -1.0000e+00
<mgrwt>
<rscale>  3 0.50898604E+03</rscale>
<asrwt>0</asrwt>
<pdfrwt beam="1">  1       21 0.99321394E-01 0.50898604E+03</pdfrwt>
<pdfrwt beam="2">  1       21 0.60236505E-01 0.50898604E+03</pdfrwt>
<totfact> 0.18074087E+03</totfact>
</mgrwt>
</event>
<event>
 4      0 +8.0132550e-03 6.83597000e+02 7.54677100e-03 9.74570200e-02
       21 -1    0    0  501  502 +0.0000000000e+00 +0.0000000000e+00 +3.5174605586e+02 3.5174605586e+02 0.0000000000e+00 0.0000e+00 1.0000e+00
        2 -1    0    0  502    0 -0.0000000000e+00 -0.0000000000e+00 -2.7150235006e+03 2.7150235006e+03 0.0000000000e+00 0.0000e+00 1.0000e+00
       25  1    1    2    0    0 -3.2566865497e+02 +5.8789436262e+02 -8.1932143532e+01 6.8848945568e+02 1.2500000000e+02 0.0000e+00 0.0000e+00
        2  1    1    2  501    0 +3.2566865497e+02 -5.8789436262e+02 -2.2813453012e+03 2.3782801008e+03 0.0000000000e+00 0.0000e+00 1.0000e+00
<mgrwt>
<rscale>  3 0.68359700E+03</rscale>
<asrwt>0</asrwt>
<pdfrwt beam="1">  1       21 0.54114777E-01 0.68359700E+03</pdfrwt>
<pdfrwt beam="2">  1        2 0.41769593E+00 0.68359700E+03</pdfrwt>
<totfact> 0.10086907E+02</totfact>
</mgrwt>
</event>
<event>
 4      0 +8.0132550e-03 5.08366000e+02 7.54677100e-03 1.01161800e-01
       21 -1    0    0  502  501 +0.0000000000e+00 +0.0000000000e+00 +2.3416492382e+03 2.3416492382e+03 0.0000000000e+00 0.0000e+00 -1.0000e+00
       21 -1    0    0  503  502 -0.0000000000e+00 -0.0000000000e+00 -2.1205022690e+02 2.1205022690e+02 0.0000000000e+00 0.0000e+00 -1.0000e+00
       25  1    1    2    0    0 -4.7749367362e+02 +1.2169956451e+02 +1.9718184341e+03 2.0362966212e+03 1.2500000000e+02 0.0000e+00 0.0000e+00
       21  1    1    2  503  501 +4.7749367362e+02 -1.2169956451e+02 +1.5778057718e+02 5.1740284390e+02 0.0000000000e+00 0.0000e+00 -1.0000e+00
<mgrwt>
<rscale>  3 0.50836600E+03</rscale>
<asrwt>0</asrwt>
<pdfrwt beam="1">  1       21 0.36025371E+00 0.50836600E+03</pdfrwt>
<pdfrwt beam="2">  1       21 0.32623113E-01 0.50836600E+03</pdfrwt>
<totfact> 0.10064988E+02</totfact>
</mgrwt>
</event>
<event>
 4      0 +8.0132550e-03 5.45314900e+02 7.54677100e-03 1.00258400e-01
        1 -1    0    0  502    0 -0.0000000000e+00 +0.0000000000e+00 +2.9377501658e+03 2.9377501658e+03 0.0000000000e+00 0.0000e+00 -1.0000e+00
       21 -1    0    0  501  502 +0.0000000000e+00 -0.0000000000e+00 -9.8749832235e+01 9.8749832235e+01 0.0000000000e+00 0.0000e+00 -1.0000e+00
       25  1    1    2    0    0 +4.1875443652e+02 +3.2617180549e+02 +1.5076093279e+03 1.6032012383e+03 1.2500000000e+02 0.0000e+00 0.0000e+00
        1  1    1    2  501    0 -4.1875443652e+02 -3.2617180549e+02 +1.3313910056e+03 1.4332987598e+03 0.0000000000e+00 0.0000e+00 -1.0000e+00
<mgrwt>
<rscale>  3 0.54531489E+03</rscale>
<asrwt>0</asrwt>
<pdfrwt beam="1">  1       21 0.15192284E-01 0.54531489E+03</pdfrwt>
<pdfrwt beam="2">  1        1 0.45196150E+00 0.54531489E+03</pdfrwt>
<totfact> 0.30184808E+02</totfact>
</mgrwt>
</event>
<event>
 4      0 +8.0132550e-03 5.35470400e+02 7.54677100e-03 1.00491400e-01
       21 -1    0    0  503  501 +0.0000000000e+00 +0.0000000000e+00 +7.7018369152e+02 7.7018369152e+02 0.0000000000e+00 0.0000e+00 -1.0000e+00
       21 -1    0    0  501  502 -0.0000000000e+00 -0.0000000000e+00 -4.8178926817e+02 4.8178926817e+02 0.0000000000e+00 0.0000e+00 -1.0000e+00
       25  1    1    2    0    0 -2.8065032348e+02 -4.3856460078e+02 -1.6630615914e+02 5.6070157098e+02 1.2500000000e+02 0.0000e+00 0.0000e+00
       21  1    1    2  503  502 +2.8065032348e+02 +4.3856460078e+02 +4.5470058249e+02 6.9127138871e+02 0.0000000000e+00 0.0000e+00 -1.0000e+00
<mgrwt>
<rscale>  3 0.53547037E+03</rscale>
<asrwt>0</asrwt>
<pdfrwt beam="1">  1       21 0.11848980E+00 0.53547037E+03</pdfrwt>
<pdfrwt beam="2">  1       21 0.74121426E-01 0.53547037E+03</pdfrwt>
<totfact> 0.72571503E+02</totfact>
</mgrwt>
</event>
<event>
 4      0 +8.0132550e-03 5.53109900e+02 7.54677100e-03 1.00077700e-01
       21 -1    0    0  501  502 +0.0000000000e+00 +0.0000000000e+00 +1.7151462488e+02 1.7151462488e+02 0.0000000000e+00 0.0000e+00 1.0000e+00
        2 -1    0    0  502    0 -0.0000000000e+00 -0.0000000000e+00 -2.5613506612e+03 2.5613506612e+03 0.0000000000e+00 0.0000e+00 1.0000e+00
       25  1    1    2    0    0 -2.1776948121e+02 +4.9283058434e+02 -4.3079555192e+02 7.0108154972e+02 1.2500000000e+02 0.0000e+00 0.0000e+00
        2  1    1    2  501    0 +2.1776948121e+02 -4.9283058434e+02 -1.9590404844e+03 2.0317837364e+03 0.0000000000e+00 0.0000e+00 1.0000e+00
<mgrwt>
<rscale>  3 0.55310987E+03</rscale>
<asrwt>0</asrwt>
<pdfrwt beam="1">  1       21 0.26386868E-01 0.55310987E+03</pdfrwt>
<pdfrwt beam="2">  1        2 0.39405391E+00 0.55310987E+03</pdfrwt>
<totfact> 0.56291643E+02</totfact>
</mgrwt>
</event>
<event>
 4      0 +8.0132550e-03 5.99462300e+02 7.54677100e-03 9.90652200e-02
       21 -1    0    0  502  501 +0.0000000000e+00 +0.0000000000e+00 +3.4602149756e+02 3.4602149756e+02 0.0000000000e+00 0.0000e+00 -1.0000e+00
       21 -1    0    0  503  502 -0.0000000000e+00 -0.0000000000e+00 -1.0733222133e+03 1.0733222133e+03 0.0000000000e+00 0.0000e+00 -1.0000e+00
       25  1    1    2    0    0 +4.6614314205e+02 -3.5558490181e+02 -2.0323843739e+02 6.3297781454e+02 1.2500000000e+02 0.0000e+00 0.0000e+00
       21  1    1    2  503  501 -4.6614314205e+02 +3.5558490181e+02 -5.2406227834e+02 7.8636589629e+02 0.0000000000e+00 0.0000e+00 -1.0000e+00
<mgrwt>
<rscale>  3 0.59946230E+03</rscale>
<asrwt>0</asrwt>
<pdfrwt beam="1">  1       21 0.53234076E-01 0.59946230E+03</pdfrwt>
<pdfrwt beam="2">  1       21 0.16512649E+00 0.59946230E+03</pdfrwt>
<totfact> 0.60772581E+02</totfact>
</mgrwt>
</event>
<event>
 4      0 +8.0132550e-03 4.86949100e+02 7.54677100e-03 1.01724300e-01
       21 -1    0    0  501  502 +0.0000000000e+00 +0.0000000000e+00 +1.3172112334e+03 1.3172112334e+03 0.0000000000e+00 0.0000e+00 -1.0000e+00
        2 -1    0    0  502    0 -0.0000000000e+00 -0.0000000000e+00 -1.9581046510e+03 1.9581046510e+03 0.0000000000e+00 0.0000e+00 1.0000e+00
       25  1    1    2    0    0 +1.9817400477e+02 +4.2687405081e+02 +1.2422357517e+03 1.3342672349e+03 1.2500000000e+02 0.0000e+00 0.0000e+00
        2  1    1    2  501    0 -1.9817400477e+02 -4.2687405081e+02 -1.8831291693e+03 1.9410486495e+03 0.0000000000e+00 0.0000e+00 1.0000e+00
<mgrwt>
<rscale>  3 0.48694906E+03</rscale>
<asrwt>0</asrwt>
<pdfrwt beam="1">  1       21 0.20264788E+00 0.48694906E+03</pdfrwt>
<pdfrwt beam="2">  1        2 0.30124687E+00 0.48694906E+03</pdfrwt>
<totfact> 0.10227561E+01</totfact>
</mgrwt>
</event>
<event>
 4      0 +8.0132550e-03 4.86921100e+02 7.54677100e-03 1.01725000e-01
       21 -1    0    0  503  501 +0.0000000000e+00 +0.0000000000e+00 +4.8977694571e+02 4.8977694571e+02 0.0000000000e+00 0.0000e+00 1.0000e+00
       21 -1    0    0  501  502 -0.0000000000e+00 -0.0000000000e+00 -6.1631540279e+02 6.1631540279e+02 0.0000000000e+00 0.0000e+00 1.0000e+00
       25  1    1    2    0    0 -3.5237835246e+02 -3.1192415256e+02 -3.3536473877e+02 5.9123742121e+02 1.2500000000e+02 0.0000e+00 0.0000e+00
       21  1    1    2  503  502 +3.5237835246e+02 +3.1192415256e+02 +2.0882628169e+02 5.1485492729e+02 0.0000000000e+00 0.0000e+00 1.0000e+00
<mgrwt>
<rscale>  3 0.48692112E+03</rscale>
<asrwt>0</asrwt>
<pdfrwt beam="1">  1       21 0.75350300E-01 0.48692112E+03</pdfrwt>
<pdfrwt beam="2">  1       21 0.94817754E-01 0.48692112E+03</pdfrwt>
<totfact> 0.12333262E+03</totfact>
</mgrwt>
</event>
<event>
 4      0 +8.0132550e-03 4.69900300e+02 7.54677100e-03 1.02194800e-01
       -2 -1    0    0    0  501 -0.0000000000e+00 +0.0000000000e+00 +1.2670502954e+03 1.2670502954e+03 0.0000000000e+00 0.0000e+00 -1.0000e+00
       21 -1    0    0  501  502 +0.0000000000e+00 -0.0000000000e+00 -2.2825704139e+02 2.2825704139e+02 0.0000000000e+00 0.0000e+00 1.0000e+00
       25  1    1    2    0    0 +4.4382919193e+02 +9.0536739547e+01 +1.4246202434e+02 4.9102105983e+02 1.2500000000e+02 0.0000e+00 0.0000e+00
       -2  1    1    2    0  502 -4.4382919193e+02 -9.0536739547e+01 +8.9633122969e+02 1.0042862770e+03 0.0000000000e+00 0.0000e+00 -1.0000e+00
<mgrwt>
<rscale>  3 0.46990026E+03</rscale>
<asrwt>0</asrwt>
<pdfrwt beam="1">  1       21 0.35116469E-01 0.46990026E+03</pdfrwt>
<pdfrwt beam="2">  1       -2 0.19493081E+00 0.46990026E+03</pdfrwt>
<totfact> 0.91334976E+01</totfact>
</mgrwt>
</event>
<event>
 4      0 +8.0132550e-03 5.52968300e+02 7.54677100e-03 1.00080900e-01
       21 -1    0    0  502  501 +0.0000000000e+00 +0.0000000000e+00 +1.4693416934e+03 1.4693416934e+03 0.0000000000e+00 0.0000e+00 1.0000e+00
       21 -1    0    0  503  502 -0.0000000000e+00 -0.0000000000e+00 -2.3306324598e+02 2.3306324598e+02 0.0000000000e+00 0.0000e+00 1.0000e+00
       25  1    1    2    0    0 +1.5277409091e+02 -5.1653562912e+02 +9.3214450543e+02 1.0838207223e+03 1.2500000000e+02 0.0000e+00 0.0000e+00
       21  1    1    2  503  501 -1.5277409091e+02 +5.1653562912e+02 +3.0413394201e+02 6.1858421713e+02 0.0000000000e+00 0.0000e+00 1.0000e+00
<mgrwt>
<rscale>  3 0.55296833E+03</rscale>
<asrwt>0</asrwt>
<pdfrwt beam="1">  1       21 0.22605256E+00 0.55296833E+03</pdfrwt>
<pdfrwt beam="2">  1       21 0.35855885E-01 0.55296833E+03</pdfrwt>
<totfact> 0.54179548E+02</totfact>
</mgrwt>
</event>
<event>
 4      0 +8.0132550e-03 5.00843500e+02 7.54677100e-03 1.01355900e-01
        2 -1    0    0  502    0 -0.0000000000e+00 +0.0000000000e+00 +2.7160988301e+02 2.7160988301e+02 0.0000000000e+00 0.0000e+00 1.0000e+00
       21 -1    0    0  501  502 +0.0000000000e+00 -0.0000000000e+00 -1.6554700744e+03 1.6554700744e+03 0.0000000000e+00 0.0000e+00 1.0000e+00
       25  1    1    2    0    0 -4.0184335898e+02 -2.7155321675e+02 -1.3511438579e+03 1.4409836777e+03 1.2500000000e+02 0.0000e+00 0.0000e+00
        2  1    1    2  501    0 +4.0184335898e+02 +2.7155321675e+02 -3.2716333513e+01 4.8609627973e+02 0.0000000000e+00 0.0000e+00 1.0000e+00
<mgrwt>
<rscale>  3 0.50084352E+03</rscale>
<asrwt>0</asrwt>
<pdfrwt beam="1">  1       21 0.25468771E+00 0.50084352E+03</pdfrwt>
<pdfrwt beam="2">  1        2 0.41786135E-01 0.50084352E+03</pdfrwt>
<totfact> 0.77575716E+01</totfact>
</mgrwt>
</event>
<event>
 4      0 +8.0132550e-03 6.24860000e+02 7.54677100e-03 9.85513100e-02
       21 -1    0    0  503  501 +0.0000000000e+00 +0.0000000000e+00 +1.6458086079e+02 1.6458086079e+02 0.0000000000e+00 0.0000e+00 1.0000e+00
       21 -1    0    0  501  502 -0.0000000000e+00 -0.0000000000e+00 -2.6739927279e+03 2.6739927279e+03 0.0000000000e+00 0.0000e+00 -1.0000e+00
       25  1    1    2    0    0 -5.9677588097e+02 +1.3668775150e+02 -7.5288878269e+02 9.7841275167e+02 1.2500000000e+02 0.0000e+00 0.0000e+00
       21  1    1    2  503  502 +5.9677588097e+02 -1.3668775150e+02 -1.7565230844e+03 1.8601608370e+03 0.0000000000e+00 0.0000e+00 -1.0000e+00
<mgrwt>
<rscale>  3 0.62485998E+03</rscale>
<asrwt>0</asrwt>
<pdfrwt beam="1">  1       21 0.25320133E-01 0.62485998E+03</pdfrwt>
<pdfrwt beam="2">  1       21 0.41138349E+00 0.62485998E+03</pdfrwt>
<totfact> 0.73777520E+01</totfact>
</mgrwt>
</event>
<event>
 4      0 +8.0132550e-03 6.10235500e+02 7.54677100e-03 9.88439500e-02
       21 -1    0    0  501  502 +0.0000000000e+00 +0.0000000000e+00 +4.0596199735e+02 4.0596199735e+02 0.0000000000e+00 0.0000e+00 -1.0000e+00
        2 -1    0    0  502    0 -0.0000000000e+00 -0.0000000000e+00 -9.0933745539e+02 9.0933745539e+02 0.0000000000e+00 0.0000e+00 -1.0000e+00
       25  1    1    2    0    0 -5.3923884565e+02 +2.5687319321e+02 -1.8075614611e+02 6.3644336308e+02 1.2500000000e+02 0.0000e+00 0.0000e+00
        2  1    1    2  501    0 +5.3923884565e+02 -2.5687319321e+02 -3.2261931193e+02 6.7885608966e+02 0.0000000000e+00 0.0000e+00 -1.0000e+00
<mgrwt>
<rscale>  3 0.61023550E+03</rscale>
<asrwt>0</asrwt>
<pdfrwt beam="1">  1       21 0.62455693E-01 0.61023550E+03</pdfrwt>
<pdfrwt beam="2">  1        2 0.13989807E+00 0.61023550E+03</pdfrwt>
<totfact> 0.78941332E+02</totfact>
</mgrwt>
</event>
<event>
 4      0 +8.0132550e-03 5.63602500e+02 7.54677100e-03 9.98393600e-02
       21 -1    0    0  501  502 +0.0000000000e+00 +0.0000000000e+00 +1.0750163972e+02 1.0750163972e+02 0.0000000000e+00 0.0000e+00 1.0000e+00
        3 -1    0    0  502    0 -0.0000000000e+00 -0.0000000000e+00 -3.6171833902e+03 3.6171833902e+03 0.0000000000e+00 0.0000e+00 -1.0000e+00
       25  1    1    2    0    0 -4.5422668289e+02 -3.0935555587e+02 -9.3274379196e+02 1.0897975596e+03 1.2500000000e+02 0.0000e+00 0.0000e+00
        3  1    1    2  501    0 +4.5422668289e+02 +3.0935555587e+02 -2.5769379585e+03 2.6348874704e+03 0.0000000000e+00 0.0000e+00 -1.0000e+00
<mgrwt>
<rscale>  3 0.56360247E+03</rscale>
<asrwt>0</asrwt>
<pdfrwt beam="1">  1       21 0.16538714E-01 0.56360247E+03</pdfrwt>
<pdfrwt beam="2">  1        3 0.55648975E+00 0.56360247E+03</pdfrwt>
<totfact> 0.32780034E+00</totfact>
</mgrwt>
</event>
<event>
 4      0 +8.0132550e-03 6.24289500e+02 7.54677100e-03 9.85625600e-02
       21 -1    0    0  502  501 +0.0000000000e+00 +0.0000000000e+00 +7.1126965372e+02 7.1126965372e+02 0.0000000000e+00 0.0000e+00 1.0000e+00
       21 -1    0    0  503  502 -0.0000000000e+00 -0.0000000000e+00 -1.4293429155e+03 1.4293429155e+03 0.0000000000e+00 0.0000e+00 1.0000e+00
       25  1    1    2    0    0 -2.4936947038e+02 +5.5850450612e+02 +4.8529115480e+02 7.9072430154e+02 1.2500000000e+02 0.0000e+00 0.0000e+00
       21  1    1    2  503  501 +2.4936947038e+02 -5.5850450612e+02 -1.2033644166e+03 1.3498882677e+03 0.0000000000e+00 0.0000e+00 1.0000e+00
<mgrwt>
<rscale>  3 0.62428953E+03</rscale>
<asrwt>0</asrwt>
<pdfrwt beam="1">  1       21 0.10942610E+00 0.62428953E+03</pdfrwt>
<pdfrwt beam="2">  1       21 0.21989891E+00 0.62428953E+03</pdfrwt>
<totfact> 0.47466975E+01</totfact>
</mgrwt>
</event>
<event>
 4      0 +8.0132550e-03 4.95021800e+02 7.54677100e-03 1.01508700e-01
       21 -1    0    0  503  501 +0.0000000000e+00 +0.0000000000e+00 +8.9820063947e+02 8.9820063947e+02 0.0000000000e+00 0.0000e+00 1.0000e+00
       21 -1    0    0  501  502 -0.0000000000e+00 -0.0000000000e+00 -4.6896218111e+02 4.6896218111e+02 0.0000000000e+00 0.0000e+00 1.0000e+00
       25  1    1    2    0    0 -4.7891640902e+02 +7.7870771133e+00 +6.6843657609e+02 8.3177762753e+02 1.2500000000e+02 0.0000e+00 0.0000e+00
       21  1    1    2  503  502 +4.7891640902e+02 -7.7870771133e+00 -2.3919811774e+02 5.3538519304e+02 0.0000000000e+00 0.0000e+00 1.0000e+00
<mgrwt>
<rscale>  3 0.49502178E+03</rscale>
<asrwt>0</asrwt>
<pdfrwt beam="1">  1       21 0.13818471E+00 0.49502178E+03</pdfrwt>
<pdfrwt beam="2">  1       21 0.72148028E-01 0.49502178E+03</pdfrwt>
<totfact> 0.52563280E+02</totfact>
</mgrwt>
</event>
<event>
 4      0 +8.0132550e-03 4.69655800e+02 7.54677100e-03 1.02201700e-01
       21 -1    0    0  501  502 +0.0000000000e+00 +0.0000000000e+00 +5.4604691052e+02 5.4604691052e+02 0.0000000000e+00 0.0000e+00 1.0000e+00
        1 -1    0    0  502    0 -0.0000000000e+00 -0.0000000000e+00 -3.9458256125e+02 3.9458256125e+02 0.0000000000e+00 0.0000e+00 1.0000e+00
       25  1    1    2    0    0 +2.6233404943e+02 +3.6896129462e+02 +2.3804328222e+01 4.7025869100e+02 1.2500000000e+02 0.0000e+00 0.0000e+00
        1  1    1    2  501    0 -2.6233404943e+02 -3.6896129462e+02 +1.2766002105e+02 4.7037078076e+02 0.0000000000e+00 0.0000e+00 1.0000e+00
<mgrwt>
<rscale>  3 0.46965582E+03</rscale>
<asrwt>0</asrwt>
<pdfrwt beam="1">  1       21 0.84007217E-01 0.46965582E+03</pdfrwt>
<pdfrwt beam="2">  1        1 0.60705009E-01 0.46965582E+03</pdfrwt>
<totfact> 0.75880985E+02</totfact>
</mgrwt>
</event>
<event>
 4      0 +8.0132550e-03 1.32124000e+03 7.54677100e-03 9.01288900e-02
       21 -1    0    0  503  501 +0.0000000000e+00 +0.0000000000e+00 +2.2042763249e+03 2.2042763249e+03 0.0000000000e+00 0.0000e+00 -1.0000e+00
       21 -1    0    0  501  502 -0.0000000000e+00 -0.0000000000e+00 -1.7821190979e+03 1.7821190979e+03 0.0000000000e+00 0.0000e+00 -1.0000e+00
       25  1    1    2    0    0 +1.2821356186e+03 +2.9356028225e+02 +1.6996663199e+03 2.1527981752e+03 1.2500000000e+02 0.0000e+00 0.0000e+00
       21  1    1    2  503  502 -1.2821356186e+03 -2.9356028225e+02 -1.2775090929e+03 1.8335972476e+03 0.0000000000e+00 0.0000e+00 -1.0000e+00
<mgrwt>
<rscale>  3 0.13212397E+04</rscale>
<asrwt>0</asrwt>
<pdfrwt beam="1">  1       21 0.33911943E+00 0.13212397E+04</pdfrwt>
<pdfrwt beam="2">  1       21 0.27417217E+00 0.13212397E+04</pdfrwt>
<totfact> 0.40389875E-01</totfact>
</mgrwt>
</event>
<event>
 4      0 +8.0132550e-03 4.72142200e+02 7.54677100e-03 1.02131700e-01
       21 -1    0    0  502  501 +0.0000000000e+00 +0.0000000000e+00 +1.3125011762e+03 1.3125011762e+03 0.0000000000e+00 0.0000e+00 1.0000e+00
       21 -1    0    0  503  502 -0.0000000000e+00 -0.0000000000e+00 -5.1293461313e+02 5.1293461313e+02 0.0000000000e+00 0.0000e+00 1.0000e+00
       25  1    1    2    0    0 +3.3947614613e+02 +3.0339616691e+02 +1.1550367265e+03 1.2478093314e+03 1.2500000000e+02 0.0000e+00 0.0000e+00
       21  1    1    2  503  501 -3.3947614613e+02 -3.0339616691e+02 -3.5547016341e+02 5.7762645798e+02 0.0000000000e+00 0.0000e+00 1.0000e+00
<mgrwt>
<rscale>  3 0.47214223E+03</rscale>
<asrwt>0</asrwt>
<pdfrwt beam="1">  1       21 0.20192326E+00 0.47214223E+03</pdfrwt>
<pdfrwt beam="2">  1       21 0.78913018E-01 0.47214223E+03</pdfrwt>
<totfact> 0.14684644E+02</totfact>
</mgrwt>
</event>
<event>
 4      0 +8.0132550e-03 4.93971200e+02 7.54677100e-03 1.01536500e-01
       21 -1    0    0  503  501 +0.0000000000e+00 +0.0000000000e+00 +8.5919786217e+02 8.5919786217e+02 0.0000000000e+00 0.0000e+00 -1.0000e+00
       21 -1    0    0  501  502 -0.0000000000e+00 -0.0000000000e+00 -5.4426056760e+02 5.4426056760e+02 0.0000000000e+00 0.0000e+00 1.0000e+00
       25  1    1    2    0    0 +4.1721558302e+02 -2.3305294370e+02 -3.3491504082e+02 5.9680449215e+02 1.2500000000e+02 0.0000e+00 0.0000e+00
       21  1    1    2  503  502 -4.1721558302e+02 +2.3305294370e+02 +6.4985233539e+02 8.0665393763e+02 0.0000000000e+00 0.0000e+00 -1.0000e+00
<mgrwt>
<rscale>  3 0.49397117E+03</rscale>
<asrwt>0</asrwt>
<pdfrwt beam="1">  1       21 0.13218429E+00 0.49397117E+03</pdfrwt>
<pdfrwt beam="2">  1       21 0.83732395E-01 0.49397117E+03</pdfrwt>
<totfact> 0.41945260E+02</totfact>
</mgrwt>
</event>
<event>
 4      0 +8.0132550e-03 4.91907000e+02 7.54677100e-03 1.01591300e-01
       21 -1    0    0  502  501 +0.0000000000e+00 +0.0000000000e+00 +2.3635261924e+02 2.3635261924e+02 0.0000000000e+00 0.0000e+00 1.0000e+00
       21 -1    0    0  503  502 -0.0000000000e+00 -0.0000000000e+00 -9.9146371760e+02 9.9146371760e+02 0.0000000000e+00 0.0000e+00 -1.0000e+00
       25  1    1    2    0    0 -3.8796690259e+02 -2.7537093750e+02 -3.6419465902e+02 6.1205409923e+02 1.2500000000e+02 0.0000e+00 0.0000e+00
       21  1    1    2  503  501 +3.8796690259e+02 +2.7537093750e+02 -3.9091643934e+02 6.1576223761e+02 0.0000000000e+00 0.0000e+00 -1.0000e+00
<mgrwt>
<rscale>  3 0.49190697E+03</rscale>
<asrwt>0</asrwt>
<pdfrwt beam="1">  1       21 0.36361941E-01 0.49190697E+03</pdfrwt>
<pdfrwt beam="2">  1       21 0.15253288E+00 0.49190697E+03</pdfrwt>
<totfact> 0.17522635E+03</totfact>
</mgrwt>
</event>
<event>
 4      0 +8.0132550e-03 9.89078800e+02 7.54677100e-03 9.32060500e-02
        2 -1    0    0  502    0 +0.0000000000e+00 +0.0000000000e+00 +2.0428465345e+03 2.0428465345e+03 0.0000000000e+00 0.0000e+00 1.0000e+00
       -2 -1    0    0    0  501 -0.0000000000e+00 -0.0000000000e+00 -1.1971982588e+02 1.1971982588e+02 0.0000000000e+00 0.0000e+00 -1.0000e+00
       25  1    1    2    0    0 -4.2373954233e+02 +1.6842834756e+02 +6.0525269287e+02 7.6803589123e+02 1.2500000000e+02 0.0000e+00 0.0000e+00
       21  1    1    2  502  501 +4.2373954233e+02 -1.6842834756e+02 +1.3178740158e+03 1.3945304692e+03 0.0000000000e+00 0.0000e+00 1.0000e+00
<mgrwt>
<rscale>  3 0.98907883E+03</rscale>
<asrwt>0</asrwt>
<pdfrwt beam="1">  1        2 0.31428406E+00 0.98907883E+03</pdfrwt>
<pdfrwt beam="2">  1       -2 0.18418436E-01 0.98907883E+03</pdfrwt>
<totfact> 0.15666876E+02</totfact>
</mgrwt>
</event>
<event>
 4      0 +8.0132550e-03 5.35880000e+02 7.54677100e-03 1.00481600e-01
       21 -1    0    0  503  501 +0.0000000000e+00 +0.0000000000e+00 +2.0229789950e+03 2.0229789950e+03 0.0000000000e+00 0.0000e+00 1.0000e+00
       21 -1    0    0  501  502 -0.0000000000e+00 -0.0000000000e+00 -1.4695463929e+02 1.4695463929e+02 0.0000000000e+00 0.0000e+00 1.0000e+00
       25  1    1    2    0    0 +5.1463852632e+02 +8.1789517809e+01 +1.2171803729e+03 1.3299230798e+03 1.2500000000e+02 0.0000e+00 0.0000e+00
       21  1    1    2  503  502 -5.1463852632e+02 -8.1789517809e+01 +6.5884398283e+02 8.4001055453e+02 0.0000000000e+00 0.0000e+00 1.0000e+00
<mgrwt>
<rscale>  3 0.53587997E+03</rscale>
<asrwt>0</asrwt>
<pdfrwt beam="1">  1       21 0.31122752E+00 0.53587997E+03</pdfrwt>
<pdfrwt beam="2">  1       21 0.22608407E-01 0.53587997E+03</pdfrwt>
<totfact> 0.40797173E+02</totfact>
</mgrwt>
</event>
<event>
 4      0 +8.0132550e-03 5.58834300e+02 7.54677100e-03 9.99469600e-02
       21 -1    0    0  501  502 +0.0000000000e+00 +0.0000000000e+00 +1.0121480629e+02 1.0121480629e+02 0.0000000000e+00 0.0000e+00 1.0000e+00
        2 -1    0    0  502    0 -0.0000000000e+00 -0.0000000000e+00 -3.2742331329e+03 3.2742331329e+03 0.0000000000e+00 0.0000e+00 -1.0000e+00
       25  1    1    2    0    0 -1.9079843009e+02 -5.1016347622e+02 -1.1238012063e+03 1.2550796647e+03 1.2500000000e+02 0.0000e+00 0.0000e+00
        2  1    1    2  501    0 +1.9079843009e+02 +5.1016347622e+02 -2.0492171203e+03 2.1203682746e+03 0.0000000000e+00 0.0000e+00 -1.0000e+00
<mgrwt>
<rscale>  3 0.55883433E+03</rscale>
<asrwt>0</asrwt>
<pdfrwt beam="1">  1       21 0.15571507E-01 0.55883433E+03</pdfrwt>
<pdfrwt beam="2">  1        2 0.50372822E+00 0.55883433E+03</pdfrwt>
<totfact> 0.57669841E+02</totfact>
</mgrwt>
</event>
<event>
 4      0 +8.0132550e-03 5.27186600e+02 7.54677100e-03 1.00691700e-01
        2 -1    0    0  502    0 -0.0000000000e+00 +0.0000000000e+00 +1.7662330506e+02 1.7662330506e+02 0.0000000000e+00 0.0000e+00 -1.0000e+00
       21 -1    0    0  501  502 +0.0000000000e+00 -0.0000000000e+00 -1.5293256121e+03 1.5293256121e+03 0.0000000000e+00 0.0000e+00 -1.0000e+00
       25  1    1    2    0    0 +2.4777969635e+02 +4.4822537261e+02 -6.9860656699e+02 8.7520106148e+02 1.2500000000e+02 0.0000e+00 0.0000e+00
        2  1    1    2  501    0 -2.4777969635e+02 -4.4822537261e+02 -6.5409574008e+02 8.3074785570e+02 0.0000000000e+00 0.0000e+00 -1.0000e+00
<mgrwt>
<rscale>  3 0.52718665E+03</rscale>
<asrwt>0</asrwt>
<pdfrwt beam="1">  1       21 0.23528087E+00 0.52718665E+03</pdfrwt>
<pdfrwt beam="2">  1        2 0.27172816E-01 0.52718665E+03</pdfrwt>
<totfact> 0.16393940E+02</totfact>
</mgrwt>
</event>
<event>
 4      0 +8.0132550e-03 5.36421600e+02 7.54677100e-03 1.00468700e-01
       21 -1    0    0  501  502 +0.0000000000e+00 +0.0000000000e+00 +5.0869715927e+02 5.0869715927e+02 0.0000000000e+00 0.0000e+00 1.0000e+00
       -4 -1    0    0    0  501 -0.0000000000e+00 -0.0000000000e+00 -8.8492819609e+02 8.8492819609e+02 0.0000000000e+00 0.0000e+00 1.0000e+00
       25  1    1    2    0    0 +5.1772991235e+02 -6.3865655265e+01 +2.3878792634e+02 5.8716927528e+02 1.2500000000e+02 0.0000e+00 0.0000e+00
       -4  1    1    2    0  502 -5.1772991235e+02 +6.3865655265e+01 -6.1501896315e+02 8.0645608008e+02 0.0000000000e+00 0.0000e+00 1.0000e+00
<mgrwt>
<rscale>  3 0.53642155E+03</rscale>
<asrwt>0</asrwt>
<pdfrwt beam="1">  1       21 0.78261103E-01 0.53642155E+03</pdfrwt>
<pdfrwt beam="2">  1       -4 0.13614280E+00 0.53642155E+03</pdfrwt>
<totfact> 0.22506801E+01</totfact>
</mgrwt>
</event>
<event>
 4      0 +8.0132550e-03 6.04699200e+02 7.54677100e-03 9.89570400e-02
       21 -1    0    0  503  501 +0.0000000000e+00 +0.0000000000e+00 +3.1150810236e+02 3.1150810236e+02 0.0000000000e+00 0.0000e+00 1.0000e+00
       21 -1    0    0  501  502 -0.0000000000e+00 -0.0000000000e+00 -1.4215600421e+03 1.4215600421e+03 0.0000000000e+00 0.0000e+00 1.0000e+00
       25  1    1    2    0    0 -4.1024955964e+02 -4.2629974051e+02 -1.8024720520e+02 6.3099146185e+02 1.2500000000e+02 0.0000e+00 0.0000e+00
       21  1    1    2  503  502 +4.1024955964e+02 +4.2629974051e+02 -9.2980473450e+02 1.1020766826e+03 0.0000000000e+00 0.0000e+00 1.0000e+00
<mgrwt>
<rscale>  3 0.60469924E+03</rscale>
<asrwt>0</asrwt>
<pdfrwt beam="1">  1       21 0.47924324E-01 0.60469924E+03</pdfrwt>
<pdfrwt beam="2">  1       21 0.21870154E+00 0.60469924E+03</pdfrwt>
<totfact> 0.32357357E+02</totfact>
</mgrwt>
</event>
<event>
 4      0 +8.0132550e-03 5.83219700e+02 7.54677100e-03 9.94084500e-02
       21 -1    0    0  501  502 +0.0000000000e+00 +0.0000000000e+00 +1.5566427934e+03 1.5566427934e+03 0.0000000000e+00 0.0000e+00 -1.0000e+00
       -4 -1    0    0    0  501 -0.0000000000e+00 -0.0000000000e+00 -7.3837727117e+02 7.3837727117e+02 0.0000000000e+00 0.0000e+00 1.0000e+00
       25  1    1    2    0    0 +4.7575526992e+02 -3.1333224400e+02 +1.3780267293e+03 1.4963632041e+03 1.2500000000e+02 0.0000e+00 0.0000e+00
       -4  1    1    2    0  502 -4.7575526992e+02 +3.1333224400e+02 -5.5976120700e+02 7.9865686051e+02 0.0000000000e+00 0.0000e+00 1.0000e+00
<mgrwt>
<rscale>  3 0.58321966E+03</rscale>
<asrwt>0</asrwt>
<pdfrwt beam="1">  1       21 0.23948351E+00 0.58321966E+03</pdfrwt>
<pdfrwt beam="2">  1       -4 0.11359650E+00 0.58321966E+03</pdfrwt>
<totfact> 0.16584524E+00</totfact>
</mgrwt>
</event>
<event>
 4      0 +8.0132550e-03 5.10342600e+02 7.54677100e-03 1.01111400e-01
       21 -1    0    0  502  501 +0.0000000000e+00 +0.0000000000e+00 +4.7791547427e+02 4.7791547427e+02 0.0000000000e+00 0.0000e+00 1.0000e+00
       21 -1    0    0  503  502 -0.0000000000e+00 -0.0000000000e+00 -5.3050313104e+02 5.3050313104e+02 0.0000000000e+00 0.0000e+00 -1.0000e+00
       25  1    1    2    0    0 +2.0354005152e+02 +4.5099444041e+02 +4.3077715271e+00 5.1036074962e+02 1.2500000000e+02 0.0000e+00 0.0000e+00
       21  1    1    2  503  501 -2.0354005152e+02 -4.5099444041e+02 -5.6895428294e+01 4.9805785569e+02 0.0000000000e+00 0.0000e+00 -1.0000e+00
<mgrwt>
<rscale>  3 0.51034257E+03</rscale>
<asrwt>0</asrwt>
<pdfrwt beam="1">  1       21 0.73525458E-01 0.51034257E+03</pdfrwt>
<pdfrwt beam="2">  1       21 0.81615866E-01 0.51034257E+03</pdfrwt>
<totfact> 0.18439091E+03</totfact>
</mgrwt>
</event>
<event>
 4      0 +8.0132550e-03 4.94977200e+02 7.54677100e-03 1.01509800e-01
       21 -1    0    0  501  502 +0.0000000000e+00 +0.0000000000e+00 +2.7862914394e+02 2.7862914394e+02 0.0000000000e+00 0.0000e+00 -1.0000e+00
        2 -1    0    0  502    0 -0.0000000000e+00 -0.0000000000e+00 -1.3360313819e+03 1.3360313819e+03 0.0000000000e+00 0.0000e+00 -1.0000e+00
       25  1    1    2    0    0 -3.8550501102e+02 -2.8418889663e+02 -4.7874617542e+01 4.9728706146e+02 1.2500000000e+02 0.0000e+00 0.0000e+00
        2  1    1    2  501    0 +3.8550501102e+02 +2.8418889663e+02 -1.0095276204e+03 1.1173734644e+03 0.0000000000e+00 0.0000e+00 -1.0000e+00
<mgrwt>
<rscale>  3 0.49497721E+03</rscale>
<asrwt>0</asrwt>
<pdfrwt beam="1">  1       21 0.42866023E-01 0.49497721E+03</pdfrwt>
<pdfrwt beam="2">  1        2 0.20554329E+00 0.49497721E+03</pdfrwt>
<totfact> 0.10026405E+03</totfact>
</mgrwt>
</event>
<event>
 4      0 +8.0132550e-03 6.86083100e+02 7.54677100e-03 9.74133200e-02
       21 -1    0    0  501  502 +0.0000000000e+00 +0.0000000000e+00 +1.9220729067e+02 1.9220729067e+02 0.0000000000e+00 0.0000e+00 -1.0000e+00
        1 -1    0    0  502    0 -0.0000000000e+00 -0.0000000000e+00 -2.4305715349e+03 2.4305715349e+03 0.0000000000e+00 0.0000e+00 -1.0000e+00
       25  1    1    2    0    0 -4.9542668951e+02 +4.5786180618e+02 -1.0025996365e+03 1.2148728614e+03 1.2500000000e+02 0.0000e+00 0.0000e+00
        1  1    1    2  501    0 +4.9542668951e+02 -4.5786180618e+02 -1.2357646077e+03 1.4079059641e+03 0.0000000000e+00 0.0000e+00 -1.0000e+00
<mgrwt>
<rscale>  3 0.68608311E+03</rscale>
<asrwt>0</asrwt>
<pdfrwt beam="1">  1       21 0.29570353E-01 0.68608311E+03</pdfrwt>
<pdfrwt beam="2">  1        1 0.37393407E+00 0.68608311E+03</pdfrwt>
<totfact> 0.18073071E+02</totfact>
</mgrwt>
</event>
<event>
 4      0 +8.0132550e-03 6.03483900e+02 7.54677100e-03 9.89820400e-02
       21 -1    0    0  502  501 +0.0000000000e+00 +0.0000000000e+00 +8.1516463896e+02 8.1516463896e+02 0.0000000000e+00 0.0000e+00 1.0000e+00
       21 -1    0    0  503  502 -0.0000000000e+00 -0.0000000000e+00 -7.2795208686e+02 7.2795208686e+02 0.0000000000e+00 0.0000e+00 1.0000e+00
       25  1    1    2    0    0 +4.9097012160e+02 +3.2789658537e+02 +5.3154666775e+02 8.0419816649e+02 1.2500000000e+02 0.0000e+00 0.0000e+00
       21  1    1    2  503  501 -4.9097012160e+02 -3.2789658537e+02 -4.4433411565e+02 7.3891855933e+02 0.0000000000e+00 0.0000e+00 1.0000e+00
<mgrwt>
<rscale>  3 0.60348391E+03</rscale>
<asrwt>0</asrwt>
<pdfrwt beam="1">  1       21 0.12540994E+00 0.60348391E+03</pdfrwt>
<pdfrwt beam="2">  1       21 0.11199263E+00 0.60348391E+03</pdfrwt>
<totfact> 0.22780144E+02</totfact>
</mgrwt>
</event>
<event>
 4      0 +8.0132550e-03 5.39923700e+02 7.54677100e-03 1.00385300e-01
        2 -1    0    0  502    0 -0.0000000000e+00 +0.0000000000e+00 +1.9543936212e+03 1.9543936212e+03 0.0000000000e+00 0.0000e+00 -1.0000e+00
       21 -1    0    0  501  502 +0.0000000000e+00 -0.0000000000e+00 -1.6287485726e+02 1.6287485726e+02 0.0000000000e+00 0.0000e+00 1.0000e+00
       25  1    1    2    0    0 +4.4898804165e+02 -2.7258453994e+02 +5.5740631171e+02 7.7602795652e+02 1.2500000000e+02 0.0000e+00 0.0000e+00
        2  1    1    2  501    0 -4.4898804165e+02 +2.7258453994e+02 +1.2341124522e+03 1.3412405219e+03 0.0000000000e+00 0.0000e+00 -1.0000e+00
<mgrwt>
<rscale>  3 0.53992369E+03</rscale>
<asrwt>0</asrwt>
<pdfrwt beam="1">  1       21 0.25057672E-01 0.53992369E+03</pdfrwt>
<pdfrwt beam="2">  1        2 0.30067592E+00 0.53992369E+03</pdfrwt>
<totfact> 0.13469803E+03</totfact>
</mgrwt>
</event>
<event>
 4      0 +8.0132550e-03 6.70267900e+02 7.54677100e-03 9.76947400e-02
       21 -1    0    0  502  501 +0.0000000000e+00 +0.0000000000e+00 +1.0667060387e+03 1.0667060387e+03 0.0000000000e+00 0.0000e+00 1.0000e+00
       21 -1    0    0  503  502 -0.0000000000e+00 -0.0000000000e+00 -4.2787553646e+02 4.2787553646e+02 0.0000000000e+00 0.0000e+00 1.0000e+00
       25  1    1    2    0    0 -6.4314185373e+02 -1.4143078134e+02 +4.5764155258e+02 8.1160020982e+02 1.2500000000e+02 0.0000e+00 0.0000e+00
       21  1    1    2  503  501 +6.4314185373e+02 +1.4143078134e+02 +1.8118894965e+02 6.8298136534e+02 0.0000000000e+00 0.0000e+00 1.0000e+00
<mgrwt>
<rscale>  3 0.67026794E+03</rscale>
<asrwt>0</asrwt>
<pdfrwt beam="1">  1       21 0.16410862E+00 0.67026794E+03</pdfrwt>
<pdfrwt beam="2">  1       21 0.65827006E-01 0.67026794E+03</pdfrwt>
<totfact> 0.37868210E+02</totfact>
</mgrwt>
</event>
<event>
 4      0 +8.0132550e-03 6.90956200e+02 7.54677100e-03 9.73282500e-02
       21 -1    0    0  503  501 +0.0000000000e+00 +0.0000000000e+00 +7.6231124522e+02 7.6231124522e+02 0.0000000000e+00 0.0000e+00 -1.0000e+00
       21 -1    0    0  501  502 -0.0000000000e+00 -0.0000000000e+00 -2.2493657955e+03 2.2493657955e+03 0.0000000000e+00 0.0000e+00 -1.0000e+00
       25  1    1    2    0    0 -6.6767444037e+02 +1.2651590665e+02 -2.0284005998e+03 2.1428554375e+03 1.2500000000e+02 0.0000e+00 0.0000e+00
       21  1    1    2  503  502 +6.6767444037e+02 -1.2651590665e+02 +5.4134604946e+02 8.6882160323e+02 0.0000000000e+00 0.0000e+00 -1.0000e+00
<mgrwt>
<rscale>  3 0.69095617E+03</rscale>
<asrwt>0</asrwt>
<pdfrwt beam="1">  1       21 0.11727865E+00 0.69095617E+03</pdfrwt>
<pdfrwt beam="2">  1       21 0.34605628E+00 0.69095617E+03</pdfrwt>
<totfact> 0.63759843E+00</totfact>
</mgrwt>
</event>
<event>
 4      0 +8.0132550e-03 5.62000900e+02 7.54677100e-03 9.98753700e-02
       21 -1    0    0  501  502 +0.0000000000e+00 +0.0000000000e+00 +9.5604466307e+02 9.5604466307e+02 0.0000000000e+00 0.0000e+00 1.0000e+00
       -4 -1    0    0    0  501 -0.0000000000e+00 -0.0000000000e+00 -9.2995758103e+02 9.2995758103e+02 0.0000000000e+00 0.0000e+00 1.0000e+00
       25  1    1    2    0    0 +1.0577648919e+02 +5.3761635645e+02 +7.7545039116e+02 9.5768905264e+02 1.2500000000e+02 0.0000e+00 0.0000e+00
       -4  1    1    2    0  502 -1.0577648919e+02 -5.3761635645e+02 -7.4936330912e+02 9.2831319146e+02 0.0000000000e+00 0.0000e+00 1.0000e+00
<mgrwt>
<rscale>  3 0.56200090E+03</rscale>
<asrwt>0</asrwt>
<pdfrwt beam="1">  1       21 0.14708379E+00 0.56200090E+03</pdfrwt>
<pdfrwt beam="2">  1       -4 0.14307040E+00 0.56200090E+03</pdfrwt>
<totfact> 0.40852716E+00</totfact>
</mgrwt>
</event>
<event>
 4      0 +8.0132550e-03 4.82412500e+02 7.54677100e-03 1.01847400e-01
       21 -1    0    0  502  501 +0.0000000000e+00 +0.0000000000e+00 +1.1585661507e+03 1.1585661507e+03 0.0000000000e+00 0.0000e+00 -1.0000e+00
       21 -1    0    0  503  502 -0.0000000000e+00 -0.0000000000e+00 -6.3842994569e+02 6.3842994569e+02 0.0000000000e+00 0.0000e+00 -1.0000e+00
       25  1    1    2    0    0 -3.9551736367e+02 +2.4629836152e+02 +1.0110054226e+03 1.1202025854e+03 1.2500000000e+02 0.0000e+00 0.0000e+00
       21  1    1    2  503  501 +3.9551736367e+02 -2.4629836152e+02 -4.9086921752e+02 6.7679351102e+02 0.0000000000e+00 0.0000e+00 -1.0000e+00
<mgrwt>
<rscale>  3 0.48241255E+03</rscale>
<asrwt>0</asrwt>
<pdfrwt beam="1">  1       21 0.17824095E+00 0.48241255E+03</pdfrwt>
<pdfrwt beam="2">  1       21 0.98219991E-01 0.48241255E+03</pdfrwt>
<totfact> 0.12666420E+02</totfact>
</mgrwt>
</event>
<event>
 4      0 +8.0132550e-03 4.85618400e+02 7.54677100e-03 1.01760200e-01
        1 -1    0    0  502    0 -0.0000000000e+00 +0.0000000000e+00 +6.1985048038e+02 6.1985048038e+02 0.0000000000e+00 0.0000e+00 1.0000e+00
       21 -1    0    0  501  502 +0.0000000000e+00 -0.0000000000e+00 -3.6856922867e+02 3.6856922867e+02 0.0000000000e+00 0.0000e+00 1.0000e+00
       25  1    1    2    0    0 +1.8691980927e+02 -4.3041985268e+02 +1.0439645242e+02 4.9671308011e+02 1.2500000000e+02 0.0000e+00 0.0000e+00
        1  1    1    2  501    0 -1.8691980927e+02 +4.3041985268e+02 +1.4688479929e+02 4.9170662893e+02 0.0000000000e+00 0.0000e+00 1.0000e+00
<mgrwt>
<rscale>  3 0.48561844E+03</rscale>
<asrwt>0</asrwt>
<pdfrwt beam="1">  1       21 0.56702958E-01 0.48561844E+03</pdfrwt>
<pdfrwt beam="2">  1        1 0.95361612E-01 0.48561844E+03</pdfrwt>
<totfact> 0.99116225E+02</totfact>
</mgrwt>
</event>
<event>
 4      0 +8.0132550e-03 4.91734800e+02 7.54677100e-03 1.01595900e-01
       21 -1    0    0  502  501 +0.0000000000e+00 +0.0000000000e+00 +1.7622550054e+02 1.7622550054e+02 0.0000000000e+00 0.0000e+00 1.0000e+00
       21 -1    0    0  503  502 -0.0000000000e+00 -0.0000000000e+00 -1.3698718881e+03 1.3698718881e+03 0.0000000000e+00 0.0000e+00 1.0000e+00
       25  1    1    2    0    0 -2.9302199638e+02 +3.7458810571e+02 -4.7041372398e+02 6.8050878834e+02 1.2500000000e+02 0.0000e+00 0.0000e+00
       21  1    1    2  503  501 +2.9302199638e+02 -3.7458810571e+02 -7.2323266358e+02 8.6558860030e+02 0.0000000000e+00 0.0000e+00 1.0000e+00
<mgrwt>
<rscale>  3 0.49173483E+03</rscale>
<asrwt>0</asrwt>
<pdfrwt beam="1">  1       21 0.27111615E-01 0.49173483E+03</pdfrwt>
<pdfrwt beam="2">  1       21 0.21074953E+00 0.49173483E+03</pdfrwt>
<totfact> 0.12206815E+03</totfact>
</mgrwt>
</event>
<event>
 4      0 +8.0132550e-03 6.00255200e+02 7.54677100e-03 9.90487700e-02
       21 -1    0    0  502  501 +0.0000000000e+00 +0.0000000000e+00 +1.4522067638e+03 1.4522067638e+03 0.0000000000e+00 0.0000e+00 1.0000e+00
       21 -1    0    0  503  502 -0.0000000000e+00 -0.0000000000e+00 -7.4176412443e+02 7.4176412443e+02 0.0000000000e+00 0.0000e+00 -1.0000e+00
       25  1    1    2    0    0 +5.7485337398e+02 +1.1926831881e+02 -5.4327276792e+02 8.0959967504e+02 1.2500000000e+02 0.0000e+00 0.0000e+00
       21  1    1    2  503  501 -5.7485337398e+02 -1.1926831881e+02 +1.2537154073e+03 1.3843712132e+03 0.0000000000e+00 0.0000e+00 1.0000e+00
<mgrwt>
<rscale>  3 0.60025522E+03</rscale>
<asrwt>0</asrwt>
<pdfrwt beam="1">  1       21 0.22341643E+00 0.60025522E+03</pdfrwt>
<pdfrwt beam="2">  1       21 0.11411756E+00 0.60025522E+03</pdfrwt>
<totfact> 0.40978217E+01</totfact>
</mgrwt>
</event>
<event>
 4      0 +8.0132550e-03 6.06332100e+02 7.54677100e-03 9.89235500e-02
       21 -1    0    0  501  502 +0.0000000000e+00 +0.0000000000e+00 +8.3244137503e+02 8.3244137503e+02 0.0000000000e+00 0.0000e+00 1.0000e+00
        1 -1    0    0  502    0 -0.0000000000e+00 -0.0000000000e+00 -7.2117669967e+02 7.2117669967e+02 0.0000000000e+00 0.0000e+00 1.0000e+00
       25  1    1    2    0    0 -2.1476580531e+02 -5.5307254398e+02 +5.4770227003e+02 8.1707794404e+02 1.2500000000e+02 0.0000e+00 0.0000e+00
        1  1    1    2  501    0 +2.1476580531e+02 +5.5307254398e+02 -4.3643759467e+02 7.3654013066e+02 0.0000000000e+00 0.0000e+00 1.0000e+00
<mgrwt>
<rscale>  3 0.60633208E+03</rscale>
<asrwt>0</asrwt>
<pdfrwt beam="1">  1       21 0.12806790E+00 0.60633208E+03</pdfrwt>
<pdfrwt beam="2">  1        1 0.11095026E+00 0.60633208E+03</pdfrwt>
<totfact> 0.11220570E+02</totfact>
</mgrwt>
</event>
<event>
 4      0 +8.0132550e-03 6.88185100e+02 7.54677100e-03 9.73765300e-02
       21 -1    0    0  503  501 +0.0000000000e+00 +0.0000000000e+00 +3.7276168320e+02 3.7276168320e+02 0.0000000000e+00 0.0000e+00 1.0000e+00
       21 -1    0    0  501  502 -0.0000000000e+00 -0.0000000000e+00 -1.5151591366e+03 1.5151591366e+03 0.0000000000e+00 0.0000e+00 -1.0000e+00
       25  1    1    2    0    0 +3.0302355582e+02 -6.0510364479e+02 -9.7042613034e+02 1.1896745651e+03 1.2500000000e+02 0.0000e+00 0.0000e+00
       21  1    1    2  503  502 -3.0302355582e+02 +6.0510364479e+02 -1.7197132307e+02 6.9824625475e+02 0.0000000000e+00 0.0000e+00 1.0000e+00
<mgrwt>
<rscale>  3 0.68818507E+03</rscale>
<asrwt>0</asrwt>
<pdfrwt beam="1">  1       21 0.57347952E-01 0.68818507E+03</pdfrwt>
<pdfrwt beam="2">  1       21 0.23310140E+00 0.68818507E+03</pdfrwt>
<totfact> 0.17208019E+02</totfact>
</mgrwt>
</event>
<event>
 4      0 +8.0132550e-03 4.92376600e+02 7.54677100e-03 1.01578800e-01
       21 -1    0    0  501  502 +0.0000000000e+00 +0.0000000000e+00 +1.1557868723e+02 1.1557868723e+02 0.0000000000e+00 0.0000e+00 -1.0000e+00
        2 -1    0    0  502    0 -0.0000000000e+00 -0.0000000000e+00 -2.3449791783e+03 2.3449791783e+03 0.0000000000e+00 0.0000e+00 1.0000e+00
       25  1    1    2    0    0 -3.9886137743e+02 +2.6022927561e+02 -6.7950706942e+02 8.3914511957e+02 1.2500000000e+02 0.0000e+00 0.0000e+00
        2  1    1    2  501    0 +3.9886137743e+02 -2.6022927561e+02 -1.5498934217e+03 1.6214127460e+03 0.0000000000e+00 0.0000e+00 1.0000e+00
<mgrwt>
<rscale>  3 0.49237656E+03</rscale>
<asrwt>0</asrwt>
<pdfrwt beam="1">  1       21 0.17781335E-01 0.49237656E+03</pdfrwt>
<pdfrwt beam="2">  1        2 0.36076606E+00 0.49237656E+03</pdfrwt>
<totfact> 0.16143509E+03</totfact>
</mgrwt>
</event>
<event>
 4      0 +8.0132550e-03 4.68092000e+02 7.54677100e-03 1.02246000e-01
       21 -1    0    0  501  502 +0.0000000000e+00 +0.0000000000e+00 +1.2229474113e+03 1.2229474113e+03 0.0000000000e+00 0.0000e+00 1.0000e+00
       -4 -1    0    0    0  501 -0.0000000000e+00 -0.0000000000e+00 -3.7507102472e+02 3.7507102472e+02 0.0000000000e+00 0.0000e+00 1.0000e+00
       25  1    1    2    0    0 -4.9706856676e+01 -4.4834624514e+02 +1.0143826119e+03 1.1171759980e+03 1.2500000000e+02 0.0000e+00 0.0000e+00
       -4  1    1    2    0  502 +4.9706856676e+01 +4.4834624514e+02 -1.6650622534e+02 4.8084243803e+02 0.0000000000e+00 0.0000e+00 1.0000e+00
<mgrwt>
<rscale>  3 0.46809201E+03</rscale>
<asrwt>0</asrwt>
<pdfrwt beam="1">  1       21 0.18814575E+00 0.46809201E+03</pdfrwt>
<pdfrwt beam="2">  1       -4 0.57703235E-01 0.46809201E+03</pdfrwt>
<totfact> 0.17446516E+01</totfact>
</mgrwt>
</event>
<event>
 4      0 +8.0132550e-03 5.31956000e+02 7.54677100e-03 1.00575900e-01
       21 -1    0    0  501  502 +0.0000000000e+00 +0.0000000000e+00 +3.9472828181e+02 3.9472828181e+02 0.0000000000e+00 0.0000e+00 1.0000e+00
        1 -1    0    0  502    0 -0.0000000000e+00 -0.0000000000e+00 -1.5987381710e+03 1.5987381710e+03 0.0000000000e+00 0.0000e+00 -1.0000e+00
       25  1    1    2    0    0 +3.5057665947e+02 -3.8006345103e+02 +1.4281967713e+02 5.5079459071e+02 1.2500000000e+02 0.0000e+00 0.0000e+00
        1  1    1    2  501    0 -3.5057665947e+02 +3.8006345103e+02 -1.3468295664e+03 1.4426718621e+03 0.0000000000e+00 0.0000e+00 -1.0000e+00
<mgrwt>
<rscale>  3 0.53195603E+03</rscale>
<asrwt>0</asrwt>
<pdfrwt beam="1">  1       21 0.60727427E-01 0.53195603E+03</pdfrwt>
<pdfrwt beam="2">  1        1 0.24595972E+00 0.53195603E+03</pdfrwt>
<totfact> 0.14990293E+02</totfact>
</mgrwt>
</event>
<event>
 4      0 +8.0132550e-03 6.18634000e+02 7.54677100e-03 9.86748300e-02
       21 -1    0    0  502  501 +0.0000000000e+00 +0.0000000000e+00 +2.9617904978e+02 2.9617904978e+02 0.0000000000e+00 0.0000e+00 -1.0000e+00
       21 -1    0    0  503  502 -0.0000000000e+00 -0.0000000000e+00 -1.2736569561e+03 1.2736569561e+03 0.0000000000e+00 0.0000e+00 1.0000e+00
       25  1    1    2    0    0 +1.8189857301e+02 +5.7792381419e+02 -4.3151364871e+02 7.5426259015e+02 1.2500000000e+02 0.0000e+00 0.0000e+00
       21  1    1    2  503  501 -1.8189857301e+02 -5.7792381419e+02 -5.4596425762e+02 8.1557341575e+02 0.0000000000e+00 0.0000e+00 1.0000e+00
<mgrwt>
<rscale>  3 0.61863400E+03</rscale>
<asrwt>0</asrwt>
<pdfrwt beam="1">  1       21 0.45566009E-01 0.61863400E+03</pdfrwt>
<pdfrwt beam="2">  1       21 0.19594722E+00 0.61863400E+03</pdfrwt>
<totfact> 0.50761813E+02</totfact>
</mgrwt>
</event>
<event>
 4      0 +8.0132550e-03 4.96222300e+02 7.54677100e-03 1.01477000e-01
       21 -1    0    0  501  502 +0.0000000000e+00 +0.0000000000e+00 +4.1804243566e+02 4.1804243566e+02 0.0000000000e+00 0.0000e+00 -1.0000e+00
        2 -1    0    0  502    0 -0.0000000000e+00 -0.0000000000e+00 -7.4115062198e+02 7.4115062198e+02 0.0000000000e+00 0.0000e+00 1.0000e+00
       25  1    1    2    0    0 -4.6868113493e+02 +1.0464013529e+02 +1.1475609832e+02 5.0931868831e+02 1.2500000000e+02 0.0000e+00 0.0000e+00
        2  1    1    2  501    0 +4.6868113493e+02 -1.0464013529e+02 -4.3786428463e+02 6.4987436933e+02 0.0000000000e+00 0.0000e+00 1.0000e+00
<mgrwt>
<rscale>  3 0.49622229E+03</rscale>
<asrwt>0</asrwt>
<pdfrwt beam="1">  1       21 0.64314221E-01 0.49622229E+03</pdfrwt>
<pdfrwt beam="2">  1        2 0.11402317E+00 0.49622229E+03</pdfrwt>
<totfact> 0.99262975E+02</totfact>
</mgrwt>
</event>
<event>
 4      0 +8.0132550e-03 4.68099100e+02 7.54677100e-03 1.02245800e-01
       21 -1    0    0  503  501 +0.0000000000e+00 +0.0000000000e+00 +1.7474586074e+02 1.7474586074e+02 0.0000000000e+00 0.0000e+00 -1.0000e+00
       21 -1    0    0  501  502 -0.0000000000e+00 -0.0000000000e+00 -1.4860761187e+03 1.4860761187e+03 0.0000000000e+00 0.0000e+00 -1.0000e+00
       25  1    1    2    0    0 -1.3952016894e+01 -4.5088482471e+02 -1.0241785390e+03 1.1260810201e+03 1.2500000000e+02 0.0000e+00 0.0000e+00
       21  1    1    2  503  502 +1.3952016894e+01 +4.5088482471e+02 -2.8715171887e+02 5.3474095932e+02 0.0000000000e+00 0.0000e+00 -1.0000e+00
<mgrwt>
<rscale>  3 0.46809912E+03</rscale>
<asrwt>0</asrwt>
<pdfrwt beam="1">  1       21 0.26883980E-01 0.46809912E+03</pdfrwt>
<pdfrwt beam="2">  1       21 0.22862708E+00 0.46809912E+03</pdfrwt>
<totfact> 0.96291444E+02</totfact>
</mgrwt>
</event>
<event>
 4      0 +8.0132550e-03 5.57135100e+02 7.54677100e-03 9.99855800e-02
       21 -1    0    0  503  501 +0.0000000000e+00 +0.0000000000e+00 +2.6719663549e+02 2.6719663549e+02 0.0000000000e+00 0.0000e+00 1.0000e+00
       21 -1    0    0  501  502 -0.0000000000e+00 -0.0000000000e+00 -1.3626102349e+03 1.3626102349e+03 0.0000000000e+00 0.0000e+00 1.0000e+00
       25  1    1    2    0    0 +4.7007951456e+02 -2.7166108727e+02 -8.8861244107e+02 1.0488238969e+03 1.2500000000e+02 0.0000e+00 0.0000e+00
       21  1    1    2  503  502 -4.7007951456e+02 +2.7166108727e+02 -2.0680115831e+02 5.8098297344e+02 0.0000000000e+00 0.0000e+00 1.0000e+00
<mgrwt>
<rscale>  3 0.55713508E+03</rscale>
<asrwt>0</asrwt>
<pdfrwt beam="1">  1       21 0.41107176E-01 0.55713508E+03</pdfrwt>
<pdfrwt beam="2">  1       21 0.20963234E+00 0.55713508E+03</pdfrwt>
<totfact> 0.52170349E+02</totfact>
</mgrwt>
</event>
<event>
 4      0 +8.0132550e-03 4.79137000e+02 7.54677100e-03 1.01937300e-01
       21 -1    0    0  503  501 +0.0000000000e+00 +0.0000000000e+00 +2.2142472291e+02 2.2142472291e+02 0.0000000000e+00 0.0000e+00 -1.0000e+00
       21 -1    0    0  501  502 -0.0000000000e+00 -0.0000000000e+00 -1.0625827210e+03 1.0625827210e+03 0.0000000000e+00 0.0000e+00 -1.0000e+00
       25  1    1    2    0    0 -3.4204644348e+02 -3.1137027773e+02 -2.7328206377e+02 5.5159342430e+02 1.2500000000e+02 0.0000e+00 0.0000e+00
       21  1    1    2  503  502 +3.4204644348e+02 +3.1137027773e+02 -5.6787593434e+02 7.3241401963e+02 0.0000000000e+00 0.0000e+00 -1.0000e+00
<mgrwt>
<rscale>  3 0.47913695E+03</rscale>
<asrwt>0</asrwt>
<pdfrwt beam="1">  1       21 0.34065342E-01 0.47913695E+03</pdfrwt>
<pdfrwt beam="2">  1       21 0.16347426E+00 0.47913695E+03</pdfrwt>
<totfact> 0.16580408E+03</totfact>
</mgrwt>
</event>
<event>
 4      0 +8.0132550e-03 4.70599000e+02 7.54677100e-03 1.02175100e-01
       21 -1    0    0  501  502 +0.0000000000e+00 +0.0000000000e+00 +1.2955602270e+02 1.2955602270e+02 0.0000000000e+00 0.0000e+00 1.0000e+00
        2 -1    0    0  502    0 -0.0000000000e+00 -0.0000000000e+00 -3.7666541430e+03 3.7666541430e+03 0.0000000000e+00 0.0000e+00 1.0000e+00
       25  1    1    2    0    0 +4.2962696950e+02 +1.4580479739e+02 -3.7235405457e+02 6.0009242106e+02 1.2500000000e+02 0.0000e+00 0.0000e+00
        2  1    1    2  501    0 -4.2962696950e+02 -1.4580479739e+02 -3.2647440657e+03 3.2961177446e+03 0.0000000000e+00 0.0000e+00 1.0000e+00
<mgrwt>
<rscale>  3 0.47059895E+03</rscale>
<asrwt>0</asrwt>
<pdfrwt beam="1">  1       21 0.19931696E-01 0.47059895E+03</pdfrwt>
<pdfrwt beam="2">  1        2 0.57948523E+00 0.47059895E+03</pdfrwt>
<totfact> 0.17263493E+02</totfact>
</mgrwt>
</event>
<event>
 4      0 +8.0132550e-03 6.27026900e+02 7.54677100e-03 9.85086800e-02
        2 -1    0    0  502    0 -0.0000000000e+00 +0.0000000000e+00 +1.3130034655e+03 1.3130034655e+03 0.0000000000e+00 0.0000e+00 1.0000e+00
       21 -1    0    0  501  502 +0.0000000000e+00 -0.0000000000e+00 -3.5171545780e+02 3.5171545780e+02 0.0000000000e+00 0.0000e+00 1.0000e+00
       25  1    1    2    0    0 -5.6819087116e+02 +2.3387354804e+02 +1.4596334979e+02 6.4379189342e+02 1.2500000000e+02 0.0000e+00 0.0000e+00
        2  1    1    2  501    0 +5.6819087116e+02 -2.3387354804e+02 +8.1532465795e+02 1.0209270299e+03 0.0000000000e+00 0.0000e+00 1.0000e+00
<mgrwt>
<rscale>  3 0.62702688E+03</rscale>
<asrwt>0</asrwt>
<pdfrwt beam="1">  1       21 0.54110071E-01 0.62702688E+03</pdfrwt>
<pdfrwt beam="2">  1        2 0.20200053E+00 0.62702688E+03</pdfrwt>
<totfact> 0.61177396E+02</totfact>
</mgrwt>
</event>
<event>
 4      0 +8.0132550e-03 4.93583800e+02 7.54677100e-03 1.01546700e-01
       21 -1    0    0  502  501 +0.0000000000e+00 +0.0000000000e+00 +6.3944784609e+02 6.3944784609e+02 0.0000000000e+00 0.0000e+00 -1.0000e+00
       21 -1    0    0  503  502 -0.0000000000e+00 -0.0000000000e+00 -3.7370485771e+02 3.7370485771e+02 0.0000000000e+00 0.0000e+00 -1.0000e+00
       25  1    1    2    0    0 -1.5614189520e+02 -4.5124236586e+02 +7.6274725934e+01 4.9944248718e+02 1.2500000000e+02 0.0000e+00 0.0000e+00
       21  1    1    2  503  501 +1.5614189520e+02 +4.5124236586e+02 +1.8946826245e+02 5.1371021662e+02 0.0000000000e+00 0.0000e+00 -1.0000e+00
<mgrwt>
<rscale>  3 0.49358380E+03</rscale>
<asrwt>0</asrwt>
<pdfrwt beam="1">  1       21 0.98376591E-01 0.49358380E+03</pdfrwt>
<pdfrwt beam="2">  1       21 0.57493055E-01 0.49358380E+03</pdfrwt>
<totfact> 0.20591790E+03</totfact>
</mgrwt>
</event>
<event>
 4      0 +8.0132550e-03 4.68235600e+02 7.54677100e-03 1.02241900e-01
       21 -1    0    0  502  501 +0.0000000000e+00 +0.0000000000e+00 +5.5820050436e+02 5.5820050436e+02 0.0000000000e+00 0.0000e+00 -1.0000e+00
       21 -1    0    0  503  502 -0.0000000000e+00 -0.0000000000e+00 -3.8370707027e+02 3.8370707027e+02 0.0000000000e+00 0.0000e+00 -1.0000e+00
       25  1    1    2    0    0 -4.2102069627e+02 +1.6236129631e+02 +1.4292105644e+02 4.8956209576e+02 1.2500000000e+02 0.0000e+00 0.0000e+00
       21  1    1    2  503  501 +4.2102069627e+02 -1.6236129631e+02 +3.1572377655e+01 4.5234547887e+02 0.0000000000e+00 0.0000e+00 -1.0000e+00
<mgrwt>
<rscale>  3 0.46823564E+03</rscale>
<asrwt>0</asrwt>
<pdfrwt beam="1">  1       21 0.85877001E-01 0.46823564E+03</pdfrwt>
<pdfrwt beam="2">  1       21 0.59031857E-01 0.46823564E+03</pdfrwt>
<totfact> 0.27109733E+03</totfact>
</mgrwt>
</event>
<event>
 4      0 +8.0132550e-03 5.08219400e+02 7.54677100e-03 1.01165600e-01
       21 -1    0    0  503  501 +0.0000000000e+00 +0.0000000000e+00 +1.4212285116e+03 1.4212285116e+03 0.0000000000e+00 0.0000e+00 1.0000e+00
       21 -1    0    0  501  502 -0.0000000000e+00 -0.0000000000e+00 -1.7933491383e+02 1.7933491383e+02 0.0000000000e+00 0.0000e+00 1.0000e+00
       25  1    1    2    0    0 +4.9228426910e+02 -1.7835610815e+01 +5.2458404231e+02 7.3039395402e+02 1.2500000000e+02 0.0000e+00 0.0000e+00
       21  1    1    2  503  502 -4.9228426910e+02 +1.7835610815e+01 +7.1730955542e+02 8.7016947138e+02 0.0000000000e+00 0.0000e+00 1.0000e+00
<mgrwt>
<rscale>  3 0.50821935E+03</rscale>
<asrwt>0</asrwt>
<pdfrwt beam="1">  1       21 0.21865053E+00 0.50821935E+03</pdfrwt>
<pdfrwt beam="2">  1       21 0.27589988E-01 0.50821935E+03</pdfrwt>
<totfact> 0.10408835E+03</totfact>
</mgrwt>
</event>
<event>
 4      0 +8.0132550e-03 9.24741900e+02 7.54677100e-03 9.39517100e-02
       21 -1    0    0  503  501 +0.0000000000e+00 +0.0000000000e+00 +7.1956496206e+02 7.1956496206e+02 0.0000000000e+00 0.0000e+00 1.0000e+00
       21 -1    0    0  501  502 -0.0000000000e+00 -0.0000000000e+00 -2.9710573689e+02 2.9710573689e+02 0.0000000000e+00 0.0000e+00 1.0000e+00
       25  1    1    2    0    0 -4.4210673587e+02 +9.9093221767e+01 +1.8462298033e+02 5.0496383769e+02 1.2500000000e+02 0.0000e+00 0.0000e+00
       21  1    1    2  503  502 +4.4210673587e+02 -9.9093221767e+01 +2.3783624484e+02 5.1170686127e+02 0.0000000000e+00 0.0000e+00 -1.0000e+00
<mgrwt>
<rscale>  3 0.92474186E+03</rscale>
<asrwt>0</asrwt>
<pdfrwt beam="1">  1       21 0.11070230E+00 0.92474186E+03</pdfrwt>
<pdfrwt beam="2">  1       21 0.45708575E-01 0.92474186E+03</pdfrwt>
<totfact> 0.22728947E+03</totfact>
</mgrwt>
</event>
<event>
 4      0 +8.0132550e-03 5.68030500e+02 7.54677100e-03 9.97404600e-02
       21 -1    0    0  501  502 +0.0000000000e+00 +0.0000000000e+00 +2.2557216512e+02 2.2557216512e+02 0.0000000000e+00 0.0000e+00 -1.0000e+00
        2 -1    0    0  502    0 -0.0000000000e+00 -0.0000000000e+00 -3.2761704352e+03 3.2761704352e+03 0.0000000000e+00 0.0000e+00 -1.0000e+00
       25  1    1    2    0    0 +3.6385397588e+02 -4.1790426464e+02 -2.0686208832e+02 6.0452511425e+02 1.2500000000e+02 0.0000e+00 0.0000e+00
        2  1    1    2  501    0 -3.6385397588e+02 +4.1790426464e+02 -2.8437361818e+03 2.8972174861e+03 0.0000000000e+00 0.0000e+00 -1.0000e+00
<mgrwt>
<rscale>  3 0.56803054E+03</rscale>
<asrwt>0</asrwt>
<pdfrwt beam="1">  1       21 0.34703412E-01 0.56803054E+03</pdfrwt>
<pdfrwt beam="2">  1        2 0.50402619E+00 0.56803054E+03</pdfrwt>
<totfact> 0.12077090E+02</totfact>
</mgrwt>
</event>
<event>
 4      0 +8.0132550e-03 4.80269000e+02 7.54677100e-03 1.01906100e-01
       21 -1    0    0  502  501 +0.0000000000e+00 +0.0000000000e+00 +3.6613580209e+02 3.6613580209e+02 0.0000000000e+00 0.0000e+00 -1.0000e+00
       21 -1    0    0  503  502 -0.0000000000e+00 -0.0000000000e+00 -1.2936753364e+03 1.2936753364e+03 0.0000000000e+00 0.0000e+00 -1.0000e+00
       25  1    1    2    0    0 +4.2713233227e+02 -1.8053045236e+02 -1.0715425810e+03 1.1742494524e+03 1.2500000000e+02 0.0000e+00 0.0000e+00
       21  1    1    2  503  501 -4.2713233227e+02 +1.8053045236e+02 +1.4400304674e+02 4.8556168607e+02 0.0000000000e+00 0.0000e+00 -1.0000e+00
<mgrwt>
<rscale>  3 0.48026896E+03</rscale>
<asrwt>0</asrwt>
<pdfrwt beam="1">  1       21 0.56328585E-01 0.48026896E+03</pdfrwt>
<pdfrwt beam="2">  1       21 0.19902697E+00 0.48026896E+03</pdfrwt>
<totfact> 0.32499139E+02</totfact>
</mgrwt>
</event>
<event>
 4      0 +8.0132550e-03 4.97661200e+02 7.54677100e-03 1.01439100e-01
       21 -1    0    0  501  502 +0.0000000000e+00 +0.0000000000e+00 +3.4738497315e+02 3.4738497315e+02 0.0000000000e+00 0.0000e+00 1.0000e+00
        1 -1    0    0  502    0 -0.0000000000e+00 -0.0000000000e+00 -1.4696614844e+03 1.4696614844e+03 0.0000000000e+00 0.0000e+00 -1.0000e+00
       25  1    1    2    0    0 +1.3546002843e+02 -4.6226858930e+02 +9.6140548048e+01 5.0686257796e+02 1.2500000000e+02 0.0000e+00 0.0000e+00
        1  1    1    2  501    0 -1.3546002843e+02 +4.6226858930e+02 -1.2184170593e+03 1.3101838796e+03 0.0000000000e+00 0.0000e+00 -1.0000e+00
<mgrwt>
<rscale>  3 0.49766120E+03</rscale>
<asrwt>0</asrwt>
<pdfrwt beam="1">  1       21 0.53443842E-01 0.49766120E+03</pdfrwt>
<pdfrwt beam="2">  1        1 0.22610177E+00 0.49766120E+03</pdfrwt>
<totfact> 0.24444453E+02</totfact>
</mgrwt>
</event>
<event>
 4      0 +8.0132550e-03 4.78917700e+02 7.54677100e-03 1.01943300e-01
        2 -1    0    0  502    0 -0.0000000000e+00 +0.0000000000e+00 +1.3296878869e+03 1.3296878869e+03 0.0000000000e+00 0.0000e+00 -1.0000e+00
       21 -1    0    0  501  502 +0.0000000000e+00 -0.0000000000e+00 -5.1751841131e+02 5.1751841131e+02 0.0000000000e+00 0.0000e+00 -1.0000e+00
       25  1    1    2    0    0 +1.9456528261e+02 -4.1938235308e+02 -3.5215501699e+02 5.9445383611e+02 1.2500000000e+02 0.0000e+00 0.0000e+00
        2  1    1    2  501    0 -1.9456528261e+02 +4.1938235308e+02 +1.1643244926e+03 1.2527524621e+03 0.0000000000e+00 0.0000e+00 -1.0000e+00
<mgrwt>
<rscale>  3 0.47891775E+03</rscale>
<asrwt>0</asrwt>
<pdfrwt beam="1">  1       21 0.79618218E-01 0.47891775E+03</pdfrwt>
<pdfrwt beam="2">  1        2 0.20456737E+00 0.47891775E+03</pdfrwt>
<totfact> 0.26176958E+02</totfact>
</mgrwt>
</event>
<event>
 4      0 +8.0132550e-03 7.99694500e+02 7.54677100e-03 9.56045900e-02
       21 -1    0    0  503  501 +0.0000000000e+00 +0.0000000000e+00 +1.0825419320e+03 1.0825419320e+03 0.0000000000e+00 0.0000e+00 1.0000e+00
       21 -1    0    0  501  502 -0.0000000000e+00 -0.0000000000e+00 -6.6013753655e+02 6.6013753655e+02 0.0000000000e+00 0.0000e+00 1.0000e+00
       25  1    1    2    0    0 -7.1541164302e+02 +3.3477222755e+02 -8.4504869394e+01 8.0414696185e+02 1.2500000000e+02 0.0000e+00 0.0000e+00
       21  1    1    2  503  502 +7.1541164302e+02 -3.3477222755e+02 +5.0690926480e+02 9.3853250665e+02 0.0000000000e+00 0.0000e+00 1.0000e+00
<mgrwt>
<rscale>  3 0.79969448E+03</rscale>
<asrwt>0</asrwt>
<pdfrwt beam="1">  1       21 0.16654491E+00 0.79969448E+03</pdfrwt>
<pdfrwt beam="2">  1       21 0.10155962E+00 0.79969448E+03</pdfrwt>
<totfact> 0.12595565E+02</totfact>
</mgrwt>
</event>
<event>
 4      0 +8.0132550e-03 5.12362500e+02 7.54677100e-03 1.01060200e-01
        2 -1    0    0  502    0 -0.0000000000e+00 +0.0000000000e+00 +9.0726828977e+02 9.0726828977e+02 0.0000000000e+00 0.0000e+00 -1.0000e+00
       21 -1    0    0  501  502 +0.0000000000e+00 -0.0000000000e+00 -2.9091578067e+02 2.9091578067e+02 0.0000000000e+00 0.0000e+00 1.0000e+00
       25  1    1    2    0    0 -2.6218549493e+02 -4.2207706939e+02 +4.2515527570e+02 6.6578697398e+02 1.2500000000e+02 0.0000e+00 0.0000e+00
        2  1    1    2  501    0 +2.6218549493e+02 +4.2207706939e+02 +1.9119723341e+02 5.3239709646e+02 0.0000000000e+00 0.0000e+00 -1.0000e+00
<mgrwt>
<rscale>  3 0.51236246E+03</rscale>
<asrwt>0</asrwt>
<pdfrwt beam="1">  1       21 0.44756274E-01 0.51236246E+03</pdfrwt>
<pdfrwt beam="2">  1        2 0.13957974E+00 0.51236246E+03</pdfrwt>
<totfact> 0.16556263E+03</totfact>
</mgrwt>
</event>
<event>
 4      0 +8.0132550e-03 6.06064900e+02 7.54677100e-03 9.89290300e-02
       21 -1    0    0  503  501 +0.0000000000e+00 +0.0000000000e+00 +7.0357232979e+02 7.0357232979e+02 0.0000000000e+00 0.0000e+00 1.0000e+00
       21 -1    0    0  501  502 -0.0000000000e+00 -0.0000000000e+00 -5.2426845367e+02 5.2426845367e+02 0.0000000000e+00 0.0000e+00 1.0000e+00
       25  1    1    2    0    0 -1.5824395385e+02 +5.7153177492e+02 +1.8860518343e+02 6.3473351408e+02 1.2500000000e+02 0.0000e+00 0.0000e+00
       21  1    1    2  503  502 +1.5824395385e+02 -5.7153177492e+02 -9.3013073035e+00 5.9310726938e+02 0.0000000000e+00 0.0000e+00 1.0000e+00
<mgrwt>
<rscale>  3 0.60606495E+03</rscale>
<asrwt>0</asrwt>
<pdfrwt beam="1">  1       21 0.10824190E+00 0.60606495E+03</pdfrwt>
<pdfrwt beam="2">  1       21 0.80656685E-01 0.60606495E+03</pdfrwt>
<totfact> 0.73189958E+02</totfact>
</mgrwt>
</event>
<event>
 4      0 +8.0132550e-03 6.18748300e+02 7.54677100e-03 9.86725500e-02
       21 -1    0    0  502  501 +0.0000000000e+00 +0.0000000000e+00 +4.0314703940e+02 4.0314703940e+02 0.0000000000e+00 0.0000e+00 -1.0000e+00
       21 -1    0    0  503  502 -0.0000000000e+00 -0.0000000000e+00 -1.3478029784e+03 1.3478029784e+03 0.0000000000e+00 0.0000e+00 -1.0000e+00
       25  1    1    2    0    0 -6.0485062655e+02 +3.7151479644e+01 +1.1592075971e+01 6.1885692135e+02 1.2500000000e+02 0.0000e+00 0.0000e+00
       21  1    1    2  503  501 +6.0485062655e+02 -3.7151479644e+01 -9.5624801493e+02 1.1320930964e+03 0.0000000000e+00 0.0000e+00 -1.0000e+00
<mgrwt>
<rscale>  3 0.61874834E+03</rscale>
<asrwt>0</asrwt>
<pdfrwt beam="1">  1       21 0.62022621E-01 0.61874834E+03</pdfrwt>
<pdfrwt beam="2">  1       21 0.20735431E+00 0.61874834E+03</pdfrwt>
<totfact> 0.21828153E+02</totfact>
</mgrwt>
</event>
<event>
 4      0 +8.0132550e-03 8.30691600e+02 7.54677100e-03 9.51662500e-02
        2 -1    0    0  502    0 -0.0000000000e+00 +0.0000000000e+00 +3.1264766816e+03 3.1264766816e+03 0.0000000000e+00 0.0000e+00 -1.0000e+00
       21 -1    0    0  501  502 +0.0000000000e+00 -0.0000000000e+00 -2.7098661079e+02 2.7098661079e+02 0.0000000000e+00 0.0000e+00 1.0000e+00
       25  1    1    2    0    0 +3.4981843133e+02 -7.4300111257e+02 +6.8463161739e+02 1.0764613508e+03 1.2500000000e+02 0.0000e+00 0.0000e+00
        2  1    1    2  501    0 -3.4981843133e+02 +7.4300111257e+02 +2.1708584534e+03 2.3210019416e+03 0.0000000000e+00 0.0000e+00 -1.0000e+00
<mgrwt>
<rscale>  3 0.83069163E+03</rscale>
<asrwt>0</asrwt>
<pdfrwt beam="1">  1       21 0.41690250E-01 0.83069163E+03</pdfrwt>
<pdfrwt beam="2">  1        2 0.48099639E+00 0.83069163E+03</pdfrwt>
<totfact> 0.95789471E+01</totfact>
</mgrwt>
</event>
<event>
 4      0 +8.0132550e-03 4.99675000e+02 7.54677100e-03 1.01386400e-01
        2 -1    0    0  502    0 -0.0000000000e+00 +0.0000000000e+00 +5.1957257369e+02 5.1957257369e+02 0.0000000000e+00 0.0000e+00 1.0000e+00
       21 -1    0    0  501  502 +0.0000000000e+00 -0.0000000000e+00 -9.8647711759e+02 9.8647711759e+02 0.0000000000e+00 0.0000e+00 1.0000e+00
       25  1    1    2    0    0 -4.7744733880e+02 -7.8064749194e+01 -7.8249659754e+02 9.2842662152e+02 1.2500000000e+02 0.0000e+00 0.0000e+00
        2  1    1    2  501    0 +4.7744733880e+02 +7.8064749194e+01 +3.1559205364e+02 5.7762306976e+02 0.0000000000e+00 0.0000e+00 1.0000e+00
<mgrwt>
<rscale>  3 0.49967496E+03</rscale>
<asrwt>0</asrwt>
<pdfrwt beam="1">  1       21 0.15176571E+00 0.49967496E+03</pdfrwt>
<pdfrwt beam="2">  1        2 0.79934242E-01 0.49967496E+03</pdfrwt>
<totfact> 0.18684342E+02</totfact>
</mgrwt>
</event>
<event>
 4      0 +8.0132550e-03 4.76136400e+02 7.54677100e-03 1.02020200e-01
       21 -1    0    0  501  502 +0.0000000000e+00 +0.0000000000e+00 +2.0309063561e+02 2.0309063561e+02 0.0000000000e+00 0.0000e+00 -1.0000e+00
       -1 -1    0    0    0  501 -0.0000000000e+00 -0.0000000000e+00 -1.2020147508e+03 1.2020147508e+03 0.0000000000e+00 0.0000e+00 -1.0000e+00
       25  1    1    2    0    0 +4.4888647889e+02 -9.7886687874e+01 -7.3356864393e+02 8.7454492735e+02 1.2500000000e+02 0.0000e+00 0.0000e+00
       -1  1    1    2    0  502 -4.4888647889e+02 +9.7886687874e+01 -2.6535547125e+02 5.3056045906e+02 0.0000000000e+00 0.0000e+00 -1.0000e+00
<mgrwt>
<rscale>  3 0.47613640E+03</rscale>
<asrwt>0</asrwt>
<pdfrwt beam="1">  1       21 0.31244714E-01 0.47613640E+03</pdfrwt>
<pdfrwt beam="2">  1       -1 0.18492534E+00 0.47613640E+03</pdfrwt>
<totfact> 0.17803458E+02</totfact>
</mgrwt>
</event>
</LesHouchesEvents>
