<LesHouchesEvents version="3.0">
  <header>
  <MG5ProcCard>
#************************************************************                                                                                         
#*                     MadGraph5_aMC@NLO                    *                                                                                         
#*                                                          *                                                                                         
#*                *                       *                 *                                                                                         
#*                  *        * *        *                   *                                                                                         
#*                    * * * * 5 * * * *                     *                                                                                         
#*                  *        * *        *                   *                                                                                         
#*                *                       *                 *                                                                                         
#*                                                          *                                                                                         
#*                                                          *                                                                                         
#*         VERSION 2.6.7                 2019-10-16         *                                                                                         
#*                                                          *                                                                                         
#*    The MadGraph5_aMC@NLO Development Team - Find us at   *                                                                                         
#*    https://server06.fynu.ucl.ac.be/projects/madgraph     *                                                                                         
#*                                                          *                                                                                         
#************************************************************                                                                                         
#*                                                          *                                                                                         
#*               Command File for MadGraph5_aMC@NLO         *                                                                                         
#*                                                          *                                                                                         
#*     run as ./bin/mg5_aMC  filename                       *                                                                                         
#*                                                          *                                                                                         
#************************************************************                                                                                         
set default_unset_couplings 99                                                                                                                        
set group_subprocesses Auto                                                                                                                           
set ignore_six_quark_processes False                                                                                                                  
set loop_optimized_output True                                                                                                                        
set loop_color_flows False                                                                                                                            
set gauge unitary                                                                                                                                     
set complex_mass_scheme False                                                                                                                         
set max_npoint_for_channel 0                                                                                                                          
import model sm                                                                                                                                       
define p = g u c d s u~ c~ d~ s~                                                                                                                      
define j = g u c d s u~ c~ d~ s~                                                                                                                      
define l+ = e+ mu+                                                                                                                                    
define l- = e- mu-                                                                                                                                    
define vl = ve vm vt                                                                                                                                  
define vl~ = ve~ vm~ vt~                                                                                                                              
import model loop_sm                                                                                                                                  
generate p p > H j j QED=3 [QCD]                                                                                                                      
output ~/scratch/higgs-classifier/MG5/vbf                                                                                                             
  </MG5ProcCard>
  <slha>
######################################################################                                                                                
## PARAM_CARD AUTOMATICALY GENERATED BY MG5 FOLLOWING UFO MODEL   ####                                                                                
######################################################################                                                                                
##                                                                  ##                                                                                
##  Width set on Auto will be computed following the information    ##                                                                                
##        present in the decay.py files of the model.               ##                                                                                
##        See  arXiv:1402.1178 for more details.                    ##                                                                                
##                                                                  ##                                                                                
######################################################################                                                                                
                                                                                                                                                      
###################################                                                                                                                   
## INFORMATION FOR LOOP                                                                                                                               
###################################                                                                                                                   
Block loop                                                                                                                                            
    1 9.118800e+01 # MU_R                                                                                                                             
                                                                                                                                                      
###################################                                                                                                                   
## INFORMATION FOR MASS                                                                                                                               
###################################                                                                                                                   
Block mass                                                                                                                                            
    5 4.700000e+00 # MB                                                                                                                               
    6 1.730000e+02 # MT                                                                                                                               
   15 1.777000e+00 # MTA                                                                                                                              
   23 9.118800e+01 # MZ                                                                                                                               
   25 1.250000e+02 # MH                                                                                                                               
## Dependent parameters, given by model restrictions.                                                                                                 
## Those values should be edited following the                                                                                                        
## analytical expression. MG5 ignores those values                                                                                                    
## but they are important for interfacing the output of MG5                                                                                           
## to external program such as Pythia.                                                                                                                
  1 0.000000e+00 # d : 0.0                                                                                                                            
  2 0.000000e+00 # u : 0.0                                                                                                                            
  3 0.000000e+00 # s : 0.0                                                                                                                            
  4 0.000000e+00 # c : 0.0                                                                                                                            
  11 0.000000e+00 # e- : 0.0                                                                                                                          
  12 0.000000e+00 # ve : 0.0                                                                                                                          
  13 0.000000e+00 # mu- : 0.0                                                                                                                         
  14 0.000000e+00 # vm : 0.0                                                                                                                          
  16 0.000000e+00 # vt : 0.0                                                                                                                          
  21 0.000000e+00 # g : 0.0                                                                                                                           
  22 0.000000e+00 # a : 0.0                                                                                                                           
  24 8.041900e+01 # w+ : cmath.sqrt(MZ__exp__2/2. + cmath.sqrt(MZ__exp__4/4. - (aEW*cmath.pi*MZ__exp__2)/(Gf*sqrt__2)))                               
                                                                                                                                                      
###################################                                                                                                                   
## INFORMATION FOR SMINPUTS                                                                                                                           
###################################                                                                                                                   
Block sminputs                                                                                                                                        
    1 1.325070e+02 # aEWM1                                                                                                                            
    2 1.166390e-05 # Gf                                                                                                                               
    3 1.180000e-01 # aS                                                                                                                               
                                                                                                                                                      
###################################                                                                                                                   
## INFORMATION FOR YUKAWA                                                                                                                             
###################################                                                                                                                   
Block yukawa                                                                                                                                          
    5 4.700000e+00 # ymb                                                                                                                              
    6 1.730000e+02 # ymt                                                                                                                              
   15 1.777000e+00 # ymtau                                                                                                                            
                                                                                                                                                      
###################################                                                                                                                   
## INFORMATION FOR DECAY                                                                                                                              
###################################                                                                                                                   
DECAY   6 1.491500e+00 # WT                                                                                                                           
DECAY  23 2.441404e+00 # WZ                                                                                                                           
DECAY  24 2.047600e+00 # WW                                                                                                                           
DECAY  25 6.382339e-03 # WH                                                                                                                           
## Dependent parameters, given by model restrictions.                                                                                                 
## Those values should be edited following the                                                                                                        
## analytical expression. MG5 ignores those values                                                                                                    
## but they are important for interfacing the output of MG5                                                                                           
## to external program such as Pythia.                                                                                                                
DECAY  1 0.000000e+00 # d : 0.0                                                                                                                       
DECAY  2 0.000000e+00 # u : 0.0                                                                                                                       
DECAY  3 0.000000e+00 # s : 0.0                                                                                                                       
DECAY  4 0.000000e+00 # c : 0.0                                                                                                                       
DECAY  5 0.000000e+00 # b : 0.0                                                                                                                       
DECAY  11 0.000000e+00 # e- : 0.0                                                                                                                     
DECAY  12 0.000000e+00 # ve : 0.0                                                                                                                     
DECAY  13 0.000000e+00 # mu- : 0.0                                                                                                                    
DECAY  14 0.000000e+00 # vm : 0.0                                                                                                                     
DECAY  15 0.000000e+00 # ta- : 0.0                                                                                                                    
DECAY  16 0.000000e+00 # vt : 0.0                                                                                                                     
DECAY  21 0.000000e+00 # g : 0.0                                                                                                                      
DECAY  22 0.000000e+00 # a : 0.0                                                                                                                      
#===========================================================                                                                                          
# QUANTUM NUMBERS OF NEW STATE(S) (NON SM PDG CODE)                                                                                                   
#===========================================================                                                                                          
                                                                                                                                                      
Block QNUMBERS 82  # gh                                                                                                                               
        1 0  # 3 times electric charge                                                                                                                
        2 1  # number of spin states (2S+1)                                                                                                           
        3 8  # colour rep (1: singlet, 3: triplet, 8: octet)                                                                                          
        4 1  # Particle/Antiparticle distinction (0=own anti)                                                                                         
  </slha>
  <MGRunCard>
#***********************************************************************                                                                              
#                        MadGraph5_aMC@NLO                             *                                                                              
#                                                                      *                                                                              
#                      run_card.dat aMC@NLO                            *                                                                              
#                                                                      *                                                                              
#  This file is used to set the parameters of the run.                 *                                                                              
#                                                                      *                                                                              
#  Some notation/conventions:                                          *                                                                              
#                                                                      *                                                                              
#   Lines starting with a hash (#) are info or comments                *                                                                              
#                                                                      *                                                                              
#   mind the format:   value    = variable     ! comment               *                                                                              
#                                                                      *                                                                              
#   Some of the values of variables can be list. These can either be   *                                                                              
#   comma or space separated.                                          *                                                                              
#                                                                      *                                                                              
#   To display additional parameter, you can use the command:          *                                                                              
#      update to_full                                                  *                                                                              
#***********************************************************************                                                                              
#                                                                                                                                                     
#*******************                                                                                                                                  
# Running parameters                                                                                                                                  
#*******************                                                                                                                                  
#                                                                                                                                                     
#***********************************************************************                                                                              
# Tag name for the run (one word)                                      *                                                                              
#***********************************************************************                                                                              
  tag_1	= run_tag ! name of the run                                                                                                                   
#***********************************************************************                                                                              
# Number of LHE events (and their normalization) and the required      *                                                                              
# (relative) accuracy on the Xsec.                                     *                                                                              
# These values are ignored for fixed order runs                        *                                                                              
#***********************************************************************                                                                              
        100 = nevents                                                                                                                                 
  -1.0	= req_acc ! Required accuracy (-1=auto determined from nevents)                                                                                
  -1	= nevt_job ! Max number of events per job in event generation.                                                                                   
                 !  (-1= no split).                                                                                                                   
#***********************************************************************                                                                              
# Normalize the weights of LHE events such that they sum or average to *                                                                              
# the total cross section                                              *                                                                              
#***********************************************************************                                                                              
  average	= event_norm ! valid settings: average, sum, bias                                                                                           
#***********************************************************************                                                                              
# Number of points per itegration channel (ignored for aMC@NLO runs)   *                                                                              
#***********************************************************************                                                                              
  0.01	= req_acc_fo ! Required accuracy (-1=ignored, and use the                                                                                      
 	                   ! number of points and iter. below)                                                                                              
# These numbers are ignored except if req_acc_FO is equal to -1                                                                                       
  5000	= npoints_fo_grid ! number of points to setup grids                                                                                            
  4	= niters_fo_grid ! number of iter. to setup grids                                                                                                 
  10000	= npoints_fo ! number of points to compute Xsec                                                                                               
  6	= niters_fo ! number of iter. to compute Xsec                                                                                                     
#***********************************************************************                                                                              
# Random number seed                                                   *                                                                              
#***********************************************************************                                                                              
      18526 =  iseed                                                                                                                                  
#***********************************************************************                                                                              
# Collider type and energy                                             *                                                                              
#***********************************************************************                                                                              
  1	= lpp1 ! beam 1 type (0 = no PDF)                                                                                                                 
  1	= lpp2 ! beam 2 type (0 = no PDF)                                                                                                                 
  6500.0	= ebeam1 ! beam 1 energy in GeV                                                                                                              
  6500.0	= ebeam2 ! beam 2 energy in GeV                                                                                                              
#***********************************************************************                                                                              
# PDF choice: this automatically fixes also alpha_s(MZ) and its evol.  *                                                                              
#***********************************************************************                                                                              
  nn23nlo	= pdlabel ! PDF set                                                                                                                         
  244600	= lhaid ! If pdlabel=lhapdf, this is the lhapdf number. Only                                                                                 
              ! numbers for central PDF sets are allowed. Can be a list;                                                                              
              ! PDF sets beyond the first are included via reweighting.                                                                               
#***********************************************************************                                                                              
# Include the NLO Monte Carlo subtr. terms for the following parton    *                                                                              
# shower (HERWIG6 | HERWIGPP | PYTHIA6Q | PYTHIA6PT | PYTHIA8)         *                                                                              
# WARNING: PYTHIA6PT works only for processes without FSR!!!!          *                                                                              
#***********************************************************************                                                                              
  HERWIG6	= parton_shower                                                                                                                             
  1.0	= shower_scale_factor ! multiply default shower starting                                                                                        
                                  ! scale by this factor                                                                                              
#***********************************************************************                                                                              
# Renormalization and factorization scales                             *                                                                              
# (Default functional form for the non-fixed scales is the sum of      *                                                                              
# the transverse masses divided by two of all final state particles    *                                                                              
# and partons. This can be changed in SubProcesses/set_scales.f or via *                                                                              
# dynamical_scale_choice option)                                       *                                                                              
#***********************************************************************                                                                              
  False	= fixed_ren_scale ! if .true. use fixed ren scale                                                                                             
  False	= fixed_fac_scale ! if .true. use fixed fac scale                                                                                             
  91.118	= mur_ref_fixed ! fixed ren reference scale                                                                                                  
  91.118	= muf_ref_fixed ! fixed fact reference scale                                                                                                 
  -1	= dynamical_scale_choice ! Choose one (or more) of the predefined                                                                                
           ! dynamical choices. Can be a list; scale choices beyond the                                                                               
           ! first are included via reweighting                                                                                                       
  1.0	= mur_over_ref ! ratio of current muR over reference muR                                                                                        
  1.0	= muf_over_ref ! ratio of current muF over reference muF                                                                                        
#***********************************************************************                                                                              
# Reweight variables for scale dependence and PDF uncertainty          *                                                                              
#***********************************************************************                                                                              
  1.0, 2.0, 0.5	= rw_rscale ! muR factors to be included by reweighting                                                                               
  1.0, 2.0, 0.5	= rw_fscale ! muF factors to be included by reweighting                                                                               
  True	= reweight_scale ! Reweight to get scale variation using the                                                                                   
            ! rw_rscale and rw_fscale factors. Should be a list of                                                                                    
            ! booleans of equal length to dynamical_scale_choice to                                                                                   
            ! specify for which choice to include scale dependence.                                                                                   
  False	= reweight_pdf ! Reweight to get PDF uncertainty. Should be a                                                                                 
            ! list booleans of equal length to lhaid to specify for                                                                                   
            !  which PDF set to include the uncertainties.                                                                                            
#***********************************************************************                                                                              
# Store reweight information in the LHE file for off-line model-       *                                                                              
# parameter reweighting at NLO+PS accuracy                             *                                                                              
#***********************************************************************                                                                              
  False	= store_rwgt_info ! Store info for reweighting in LHE file                                                                                    
#***********************************************************************                                                                              
# ickkw parameter:                                                     *                                                                              
#   0: No merging                                                      *                                                                              
#   3: FxFx Merging - WARNING! Applies merging only at the hard-event  *                                                                              
#      level. After showering an MLM-type merging should be applied as *                                                                              
#      well. See http://amcatnlo.cern.ch/FxFx_merging.htm for details. *                                                                              
#   4: UNLOPS merging (with pythia8 only). No interface from within    *                                                                              
#      MG5_aMC available, but available in Pythia8.                    *                                                                              
#  -1: NNLL+NLO jet-veto computation. See arxiv:1412.8408 [hep-ph].    *                                                                              
#***********************************************************************                                                                              
  0	= ickkw                                                                                                                                           
#***********************************************************************                                                                              
#                                                                                                                                                     
#***********************************************************************                                                                              
# BW cutoff (M+/-bwcutoff*Gamma). Determines which resonances are      *                                                                              
# written in the LHE event file                                        *                                                                              
#***********************************************************************                                                                              
  15.0	= bwcutoff                                                                                                                                     
#***********************************************************************                                                                              
# Cuts on the jets. Jet clustering is performed by FastJet.            *                                                                              
#  - When matching to a parton shower, these generation cuts should be *                                                                              
#    considerably softer than the analysis cuts.                       *                                                                              
#  - More specific cuts can be specified in SubProcesses/cuts.f        *                                                                              
#***********************************************************************                                                                              
  1.0	= jetalgo ! FastJet jet algorithm (1=kT, 0=C/A, -1=anti-kT)                                                                                     
  0.7	= jetradius ! The radius parameter for the jet algorithm                                                                                        
  10.0	= ptj ! Min jet transverse momentum                                                                                                            
  -1.0	= etaj ! Max jet abs(pseudo-rap) (a value .lt.0 means no cut)                                                                                  
#***********************************************************************                                                                              
# Cuts on the charged leptons (e+, e-, mu+, mu-, tau+ and tau-)        *                                                                              
# More specific cuts can be specified in SubProcesses/cuts.f           *                                                                              
#***********************************************************************                                                                              
  0.0	= ptl ! Min lepton transverse momentum                                                                                                          
  -1.0	= etal ! Max lepton abs(pseudo-rap) (a value .lt.0 means no cut)                                                                               
  0.0	= drll ! Min distance between opposite sign lepton pairs                                                                                        
  0.0	= drll_sf ! Min distance between opp. sign same-flavor lepton pairs                                                                             
  0.0	= mll ! Min inv. mass of all opposite sign lepton pairs                                                                                         
  30.0	= mll_sf ! Min inv. mass of all opp. sign same-flavor lepton pairs                                                                             
#***********************************************************************                                                                              
# Photon-isolation cuts, according to hep-ph/9801442. When ptgmin=0,   *                                                                              
# all the other parameters are ignored.                                *                                                                              
# More specific cuts can be specified in SubProcesses/cuts.f           *                                                                              
#***********************************************************************                                                                              
  20.0	= ptgmin ! Min photon transverse momentum                                                                                                      
  -1.0	= etagamma ! Max photon abs(pseudo-rap)                                                                                                        
  0.4	= r0gamma ! Radius of isolation code                                                                                                            
  1.0	= xn ! n parameter of eq.(3.4) in hep-ph/9801442                                                                                                
  1.0	= epsgamma ! epsilon_gamma parameter of eq.(3.4) in hep-ph/9801442                                                                              
  True	= isoem ! isolate photons from EM energy (photons and leptons)                                                                                 
#***********************************************************************                                                                              
# Cuts associated to MASSIVE particles identified by their PDG codes.  *                                                                              
# All cuts are applied to both particles and anti-particles, so use    *                                                                              
# POSITIVE PDG CODES only. Example of the syntax is {6 : 100} or       *                                                                              
# {6:100, 25:200} for multiple particles                               *                                                                              
#***********************************************************************                                                                              
  {'25': 450.0}	= pt_min_pdg ! Min pT for a massive particle                                                                                          
  {'25': 1700.0}	= pt_max_pdg ! Max pT for a massive particle                                                                                         
  {}	= mxx_min_pdg ! inv. mass for any pair of (anti)particles                                                                                        
#***********************************************************************                                                                              
# For aMCfast+APPLGRID use in PDF fitting (http://amcfast.hepforge.org)*                                                                              
#***********************************************************************                                                                              
  0	= iappl ! aMCfast switch (0=OFF, 1=prepare grids, 2=fill grids)                                                                                   
#***********************************************************************                                                                              
  </MGRunCard>
  <scalesfunctionalform>
    muR  H_T/2 := sum_i mT(i)/2, i=final state
    muF1 H_T/2 := sum_i mT(i)/2, i=final state
    muF2 H_T/2 := sum_i mT(i)/2, i=final state
    QES  H_T/2 := sum_i mT(i)/2, i=final state
  </scalesfunctionalform>
  <MonteCarloMasses>
       1   0.320000E+00
       2   0.320000E+00
       3   0.500000E+00
       4   0.155000E+01
       5   0.495000E+01
      11   0.510999E-03
      13   0.105658E+00
      15   0.177682E+01
      21   0.750000E+00
  </MonteCarloMasses>
  <initrwgt>
    <weightgroup name='scale_variation   -1' combine='envelope'>
      <weight id='1001'> dyn=  -1 muR=0.10000E+01 muF=0.10000E+01 </weight>
      <weight id='1002'> dyn=  -1 muR=0.20000E+01 muF=0.10000E+01 </weight>
      <weight id='1003'> dyn=  -1 muR=0.50000E+00 muF=0.10000E+01 </weight>
      <weight id='1004'> dyn=  -1 muR=0.10000E+01 muF=0.20000E+01 </weight>
      <weight id='1005'> dyn=  -1 muR=0.20000E+01 muF=0.20000E+01 </weight>
      <weight id='1006'> dyn=  -1 muR=0.50000E+00 muF=0.20000E+01 </weight>
      <weight id='1007'> dyn=  -1 muR=0.10000E+01 muF=0.50000E+00 </weight>
      <weight id='1008'> dyn=  -1 muR=0.20000E+01 muF=0.50000E+00 </weight>
      <weight id='1009'> dyn=  -1 muR=0.50000E+00 muF=0.50000E+00 </weight>
    </weightgroup>
  </initrwgt>
  </header>
  <init>
   2212   2212 0.65000000E+04 0.65000000E+04 -1 -1   244800   244800 -4   1
 0.10341915E-01 0.12677700E-03 0.18404410E-01      0
  </init>
  <event>
  6      0 -.18404410E-01 0.20546104E+03 0.75467711E-02 0.94816793E-01
        2 -1    0    0  502    0 0.00000000E+00 0.00000000E+00 0.80079549E+03 0.80079556E+03 0.32000000E+00 0.0000E+00 0.9000E+01
        1 -1    0    0  501    0 -.00000000E+00 -.00000000E+00 -.93444671E+03 0.93444676E+03 0.32000000E+00 0.0000E+00 0.9000E+01
       25  1    1    2    0    0 -.41958345E+03 0.18672238E+03 -.37633211E+03 0.60676715E+03 0.12500000E+03 0.0000E+00 0.9000E+01
        2  1    1    2  501    0 0.23485671E+03 0.12219651E+02 -.37976867E+03 0.44668931E+03 0.32000000E+00 0.0000E+00 0.9000E+01
        1  1    1    2  503    0 0.97586583E+02 -.93136294E+02 0.38051140E+03 0.40371591E+03 0.32000000E+00 0.0000E+00 0.9000E+01
       21  1    1    2  502  503 0.87140158E+02 -.10580574E+03 0.24193816E+03 0.27806995E+03 0.75000000E+00 0.0000E+00 0.9000E+01
#aMCatNLO 2  0  0  5  1 0.29815225E+02 0.00000000E+00  9  6  0 0.00000000E+00 0.00000000E+00 0.00000000E+00 0.00000000E+00 0.00000000E+00
  <rwgt>
   <wgt id='1001'> -.18404E-01 </wgt>
   <wgt id='1002'> -.16992E-01 </wgt>
   <wgt id='1003'> -.20079E-01 </wgt>
   <wgt id='1004'> -.17329E-01 </wgt>
   <wgt id='1005'> -.15999E-01 </wgt>
   <wgt id='1006'> -.18905E-01 </wgt>
   <wgt id='1007'> -.19596E-01 </wgt>
   <wgt id='1008'> -.18091E-01 </wgt>
   <wgt id='1009'> -.21378E-01 </wgt>
  </rwgt>
  </event>
  <event>
  5      0 -.18404410E-01 0.13764839E+02 0.75467711E-02 0.94032250E-01
        2 -1    0    0  502    0 0.00000000E+00 0.00000000E+00 0.12173605E+04 0.12173605E+04 0.32000000E+00 0.0000E+00 0.9000E+01
        1 -1    0    0  501    0 0.00000000E+00 0.00000000E+00 -.11476288E+04 0.11476288E+04 0.32000000E+00 0.0000E+00 0.9000E+01
       25  1    1    2    0    0 -.42020910E+03 -.30467760E+03 -.22335849E+03 0.57872113E+03 0.12500000E+03 0.0000E+00 0.9000E+01
        2  1    1    2  501    0 0.11261663E+02 0.79131411E+01 -.68512492E+03 0.68526323E+03 0.32000000E+00 0.0000E+00 0.9000E+01
        1  1    1    2  502    0 0.40894744E+03 0.29676446E+03 0.97821508E+03 0.11010050E+04 0.32000000E+00 0.0000E+00 0.9000E+01
#aMCatNLO 1  0  0  5  1 0.53920235E+02 0.00000000E+00  9  6  0 0.00000000E+00 0.00000000E+00 0.00000000E+00 0.00000000E+00 0.00000000E+00
  <rwgt>
   <wgt id='1001'> -.18404E-01 </wgt>
   <wgt id='1002'> -.16998E-01 </wgt>
   <wgt id='1003'> -.20069E-01 </wgt>
   <wgt id='1004'> -.16962E-01 </wgt>
   <wgt id='1005'> -.15666E-01 </wgt>
   <wgt id='1006'> -.18497E-01 </wgt>
   <wgt id='1007'> -.20056E-01 </wgt>
   <wgt id='1008'> -.18523E-01 </wgt>
   <wgt id='1009'> -.21871E-01 </wgt>
  </rwgt>
  </event>
  <event>
  7      0 0.18404410E-01 0.14155837E+03 0.75467711E-02 0.94291508E-01
        2 -1    0    0  501    0 0.00000000E+00 0.00000000E+00 0.54207797E+03 0.54207806E+03 0.32000000E+00 0.0000E+00 0.9000E+01
       -1 -1    0    0    0  503 0.00000000E+00 0.00000000E+00 -.75457738E+03 0.75457745E+03 0.32000000E+00 0.0000E+00 0.9000E+01
       24  2    1    2    0    0 0.26024858E+03 -.22631754E+03 0.11777563E+03 0.37315289E+03 0.80143801E+02 0.0000E+00 0.0000E+00
       25  1    1    2    0    0 -.43528517E+03 0.23012455E+03 0.44411550E+02 0.50992928E+03 0.12500000E+03 0.0000E+00 0.9000E+01
        4  1    3    3  502    0 0.11972860E+03 -.79529189E+02 0.85918989E+02 0.16746434E+03 0.15500000E+01 0.0000E+00 0.9000E+01
       -3  1    3    3    0  502 0.14051998E+03 -.14678835E+03 0.31856638E+02 0.20568856E+03 0.50000000E+00 0.0000E+00 0.9000E+01
       21  1    1    2  501  503 0.17503659E+03 -.38070084E+01 -.37468659E+03 0.41357334E+03 0.75000000E+00 0.0000E+00 0.9000E+01
#aMCatNLO 2  0  0  2  1 0.23111102E+02 0.00000000E+00  9  6  0 0.00000000E+00 0.00000000E+00 0.00000000E+00 0.00000000E+00 0.00000000E+00
  <rwgt>
   <wgt id='1001'> 0.18405E-01 </wgt>
   <wgt id='1002'> 0.16999E-01 </wgt>
   <wgt id='1003'> 0.20068E-01 </wgt>
   <wgt id='1004'> 0.17442E-01 </wgt>
   <wgt id='1005'> 0.16111E-01 </wgt>
   <wgt id='1006'> 0.19019E-01 </wgt>
   <wgt id='1007'> 0.19445E-01 </wgt>
   <wgt id='1008'> 0.17962E-01 </wgt>
   <wgt id='1009'> 0.21203E-01 </wgt>
  </rwgt>
  </event>
  <event>
  5      0 -.18404410E-01 0.28413373E+02 0.75467711E-02 0.95315231E-01
        2 -1    0    0  502    0 0.00000000E+00 0.00000000E+00 0.38786508E+04 0.38786508E+04 0.32000000E+00 0.0000E+00 0.9000E+01
       -2 -1    0    0    0  501 0.00000000E+00 0.00000000E+00 -.37698434E+03 0.37698448E+03 0.32000000E+00 0.0000E+00 0.9000E+01
       25  1    1    2    0    0 -.13310487E+03 0.43243967E+03 0.81751874E+02 0.47647596E+03 0.12500000E+03 0.0000E+00 0.9000E+01
        1  1    1    2  502    0 0.10472297E+03 -.43106157E+03 0.35846487E+04 0.36119922E+04 0.32000000E+00 0.0000E+00 0.9000E+01
       -1  1    1    2    0  501 0.28381900E+02 -.13780991E+01 -.16473411E+03 0.16716717E+03 0.32000000E+00 0.0000E+00 0.9000E+01
#aMCatNLO 1  0  0  0  0 0.00000000E+00 0.00000000E+00  9  6  0 0.00000000E+00 0.00000000E+00 0.00000000E+00 0.00000000E+00 0.00000000E+00
  <rwgt>
   <wgt id='1001'> -.18405E-01 </wgt>
   <wgt id='1002'> -.16985E-01 </wgt>
   <wgt id='1003'> -.20088E-01 </wgt>
   <wgt id='1004'> -.16136E-01 </wgt>
   <wgt id='1005'> -.14892E-01 </wgt>
   <wgt id='1006'> -.17612E-01 </wgt>
   <wgt id='1007'> -.21145E-01 </wgt>
   <wgt id='1008'> -.19514E-01 </wgt>
   <wgt id='1009'> -.23080E-01 </wgt>
  </rwgt>
  </event>
  <event>
  6      0 0.18404410E-01 0.16656269E+02 0.75467711E-02 0.94705931E-01
        2 -1    0    0  501    0 0.00000000E+00 0.00000000E+00 0.10432423E+04 0.10432424E+04 0.32000000E+00 0.0000E+00 0.9000E+01
        1 -1    0    0  503    0 0.00000000E+00 0.00000000E+00 -.13378040E+04 0.13378041E+04 0.32000000E+00 0.0000E+00 0.9000E+01
       25  1    1    2    0    0 0.45999540E+03 0.78994263E+02 0.36400579E+03 0.60494717E+03 0.12500000E+03 0.0000E+00 0.9000E+01
        2  1    1    2  501    0 -.27219862E+02 -.18891746E+02 0.49067965E+03 0.49179715E+03 0.32000000E+00 0.0000E+00 0.9000E+01
        1  1    1    2  502    0 -.43337046E+03 -.93314240E+02 -.66679925E+03 0.80071146E+03 0.32000000E+00 0.0000E+00 0.9000E+01
       21  1    1    2  503  502 0.59492521E+00 0.33211723E+02 -.48244792E+03 0.48359066E+03 0.75000000E+00 0.0000E+00 0.9000E+01
#aMCatNLO 2  0  0  2  2 0.44723733E+03 0.00000000E+00  9  6  0 0.00000000E+00 0.00000000E+00 0.00000000E+00 0.00000000E+00 0.00000000E+00
  <rwgt>
   <wgt id='1001'> 0.18404E-01 </wgt>
   <wgt id='1002'> 0.16994E-01 </wgt>
   <wgt id='1003'> 0.20076E-01 </wgt>
   <wgt id='1004'> 0.16949E-01 </wgt>
   <wgt id='1005'> 0.15649E-01 </wgt>
   <wgt id='1006'> 0.18489E-01 </wgt>
   <wgt id='1007'> 0.20073E-01 </wgt>
   <wgt id='1008'> 0.18535E-01 </wgt>
   <wgt id='1009'> 0.21897E-01 </wgt>
  </rwgt>
  </event>
  <event>
  6      0 0.18404410E-01 0.52498017E+02 0.75467711E-02 0.91377852E-01
        1 -1    0    0  502    0 0.00000000E+00 0.00000000E+00 0.10470774E+04 0.10470774E+04 0.32000000E+00 0.0000E+00 0.9000E+01
       21 -1    0    0  501  503 0.00000000E+00 0.00000000E+00 -.87278603E+03 0.87278635E+03 0.75000000E+00 0.0000E+00 0.9000E+01
       25  1    1    2    0    0 -.75393663E+02 -.57218584E+03 -.22237718E+03 0.63099719E+03 0.12500000E+03 0.0000E+00 0.9000E+01
        1  1    1    2  501    0 0.13499315E+03 0.62793191E+03 -.20542774E+03 0.67433100E+03 0.32000000E+00 0.0000E+00 0.9000E+01
        2  1    1    2  502    0 -.21904639E+02 -.69131752E+02 0.49361981E+03 0.49891846E+03 0.32000000E+00 0.0000E+00 0.9000E+01
       -2  1    1    2    0  503 -.37694851E+02 0.13385682E+02 0.10847647E+03 0.11561715E+03 0.32000000E+00 0.0000E+00 0.9000E+01
#aMCatNLO 2  0  0  2  2 0.40000979E+02 0.00000000E+00  9  6  0 0.00000000E+00 0.00000000E+00 0.00000000E+00 0.00000000E+00 0.00000000E+00
  <rwgt>
   <wgt id='1001'> 0.18405E-01 </wgt>
   <wgt id='1002'> 0.17041E-01 </wgt>
   <wgt id='1003'> 0.20010E-01 </wgt>
   <wgt id='1004'> 0.16311E-01 </wgt>
   <wgt id='1005'> 0.15103E-01 </wgt>
   <wgt id='1006'> 0.17734E-01 </wgt>
   <wgt id='1007'> 0.20935E-01 </wgt>
   <wgt id='1008'> 0.19385E-01 </wgt>
   <wgt id='1009'> 0.22761E-01 </wgt>
  </rwgt>
  </event>
  <event>
  6      0 0.18404410E-01 0.13521840E+03 0.75467711E-02 0.94477003E-01
        2 -1    0    0  503    0 0.00000000E+00 0.00000000E+00 0.34677028E+04 0.34677028E+04 0.32000000E+00 0.0000E+00 0.9000E+01
        1 -1    0    0  501    0 0.00000000E+00 0.00000000E+00 -.12055551E+04 0.12055551E+04 0.32000000E+00 0.0000E+00 0.9000E+01
       25  1    1    2    0    0 0.44871095E+03 -.20398455E+03 0.19675614E+03 0.54524232E+03 0.12500000E+03 0.0000E+00 0.9000E+01
        2  1    1    2  501    0 -.29575046E+03 0.18399830E+03 -.99962886E+03 0.10585753E+04 0.32000000E+00 0.0000E+00 0.9000E+01
        1  1    1    2  502    0 -.10772354E+03 0.22111114E+01 0.25042766E+04 0.25065934E+04 0.32000000E+00 0.0000E+00 0.9000E+01
       21  1    1    2  503  502 -.45236951E+02 0.17775138E+02 0.56074392E+03 0.56284691E+03 0.75000000E+00 0.0000E+00 0.9000E+01
#aMCatNLO 2  0  0  1  4 0.48603882E+02 0.00000000E+00  9  6  0 0.00000000E+00 0.00000000E+00 0.00000000E+00 0.00000000E+00 0.00000000E+00
  <rwgt>
   <wgt id='1001'> 0.18404E-01 </wgt>
   <wgt id='1002'> 0.16997E-01 </wgt>
   <wgt id='1003'> 0.20072E-01 </wgt>
   <wgt id='1004'> 0.15864E-01 </wgt>
   <wgt id='1005'> 0.14652E-01 </wgt>
   <wgt id='1006'> 0.17302E-01 </wgt>
   <wgt id='1007'> 0.21564E-01 </wgt>
   <wgt id='1008'> 0.19915E-01 </wgt>
   <wgt id='1009'> 0.23517E-01 </wgt>
  </rwgt>
  </event>
  <event>
  6      0 -.18404410E-01 0.14863350E+03 0.75467711E-02 0.91448246E-01
       -2 -1    0    0    0  501 0.00000000E+00 0.00000000E+00 0.79011887E+03 0.79011893E+03 0.32000000E+00 0.0000E+00 0.9000E+01
        2 -1    0    0  502    0 -.00000000E+00 -.00000000E+00 -.14713326E+04 0.14713326E+04 0.32000000E+00 0.0000E+00 0.9000E+01
       25  1    1    2    0    0 0.46685786E+03 0.46136043E+03 0.84018663E+02 0.67341952E+03 0.12500000E+03 0.0000E+00 0.9000E+01
        1  1    1    2  503    0 -.29313758E+03 -.20566746E+03 -.92203253E+03 0.98912731E+03 0.32000000E+00 0.0000E+00 0.9000E+01
       -1  1    1    2    0  501 -.93050414E+02 -.16024527E+03 0.33406406E+03 0.38201548E+03 0.32000000E+00 0.0000E+00 0.9000E+01
       21  1    1    2  502  503 -.80669867E+02 -.95447702E+02 -.17726393E+03 0.21688927E+03 0.75000000E+00 0.0000E+00 0.9000E+01
#aMCatNLO 2  0  0  4  2 0.48446472E+02 0.00000000E+00  9  6  0 0.00000000E+00 0.00000000E+00 0.00000000E+00 0.00000000E+00 0.00000000E+00
  <rwgt>
   <wgt id='1001'> -.18405E-01 </wgt>
   <wgt id='1002'> -.17040E-01 </wgt>
   <wgt id='1003'> -.20011E-01 </wgt>
   <wgt id='1004'> -.16964E-01 </wgt>
   <wgt id='1005'> -.15706E-01 </wgt>
   <wgt id='1006'> -.18445E-01 </wgt>
   <wgt id='1007'> -.20039E-01 </wgt>
   <wgt id='1008'> -.18553E-01 </wgt>
   <wgt id='1009'> -.21788E-01 </wgt>
  </rwgt>
  </event>
  <event>
  7      0 0.18404410E-01 0.81962993E+02 0.75467711E-02 0.90854023E-01
       -1 -1    0    0    0  503 0.00000000E+00 0.00000000E+00 0.87923966E+03 0.87923972E+03 0.32000000E+00 0.0000E+00 0.9000E+01
        2 -1    0    0  501    0 0.00000000E+00 0.00000000E+00 -.10335807E+04 0.10335807E+04 0.32000000E+00 0.0000E+00 0.9000E+01
       24  2    1    2    0    0 0.77372875E+02 -.12837594E+02 0.44537099E+03 0.45939856E+03 0.80872410E+02 0.0000E+00 0.0000E+00
       25  1    1    2    0    0 -.19120810E+03 0.64033599E+03 -.23845872E+03 0.72047087E+03 0.12500000E+03 0.0000E+00 0.9000E+01
        4  1    3    3  502    0 -.72773926E+01 0.65654113E+01 0.17800135E+03 0.17827773E+03 0.15500000E+01 0.0000E+00 0.9000E+01
       -3  1    3    3    0  502 0.84650267E+02 -.19403005E+02 0.26736964E+03 0.28112083E+03 0.50000000E+00 0.0000E+00 0.9000E+01
       21  1    1    2  501  503 0.11383522E+03 -.62749839E+03 -.36125327E+03 0.73295101E+03 0.75000000E+00 0.0000E+00 0.9000E+01
#aMCatNLO 2  0  0  0  0 0.00000000E+00 0.00000000E+00  9  6  0 0.00000000E+00 0.00000000E+00 0.00000000E+00 0.00000000E+00 0.00000000E+00
  <rwgt>
   <wgt id='1001'> 0.18405E-01 </wgt>
   <wgt id='1002'> 0.17049E-01 </wgt>
   <wgt id='1003'> 0.20000E-01 </wgt>
   <wgt id='1004'> 0.17028E-01 </wgt>
   <wgt id='1005'> 0.15774E-01 </wgt>
   <wgt id='1006'> 0.18504E-01 </wgt>
   <wgt id='1007'> 0.19962E-01 </wgt>
   <wgt id='1008'> 0.18491E-01 </wgt>
   <wgt id='1009'> 0.21692E-01 </wgt>
  </rwgt>
  </event>
  <event>
  6      0 0.18404410E-01 0.78128538E+02 0.75467711E-02 0.94451709E-01
        2 -1    0    0  503    0 0.00000000E+00 0.00000000E+00 0.36128941E+04 0.36128941E+04 0.32000000E+00 0.0000E+00 0.9000E+01
       -2 -1    0    0    0  501 0.00000000E+00 0.00000000E+00 -.96180731E+02 0.96181263E+02 0.32000000E+00 0.0000E+00 0.9000E+01
       25  1    1    2    0    0 0.21601209E+03 0.39546994E+03 0.22193199E+04 0.22680528E+04 0.12500000E+03 0.0000E+00 0.9000E+01
        2  1    1    2  502    0 0.75920491E+02 -.35995729E+02 0.40335659E+03 0.41201487E+03 0.32000000E+00 0.0000E+00 0.9000E+01
       -2  1    1    2    0  501 -.28217051E+03 -.35374632E+03 0.69299802E+03 0.82764909E+03 0.32000000E+00 0.0000E+00 0.9000E+01
       21  1    1    2  503  502 -.97620658E+01 -.57278901E+01 0.20103888E+03 0.20135864E+03 0.75000000E+00 0.0000E+00 0.9000E+01
#aMCatNLO 2  0  0  1  4 0.63281018E+02 0.00000000E+00  9  6  0 0.00000000E+00 0.00000000E+00 0.00000000E+00 0.00000000E+00 0.00000000E+00
  <rwgt>
   <wgt id='1001'> 0.18404E-01 </wgt>
   <wgt id='1002'> 0.16997E-01 </wgt>
   <wgt id='1003'> 0.20071E-01 </wgt>
   <wgt id='1004'> 0.16851E-01 </wgt>
   <wgt id='1005'> 0.15563E-01 </wgt>
   <wgt id='1006'> 0.18377E-01 </wgt>
   <wgt id='1007'> 0.20152E-01 </wgt>
   <wgt id='1008'> 0.18611E-01 </wgt>
   <wgt id='1009'> 0.21976E-01 </wgt>
  </rwgt>
  </event>
  <event>
  5      0 0.18404410E-01 0.87992031E+02 0.75467711E-02 0.93401414E-01
        1 -1    0    0  502    0 0.00000000E+00 0.00000000E+00 0.27944341E+04 0.27944341E+04 0.32000000E+00 0.0000E+00 0.9000E+01
        2 -1    0    0  501    0 0.00000000E+00 0.00000000E+00 -.29574759E+03 0.29574776E+03 0.32000000E+00 0.0000E+00 0.9000E+01
       25  1    1    2    0    0 0.46132111E+03 0.16221130E+02 0.15756334E+04 0.16466105E+04 0.12500000E+03 0.0000E+00 0.9000E+01
        1  1    1    2  501    0 0.87959146E+02 0.18847397E+01 -.18603275E+03 0.20578788E+03 0.32000000E+00 0.0000E+00 0.9000E+01
        2  1    1    2  502    0 -.54928026E+03 -.18105870E+02 0.11090858E+04 0.12377835E+04 0.32000000E+00 0.0000E+00 0.9000E+01
#aMCatNLO 1  0  0  4  2 0.30441301E+00 0.00000000E+00  9  6  0 0.00000000E+00 0.00000000E+00 0.00000000E+00 0.00000000E+00 0.00000000E+00
  <rwgt>
   <wgt id='1001'> 0.18405E-01 </wgt>
   <wgt id='1002'> 0.17012E-01 </wgt>
   <wgt id='1003'> 0.20050E-01 </wgt>
   <wgt id='1004'> 0.16818E-01 </wgt>
   <wgt id='1005'> 0.15546E-01 </wgt>
   <wgt id='1006'> 0.18323E-01 </wgt>
   <wgt id='1007'> 0.20240E-01 </wgt>
   <wgt id='1008'> 0.18709E-01 </wgt>
   <wgt id='1009'> 0.22050E-01 </wgt>
  </rwgt>
  </event>
  <event>
  5      0 0.18404410E-01 0.60873486E+02 0.75467711E-02 0.92048477E-01
        2 -1    0    0  501    0 0.00000000E+00 0.00000000E+00 0.28714855E+04 0.28714855E+04 0.32000000E+00 0.0000E+00 0.9000E+01
        1 -1    0    0  502    0 0.00000000E+00 0.00000000E+00 -.27158241E+04 0.27158241E+04 0.32000000E+00 0.0000E+00 0.9000E+01
       25  1    1    2    0    0 0.16147727E+03 -.47302260E+03 -.26824974E+03 0.58086849E+03 0.12500000E+03 0.0000E+00 0.9000E+01
        2  1    1    2  501    0 -.11320241E+03 0.43594327E+03 0.26960872E+04 0.27334498E+04 0.32000000E+00 0.0000E+00 0.9000E+01
        1  1    1    2  502    0 -.48274861E+02 0.37079328E+02 -.22721761E+04 0.22729914E+04 0.32000000E+00 0.0000E+00 0.9000E+01
#aMCatNLO 1  0  0  4  1 0.32370112E+01 0.00000000E+00  9  6  0 0.00000000E+00 0.00000000E+00 0.00000000E+00 0.00000000E+00 0.00000000E+00
  <rwgt>
   <wgt id='1001'> 0.18404E-01 </wgt>
   <wgt id='1002'> 0.17477E-01 </wgt>
   <wgt id='1003'> 0.19503E-01 </wgt>
   <wgt id='1004'> 0.15426E-01 </wgt>
   <wgt id='1005'> 0.14650E-01 </wgt>
   <wgt id='1006'> 0.16346E-01 </wgt>
   <wgt id='1007'> 0.22229E-01 </wgt>
   <wgt id='1008'> 0.21107E-01 </wgt>
   <wgt id='1009'> 0.23557E-01 </wgt>
  </rwgt>
  </event>
  <event>
  5      0 0.18404410E-01 0.15341737E+03 0.75467711E-02 0.94218082E-01
       -1 -1    0    0    0  501 0.00000000E+00 0.00000000E+00 0.29590034E+03 0.29590052E+03 0.32000000E+00 0.0000E+00 0.9000E+01
        1 -1    0    0  502    0 -.00000000E+00 -.00000000E+00 -.17671290E+04 0.17671290E+04 0.32000000E+00 0.0000E+00 0.9000E+01
       25  1    1    2    0    0 0.30626515E+03 0.33401625E+03 -.63762253E+03 0.79218223E+03 0.12500000E+03 0.0000E+00 0.9000E+01
        2  1    1    2  502    0 -.36551847E+03 -.19246436E+03 -.97705058E+03 0.10607894E+04 0.32000000E+00 0.0000E+00 0.9000E+01
       -2  1    1    2    0  501 0.59253324E+02 -.14155188E+03 0.14344447E+03 0.21005787E+03 0.32000000E+00 0.0000E+00 0.9000E+01
#aMCatNLO 1  0  0  0  0 0.00000000E+00 0.00000000E+00  9  6  0 0.00000000E+00 0.00000000E+00 0.00000000E+00 0.00000000E+00 0.00000000E+00
  <rwgt>
   <wgt id='1001'> 0.18404E-01 </wgt>
   <wgt id='1002'> 0.17000E-01 </wgt>
   <wgt id='1003'> 0.20066E-01 </wgt>
   <wgt id='1004'> 0.17147E-01 </wgt>
   <wgt id='1005'> 0.15839E-01 </wgt>
   <wgt id='1006'> 0.18696E-01 </wgt>
   <wgt id='1007'> 0.19801E-01 </wgt>
   <wgt id='1008'> 0.18290E-01 </wgt>
   <wgt id='1009'> 0.21589E-01 </wgt>
  </rwgt>
  </event>
  <event>
  5      0 -.18404410E-01 0.66756031E+02 0.75467711E-02 0.92508658E-01
        2 -1    0    0  502    0 0.00000000E+00 0.00000000E+00 0.14876893E+04 0.14876894E+04 0.32000000E+00 0.0000E+00 0.9000E+01
        1 -1    0    0  501    0 -.00000000E+00 -.00000000E+00 -.17250675E+04 0.17250676E+04 0.32000000E+00 0.0000E+00 0.9000E+01
       25  1    1    2    0    0 0.28230916E+03 -.48524161E+03 0.83347523E+03 0.10126519E+04 0.12500000E+03 0.0000E+00 0.9000E+01
        2  1    1    2  501    0 -.34162032E+03 0.45455243E+03 -.15838262E+04 0.16828036E+04 0.32000000E+00 0.0000E+00 0.9000E+01
        1  1    1    2  502    0 0.59311157E+02 0.30689179E+02 0.51297277E+03 0.51730147E+03 0.32000000E+00 0.0000E+00 0.9000E+01
#aMCatNLO 1  0  0  4  1 0.78002144E+02 0.00000000E+00  9  6  0 0.00000000E+00 0.00000000E+00 0.00000000E+00 0.00000000E+00 0.00000000E+00
  <rwgt>
   <wgt id='1001'> -.18404E-01 </wgt>
   <wgt id='1002'> -.16996E-01 </wgt>
   <wgt id='1003'> -.20066E-01 </wgt>
   <wgt id='1004'> -.16545E-01 </wgt>
   <wgt id='1005'> -.15278E-01 </wgt>
   <wgt id='1006'> -.18039E-01 </wgt>
   <wgt id='1007'> -.20605E-01 </wgt>
   <wgt id='1008'> -.19029E-01 </wgt>
   <wgt id='1009'> -.22466E-01 </wgt>
  </rwgt>
  </event>
  <event>
  5      0 0.18404410E-01 0.38097440E+02 0.75467711E-02 0.92835219E-01
        2 -1    0    0  502    0 0.00000000E+00 0.00000000E+00 0.14824356E+04 0.14824357E+04 0.32000000E+00 0.0000E+00 0.9000E+01
        1 -1    0    0  501    0 0.00000000E+00 0.00000000E+00 -.36818802E+03 0.36818816E+03 0.32000000E+00 0.0000E+00 0.9000E+01
       25  1    1    2    0    0 -.54843047E+03 -.78815132E+02 0.48529902E+03 0.74707961E+03 0.12500000E+03 0.0000E+00 0.9000E+01
        2  1    1    2  501    0 0.35146411E+02 0.14685730E+02 -.15760392E+03 0.16214203E+03 0.32000000E+00 0.0000E+00 0.9000E+01
        1  1    1    2  502    0 0.51328406E+03 0.64129402E+02 0.78655252E+03 0.94140218E+03 0.32000000E+00 0.0000E+00 0.9000E+01
#aMCatNLO 1  0  0  2  4 0.64869434E+03 0.00000000E+00  9  6  0 0.00000000E+00 0.00000000E+00 0.00000000E+00 0.00000000E+00 0.00000000E+00
  <rwgt>
   <wgt id='1001'> 0.18404E-01 </wgt>
   <wgt id='1002'> 0.17358E-01 </wgt>
   <wgt id='1003'> 0.19642E-01 </wgt>
   <wgt id='1004'> 0.19560E-01 </wgt>
   <wgt id='1005'> 0.18406E-01 </wgt>
   <wgt id='1006'> 0.20923E-01 </wgt>
   <wgt id='1007'> 0.17129E-01 </wgt>
   <wgt id='1008'> 0.16200E-01 </wgt>
   <wgt id='1009'> 0.18228E-01 </wgt>
  </rwgt>
  </event>
  <event>
  5      0 -.18404410E-01 0.57033977E+02 0.75467711E-02 0.95159030E-01
        2 -1    0    0  502    0 0.00000000E+00 0.00000000E+00 0.24568091E+04 0.24568092E+04 0.32000000E+00 0.0000E+00 0.9000E+01
        2 -1    0    0  501    0 0.00000000E+00 0.00000000E+00 -.14226975E+04 0.14226975E+04 0.32000000E+00 0.0000E+00 0.9000E+01
       25  1    1    2    0    0 0.40950714E+03 -.22497683E+03 0.67360071E+03 0.82926087E+03 0.12500000E+03 0.0000E+00 0.9000E+01
        2  1    1    2  501    0 -.56164892E+02 0.98924178E+01 -.13191580E+04 0.13203902E+04 0.32000000E+00 0.0000E+00 0.9000E+01
        2  1    1    2  502    0 -.35334225E+03 0.21508441E+03 0.16796690E+04 0.17298555E+04 0.32000000E+00 0.0000E+00 0.9000E+01
#aMCatNLO 1  0  0  0  0 0.00000000E+00 0.00000000E+00  9  6  0 0.00000000E+00 0.00000000E+00 0.00000000E+00 0.00000000E+00 0.00000000E+00
  <rwgt>
   <wgt id='1001'> -.18404E-01 </wgt>
   <wgt id='1002'> -.16987E-01 </wgt>
   <wgt id='1003'> -.20086E-01 </wgt>
   <wgt id='1004'> -.16305E-01 </wgt>
   <wgt id='1005'> -.15049E-01 </wgt>
   <wgt id='1006'> -.17794E-01 </wgt>
   <wgt id='1007'> -.20931E-01 </wgt>
   <wgt id='1008'> -.19320E-01 </wgt>
   <wgt id='1009'> -.22843E-01 </wgt>
  </rwgt>
  </event>
  <event>
  6      0 0.18404410E-01 0.47190794E+02 0.75467711E-02 0.94028437E-01
        2 -1    0    0  502    0 0.00000000E+00 0.00000000E+00 0.99716355E+03 0.99716361E+03 0.32000000E+00 0.0000E+00 0.9000E+01
        3 -1    0    0  501    0 0.00000000E+00 0.00000000E+00 -.41419482E+03 0.41419512E+03 0.50000000E+00 0.0000E+00 0.9000E+01
       25  1    1    2    0    0 -.40974036E+03 -.23044010E+03 -.16512850E+02 0.48671088E+03 0.12500000E+03 0.0000E+00 0.9000E+01
        4  1    1    2  501    0 -.50175048E+02 -.45074738E+01 -.64713406E+02 0.82024876E+02 0.15500000E+01 0.0000E+00 0.9000E+01
        1  1    1    2  503    0 0.45526985E+03 0.22823312E+03 0.64551723E+03 0.82222478E+03 0.32000000E+00 0.0000E+00 0.9000E+01
       21  1    1    2  502  503 0.46455651E+01 0.67144566E+01 0.18677759E+02 0.20398195E+02 0.75000000E+00 0.0000E+00 0.9000E+01
#aMCatNLO 2  0  0  5  1 0.65940118E+01 0.00000000E+00  9  6  0 0.00000000E+00 0.00000000E+00 0.00000000E+00 0.00000000E+00 0.00000000E+00
  <rwgt>
   <wgt id='1001'> 0.18404E-01 </wgt>
   <wgt id='1002'> 0.16996E-01 </wgt>
   <wgt id='1003'> 0.20072E-01 </wgt>
   <wgt id='1004'> 0.17720E-01 </wgt>
   <wgt id='1005'> 0.16364E-01 </wgt>
   <wgt id='1006'> 0.19326E-01 </wgt>
   <wgt id='1007'> 0.19079E-01 </wgt>
   <wgt id='1008'> 0.17620E-01 </wgt>
   <wgt id='1009'> 0.20809E-01 </wgt>
  </rwgt>
  </event>
  <event>
  5      0 0.18404410E-01 0.11878150E+03 0.75467711E-02 0.91203637E-01
        2 -1    0    0  502    0 0.00000000E+00 0.00000000E+00 0.14904381E+04 0.14904382E+04 0.32000000E+00 0.0000E+00 0.9000E+01
        1 -1    0    0  501    0 0.00000000E+00 0.00000000E+00 -.57593137E+03 0.57593146E+03 0.32000000E+00 0.0000E+00 0.9000E+01
       25  1    1    2    0    0 -.66699212E+03 0.54089844E+02 0.19894368E+03 0.70923042E+03 0.12500000E+03 0.0000E+00 0.9000E+01
        2  1    1    2  501    0 0.10805855E+03 0.49278822E+02 -.22714818E+03 0.25632294E+03 0.32000000E+00 0.0000E+00 0.9000E+01
        1  1    1    2  502    0 0.55893358E+03 -.10336867E+03 0.94271125E+03 0.11008163E+04 0.32000000E+00 0.0000E+00 0.9000E+01
#aMCatNLO 1  0  0  5  2 0.21237093E+03 0.00000000E+00  9  6  0 0.00000000E+00 0.00000000E+00 0.00000000E+00 0.00000000E+00 0.00000000E+00
  <rwgt>
   <wgt id='1001'> 0.18404E-01 </wgt>
   <wgt id='1002'> 0.17044E-01 </wgt>
   <wgt id='1003'> 0.20006E-01 </wgt>
   <wgt id='1004'> 0.17194E-01 </wgt>
   <wgt id='1005'> 0.15923E-01 </wgt>
   <wgt id='1006'> 0.18691E-01 </wgt>
   <wgt id='1007'> 0.19759E-01 </wgt>
   <wgt id='1008'> 0.18297E-01 </wgt>
   <wgt id='1009'> 0.21478E-01 </wgt>
  </rwgt>
  </event>
  <event>
  5      0 0.18404410E-01 0.13073684E+03 0.75467711E-02 0.91211986E-01
        1 -1    0    0  502    0 0.00000000E+00 0.00000000E+00 0.94814716E+03 0.94814722E+03 0.32000000E+00 0.0000E+00 0.9000E+01
        2 -1    0    0  501    0 -.00000000E+00 -.00000000E+00 -.10620177E+04 0.10620177E+04 0.32000000E+00 0.0000E+00 0.9000E+01
       25  1    1    2    0    0 -.54117258E+03 0.11037799E+03 0.23716140E+02 0.56677907E+03 0.12500000E+03 0.0000E+00 0.9000E+01
        1  1    1    2  501    0 -.99703245E+02 0.84547401E+02 -.60990050E+03 0.62375293E+03 0.32000000E+00 0.0000E+00 0.9000E+01
        2  1    1    2  502    0 0.64087582E+03 -.19492539E+03 0.47231383E+03 0.81963296E+03 0.32000000E+00 0.0000E+00 0.9000E+01
#aMCatNLO 1  0  0  5  1 0.82364442E+02 0.00000000E+00  9  6  0 0.00000000E+00 0.00000000E+00 0.00000000E+00 0.00000000E+00 0.00000000E+00
  <rwgt>
   <wgt id='1001'> 0.18405E-01 </wgt>
   <wgt id='1002'> 0.17043E-01 </wgt>
   <wgt id='1003'> 0.20007E-01 </wgt>
   <wgt id='1004'> 0.17184E-01 </wgt>
   <wgt id='1005'> 0.15913E-01 </wgt>
   <wgt id='1006'> 0.18680E-01 </wgt>
   <wgt id='1007'> 0.19775E-01 </wgt>
   <wgt id='1008'> 0.18312E-01 </wgt>
   <wgt id='1009'> 0.21497E-01 </wgt>
  </rwgt>
  </event>
  <event>
  6      0 0.18404410E-01 0.61482818E+02 0.75467711E-02 0.95127576E-01
        2 -1    0    0  502    0 0.00000000E+00 0.00000000E+00 0.25341678E+04 0.25341679E+04 0.32000000E+00 0.0000E+00 0.9000E+01
        1 -1    0    0  501    0 0.00000000E+00 0.00000000E+00 -.53664596E+03 0.53664605E+03 0.32000000E+00 0.0000E+00 0.9000E+01
       25  1    1    2    0    0 -.33691446E+03 -.32538328E+03 0.76851050E+03 0.90863580E+03 0.12500000E+03 0.0000E+00 0.9000E+01
        2  1    1    2  501    0 0.59422196E+02 0.29137102E+02 -.43974115E+03 0.44469355E+03 0.32000000E+00 0.0000E+00 0.9000E+01
        1  1    1    2  503    0 0.20014972E+03 0.22341604E+03 0.12234244E+04 0.12596595E+04 0.32000000E+00 0.0000E+00 0.9000E+01
       21  1    1    2  502  503 0.77342537E+02 0.72830139E+02 0.44532810E+03 0.45782505E+03 0.75000000E+00 0.0000E+00 0.9000E+01
#aMCatNLO 2  0  0  5  1 0.70235963E+01 0.00000000E+00  9  6  0 0.00000000E+00 0.00000000E+00 0.00000000E+00 0.00000000E+00 0.00000000E+00
  <rwgt>
   <wgt id='1001'> 0.18404E-01 </wgt>
   <wgt id='1002'> 0.16987E-01 </wgt>
   <wgt id='1003'> 0.20084E-01 </wgt>
   <wgt id='1004'> 0.16686E-01 </wgt>
   <wgt id='1005'> 0.15402E-01 </wgt>
   <wgt id='1006'> 0.18210E-01 </wgt>
   <wgt id='1007'> 0.20412E-01 </wgt>
   <wgt id='1008'> 0.18840E-01 </wgt>
   <wgt id='1009'> 0.22275E-01 </wgt>
  </rwgt>
  </event>
  <event>
  5      0 -.18404410E-01 0.21754418E+03 0.75467711E-02 0.91390157E-01
        1 -1    0    0  502    0 0.00000000E+00 0.00000000E+00 0.13978650E+04 0.13978650E+04 0.32000000E+00 0.0000E+00 0.9000E+01
        2 -1    0    0  501    0 0.00000000E+00 0.00000000E+00 -.12005301E+04 0.12005302E+04 0.32000000E+00 0.0000E+00 0.9000E+01
       25  1    1    2    0    0 0.19025497E+03 0.55856729E+03 0.17692901E+03 0.62858829E+03 0.12500000E+03 0.0000E+00 0.9000E+01
        1  1    1    2  501    0 -.32384996E+03 -.38684684E+03 -.89581308E+03 0.10281101E+04 0.32000000E+00 0.0000E+00 0.9000E+01
        2  1    1    2  502    0 0.13359500E+03 -.17172044E+03 0.91621896E+03 0.94169678E+03 0.32000000E+00 0.0000E+00 0.9000E+01
#aMCatNLO 1  0  0  1  5 0.29225257E+02 0.00000000E+00  9  6  0 0.00000000E+00 0.00000000E+00 0.00000000E+00 0.00000000E+00 0.00000000E+00
  <rwgt>
   <wgt id='1001'> -.18405E-01 </wgt>
   <wgt id='1002'> -.17028E-01 </wgt>
   <wgt id='1003'> -.20027E-01 </wgt>
   <wgt id='1004'> -.16765E-01 </wgt>
   <wgt id='1005'> -.15511E-01 </wgt>
   <wgt id='1006'> -.18243E-01 </wgt>
   <wgt id='1007'> -.20304E-01 </wgt>
   <wgt id='1008'> -.18784E-01 </wgt>
   <wgt id='1009'> -.22093E-01 </wgt>
  </rwgt>
  </event>
  <event>
  5      0 -.18404410E-01 0.18797274E+03 0.75467711E-02 0.91953967E-01
       -2 -1    0    0    0  501 0.00000000E+00 0.00000000E+00 0.73796682E+03 0.73796689E+03 0.32000000E+00 0.0000E+00 0.9000E+01
        2 -1    0    0  502    0 0.00000000E+00 0.00000000E+00 -.20780072E+04 0.20780073E+04 0.32000000E+00 0.0000E+00 0.9000E+01
       25  1    1    2    0    0 -.39518647E+03 -.47743964E+03 -.78764085E+03 0.10100119E+04 0.12500000E+03 0.0000E+00 0.9000E+01
        1  1    1    2  502    0 0.23213593E+03 0.38388793E+03 -.11208183E+04 0.12072658E+04 0.32000000E+00 0.0000E+00 0.9000E+01
       -1  1    1    2    0  501 0.16305053E+03 0.93551717E+02 0.56841874E+03 0.59869639E+03 0.32000000E+00 0.0000E+00 0.9000E+01
#aMCatNLO 1  0  0  1  5 0.89220169E+01 0.00000000E+00  9  6  0 0.00000000E+00 0.00000000E+00 0.00000000E+00 0.00000000E+00 0.00000000E+00
  <rwgt>
   <wgt id='1001'> -.18405E-01 </wgt>
   <wgt id='1002'> -.17029E-01 </wgt>
   <wgt id='1003'> -.20026E-01 </wgt>
   <wgt id='1004'> -.16681E-01 </wgt>
   <wgt id='1005'> -.15435E-01 </wgt>
   <wgt id='1006'> -.18150E-01 </wgt>
   <wgt id='1007'> -.20404E-01 </wgt>
   <wgt id='1008'> -.18879E-01 </wgt>
   <wgt id='1009'> -.22201E-01 </wgt>
  </rwgt>
  </event>
  <event>
  6      0 0.18404410E-01 0.33464892E+02 0.75467711E-02 0.94661495E-01
       -1 -1    0    0    0  501 0.00000000E+00 0.00000000E+00 0.66180840E+03 0.66180848E+03 0.32000000E+00 0.0000E+00 0.9000E+01
        2 -1    0    0  501    0 0.00000000E+00 0.00000000E+00 -.57898631E+03 0.57898640E+03 0.32000000E+00 0.0000E+00 0.9000E+01
       25  1    1    2    0    0 -.48144163E+03 0.75145036E+02 -.32155366E+03 0.59703817E+03 0.12500000E+03 0.0000E+00 0.9000E+01
       -1  1    1    2    0  502 0.38251635E+03 -.54951454E+02 0.35759255E+03 0.52650827E+03 0.32000000E+00 0.0000E+00 0.9000E+01
        2  1    1    2  503    0 0.89909763E+02 -.29255625E+02 0.43198934E+02 0.10395147E+03 0.32000000E+00 0.0000E+00 0.9000E+01
       21  1    1    2  502  503 0.90155114E+01 0.90620428E+01 0.35842590E+01 0.13296973E+02 0.75000000E+00 0.0000E+00 0.9000E+01
#aMCatNLO 2  0  0  0  0 0.00000000E+00 0.00000000E+00  9  6  0 0.00000000E+00 0.00000000E+00 0.00000000E+00 0.00000000E+00 0.00000000E+00
  <rwgt>
   <wgt id='1001'> 0.18404E-01 </wgt>
   <wgt id='1002'> 0.16994E-01 </wgt>
   <wgt id='1003'> 0.20075E-01 </wgt>
   <wgt id='1004'> 0.17505E-01 </wgt>
   <wgt id='1005'> 0.16164E-01 </wgt>
   <wgt id='1006'> 0.19094E-01 </wgt>
   <wgt id='1007'> 0.19368E-01 </wgt>
   <wgt id='1008'> 0.17884E-01 </wgt>
   <wgt id='1009'> 0.21126E-01 </wgt>
  </rwgt>
  </event>
  <event>
  5      0 0.18404410E-01 0.33351039E+02 0.75467711E-02 0.94437118E-01
       -1 -1    0    0    0  501 0.00000000E+00 0.00000000E+00 0.31624030E+03 0.31624046E+03 0.32000000E+00 0.0000E+00 0.9000E+01
        1 -1    0    0  502    0 -.00000000E+00 -.00000000E+00 -.13879221E+04 0.13879222E+04 0.32000000E+00 0.0000E+00 0.9000E+01
       25  1    1    2    0    0 -.25159247E+03 0.42216504E+03 -.10282545E+04 0.11464966E+04 0.12500000E+03 0.0000E+00 0.9000E+01
        1  1    1    2  502    0 0.33354881E+02 0.12428109E+01 -.73141211E+02 0.80397959E+02 0.32000000E+00 0.0000E+00 0.9000E+01
       -1  1    1    2    0  501 0.21823759E+03 -.42340786E+03 0.29713832E+02 0.47726814E+03 0.32000000E+00 0.0000E+00 0.9000E+01
#aMCatNLO 1  0  0  5  2 0.10686390E+02 0.00000000E+00  9  6  0 0.00000000E+00 0.00000000E+00 0.00000000E+00 0.00000000E+00 0.00000000E+00
  <rwgt>
   <wgt id='1001'> 0.18404E-01 </wgt>
   <wgt id='1002'> 0.20066E-01 </wgt>
   <wgt id='1003'> 0.16437E-01 </wgt>
   <wgt id='1004'> 0.17071E-01 </wgt>
   <wgt id='1005'> 0.18651E-01 </wgt>
   <wgt id='1006'> 0.15199E-01 </wgt>
   <wgt id='1007'> 0.19870E-01 </wgt>
   <wgt id='1008'> 0.21618E-01 </wgt>
   <wgt id='1009'> 0.17799E-01 </wgt>
  </rwgt>
  </event>
  <event>
  7      0 0.18404410E-01 0.54381570E+02 0.75467711E-02 0.90192118E-01
       -2 -1    0    0    0  503 0.00000000E+00 0.00000000E+00 0.10937255E+04 0.10937255E+04 0.32000000E+00 0.0000E+00 0.9000E+01
        1 -1    0    0  501    0 0.00000000E+00 0.00000000E+00 -.55994890E+03 0.55994899E+03 0.32000000E+00 0.0000E+00 0.9000E+01
      -24  2    1    2    0    0 0.40422597E+03 0.60790440E+03 0.12707822E+03 0.74533106E+03 0.80144393E+02 0.0000E+00 0.0000E+00
       25  1    1    2    0    0 -.42671523E+03 -.60740287E+03 0.31858635E+03 0.81740222E+03 0.12500000E+03 0.0000E+00 0.9000E+01
        3  1    3    3  502    0 0.13818195E+03 0.25931268E+03 0.78451090E+02 0.30412521E+03 0.50000000E+00 0.0000E+00 0.9000E+01
       -4  1    3    3    0  502 0.26604401E+03 0.34859172E+03 0.48627131E+02 0.44120585E+03 0.15500000E+01 0.0000E+00 0.9000E+01
       21  1    1    2  501  503 0.22489263E+02 -.50153171E+00 0.88112016E+02 0.90941235E+02 0.75000000E+00 0.0000E+00 0.9000E+01
#aMCatNLO 2  0  0  0  0 0.00000000E+00 0.00000000E+00  9  6  0 0.00000000E+00 0.00000000E+00 0.00000000E+00 0.00000000E+00 0.00000000E+00
  <rwgt>
   <wgt id='1001'> 0.18405E-01 </wgt>
   <wgt id='1002'> 0.17058E-01 </wgt>
   <wgt id='1003'> 0.19987E-01 </wgt>
   <wgt id='1004'> 0.17210E-01 </wgt>
   <wgt id='1005'> 0.15951E-01 </wgt>
   <wgt id='1006'> 0.18690E-01 </wgt>
   <wgt id='1007'> 0.19729E-01 </wgt>
   <wgt id='1008'> 0.18285E-01 </wgt>
   <wgt id='1009'> 0.21424E-01 </wgt>
  </rwgt>
  </event>
  <event>
  5      0 0.18404410E-01 0.43401708E+02 0.75467711E-02 0.89632729E-01
        2 -1    0    0  501    0 0.00000000E+00 0.00000000E+00 0.13525172E+04 0.13525172E+04 0.32000000E+00 0.0000E+00 0.9000E+01
        1 -1    0    0  502    0 0.00000000E+00 0.00000000E+00 -.11721538E+04 0.11721539E+04 0.32000000E+00 0.0000E+00 0.9000E+01
       25  1    1    2    0    0 -.11233648E+03 0.67184728E+03 -.26993285E+03 0.74329469E+03 0.12500000E+03 0.0000E+00 0.9000E+01
        2  1    1    2  501    0 0.94184919E+02 -.63242717E+03 0.10233500E+04 0.12066815E+04 0.32000000E+00 0.0000E+00 0.9000E+01
        1  1    1    2  502    0 0.18151562E+02 -.39420111E+02 -.57305381E+03 0.57469487E+03 0.32000000E+00 0.0000E+00 0.9000E+01
#aMCatNLO 1  0  0  5  2 0.78757768E+00 0.00000000E+00  9  6  0 0.00000000E+00 0.00000000E+00 0.00000000E+00 0.00000000E+00 0.00000000E+00
  <rwgt>
   <wgt id='1001'> 0.18404E-01 </wgt>
   <wgt id='1002'> 0.18048E-01 </wgt>
   <wgt id='1003'> 0.18823E-01 </wgt>
   <wgt id='1004'> 0.16828E-01 </wgt>
   <wgt id='1005'> 0.16506E-01 </wgt>
   <wgt id='1006'> 0.17206E-01 </wgt>
   <wgt id='1007'> 0.20221E-01 </wgt>
   <wgt id='1008'> 0.19825E-01 </wgt>
   <wgt id='1009'> 0.20687E-01 </wgt>
  </rwgt>
  </event>
  <event>
  5      0 0.18404410E-01 0.19231208E+02 0.75467711E-02 0.84536366E-01
        2 -1    0    0  502    0 0.00000000E+00 0.00000000E+00 0.14538547E+04 0.14538548E+04 0.32000000E+00 0.0000E+00 0.9000E+01
        1 -1    0    0  501    0 0.00000000E+00 0.00000000E+00 -.65975642E+03 0.65975650E+03 0.32000000E+00 0.0000E+00 0.9000E+01
       25  1    1    2    0    0 0.53877740E+03 0.19123156E+03 -.14198235E+03 0.60219148E+03 0.12500000E+03 0.0000E+00 0.9000E+01
        2  1    1    2  501    0 -.53280405E+03 -.17294851E+03 -.14778735E+02 0.56036582E+03 0.32000000E+00 0.0000E+00 0.9000E+01
        1  1    1    2  502    0 -.59733501E+01 -.18283043E+02 0.95085940E+03 0.95105397E+03 0.32000000E+00 0.0000E+00 0.9000E+01
#aMCatNLO 1  0  0  1  2 0.70418322E+03 0.00000000E+00  9  6  0 0.00000000E+00 0.00000000E+00 0.00000000E+00 0.00000000E+00 0.00000000E+00
  <rwgt>
   <wgt id='1001'> 0.18404E-01 </wgt>
   <wgt id='1002'> 0.18148E-01 </wgt>
   <wgt id='1003'> 0.18706E-01 </wgt>
   <wgt id='1004'> 0.17055E-01 </wgt>
   <wgt id='1005'> 0.16823E-01 </wgt>
   <wgt id='1006'> 0.17328E-01 </wgt>
   <wgt id='1007'> 0.19927E-01 </wgt>
   <wgt id='1008'> 0.19644E-01 </wgt>
   <wgt id='1009'> 0.20261E-01 </wgt>
  </rwgt>
  </event>
  <event>
  5      0 0.18404410E-01 0.83416605E+02 0.75467711E-02 0.89566748E-01
        2 -1    0    0  501    0 0.00000000E+00 0.00000000E+00 0.13769873E+04 0.13769873E+04 0.32000000E+00 0.0000E+00 0.9000E+01
        2 -1    0    0  502    0 -.00000000E+00 -.00000000E+00 -.26167939E+04 0.26167939E+04 0.32000000E+00 0.0000E+00 0.9000E+01
       25  1    1    2    0    0 0.81636975E+02 -.78854995E+03 0.94196130E+02 0.80806778E+03 0.12500000E+03 0.0000E+00 0.9000E+01
        2  1    1    2  501    0 -.44937437E+02 0.70286880E+02 0.86658001E+03 0.87058637E+03 0.32000000E+00 0.0000E+00 0.9000E+01
        2  1    1    2  502    0 -.36699537E+02 0.71826307E+03 -.22005828E+04 0.23151271E+04 0.32000000E+00 0.0000E+00 0.9000E+01
#aMCatNLO 1  0  0  5  2 0.53111114E+02 0.00000000E+00  9  6  0 0.00000000E+00 0.00000000E+00 0.00000000E+00 0.00000000E+00 0.00000000E+00
  <rwgt>
   <wgt id='1001'> 0.18405E-01 </wgt>
   <wgt id='1002'> 0.18794E-01 </wgt>
   <wgt id='1003'> 0.17948E-01 </wgt>
   <wgt id='1004'> 0.16215E-01 </wgt>
   <wgt id='1005'> 0.16570E-01 </wgt>
   <wgt id='1006'> 0.15799E-01 </wgt>
   <wgt id='1007'> 0.21038E-01 </wgt>
   <wgt id='1008'> 0.21469E-01 </wgt>
   <wgt id='1009'> 0.20534E-01 </wgt>
  </rwgt>
  </event>
  <event>
  5      0 0.18404410E-01 0.17327953E+02 0.75467711E-02 0.93351783E-01
        1 -1    0    0  502    0 0.00000000E+00 0.00000000E+00 0.25001601E+03 0.25001621E+03 0.32000000E+00 0.0000E+00 0.9000E+01
        2 -1    0    0  501    0 -.00000000E+00 -.00000000E+00 -.20092688E+04 0.20092688E+04 0.32000000E+00 0.0000E+00 0.9000E+01
       25  1    1    2    0    0 0.46388302E+03 -.16696303E+03 -.36889267E+03 0.62830798E+03 0.12500000E+03 0.0000E+00 0.9000E+01
        1  1    1    2  501    0 -.48101538E+03 0.16425817E+03 -.14669153E+04 0.15524810E+04 0.32000000E+00 0.0000E+00 0.9000E+01
        2  1    1    2  502    0 0.17132361E+02 0.27048682E+01 0.76555194E+02 0.78496078E+02 0.32000000E+00 0.0000E+00 0.9000E+01
#aMCatNLO 1  0  0  5  4 0.27215284E+03 0.00000000E+00  9  6  0 0.00000000E+00 0.00000000E+00 0.00000000E+00 0.00000000E+00 0.00000000E+00
  <rwgt>
   <wgt id='1001'> 0.18405E-01 </wgt>
   <wgt id='1002'> 0.18113E-01 </wgt>
   <wgt id='1003'> 0.18749E-01 </wgt>
   <wgt id='1004'> 0.17153E-01 </wgt>
   <wgt id='1005'> 0.16887E-01 </wgt>
   <wgt id='1006'> 0.17468E-01 </wgt>
   <wgt id='1007'> 0.19792E-01 </wgt>
   <wgt id='1008'> 0.19474E-01 </wgt>
   <wgt id='1009'> 0.20169E-01 </wgt>
  </rwgt>
  </event>
  <event>
  5      0 0.18404410E-01 0.41702760E+02 0.75467711E-02 0.82660317E-01
       -2 -1    0    0    0  501 0.00000000E+00 0.00000000E+00 0.58336374E+03 0.58336383E+03 0.32000000E+00 0.0000E+00 0.9000E+01
        2 -1    0    0  502    0 0.00000000E+00 0.00000000E+00 -.35908783E+04 0.35908784E+04 0.32000000E+00 0.0000E+00 0.9000E+01
       25  1    1    2    0    0 0.82911659E+03 -.67131558E+01 -.58851524E+03 0.10244289E+04 0.12500000E+03 0.0000E+00 0.9000E+01
        1  1    1    2  502    0 -.79933452E+03 0.35915907E+02 -.27254813E+04 0.28405059E+04 0.32000000E+00 0.0000E+00 0.9000E+01
       -1  1    1    2    0  501 -.29782072E+02 -.29202751E+02 0.30648192E+03 0.30930736E+03 0.32000000E+00 0.0000E+00 0.9000E+01
#aMCatNLO 1  0  0  2  1 0.47875439E+02 0.00000000E+00  9  6  0 0.00000000E+00 0.00000000E+00 0.00000000E+00 0.00000000E+00 0.00000000E+00
  <rwgt>
   <wgt id='1001'> 0.18405E-01 </wgt>
   <wgt id='1002'> 0.18476E-01 </wgt>
   <wgt id='1003'> 0.18320E-01 </wgt>
   <wgt id='1004'> 0.16072E-01 </wgt>
   <wgt id='1005'> 0.16142E-01 </wgt>
   <wgt id='1006'> 0.15989E-01 </wgt>
   <wgt id='1007'> 0.21225E-01 </wgt>
   <wgt id='1008'> 0.21298E-01 </wgt>
   <wgt id='1009'> 0.21140E-01 </wgt>
  </rwgt>
  </event>
  <event>
  6      0 0.18404410E-01 0.35314067E+02 0.75467711E-02 0.95407423E-01
        3 -1    0    0  503    0 0.00000000E+00 0.00000000E+00 0.65524879E+03 0.65524898E+03 0.50000000E+00 0.0000E+00 0.9000E+01
        2 -1    0    0  502    0 0.00000000E+00 0.00000000E+00 -.15537186E+04 0.15537186E+04 0.32000000E+00 0.0000E+00 0.9000E+01
       25  1    1    2    0    0 0.34499308E+03 0.29598803E+03 -.92231028E+03 0.10358139E+04 0.12500000E+03 0.0000E+00 0.9000E+01
        3  1    1    2  501    0 -.28643948E+03 -.28115378E+03 0.34473942E+03 0.52909408E+03 0.50000000E+00 0.0000E+00 0.9000E+01
        2  1    1    2  502    0 -.17201999E+02 -.50142211E-01 -.47933739E+03 0.47964607E+03 0.32000000E+00 0.0000E+00 0.9000E+01
       21  1    1    2  503  501 -.41351607E+02 -.14784104E+02 0.15843844E+03 0.16441359E+03 0.75000000E+00 0.0000E+00 0.9000E+01
#aMCatNLO 2  0  0  1  4 0.19536117E+03 0.00000000E+00  9  6  0 0.00000000E+00 0.00000000E+00 0.00000000E+00 0.00000000E+00 0.00000000E+00
  <rwgt>
   <wgt id='1001'> 0.18404E-01 </wgt>
   <wgt id='1002'> 0.16984E-01 </wgt>
   <wgt id='1003'> 0.20091E-01 </wgt>
   <wgt id='1004'> 0.17134E-01 </wgt>
   <wgt id='1005'> 0.15811E-01 </wgt>
   <wgt id='1006'> 0.18703E-01 </wgt>
   <wgt id='1007'> 0.19798E-01 </wgt>
   <wgt id='1008'> 0.18270E-01 </wgt>
   <wgt id='1009'> 0.21612E-01 </wgt>
  </rwgt>
  </event>
  <event>
  6      0 -.18404410E-01 0.11454177E+02 0.75467711E-02 0.93554307E-01
        2 -1    0    0  501    0 0.00000000E+00 0.00000000E+00 0.87477695E+03 0.87477701E+03 0.32000000E+00 0.0000E+00 0.9000E+01
       -1 -1    0    0    0  501 0.00000000E+00 0.00000000E+00 -.33423610E+03 0.33423625E+03 0.32000000E+00 0.0000E+00 0.9000E+01
       24  2    1    2    0    0 -.15663241E+03 -.49882080E+03 0.16822820E+03 0.55510377E+03 0.80520583E+02 0.0000E+00 0.0000E+00
       25  1    1    2    0    0 0.15663241E+03 0.49882080E+03 0.37231265E+03 0.65390948E+03 0.12500000E+03 0.0000E+00 0.9000E+01
        4  1    3    3  502    0 -.14540313E+03 -.49653668E+03 0.16638777E+03 0.54348692E+03 0.15500000E+01 0.0000E+00 0.9000E+01
       -3  1    3    3    0  502 -.11229282E+02 -.22841254E+01 0.18404307E+01 0.11616850E+02 0.50000000E+00 0.0000E+00 0.9000E+01
#aMCatNLO 1  0  0  2  1 0.23111102E+02 0.00000000E+00  9  6  0 0.00000000E+00 0.00000000E+00 0.00000000E+00 0.00000000E+00 0.00000000E+00
  <rwgt>
   <wgt id='1001'> -.18405E-01 </wgt>
   <wgt id='1002'> -.16517E-01 </wgt>
   <wgt id='1003'> -.20637E-01 </wgt>
   <wgt id='1004'> -.14129E-01 </wgt>
   <wgt id='1005'> -.12585E-01 </wgt>
   <wgt id='1006'> -.15956E-01 </wgt>
   <wgt id='1007'> -.23110E-01 </wgt>
   <wgt id='1008'> -.20845E-01 </wgt>
   <wgt id='1009'> -.25788E-01 </wgt>
  </rwgt>
  </event>
  <event>
  5      0 0.18404410E-01 0.11590426E+03 0.75467711E-02 0.88727602E-01
        1 -1    0    0  502    0 0.00000000E+00 0.00000000E+00 0.14800949E+04 0.14800950E+04 0.32000000E+00 0.0000E+00 0.9000E+01
        2 -1    0    0  501    0 0.00000000E+00 0.00000000E+00 -.21964493E+04 0.21964493E+04 0.32000000E+00 0.0000E+00 0.9000E+01
       25  1    1    2    0    0 -.50632202E+03 0.62993133E+02 -.72582061E+02 0.53030489E+03 0.12500000E+03 0.0000E+00 0.9000E+01
        1  1    1    2  501    0 0.60553181E+03 -.12292762E+03 -.18417677E+04 0.19426498E+04 0.32000000E+00 0.0000E+00 0.9000E+01
        2  1    1    2  502    0 -.99209791E+02 0.59934486E+02 0.11979954E+04 0.12035896E+04 0.32000000E+00 0.0000E+00 0.9000E+01
#aMCatNLO 1  0  0  2  5 0.36922871E+03 0.00000000E+00  9  6  0 0.00000000E+00 0.00000000E+00 0.00000000E+00 0.00000000E+00 0.00000000E+00
  <rwgt>
   <wgt id='1001'> 0.18405E-01 </wgt>
   <wgt id='1002'> 0.17902E-01 </wgt>
   <wgt id='1003'> 0.18997E-01 </wgt>
   <wgt id='1004'> 0.24082E-01 </wgt>
   <wgt id='1005'> 0.23058E-01 </wgt>
   <wgt id='1006'> 0.25290E-01 </wgt>
   <wgt id='1007'> 0.11290E-01 </wgt>
   <wgt id='1008'> 0.11436E-01 </wgt>
   <wgt id='1009'> 0.11117E-01 </wgt>
  </rwgt>
  </event>
  <event>
  5      0 0.18404410E-01 0.22115228E+02 0.75467711E-02 0.87986717E-01
        2 -1    0    0  502    0 0.00000000E+00 0.00000000E+00 0.10159004E+04 0.10159005E+04 0.32000000E+00 0.0000E+00 0.9000E+01
        1 -1    0    0  501    0 -.00000000E+00 -.00000000E+00 -.24441378E+04 0.24441378E+04 0.32000000E+00 0.0000E+00 0.9000E+01
       25  1    1    2    0    0 -.64970821E+03 0.22104684E+02 -.25423760E+03 0.70913408E+03 0.12500000E+03 0.0000E+00 0.9000E+01
        2  1    1    2  501    0 0.67160981E+03 -.25182450E+02 -.19047377E+04 0.20198316E+04 0.32000000E+00 0.0000E+00 0.9000E+01
        1  1    1    2  502    0 -.21901595E+02 0.30777669E+01 0.73073794E+03 0.73107263E+03 0.32000000E+00 0.0000E+00 0.9000E+01
#aMCatNLO 1  0  0  4  2 0.13925207E+02 0.00000000E+00  9  6  0 0.00000000E+00 0.00000000E+00 0.00000000E+00 0.00000000E+00 0.00000000E+00
  <rwgt>
   <wgt id='1001'> 0.18404E-01 </wgt>
   <wgt id='1002'> 0.18031E-01 </wgt>
   <wgt id='1003'> 0.18844E-01 </wgt>
   <wgt id='1004'> 0.16414E-01 </wgt>
   <wgt id='1005'> 0.16085E-01 </wgt>
   <wgt id='1006'> 0.16801E-01 </wgt>
   <wgt id='1007'> 0.20776E-01 </wgt>
   <wgt id='1008'> 0.20350E-01 </wgt>
   <wgt id='1009'> 0.21279E-01 </wgt>
  </rwgt>
  </event>
  <event>
  6      0 -.18404410E-01 0.17972698E+03 0.75467711E-02 0.94727461E-01
       -2 -1    0    0    0  503 0.00000000E+00 0.00000000E+00 0.39650900E+03 0.39650913E+03 0.32000000E+00 0.0000E+00 0.9000E+01
        2 -1    0    0  502    0 0.00000000E+00 0.00000000E+00 -.17041274E+04 0.17041274E+04 0.32000000E+00 0.0000E+00 0.9000E+01
       25  1    1    2    0    0 -.42090070E+02 -.45095997E+03 -.47977296E+03 0.67152332E+03 0.12500000E+03 0.0000E+00 0.9000E+01
        1  1    1    2  502    0 -.33003049E+02 0.19115206E+03 -.96631898E+03 0.98559666E+03 0.32000000E+00 0.0000E+00 0.9000E+01
       -1  1    1    2    0  501 0.78175319E+02 0.28824442E+03 -.35104310E+01 0.29867818E+03 0.32000000E+00 0.0000E+00 0.9000E+01
       21  1    1    2  501  503 -.30821993E+01 -.28436512E+02 0.14198400E+03 0.14483837E+03 0.75000000E+00 0.0000E+00 0.9000E+01
#aMCatNLO 2  0  0  1  5 0.28603062E+02 0.00000000E+00  9  6  0 0.00000000E+00 0.00000000E+00 0.00000000E+00 0.00000000E+00 0.00000000E+00
  <rwgt>
   <wgt id='1001'> -.18405E-01 </wgt>
   <wgt id='1002'> -.16993E-01 </wgt>
   <wgt id='1003'> -.20077E-01 </wgt>
   <wgt id='1004'> -.17149E-01 </wgt>
   <wgt id='1005'> -.15834E-01 </wgt>
   <wgt id='1006'> -.18707E-01 </wgt>
   <wgt id='1007'> -.19795E-01 </wgt>
   <wgt id='1008'> -.18277E-01 </wgt>
   <wgt id='1009'> -.21594E-01 </wgt>
  </rwgt>
  </event>
  <event>
  5      0 0.18404410E-01 0.42698308E+02 0.75467711E-02 0.93178986E-01
        1 -1    0    0  502    0 0.00000000E+00 0.00000000E+00 0.15394869E+04 0.15394869E+04 0.32000000E+00 0.0000E+00 0.9000E+01
        2 -1    0    0  501    0 0.00000000E+00 0.00000000E+00 -.16018665E+04 0.16018665E+04 0.32000000E+00 0.0000E+00 0.9000E+01
       25  1    1    2    0    0 -.48928307E+03 0.16894961E+03 0.48718939E+03 0.72174815E+03 0.12500000E+03 0.0000E+00 0.9000E+01
        1  1    1    2  501    0 -.10068814E+02 0.41490033E+02 -.14057247E+04 0.14063729E+04 0.32000000E+00 0.0000E+00 0.9000E+01
        2  1    1    2  502    0 0.49935188E+03 -.21043964E+03 0.85615572E+03 0.10132324E+04 0.32000000E+00 0.0000E+00 0.9000E+01
#aMCatNLO 1  0  0  1  5 0.33144157E+02 0.00000000E+00  9  6  0 0.00000000E+00 0.00000000E+00 0.00000000E+00 0.00000000E+00 0.00000000E+00
  <rwgt>
   <wgt id='1001'> 0.18405E-01 </wgt>
   <wgt id='1002'> 0.17075E-01 </wgt>
   <wgt id='1003'> 0.19974E-01 </wgt>
   <wgt id='1004'> 0.17075E-01 </wgt>
   <wgt id='1005'> 0.15840E-01 </wgt>
   <wgt id='1006'> 0.18532E-01 </wgt>
   <wgt id='1007'> 0.19963E-01 </wgt>
   <wgt id='1008'> 0.18524E-01 </wgt>
   <wgt id='1009'> 0.21663E-01 </wgt>
  </rwgt>
  </event>
  <event>
  5      0 0.18404410E-01 0.68357880E+02 0.75467711E-02 0.93234469E-01
        2 -1    0    0  501    0 0.00000000E+00 0.00000000E+00 0.76717019E+03 0.76717026E+03 0.32000000E+00 0.0000E+00 0.9000E+01
        2 -1    0    0  502    0 -.00000000E+00 -.00000000E+00 -.17521674E+04 0.17521674E+04 0.32000000E+00 0.0000E+00 0.9000E+01
       25  1    1    2    0    0 -.52789536E+03 -.12056368E+02 -.41291361E+03 0.68186620E+03 0.12500000E+03 0.0000E+00 0.9000E+01
        2  1    1    2  501    0 0.52366754E+02 -.43945119E+02 0.58304398E+03 0.58703818E+03 0.32000000E+00 0.0000E+00 0.9000E+01
        2  1    1    2  502    0 0.47552861E+03 0.56001488E+02 -.11551276E+04 0.12504333E+04 0.32000000E+00 0.0000E+00 0.9000E+01
#aMCatNLO 1  0  0  5  2 0.79797898E+01 0.00000000E+00  9  6  0 0.00000000E+00 0.00000000E+00 0.00000000E+00 0.00000000E+00 0.00000000E+00
  <rwgt>
   <wgt id='1001'> 0.18405E-01 </wgt>
   <wgt id='1002'> 0.19458E-01 </wgt>
   <wgt id='1003'> 0.17159E-01 </wgt>
   <wgt id='1004'> 0.16841E-01 </wgt>
   <wgt id='1005'> 0.17830E-01 </wgt>
   <wgt id='1006'> 0.15671E-01 </wgt>
   <wgt id='1007'> 0.20188E-01 </wgt>
   <wgt id='1008'> 0.21314E-01 </wgt>
   <wgt id='1009'> 0.18855E-01 </wgt>
  </rwgt>
  </event>
  <event>
  6      0 0.18404410E-01 0.67536345E+02 0.75467711E-02 0.90703927E-01
        2 -1    0    0  502    0 0.00000000E+00 0.00000000E+00 0.18757034E+04 0.18757034E+04 0.32000000E+00 0.0000E+00 0.9000E+01
       -4 -1    0    0    0  501 -.00000000E+00 -.00000000E+00 -.19813004E+04 0.19813010E+04 0.15500000E+01 0.0000E+00 0.9000E+01
       25  1    1    2    0    0 0.18354345E+03 0.66922538E+03 -.33418975E+03 0.78029392E+03 0.12500000E+03 0.0000E+00 0.9000E+01
        1  1    1    2  502    0 -.14320395E+02 0.11036586E+02 0.15630487E+04 0.15631533E+04 0.32000000E+00 0.0000E+00 0.9000E+01
       -3  1    1    2    0  503 -.89092066E+02 -.14356870E+03 -.37428419E+03 0.41065590E+03 0.50000000E+00 0.0000E+00 0.9000E+01
       21  1    1    2  503  501 -.80130994E+02 -.53669327E+03 -.96017181E+03 0.11029012E+04 0.75000000E+00 0.0000E+00 0.9000E+01
#aMCatNLO 2  0  0  5  1 0.60640961E+02 0.00000000E+00  9  6  0 0.00000000E+00 0.00000000E+00 0.00000000E+00 0.00000000E+00 0.00000000E+00
  <rwgt>
   <wgt id='1001'> 0.18405E-01 </wgt>
   <wgt id='1002'> 0.17051E-01 </wgt>
   <wgt id='1003'> 0.19997E-01 </wgt>
   <wgt id='1004'> 0.16470E-01 </wgt>
   <wgt id='1005'> 0.15259E-01 </wgt>
   <wgt id='1006'> 0.17896E-01 </wgt>
   <wgt id='1007'> 0.20632E-01 </wgt>
   <wgt id='1008'> 0.19114E-01 </wgt>
   <wgt id='1009'> 0.22417E-01 </wgt>
  </rwgt>
  </event>
  <event>
  5      0 -.18404410E-01 0.24911605E+02 0.75467711E-02 0.95153319E-01
        4 -1    0    0  501    0 0.00000000E+00 0.00000000E+00 0.28229894E+03 0.28230320E+03 0.15500000E+01 0.0000E+00 0.9000E+01
        2 -1    0    0  502    0 -.00000000E+00 -.00000000E+00 -.15500972E+04 0.15500972E+04 0.32000000E+00 0.0000E+00 0.9000E+01
       25  1    1    2    0    0 0.24074927E+03 -.40369432E+03 -.44549988E+03 0.65956384E+03 0.12500000E+03 0.0000E+00 0.9000E+01
        4  1    1    2  501    0 -.23795724E+03 0.37896945E+03 -.11092688E+03 0.46103001E+03 0.15500000E+01 0.0000E+00 0.9000E+01
        2  1    1    2  502    0 -.27920257E+01 0.24724871E+02 -.71137149E+03 0.71180658E+03 0.32000000E+00 0.0000E+00 0.9000E+01
#aMCatNLO 1  0  0  0  0 0.00000000E+00 0.00000000E+00  9  6  0 0.00000000E+00 0.00000000E+00 0.00000000E+00 0.00000000E+00 0.00000000E+00
  <rwgt>
   <wgt id='1001'> -.18404E-01 </wgt>
   <wgt id='1002'> -.16926E-01 </wgt>
   <wgt id='1003'> -.20158E-01 </wgt>
   <wgt id='1004'> -.17783E-01 </wgt>
   <wgt id='1005'> -.16354E-01 </wgt>
   <wgt id='1006'> -.19478E-01 </wgt>
   <wgt id='1007'> -.18965E-01 </wgt>
   <wgt id='1008'> -.17440E-01 </wgt>
   <wgt id='1009'> -.20771E-01 </wgt>
  </rwgt>
  </event>
  <event>
  6      0 0.18404410E-01 0.15445770E+03 0.75467711E-02 0.93553800E-01
        1 -1    0    0  502    0 0.00000000E+00 0.00000000E+00 0.61264399E+03 0.61264408E+03 0.32000000E+00 0.0000E+00 0.9000E+01
        2 -1    0    0  501    0 -.00000000E+00 -.00000000E+00 -.28499595E+04 0.28499595E+04 0.32000000E+00 0.0000E+00 0.9000E+01
       25  1    1    2    0    0 -.53048059E+03 -.94537717E+02 -.65738516E+03 0.85914335E+03 0.12500000E+03 0.0000E+00 0.9000E+01
        1  1    1    2  501    0 0.37375330E+03 0.10955752E+03 -.20605586E+04 0.20970446E+04 0.32000000E+00 0.0000E+00 0.9000E+01
        2  1    1    2  503    0 0.14844247E+03 -.14198742E+02 0.43050187E+03 0.45559712E+03 0.32000000E+00 0.0000E+00 0.9000E+01
       21  1    1    2  502  503 0.82848196E+01 -.82106571E+00 0.50126333E+02 0.50818541E+02 0.75000000E+00 0.0000E+00 0.9000E+01
#aMCatNLO 2  0  0  5  1 0.77662476E+01 0.00000000E+00  9  6  0 0.00000000E+00 0.00000000E+00 0.00000000E+00 0.00000000E+00 0.00000000E+00
  <rwgt>
   <wgt id='1001'> 0.18405E-01 </wgt>
   <wgt id='1002'> 0.17009E-01 </wgt>
   <wgt id='1003'> 0.20053E-01 </wgt>
   <wgt id='1004'> 0.16506E-01 </wgt>
   <wgt id='1005'> 0.15255E-01 </wgt>
   <wgt id='1006'> 0.17985E-01 </wgt>
   <wgt id='1007'> 0.20657E-01 </wgt>
   <wgt id='1008'> 0.19092E-01 </wgt>
   <wgt id='1009'> 0.22507E-01 </wgt>
  </rwgt>
  </event>
  <event>
  6      0 0.18404410E-01 0.21488365E+02 0.75467711E-02 0.95182782E-01
        1 -1    0    0  502    0 0.00000000E+00 0.00000000E+00 0.54336685E+03 0.54336695E+03 0.32000000E+00 0.0000E+00 0.9000E+01
        2 -1    0    0  501    0 -.00000000E+00 -.00000000E+00 -.14116568E+04 0.14116569E+04 0.32000000E+00 0.0000E+00 0.9000E+01
       25  1    1    2    0    0 0.45548225E+03 0.63393790E+02 -.72564976E+03 0.86814482E+03 0.12500000E+03 0.0000E+00 0.9000E+01
        1  1    1    2  501    0 -.40210908E+02 -.35089505E+01 -.50992434E+03 0.51151946E+03 0.32000000E+00 0.0000E+00 0.9000E+01
        2  1    1    2  503    0 -.39671881E+03 -.26980566E+02 0.36099514E+03 0.53705806E+03 0.32000000E+00 0.0000E+00 0.9000E+01
       21  1    1    2  502  503 -.18552532E+02 -.32904274E+02 0.62889968E+01 0.38301458E+02 0.75000000E+00 0.0000E+00 0.9000E+01
#aMCatNLO 2  0  0  5  2 0.30595728E+02 0.00000000E+00  9  6  0 0.00000000E+00 0.00000000E+00 0.00000000E+00 0.00000000E+00 0.00000000E+00
  <rwgt>
   <wgt id='1001'> 0.18405E-01 </wgt>
   <wgt id='1002'> 0.16988E-01 </wgt>
   <wgt id='1003'> 0.20084E-01 </wgt>
   <wgt id='1004'> 0.17237E-01 </wgt>
   <wgt id='1005'> 0.15910E-01 </wgt>
   <wgt id='1006'> 0.18809E-01 </wgt>
   <wgt id='1007'> 0.19706E-01 </wgt>
   <wgt id='1008'> 0.18190E-01 </wgt>
   <wgt id='1009'> 0.21504E-01 </wgt>
  </rwgt>
  </event>
  <event>
  7      0 0.18404410E-01 0.26235184E+02 0.75467711E-02 0.94786125E-01
        2 -1    0    0  503    0 0.00000000E+00 0.00000000E+00 0.65149167E+03 0.65149175E+03 0.32000000E+00 0.0000E+00 0.9000E+01
       -2 -1    0    0    0  501 0.00000000E+00 0.00000000E+00 -.54681345E+03 0.54681354E+03 0.32000000E+00 0.0000E+00 0.9000E+01
       23  2    1    2    0    0 -.11142917E+03 0.46166437E+03 0.20170735E+03 0.52329398E+03 0.87179584E+02 0.0000E+00 0.0000E+00
       25  1    1    2    0    0 0.87770827E+02 -.45630469E+03 -.23458916E+03 0.53532678E+03 0.12500000E+03 0.0000E+00 0.9000E+01
        1  1    3    3  502    0 0.88321038E+01 0.76901175E+02 0.14199735E+02 0.78698994E+02 0.32000000E+00 0.0000E+00 0.9000E+01
       -1  1    3    3    0  502 -.12026127E+03 0.38476320E+03 0.18750761E+03 0.44459498E+03 0.32000000E+00 0.0000E+00 0.9000E+01
       21  1    1    2  503  501 0.23658342E+02 -.53596775E+01 0.13756003E+03 0.13968453E+03 0.75000000E+00 0.0000E+00 0.9000E+01
#aMCatNLO 2  0  0  0  0 0.00000000E+00 0.00000000E+00  9  6  0 0.00000000E+00 0.00000000E+00 0.00000000E+00 0.00000000E+00 0.00000000E+00
  <rwgt>
   <wgt id='1001'> 0.18404E-01 </wgt>
   <wgt id='1002'> 0.16992E-01 </wgt>
   <wgt id='1003'> 0.20078E-01 </wgt>
   <wgt id='1004'> 0.17615E-01 </wgt>
   <wgt id='1005'> 0.16264E-01 </wgt>
   <wgt id='1006'> 0.19217E-01 </wgt>
   <wgt id='1007'> 0.19230E-01 </wgt>
   <wgt id='1008'> 0.17755E-01 </wgt>
   <wgt id='1009'> 0.20979E-01 </wgt>
  </rwgt>
  </event>
  <event>
  6      0 0.18404410E-01 0.33937330E+02 0.75467711E-02 0.91431802E-01
       21 -1    0    0  503  501 0.00000000E+00 0.00000000E+00 0.16321206E+04 0.16321207E+04 0.75000000E+00 0.0000E+00 0.9000E+01
        2 -1    0    0  502    0 0.00000000E+00 0.00000000E+00 -.12691356E+04 0.12691356E+04 0.32000000E+00 0.0000E+00 0.9000E+01
       25  1    1    2    0    0 0.49933864E+03 0.40894679E+03 -.77913132E+03 0.10194347E+04 0.12500000E+03 0.0000E+00 0.9000E+01
        1  1    1    2  502    0 0.19270710E+02 -.39803929E+02 -.30054286E+03 0.30377924E+03 0.32000000E+00 0.0000E+00 0.9000E+01
        2  1    1    2  503    0 -.56885206E+02 -.31853945E+02 0.19465385E+03 0.20528230E+03 0.32000000E+00 0.0000E+00 0.9000E+01
       -1  1    1    2    0  501 -.46172414E+03 -.33728891E+03 0.12480053E+04 0.13727601E+04 0.32000000E+00 0.0000E+00 0.9000E+01
#aMCatNLO 2  0  0  1  4 0.65196630E+02 0.00000000E+00  9  6  0 0.00000000E+00 0.00000000E+00 0.00000000E+00 0.00000000E+00 0.00000000E+00
  <rwgt>
   <wgt id='1001'> 0.18405E-01 </wgt>
   <wgt id='1002'> 0.17040E-01 </wgt>
   <wgt id='1003'> 0.20011E-01 </wgt>
   <wgt id='1004'> 0.15795E-01 </wgt>
   <wgt id='1005'> 0.14624E-01 </wgt>
   <wgt id='1006'> 0.17174E-01 </wgt>
   <wgt id='1007'> 0.21699E-01 </wgt>
   <wgt id='1008'> 0.20091E-01 </wgt>
   <wgt id='1009'> 0.23593E-01 </wgt>
  </rwgt>
  </event>
  <event>
  6      0 0.18404410E-01 0.12061300E+03 0.75467711E-02 0.89582043E-01
       -2 -1    0    0    0  501 0.00000000E+00 0.00000000E+00 0.85460755E+03 0.85460761E+03 0.32000000E+00 0.0000E+00 0.9000E+01
        2 -1    0    0  503    0 0.00000000E+00 0.00000000E+00 -.22315708E+04 0.22315708E+04 0.32000000E+00 0.0000E+00 0.9000E+01
       25  1    1    2    0    0 -.36662097E+02 0.74245110E+03 -.34815266E+03 0.83030899E+03 0.12500000E+03 0.0000E+00 0.9000E+01
        1  1    1    2  502    0 0.16070005E+03 -.68321798E+03 -.14100238E+04 0.15750488E+04 0.32000000E+00 0.0000E+00 0.9000E+01
       -1  1    1    2    0  501 -.12102800E+03 -.43537548E+02 0.52277117E+03 0.53836149E+03 0.32000000E+00 0.0000E+00 0.9000E+01
       21  1    1    2  503  502 -.30099548E+01 -.15695575E+02 -.14155795E+03 0.14245921E+03 0.75000000E+00 0.0000E+00 0.9000E+01
#aMCatNLO 2  0  0  2  4 0.15981580E+02 0.00000000E+00  9  6  0 0.00000000E+00 0.00000000E+00 0.00000000E+00 0.00000000E+00 0.00000000E+00
  <rwgt>
   <wgt id='1001'> 0.18405E-01 </wgt>
   <wgt id='1002'> 0.17067E-01 </wgt>
   <wgt id='1003'> 0.19973E-01 </wgt>
   <wgt id='1004'> 0.16567E-01 </wgt>
   <wgt id='1005'> 0.15364E-01 </wgt>
   <wgt id='1006'> 0.17980E-01 </wgt>
   <wgt id='1007'> 0.20557E-01 </wgt>
   <wgt id='1008'> 0.19064E-01 </wgt>
   <wgt id='1009'> 0.22310E-01 </wgt>
  </rwgt>
  </event>
  <event>
  5      0 -.18404410E-01 0.16231699E+03 0.75467711E-02 0.88450549E-01
        3 -1    0    0  501    0 0.00000000E+00 0.00000000E+00 0.13138820E+04 0.13138821E+04 0.50000000E+00 0.0000E+00 0.9000E+01
        2 -1    0    0  502    0 0.00000000E+00 0.00000000E+00 -.14755156E+04 0.14755156E+04 0.32000000E+00 0.0000E+00 0.9000E+01
       25  1    1    2    0    0 0.15694873E+03 -.73027189E+03 -.11876186E+03 0.76658940E+03 0.12500000E+03 0.0000E+00 0.9000E+01
        4  1    1    2  501    0 -.15797317E+03 -.37713518E+02 0.83832593E+03 0.85391487E+03 0.15500000E+01 0.0000E+00 0.9000E+01
        1  1    1    2  502    0 0.10244395E+01 0.76798540E+03 -.88119762E+03 0.11688935E+04 0.32000000E+00 0.0000E+00 0.9000E+01
#aMCatNLO 1  0  0  2  5 0.13282223E+03 0.00000000E+00  9  6  0 0.00000000E+00 0.00000000E+00 0.00000000E+00 0.00000000E+00 0.00000000E+00
  <rwgt>
   <wgt id='1001'> -.18404E-01 </wgt>
   <wgt id='1002'> -.16836E-01 </wgt>
   <wgt id='1003'> -.20247E-01 </wgt>
   <wgt id='1004'> -.15082E-01 </wgt>
   <wgt id='1005'> -.13777E-01 </wgt>
   <wgt id='1006'> -.16615E-01 </wgt>
   <wgt id='1007'> -.22341E-01 </wgt>
   <wgt id='1008'> -.20460E-01 </wgt>
   <wgt id='1009'> -.24549E-01 </wgt>
  </rwgt>
  </event>
  <event>
  5      0 0.18404410E-01 0.64923728E+02 0.75467711E-02 0.87976572E-01
        2 -1    0    0  502    0 0.00000000E+00 0.00000000E+00 0.27363636E+04 0.27363636E+04 0.32000000E+00 0.0000E+00 0.9000E+01
        1 -1    0    0  501    0 0.00000000E+00 0.00000000E+00 -.13597660E+04 0.13597661E+04 0.32000000E+00 0.0000E+00 0.9000E+01
       25  1    1    2    0    0 -.30773202E+03 -.35197496E+03 0.27138213E+03 0.55485009E+03 0.12500000E+03 0.0000E+00 0.9000E+01
        2  1    1    2  501    0 0.24770392E+03 0.32723744E+03 -.11829860E+04 0.12521572E+04 0.32000000E+00 0.0000E+00 0.9000E+01
        1  1    1    2  502    0 0.60028093E+02 0.24737511E+02 0.22882015E+04 0.22891224E+04 0.32000000E+00 0.0000E+00 0.9000E+01
#aMCatNLO 1  0  0  2  4 0.23110194E+01 0.00000000E+00  9  6  0 0.00000000E+00 0.00000000E+00 0.00000000E+00 0.00000000E+00 0.00000000E+00
  <rwgt>
   <wgt id='1001'> 0.18404E-01 </wgt>
   <wgt id='1002'> 0.18992E-01 </wgt>
   <wgt id='1003'> 0.17708E-01 </wgt>
   <wgt id='1004'> 0.15956E-01 </wgt>
   <wgt id='1005'> 0.16482E-01 </wgt>
   <wgt id='1006'> 0.15334E-01 </wgt>
   <wgt id='1007'> 0.21414E-01 </wgt>
   <wgt id='1008'> 0.22077E-01 </wgt>
   <wgt id='1009'> 0.20628E-01 </wgt>
  </rwgt>
  </event>
  <event>
  5      0 -.18404410E-01 0.79866633E+02 0.75467711E-02 0.94513869E-01
        3 -1    0    0  501    0 0.00000000E+00 0.00000000E+00 0.20782515E+04 0.20782516E+04 0.50000000E+00 0.0000E+00 0.9000E+01
        2 -1    0    0  502    0 0.00000000E+00 0.00000000E+00 -.94494800E+03 0.94494805E+03 0.32000000E+00 0.0000E+00 0.9000E+01
       25  1    1    2    0    0 0.48283002E+03 -.98730636E+02 -.46129206E+03 0.68650414E+03 0.12500000E+03 0.0000E+00 0.9000E+01
        4  1    1    2  501    0 -.77349957E+02 -.19931570E+02 0.18442364E+04 0.18459660E+04 0.15500000E+01 0.0000E+00 0.9000E+01
        1  1    1    2  502    0 -.40548006E+03 0.11866221E+03 -.24964079E+03 0.49072948E+03 0.32000000E+00 0.0000E+00 0.9000E+01
#aMCatNLO 1  0  0  5  2 0.30136753E+02 0.00000000E+00  9  6  0 0.00000000E+00 0.00000000E+00 0.00000000E+00 0.00000000E+00 0.00000000E+00
  <rwgt>
   <wgt id='1001'> -.18404E-01 </wgt>
   <wgt id='1002'> -.16962E-01 </wgt>
   <wgt id='1003'> -.20113E-01 </wgt>
   <wgt id='1004'> -.16458E-01 </wgt>
   <wgt id='1005'> -.15168E-01 </wgt>
   <wgt id='1006'> -.17986E-01 </wgt>
   <wgt id='1007'> -.20733E-01 </wgt>
   <wgt id='1008'> -.19108E-01 </wgt>
   <wgt id='1009'> -.22658E-01 </wgt>
  </rwgt>
  </event>
  <event>
  5      0 0.18404410E-01 0.12015047E+03 0.75467711E-02 0.90422455E-01
       -4 -1    0    0    0  501 0.00000000E+00 0.00000000E+00 0.20083900E+03 0.20084499E+03 0.15500000E+01 0.0000E+00 0.9000E+01
        2 -1    0    0  502    0 0.00000000E+00 0.00000000E+00 -.38518130E+04 0.38518130E+04 0.32000000E+00 0.0000E+00 0.9000E+01
       25  1    1    2    0    0 0.21708562E+02 0.50068645E+03 -.17240558E+04 0.17997643E+04 0.12500000E+03 0.0000E+00 0.9000E+01
        1  1    1    2  502    0 0.24598241E+02 0.11760835E+03 -.14889328E+04 0.14937730E+04 0.32000000E+00 0.0000E+00 0.9000E+01
       -3  1    1    2    0  501 -.46306804E+02 -.61829480E+03 -.43798544E+03 0.75912072E+03 0.50000000E+00 0.0000E+00 0.9000E+01
#aMCatNLO 1  0  0  2  5 0.21219322E+03 0.00000000E+00  9  6  0 0.00000000E+00 0.00000000E+00 0.00000000E+00 0.00000000E+00 0.00000000E+00
  <rwgt>
   <wgt id='1001'> 0.18404E-01 </wgt>
   <wgt id='1002'> 0.17497E-01 </wgt>
   <wgt id='1003'> 0.19475E-01 </wgt>
   <wgt id='1004'> 0.21102E-01 </wgt>
   <wgt id='1005'> 0.19951E-01 </wgt>
   <wgt id='1006'> 0.22457E-01 </wgt>
   <wgt id='1007'> 0.15011E-01 </wgt>
   <wgt id='1008'> 0.14402E-01 </wgt>
   <wgt id='1009'> 0.15729E-01 </wgt>
  </rwgt>
  </event>
  <event>
  5      0 0.18404410E-01 0.30443817E+02 0.75467711E-02 0.92989961E-01
        1 -1    0    0  502    0 0.00000000E+00 0.00000000E+00 0.19334049E+04 0.19334050E+04 0.32000000E+00 0.0000E+00 0.9000E+01
        2 -1    0    0  501    0 0.00000000E+00 0.00000000E+00 -.59113542E+03 0.59113551E+03 0.32000000E+00 0.0000E+00 0.9000E+01
       25  1    1    2    0    0 -.25181737E+03 0.51373995E+03 0.40253905E+03 0.71063592E+03 0.12500000E+03 0.0000E+00 0.9000E+01
        1  1    1    2  501    0 0.24179926E+03 -.48498650E+03 -.26884649E+03 0.60494406E+03 0.32000000E+00 0.0000E+00 0.9000E+01
        2  1    1    2  502    0 0.10018110E+02 -.28753454E+02 0.12085769E+04 0.12089605E+04 0.32000000E+00 0.0000E+00 0.9000E+01
#aMCatNLO 1  0  0  2  1 0.81459859E+03 0.00000000E+00  9  6  0 0.00000000E+00 0.00000000E+00 0.00000000E+00 0.00000000E+00 0.00000000E+00
  <rwgt>
   <wgt id='1001'> 0.18405E-01 </wgt>
   <wgt id='1002'> 0.18361E-01 </wgt>
   <wgt id='1003'> 0.18457E-01 </wgt>
   <wgt id='1004'> 0.16853E-01 </wgt>
   <wgt id='1005'> 0.16820E-01 </wgt>
   <wgt id='1006'> 0.16891E-01 </wgt>
   <wgt id='1007'> 0.20186E-01 </wgt>
   <wgt id='1008'> 0.20130E-01 </wgt>
   <wgt id='1009'> 0.20255E-01 </wgt>
  </rwgt>
  </event>
  <event>
  5      0 -.18404410E-01 0.13573726E+02 0.75467711E-02 0.93216069E-01
        1 -1    0    0  502    0 0.00000000E+00 0.00000000E+00 0.50852474E+03 0.50852484E+03 0.32000000E+00 0.0000E+00 0.9000E+01
        2 -1    0    0  501    0 0.00000000E+00 0.00000000E+00 -.18897042E+04 0.18897043E+04 0.32000000E+00 0.0000E+00 0.9000E+01
       25  1    1    2    0    0 0.19630934E+03 0.51976732E+03 -.73800599E+02 0.57425338E+03 0.12500000E+03 0.0000E+00 0.9000E+01
        1  1    1    2  501    0 -.20672774E+03 -.51105720E+03 -.15169227E+04 0.16139921E+04 0.32000000E+00 0.0000E+00 0.9000E+01
        2  1    1    2  502    0 0.10418400E+02 -.87101148E+01 0.20954382E+03 0.20998363E+03 0.32000000E+00 0.0000E+00 0.9000E+01
#aMCatNLO 1  0  0  2  1 0.81459859E+03 0.00000000E+00  9  6  0 0.00000000E+00 0.00000000E+00 0.00000000E+00 0.00000000E+00 0.00000000E+00
  <rwgt>
   <wgt id='1001'> -.18405E-01 </wgt>
   <wgt id='1002'> -.17015E-01 </wgt>
   <wgt id='1003'> -.20047E-01 </wgt>
   <wgt id='1004'> -.17034E-01 </wgt>
   <wgt id='1005'> -.15748E-01 </wgt>
   <wgt id='1006'> -.18553E-01 </wgt>
   <wgt id='1007'> -.19960E-01 </wgt>
   <wgt id='1008'> -.18454E-01 </wgt>
   <wgt id='1009'> -.21741E-01 </wgt>
  </rwgt>
  </event>
  <event>
  6      0 0.18404410E-01 0.78252327E+02 0.75467711E-02 0.94852917E-01
        1 -1    0    0  502    0 0.00000000E+00 0.00000000E+00 0.80844775E+03 0.80844782E+03 0.32000000E+00 0.0000E+00 0.9000E+01
        1 -1    0    0  503    0 0.00000000E+00 0.00000000E+00 -.28463793E+04 0.28463793E+04 0.32000000E+00 0.0000E+00 0.9000E+01
       25  1    1    2    0    0 0.41230625E+03 -.22179140E+03 0.85703459E+02 0.49209547E+03 0.12500000E+03 0.0000E+00 0.9000E+01
        1  1    1    2  501    0 -.11565069E+03 -.13081126E+02 -.40667459E+03 0.42300180E+03 0.32000000E+00 0.0000E+00 0.9000E+01
        1  1    1    2  502    0 -.23090107E+03 0.19613185E+03 0.46578927E+03 0.55564625E+03 0.32000000E+00 0.0000E+00 0.9000E+01
       21  1    1    2  503  501 -.65754484E+02 0.38740674E+02 -.21827497E+04 0.21840836E+04 0.75000000E+00 0.0000E+00 0.9000E+01
#aMCatNLO 2  0  0  2  1 0.75923857E+03 0.00000000E+00  9  6  0 0.00000000E+00 0.00000000E+00 0.00000000E+00 0.00000000E+00 0.00000000E+00
  <rwgt>
   <wgt id='1001'> 0.18405E-01 </wgt>
   <wgt id='1002'> 0.16992E-01 </wgt>
   <wgt id='1003'> 0.20080E-01 </wgt>
   <wgt id='1004'> 0.16274E-01 </wgt>
   <wgt id='1005'> 0.15025E-01 </wgt>
   <wgt id='1006'> 0.17755E-01 </wgt>
   <wgt id='1007'> 0.20984E-01 </wgt>
   <wgt id='1008'> 0.19372E-01 </wgt>
   <wgt id='1009'> 0.22893E-01 </wgt>
  </rwgt>
  </event>
  <event>
  5      0 0.18404410E-01 0.91348450E+02 0.75467711E-02 0.92329593E-01
        1 -1    0    0  502    0 0.00000000E+00 0.00000000E+00 0.13350595E+04 0.13350595E+04 0.32000000E+00 0.0000E+00 0.9000E+01
        2 -1    0    0  501    0 0.00000000E+00 0.00000000E+00 -.86984411E+03 0.86984417E+03 0.32000000E+00 0.0000E+00 0.9000E+01
       25  1    1    2    0    0 -.11262359E+03 0.49823930E+03 -.13539877E+03 0.54303251E+03 0.12500000E+03 0.0000E+00 0.9000E+01
        1  1    1    2  501    0 0.84655351E+02 0.34310136E+02 -.46306871E+03 0.47199200E+03 0.32000000E+00 0.0000E+00 0.9000E+01
        2  1    1    2  502    0 0.27968235E+02 -.53254944E+03 0.10636828E+04 0.11898792E+04 0.32000000E+00 0.0000E+00 0.9000E+01
#aMCatNLO 1  0  0  5  2 0.45654925E+02 0.00000000E+00  9  6  0 0.00000000E+00 0.00000000E+00 0.00000000E+00 0.00000000E+00 0.00000000E+00
  <rwgt>
   <wgt id='1001'> 0.18405E-01 </wgt>
   <wgt id='1002'> 0.20679E-01 </wgt>
   <wgt id='1003'> 0.15717E-01 </wgt>
   <wgt id='1004'> 0.16788E-01 </wgt>
   <wgt id='1005'> 0.18919E-01 </wgt>
   <wgt id='1006'> 0.14270E-01 </wgt>
   <wgt id='1007'> 0.20249E-01 </wgt>
   <wgt id='1008'> 0.22686E-01 </wgt>
   <wgt id='1009'> 0.17369E-01 </wgt>
  </rwgt>
  </event>
  <event>
  5      0 0.18404410E-01 0.17473701E+02 0.75467711E-02 0.89331080E-01
        1 -1    0    0  502    0 0.00000000E+00 0.00000000E+00 0.69871157E+03 0.69871164E+03 0.32000000E+00 0.0000E+00 0.9000E+01
        2 -1    0    0  501    0 0.00000000E+00 0.00000000E+00 -.45410919E+04 0.45410919E+04 0.32000000E+00 0.0000E+00 0.9000E+01
       25  1    1    2    0    0 -.49539996E+03 -.32513303E+03 -.84567483E+03 0.10401555E+04 0.12500000E+03 0.0000E+00 0.9000E+01
        1  1    1    2  501    0 0.17390457E+02 0.16914985E+01 -.34596943E+04 0.34597385E+04 0.32000000E+00 0.0000E+00 0.9000E+01
        2  1    1    2  502    0 0.47800950E+03 0.32344153E+03 0.46298879E+03 0.73990961E+03 0.32000000E+00 0.0000E+00 0.9000E+01
#aMCatNLO 1  0  0  2  4 0.47581933E+02 0.00000000E+00  9  6  0 0.00000000E+00 0.00000000E+00 0.00000000E+00 0.00000000E+00 0.00000000E+00
  <rwgt>
   <wgt id='1001'> 0.18405E-01 </wgt>
   <wgt id='1002'> 0.17494E-01 </wgt>
   <wgt id='1003'> 0.19478E-01 </wgt>
   <wgt id='1004'> 0.19705E-01 </wgt>
   <wgt id='1005'> 0.18625E-01 </wgt>
   <wgt id='1006'> 0.20977E-01 </wgt>
   <wgt id='1007'> 0.16208E-01 </wgt>
   <wgt id='1008'> 0.15552E-01 </wgt>
   <wgt id='1009'> 0.16983E-01 </wgt>
  </rwgt>
  </event>
  <event>
  5      0 -.18404410E-01 0.93346176E+02 0.75467711E-02 0.93444670E-01
        1 -1    0    0  502    0 0.00000000E+00 0.00000000E+00 0.67853274E+03 0.67853281E+03 0.32000000E+00 0.0000E+00 0.9000E+01
        2 -1    0    0  501    0 -.00000000E+00 -.00000000E+00 -.16146838E+04 0.16146838E+04 0.32000000E+00 0.0000E+00 0.9000E+01
       25  1    1    2    0    0 -.45237032E+03 -.16490692E+03 -.86885376E+03 0.10011818E+04 0.12500000E+03 0.0000E+00 0.9000E+01
        1  1    1    2  501    0 0.33970025E+00 -.93357833E+02 -.56448560E+03 0.57215373E+03 0.32000000E+00 0.0000E+00 0.9000E+01
        2  1    1    2  502    0 0.45203062E+03 0.25826475E+03 0.49718834E+03 0.71988104E+03 0.32000000E+00 0.0000E+00 0.9000E+01
#aMCatNLO 1  0  0  5  1 0.40252497E+02 0.00000000E+00  9  6  0 0.00000000E+00 0.00000000E+00 0.00000000E+00 0.00000000E+00 0.00000000E+00
  <rwgt>
   <wgt id='1001'> -.18405E-01 </wgt>
   <wgt id='1002'> -.16971E-01 </wgt>
   <wgt id='1003'> -.20099E-01 </wgt>
   <wgt id='1004'> -.17046E-01 </wgt>
   <wgt id='1005'> -.15719E-01 </wgt>
   <wgt id='1006'> -.18616E-01 </wgt>
   <wgt id='1007'> -.19948E-01 </wgt>
   <wgt id='1008'> -.18394E-01 </wgt>
   <wgt id='1009'> -.21786E-01 </wgt>
  </rwgt>
  </event>
  <event>
  5      0 -.18404410E-01 0.22835427E+02 0.75467711E-02 0.89814202E-01
        1 -1    0    0  502    0 0.00000000E+00 0.00000000E+00 0.14550076E+04 0.14550077E+04 0.32000000E+00 0.0000E+00 0.9000E+01
        2 -1    0    0  501    0 -.00000000E+00 -.00000000E+00 -.29720034E+04 0.29720035E+04 0.32000000E+00 0.0000E+00 0.9000E+01
       25  1    1    2    0    0 0.68917463E+03 -.35858372E+03 -.18130883E+04 0.19764762E+04 0.12500000E+03 0.0000E+00 0.9000E+01
        1  1    1    2  501    0 -.17880950E+02 0.14204114E+02 -.97345325E+03 0.97372112E+03 0.32000000E+00 0.0000E+00 0.9000E+01
        2  1    1    2  502    0 -.67129368E+03 0.34437961E+03 0.12695458E+04 0.14768138E+04 0.32000000E+00 0.0000E+00 0.9000E+01
#aMCatNLO 1  0  0  5  1 0.85689364E+01 0.00000000E+00  9  6  0 0.00000000E+00 0.00000000E+00 0.00000000E+00 0.00000000E+00 0.00000000E+00
  <rwgt>
   <wgt id='1001'> -.18405E-01 </wgt>
   <wgt id='1002'> -.17060E-01 </wgt>
   <wgt id='1003'> -.19984E-01 </wgt>
   <wgt id='1004'> -.16048E-01 </wgt>
   <wgt id='1005'> -.14874E-01 </wgt>
   <wgt id='1006'> -.17425E-01 </wgt>
   <wgt id='1007'> -.21293E-01 </wgt>
   <wgt id='1008'> -.19737E-01 </wgt>
   <wgt id='1009'> -.23122E-01 </wgt>
  </rwgt>
  </event>
  <event>
  5      0 0.18404410E-01 0.30853126E+02 0.75467711E-02 0.93931373E-01
        1 -1    0    0  502    0 0.00000000E+00 0.00000000E+00 0.36780821E+04 0.36780821E+04 0.32000000E+00 0.0000E+00 0.9000E+01
        2 -1    0    0  501    0 0.00000000E+00 0.00000000E+00 -.50261654E+03 0.50261664E+03 0.32000000E+00 0.0000E+00 0.9000E+01
       25  1    1    2    0    0 0.11698420E+03 0.46004373E+03 -.92698364E+02 0.49954331E+03 0.12500000E+03 0.0000E+00 0.9000E+01
        1  1    1    2  501    0 -.16903133E+02 -.25814491E+02 -.19096501E+03 0.19344209E+03 0.32000000E+00 0.0000E+00 0.9000E+01
        2  1    1    2  502    0 -.10008106E+03 -.43422924E+03 0.34591289E+04 0.34877133E+04 0.32000000E+00 0.0000E+00 0.9000E+01
#aMCatNLO 1  0  0  1  4 0.12511698E+03 0.00000000E+00  9  6  0 0.00000000E+00 0.00000000E+00 0.00000000E+00 0.00000000E+00 0.00000000E+00
  <rwgt>
   <wgt id='1001'> 0.18405E-01 </wgt>
   <wgt id='1002'> 0.17320E-01 </wgt>
   <wgt id='1003'> 0.19689E-01 </wgt>
   <wgt id='1004'> 0.20653E-01 </wgt>
   <wgt id='1005'> 0.19358E-01 </wgt>
   <wgt id='1006'> 0.22189E-01 </wgt>
   <wgt id='1007'> 0.15384E-01 </wgt>
   <wgt id='1008'> 0.14579E-01 </wgt>
   <wgt id='1009'> 0.16336E-01 </wgt>
  </rwgt>
  </event>
  <event>
  5      0 0.18404410E-01 0.19453748E+02 0.75467711E-02 0.88403867E-01
        1 -1    0    0  501    0 0.00000000E+00 0.00000000E+00 0.10527442E+04 0.10527442E+04 0.32000000E+00 0.0000E+00 0.9000E+01
        2 -1    0    0  502    0 0.00000000E+00 0.00000000E+00 -.10027905E+04 0.10027905E+04 0.32000000E+00 0.0000E+00 0.9000E+01
       25  1    1    2    0    0 -.32864805E+03 0.34761195E+03 0.19641590E+03 0.53202239E+03 0.12500000E+03 0.0000E+00 0.9000E+01
        1  1    1    2  501    0 0.18737637E+02 0.52437402E+01 0.62232648E+03 0.62263067E+03 0.32000000E+00 0.0000E+00 0.9000E+01
        2  1    1    2  502    0 0.30991042E+03 -.35285569E+03 -.76878868E+03 0.90088165E+03 0.32000000E+00 0.0000E+00 0.9000E+01
#aMCatNLO 1  0  0  0  0 0.00000000E+00 0.00000000E+00  9  6  0 0.00000000E+00 0.00000000E+00 0.00000000E+00 0.00000000E+00 0.00000000E+00
  <rwgt>
   <wgt id='1001'> 0.18405E-01 </wgt>
   <wgt id='1002'> 0.18180E-01 </wgt>
   <wgt id='1003'> 0.18670E-01 </wgt>
   <wgt id='1004'> 0.17040E-01 </wgt>
   <wgt id='1005'> 0.16839E-01 </wgt>
   <wgt id='1006'> 0.17279E-01 </wgt>
   <wgt id='1007'> 0.19947E-01 </wgt>
   <wgt id='1008'> 0.19698E-01 </wgt>
   <wgt id='1009'> 0.20243E-01 </wgt>
  </rwgt>
  </event>
  <event>
  5      0 0.18404410E-01 0.24954601E+02 0.75467711E-02 0.95336347E-01
        1 -1    0    0  502    0 0.00000000E+00 0.00000000E+00 0.96400630E+03 0.96400636E+03 0.32000000E+00 0.0000E+00 0.9000E+01
       -3 -1    0    0    0  501 0.00000000E+00 0.00000000E+00 -.42259106E+03 0.42259135E+03 0.50000000E+00 0.0000E+00 0.9000E+01
       25  1    1    2    0    0 -.44375345E+03 0.11604195E+03 -.61698788E+02 0.47938982E+03 0.12500000E+03 0.0000E+00 0.9000E+01
        2  1    1    2  502    0 0.42076979E+03 -.12587511E+03 0.68937065E+03 0.81738837E+03 0.32000000E+00 0.0000E+00 0.9000E+01
       -4  1    1    2    0  501 0.22983660E+02 0.98331589E+01 -.86256613E+02 0.89819516E+02 0.15500000E+01 0.0000E+00 0.9000E+01
#aMCatNLO 1  0  0  4  5 0.38112324E+02 0.00000000E+00  9  6  0 0.00000000E+00 0.00000000E+00 0.00000000E+00 0.00000000E+00 0.00000000E+00
  <rwgt>
   <wgt id='1001'> 0.18404E-01 </wgt>
   <wgt id='1002'> 0.22340E-01 </wgt>
   <wgt id='1003'> 0.13735E-01 </wgt>
   <wgt id='1004'> 0.17171E-01 </wgt>
   <wgt id='1005'> 0.20966E-01 </wgt>
   <wgt id='1006'> 0.12668E-01 </wgt>
   <wgt id='1007'> 0.19691E-01 </wgt>
   <wgt id='1008'> 0.23767E-01 </wgt>
   <wgt id='1009'> 0.14855E-01 </wgt>
  </rwgt>
  </event>
  <event>
  5      0 -.18404410E-01 0.26156998E+02 0.75467711E-02 0.95109759E-01
        4 -1    0    0  501    0 0.00000000E+00 0.00000000E+00 0.20045058E+03 0.20045658E+03 0.15500000E+01 0.0000E+00 0.9000E+01
        1 -1    0    0  502    0 -.00000000E+00 -.00000000E+00 -.15833631E+04 0.15833631E+04 0.32000000E+00 0.0000E+00 0.9000E+01
       25  1    1    2    0    0 -.44558653E+03 0.14176745E+03 -.67633510E+03 0.83168476E+03 0.12500000E+03 0.0000E+00 0.9000E+01
        3  1    1    2  501    0 0.42165115E+03 -.15229983E+03 -.28823764E+03 0.53297854E+03 0.50000000E+00 0.0000E+00 0.9000E+01
        2  1    1    2  502    0 0.23935379E+02 0.10532385E+02 -.41833974E+03 0.41915638E+03 0.32000000E+00 0.0000E+00 0.9000E+01
#aMCatNLO 1  0  0  5  2 0.52357048E+01 0.00000000E+00  9  6  0 0.00000000E+00 0.00000000E+00 0.00000000E+00 0.00000000E+00 0.00000000E+00
  <rwgt>
   <wgt id='1001'> -.18404E-01 </wgt>
   <wgt id='1002'> -.16978E-01 </wgt>
   <wgt id='1003'> -.20096E-01 </wgt>
   <wgt id='1004'> -.17779E-01 </wgt>
   <wgt id='1005'> -.16401E-01 </wgt>
   <wgt id='1006'> -.19413E-01 </wgt>
   <wgt id='1007'> -.18971E-01 </wgt>
   <wgt id='1008'> -.17500E-01 </wgt>
   <wgt id='1009'> -.20716E-01 </wgt>
  </rwgt>
  </event>
  <event>
  6      0 0.18404410E-01 0.17499814E+03 0.75467711E-02 0.91806898E-01
        2 -1    0    0  502    0 0.00000000E+00 0.00000000E+00 0.18712064E+04 0.18712064E+04 0.32000000E+00 0.0000E+00 0.9000E+01
        1 -1    0    0  503    0 0.00000000E+00 0.00000000E+00 -.84248650E+03 0.84248656E+03 0.32000000E+00 0.0000E+00 0.9000E+01
       25  1    1    2    0    0 0.51229302E+03 0.26535697E+03 0.12614939E+04 0.13927851E+04 0.12500000E+03 0.0000E+00 0.9000E+01
        2  1    1    2  501    0 -.49793801E+03 -.97410560E+02 -.46758973E+03 0.68997923E+03 0.32000000E+00 0.0000E+00 0.9000E+01
        1  1    1    2  502    0 0.17041905E+01 0.12778655E+02 0.39118982E+03 0.39140232E+03 0.32000000E+00 0.0000E+00 0.9000E+01
       21  1    1    2  503  501 -.16059203E+02 -.18072507E+03 -.15637409E+03 0.23952634E+03 0.75000000E+00 0.0000E+00 0.9000E+01
#aMCatNLO 2  0  0  2  4 0.38207145E+02 0.00000000E+00  9  6  0 0.00000000E+00 0.00000000E+00 0.00000000E+00 0.00000000E+00 0.00000000E+00
  <rwgt>
   <wgt id='1001'> 0.18404E-01 </wgt>
   <wgt id='1002'> 0.17035E-01 </wgt>
   <wgt id='1003'> 0.20019E-01 </wgt>
   <wgt id='1004'> 0.16828E-01 </wgt>
   <wgt id='1005'> 0.15576E-01 </wgt>
   <wgt id='1006'> 0.18304E-01 </wgt>
   <wgt id='1007'> 0.20228E-01 </wgt>
   <wgt id='1008'> 0.18722E-01 </wgt>
   <wgt id='1009'> 0.22001E-01 </wgt>
  </rwgt>
  </event>
  <event>
  6      0 0.18404410E-01 0.41260861E+02 0.75467711E-02 0.93196234E-01
       -4 -1    0    0    0  503 0.00000000E+00 0.00000000E+00 0.27142581E+03 0.27143024E+03 0.15500000E+01 0.0000E+00 0.9000E+01
        2 -1    0    0  502    0 0.00000000E+00 0.00000000E+00 -.33687767E+04 0.33687767E+04 0.32000000E+00 0.0000E+00 0.9000E+01
       25  1    1    2    0    0 0.12410087E+03 -.53751840E+03 -.16737482E+04 0.17667442E+04 0.12500000E+03 0.0000E+00 0.9000E+01
        1  1    1    2  502    0 0.26223165E+02 0.54900773E+02 -.13417687E+04 0.13431475E+04 0.32000000E+00 0.0000E+00 0.9000E+01
       -3  1    1    2    0  501 -.12277885E+03 0.45427226E+03 -.10813097E+03 0.48283588E+03 0.50000000E+00 0.0000E+00 0.9000E+01
       21  1    1    2  501  503 -.27545184E+02 0.28345371E+02 0.26297002E+02 0.47479386E+02 0.75000000E+00 0.0000E+00 0.9000E+01
#aMCatNLO 2  0  0  1  5 0.39524641E+02 0.00000000E+00  9  6  0 0.00000000E+00 0.00000000E+00 0.00000000E+00 0.00000000E+00 0.00000000E+00
  <rwgt>
   <wgt id='1001'> 0.18404E-01 </wgt>
   <wgt id='1002'> 0.17014E-01 </wgt>
   <wgt id='1003'> 0.20046E-01 </wgt>
   <wgt id='1004'> 0.16899E-01 </wgt>
   <wgt id='1005'> 0.15624E-01 </wgt>
   <wgt id='1006'> 0.18407E-01 </wgt>
   <wgt id='1007'> 0.20047E-01 </wgt>
   <wgt id='1008'> 0.18535E-01 </wgt>
   <wgt id='1009'> 0.21836E-01 </wgt>
  </rwgt>
  </event>
  <event>
  5      0 0.18404410E-01 0.20260652E+03 0.75467711E-02 0.91875684E-01
        2 -1    0    0  502    0 0.00000000E+00 0.00000000E+00 0.10287004E+04 0.10287005E+04 0.32000000E+00 0.0000E+00 0.9000E+01
       -2 -1    0    0    0  501 0.00000000E+00 0.00000000E+00 -.95830662E+03 0.95830667E+03 0.32000000E+00 0.0000E+00 0.9000E+01
       25  1    1    2    0    0 -.61519890E+03 0.11080956E+02 -.14790204E+03 0.64505232E+03 0.12500000E+03 0.0000E+00 0.9000E+01
        1  1    1    2  502    0 0.43138759E+03 0.74071056E+02 0.69649888E+03 0.82261326E+03 0.32000000E+00 0.0000E+00 0.9000E+01
       -1  1    1    2    0  501 0.18381131E+03 -.85152013E+02 -.47820302E+03 0.51934159E+03 0.32000000E+00 0.0000E+00 0.9000E+01
#aMCatNLO 1  0  0  2  5 0.12863782E+02 0.00000000E+00  9  6  0 0.00000000E+00 0.00000000E+00 0.00000000E+00 0.00000000E+00 0.00000000E+00
  <rwgt>
   <wgt id='1001'> 0.18405E-01 </wgt>
   <wgt id='1002'> 0.17059E-01 </wgt>
   <wgt id='1003'> 0.19990E-01 </wgt>
   <wgt id='1004'> 0.17297E-01 </wgt>
   <wgt id='1005'> 0.16032E-01 </wgt>
   <wgt id='1006'> 0.18787E-01 </wgt>
   <wgt id='1007'> 0.19653E-01 </wgt>
   <wgt id='1008'> 0.18217E-01 </wgt>
   <wgt id='1009'> 0.21345E-01 </wgt>
  </rwgt>
  </event>
  <event>
  5      0 0.18404410E-01 0.92657467E+02 0.75467711E-02 0.84104639E-01
        1 -1    0    0  501    0 0.00000000E+00 0.00000000E+00 0.99526364E+03 0.99526369E+03 0.32000000E+00 0.0000E+00 0.9000E+01
        2 -1    0    0  502    0 -.00000000E+00 -.00000000E+00 -.36598569E+04 0.36598569E+04 0.32000000E+00 0.0000E+00 0.9000E+01
       25  1    1    2    0    0 0.44733992E+03 -.11843788E+03 -.22279550E+03 0.52858620E+03 0.12500000E+03 0.0000E+00 0.9000E+01
        1  1    1    2  501    0 0.71361564E+02 -.59105416E+02 0.81685021E+03 0.82208898E+03 0.32000000E+00 0.0000E+00 0.9000E+01
        2  1    1    2  502    0 -.51870148E+03 0.17754329E+03 -.32586480E+04 0.33044454E+04 0.32000000E+00 0.0000E+00 0.9000E+01
#aMCatNLO 1  0  0  4  1 0.12096700E+02 0.00000000E+00  9  6  0 0.00000000E+00 0.00000000E+00 0.00000000E+00 0.00000000E+00 0.00000000E+00
  <rwgt>
   <wgt id='1001'> 0.18405E-01 </wgt>
   <wgt id='1002'> 0.19296E-01 </wgt>
   <wgt id='1003'> 0.17351E-01 </wgt>
   <wgt id='1004'> 0.15747E-01 </wgt>
   <wgt id='1005'> 0.16529E-01 </wgt>
   <wgt id='1006'> 0.14822E-01 </wgt>
   <wgt id='1007'> 0.21718E-01 </wgt>
   <wgt id='1008'> 0.22743E-01 </wgt>
   <wgt id='1009'> 0.20508E-01 </wgt>
  </rwgt>
  </event>
  <event>
  5      0 -.18404410E-01 0.35500029E+02 0.75467711E-02 0.94143069E-01
        3 -1    0    0  502    0 0.00000000E+00 0.00000000E+00 0.38070714E+04 0.38070714E+04 0.50000000E+00 0.0000E+00 0.9000E+01
        4 -1    0    0  501    0 0.00000000E+00 0.00000000E+00 -.13374186E+03 0.13375084E+03 0.15500000E+01 0.0000E+00 0.9000E+01
       25  1    1    2    0    0 0.14639022E+03 -.46559922E+03 0.16344199E+04 0.17103117E+04 0.12500000E+03 0.0000E+00 0.9000E+01
        3  1    1    2  501    0 -.25655898E+02 -.24485860E+02 -.61125212E+02 0.70670532E+02 0.50000000E+00 0.0000E+00 0.9000E+01
        4  1    1    2  502    0 -.12073432E+03 0.49008508E+03 0.21000348E+04 0.21598400E+04 0.15500000E+01 0.0000E+00 0.9000E+01
#aMCatNLO 1  0  0  4  2 0.36639050E+01 0.00000000E+00  9  6  0 0.00000000E+00 0.00000000E+00 0.00000000E+00 0.00000000E+00 0.00000000E+00
  <rwgt>
   <wgt id='1001'> -.18405E-01 </wgt>
   <wgt id='1002'> -.17000E-01 </wgt>
   <wgt id='1003'> -.20067E-01 </wgt>
   <wgt id='1004'> -.17427E-01 </wgt>
   <wgt id='1005'> -.16096E-01 </wgt>
   <wgt id='1006'> -.19001E-01 </wgt>
   <wgt id='1007'> -.19413E-01 </wgt>
   <wgt id='1008'> -.17931E-01 </wgt>
   <wgt id='1009'> -.21168E-01 </wgt>
  </rwgt>
  </event>
  <event>
  6      0 0.18404410E-01 0.71515371E+02 0.75467711E-02 0.91361702E-01
        2 -1    0    0  501    0 0.00000000E+00 0.00000000E+00 0.75675916E+03 0.75675923E+03 0.32000000E+00 0.0000E+00 0.9000E+01
        4 -1    0    0  502    0 0.00000000E+00 0.00000000E+00 -.74913842E+03 0.74914003E+03 0.15500000E+01 0.0000E+00 0.9000E+01
       25  1    1    2    0    0 -.59467392E+03 0.28300365E+03 -.19390969E+03 0.69782098E+03 0.12500000E+03 0.0000E+00 0.9000E+01
        2  1    1    2  501    0 0.51613412E+03 -.25343103E+03 -.56607627E+01 0.57502509E+03 0.32000000E+00 0.0000E+00 0.9000E+01
        4  1    1    2  503    0 0.81297346E+02 -.94787910E+01 0.18830310E+03 0.20532795E+03 0.15500000E+01 0.0000E+00 0.9000E+01
       21  1    1    2  502  503 -.27575366E+01 -.20093837E+02 0.18888093E+02 0.27725239E+02 0.75000000E+00 0.0000E+00 0.9000E+01
#aMCatNLO 2  0  0  5  2 0.20139674E+02 0.00000000E+00  9  6  0 0.00000000E+00 0.00000000E+00 0.00000000E+00 0.00000000E+00 0.00000000E+00
  <rwgt>
   <wgt id='1001'> 0.18404E-01 </wgt>
   <wgt id='1002'> 0.17047E-01 </wgt>
   <wgt id='1003'> 0.20001E-01 </wgt>
   <wgt id='1004'> 0.17788E-01 </wgt>
   <wgt id='1005'> 0.16477E-01 </wgt>
   <wgt id='1006'> 0.19331E-01 </wgt>
   <wgt id='1007'> 0.18979E-01 </wgt>
   <wgt id='1008'> 0.17579E-01 </wgt>
   <wgt id='1009'> 0.20625E-01 </wgt>
  </rwgt>
  </event>
  <event>
  5      0 -.18404410E-01 0.28533402E+02 0.75467711E-02 0.94484836E-01
        2 -1    0    0  502    0 0.00000000E+00 0.00000000E+00 0.14590645E+04 0.14590646E+04 0.32000000E+00 0.0000E+00 0.9000E+01
       -2 -1    0    0    0  501 0.00000000E+00 0.00000000E+00 -.20347633E+03 0.20347658E+03 0.32000000E+00 0.0000E+00 0.9000E+01
       25  1    1    2    0    0 -.48355716E+03 -.65631548E+02 0.85786558E+03 0.99483335E+03 0.12500000E+03 0.0000E+00 0.9000E+01
        1  1    1    2  502    0 0.10162375E+02 0.26856167E+02 0.10707188E+03 0.11085584E+03 0.32000000E+00 0.0000E+00 0.9000E+01
       -1  1    1    2    0  501 0.47339479E+03 0.38775381E+02 0.29065073E+03 0.55685196E+03 0.32000000E+00 0.0000E+00 0.9000E+01
#aMCatNLO 1  0  0  5  4 0.90144516E+01 0.00000000E+00  9  6  0 0.00000000E+00 0.00000000E+00 0.00000000E+00 0.00000000E+00 0.00000000E+00
  <rwgt>
   <wgt id='1001'> -.18405E-01 </wgt>
   <wgt id='1002'> -.11672E-01 </wgt>
   <wgt id='1003'> -.26380E-01 </wgt>
   <wgt id='1004'> -.18010E-01 </wgt>
   <wgt id='1005'> -.11544E-01 </wgt>
   <wgt id='1006'> -.25672E-01 </wgt>
   <wgt id='1007'> -.18788E-01 </wgt>
   <wgt id='1008'> -.11781E-01 </wgt>
   <wgt id='1009'> -.27087E-01 </wgt>
  </rwgt>
  </event>
  <event>
  5      0 0.18404410E-01 0.36609106E+02 0.75467711E-02 0.87790949E-01
        1 -1    0    0  502    0 0.00000000E+00 0.00000000E+00 0.12340142E+04 0.12340142E+04 0.32000000E+00 0.0000E+00 0.9000E+01
        2 -1    0    0  501    0 0.00000000E+00 0.00000000E+00 -.92096423E+03 0.92096428E+03 0.32000000E+00 0.0000E+00 0.9000E+01
       25  1    1    2    0    0 -.85731677E+03 -.32147424E+03 -.18405498E+03 0.94225207E+03 0.12500000E+03 0.0000E+00 0.9000E+01
        1  1    1    2  501    0 0.27769205E+02 -.23856816E+02 -.11816624E+03 0.12370788E+03 0.32000000E+00 0.0000E+00 0.9000E+01
        2  1    1    2  502    0 0.82954757E+03 0.34533105E+03 0.61527119E+03 0.10890186E+04 0.32000000E+00 0.0000E+00 0.9000E+01
#aMCatNLO 1  0  0  2  4 0.14694947E+02 0.00000000E+00  9  6  0 0.00000000E+00 0.00000000E+00 0.00000000E+00 0.00000000E+00 0.00000000E+00
  <rwgt>
   <wgt id='1001'> 0.18405E-01 </wgt>
   <wgt id='1002'> 0.17419E-01 </wgt>
   <wgt id='1003'> 0.19558E-01 </wgt>
   <wgt id='1004'> 0.19469E-01 </wgt>
   <wgt id='1005'> 0.18385E-01 </wgt>
   <wgt id='1006'> 0.20738E-01 </wgt>
   <wgt id='1007'> 0.17214E-01 </wgt>
   <wgt id='1008'> 0.16340E-01 </wgt>
   <wgt id='1009'> 0.18237E-01 </wgt>
  </rwgt>
  </event>
  <event>
  5      0 0.18404410E-01 0.32474717E+02 0.75467711E-02 0.85817712E-01
        2 -1    0    0  502    0 0.00000000E+00 0.00000000E+00 0.28371076E+03 0.28371094E+03 0.32000000E+00 0.0000E+00 0.9000E+01
        1 -1    0    0  501    0 0.00000000E+00 0.00000000E+00 -.30864951E+04 0.30864951E+04 0.32000000E+00 0.0000E+00 0.9000E+01
       25  1    1    2    0    0 -.34597379E+03 -.59349794E+03 -.12413346E+04 0.14242452E+04 0.12500000E+03 0.0000E+00 0.9000E+01
        2  1    1    2  501    0 0.92024748E+01 0.31139718E+02 -.11941307E+04 0.11945721E+04 0.32000000E+00 0.0000E+00 0.9000E+01
        1  1    1    2  502    0 0.33677132E+03 0.56235822E+03 -.36731902E+03 0.75138875E+03 0.32000000E+00 0.0000E+00 0.9000E+01
#aMCatNLO 1  0  0  2  4 0.38207145E+02 0.00000000E+00  9  6  0 0.00000000E+00 0.00000000E+00 0.00000000E+00 0.00000000E+00 0.00000000E+00
  <rwgt>
   <wgt id='1001'> 0.18404E-01 </wgt>
   <wgt id='1002'> 0.17922E-01 </wgt>
   <wgt id='1003'> 0.18972E-01 </wgt>
   <wgt id='1004'> 0.21695E-01 </wgt>
   <wgt id='1005'> 0.20891E-01 </wgt>
   <wgt id='1006'> 0.22642E-01 </wgt>
   <wgt id='1007'> 0.14313E-01 </wgt>
   <wgt id='1008'> 0.14225E-01 </wgt>
   <wgt id='1009'> 0.14415E-01 </wgt>
  </rwgt>
  </event>
  <event>
  6      0 0.18404410E-01 0.58376627E+02 0.75467711E-02 0.92466308E-01
       -2 -1    0    0    0  501 0.00000000E+00 0.00000000E+00 0.10476927E+04 0.10476927E+04 0.32000000E+00 0.0000E+00 0.9000E+01
        2 -1    0    0  501    0 0.00000000E+00 0.00000000E+00 -.51290198E+03 0.51290208E+03 0.32000000E+00 0.0000E+00 0.9000E+01
       25  1    1    2    0    0 0.58093367E+03 -.10742347E+03 0.69942567E+03 0.92403733E+03 0.12500000E+03 0.0000E+00 0.9000E+01
        1  1    1    2  502    0 -.37645174E+03 0.90858671E+02 -.74182040E+02 0.39430228E+03 0.32000000E+00 0.0000E+00 0.9000E+01
       -1  1    1    2    0  503 -.21028544E+03 0.41023037E+01 -.89103055E+02 0.22842121E+03 0.32000000E+00 0.0000E+00 0.9000E+01
       21  1    1    2  503  502 0.58035042E+01 0.12462500E+02 -.13498675E+01 0.13833987E+02 0.75000000E+00 0.0000E+00 0.9000E+01
#aMCatNLO 2  0  0  5  2 0.22577145E+02 0.00000000E+00  9  6  0 0.00000000E+00 0.00000000E+00 0.00000000E+00 0.00000000E+00 0.00000000E+00
  <rwgt>
   <wgt id='1001'> 0.18405E-01 </wgt>
   <wgt id='1002'> 0.17026E-01 </wgt>
   <wgt id='1003'> 0.20032E-01 </wgt>
   <wgt id='1004'> 0.17374E-01 </wgt>
   <wgt id='1005'> 0.16073E-01 </wgt>
   <wgt id='1006'> 0.18911E-01 </wgt>
   <wgt id='1007'> 0.19524E-01 </wgt>
   <wgt id='1008'> 0.18061E-01 </wgt>
   <wgt id='1009'> 0.21250E-01 </wgt>
  </rwgt>
  </event>
  <event>
  5      0 0.18404410E-01 0.38206683E+02 0.75467711E-02 0.93218903E-01
        2 -1    0    0  502    0 0.00000000E+00 0.00000000E+00 0.13539441E+04 0.13539441E+04 0.32000000E+00 0.0000E+00 0.9000E+01
        1 -1    0    0  501    0 -.00000000E+00 -.00000000E+00 -.17409789E+04 0.17409789E+04 0.32000000E+00 0.0000E+00 0.9000E+01
       25  1    1    2    0    0 0.29069783E+03 -.47775953E+03 -.16818669E+03 0.59721953E+03 0.12500000E+03 0.0000E+00 0.9000E+01
        2  1    1    2  501    0 -.28712699E+02 0.25201279E+02 -.12979837E+04 0.12985459E+04 0.32000000E+00 0.0000E+00 0.9000E+01
        1  1    1    2  502    0 -.26198514E+03 0.45255825E+03 0.10791356E+04 0.11991576E+04 0.32000000E+00 0.0000E+00 0.9000E+01
#aMCatNLO 1  0  0  5  1 0.21066092E+01 0.00000000E+00  9  6  0 0.00000000E+00 0.00000000E+00 0.00000000E+00 0.00000000E+00 0.00000000E+00
  <rwgt>
   <wgt id='1001'> 0.18404E-01 </wgt>
   <wgt id='1002'> 0.17427E-01 </wgt>
   <wgt id='1003'> 0.19559E-01 </wgt>
   <wgt id='1004'> 0.16563E-01 </wgt>
   <wgt id='1005'> 0.15684E-01 </wgt>
   <wgt id='1006'> 0.17601E-01 </wgt>
   <wgt id='1007'> 0.20579E-01 </wgt>
   <wgt id='1008'> 0.19485E-01 </wgt>
   <wgt id='1009'> 0.21871E-01 </wgt>
  </rwgt>
  </event>
  <event>
  5      0 0.18404410E-01 0.43376540E+03 0.75467711E-02 0.90720874E-01
        2 -1    0    0  501    0 0.00000000E+00 0.00000000E+00 0.19587550E+04 0.19587550E+04 0.32000000E+00 0.0000E+00 0.9000E+01
        1 -1    0    0  502    0 0.00000000E+00 0.00000000E+00 -.23726822E+04 0.23726823E+04 0.32000000E+00 0.0000E+00 0.9000E+01
       25  1    1    2    0    0 0.26166227E+03 -.46465235E+03 -.71258064E+02 0.55233293E+03 0.12500000E+03 0.0000E+00 0.9000E+01
        2  1    1    2  501    0 -.43124280E+03 0.46779192E+02 0.16654282E+04 0.17209909E+04 0.32000000E+00 0.0000E+00 0.9000E+01
        1  1    1    2  502    0 0.16958052E+03 0.41787316E+03 -.20080974E+04 0.20581134E+04 0.32000000E+00 0.0000E+00 0.9000E+01
#aMCatNLO 1  0  0  1  4 0.61963845E+02 0.00000000E+00  9  6  0 0.00000000E+00 0.00000000E+00 0.00000000E+00 0.00000000E+00 0.00000000E+00
  <rwgt>
   <wgt id='1001'> 0.18404E-01 </wgt>
   <wgt id='1002'> 0.17050E-01 </wgt>
   <wgt id='1003'> 0.19997E-01 </wgt>
   <wgt id='1004'> 0.16067E-01 </wgt>
   <wgt id='1005'> 0.14885E-01 </wgt>
   <wgt id='1006'> 0.17457E-01 </wgt>
   <wgt id='1007'> 0.21268E-01 </wgt>
   <wgt id='1008'> 0.19703E-01 </wgt>
   <wgt id='1009'> 0.23108E-01 </wgt>
  </rwgt>
  </event>
  <event>
  6      0 -.18404410E-01 0.10474281E+03 0.75467711E-02 0.88028493E-01
        1 -1    0    0  502    0 0.00000000E+00 0.00000000E+00 0.10787206E+04 0.10787206E+04 0.32000000E+00 0.0000E+00 0.9000E+01
        2 -1    0    0  503    0 0.00000000E+00 0.00000000E+00 -.27075815E+04 0.27075815E+04 0.32000000E+00 0.0000E+00 0.9000E+01
       25  1    1    2    0    0 -.79645670E+03 0.36429976E+03 -.28479270E+03 0.92940275E+03 0.12500000E+03 0.0000E+00 0.9000E+01
        1  1    1    2  501    0 0.80566877E+02 0.78711377E+02 -.15058181E+04 0.15100248E+04 0.32000000E+00 0.0000E+00 0.9000E+01
        2  1    1    2  502    0 0.73079304E+03 -.44826641E+03 0.51047516E+03 0.99779067E+03 0.32000000E+00 0.0000E+00 0.9000E+01
       21  1    1    2  503  501 -.14903216E+02 0.52552666E+01 -.34872526E+03 0.34908394E+03 0.75000000E+00 0.0000E+00 0.9000E+01
#aMCatNLO 2  0  0  2  4 0.15802648E+02 0.00000000E+00  9  6  0 0.00000000E+00 0.00000000E+00 0.00000000E+00 0.00000000E+00 0.00000000E+00
  <rwgt>
   <wgt id='1001'> -.18405E-01 </wgt>
   <wgt id='1002'> -.17089E-01 </wgt>
   <wgt id='1003'> -.19943E-01 </wgt>
   <wgt id='1004'> -.16245E-01 </wgt>
   <wgt id='1005'> -.15084E-01 </wgt>
   <wgt id='1006'> -.17604E-01 </wgt>
   <wgt id='1007'> -.21009E-01 </wgt>
   <wgt id='1008'> -.19507E-01 </wgt>
   <wgt id='1009'> -.22767E-01 </wgt>
  </rwgt>
  </event>
  <event>
  5      0 -.18404410E-01 0.38735564E+02 0.75467711E-02 0.95136289E-01
        1 -1    0    0  502    0 0.00000000E+00 0.00000000E+00 0.42944429E+03 0.42944441E+03 0.32000000E+00 0.0000E+00 0.9000E+01
        2 -1    0    0  501    0 -.00000000E+00 -.00000000E+00 -.25759460E+04 0.25759460E+04 0.32000000E+00 0.0000E+00 0.9000E+01
       25  1    1    2    0    0 0.10945927E+03 0.43725362E+03 -.10332997E+04 0.11342421E+04 0.12500000E+03 0.0000E+00 0.9000E+01
        1  1    1    2  501    0 -.14065016E+03 -.41428122E+03 -.14590011E+04 0.15231861E+04 0.32000000E+00 0.0000E+00 0.9000E+01
        2  1    1    2  502    0 0.31190891E+02 -.22972399E+02 0.34579907E+03 0.34796222E+03 0.32000000E+00 0.0000E+00 0.9000E+01
#aMCatNLO 1  0  0  5  2 0.23376651E+02 0.00000000E+00  9  6  0 0.00000000E+00 0.00000000E+00 0.00000000E+00 0.00000000E+00 0.00000000E+00
  <rwgt>
   <wgt id='1001'> -.18405E-01 </wgt>
   <wgt id='1002'> -.16950E-01 </wgt>
   <wgt id='1003'> -.20131E-01 </wgt>
   <wgt id='1004'> -.16758E-01 </wgt>
   <wgt id='1005'> -.15434E-01 </wgt>
   <wgt id='1006'> -.18330E-01 </wgt>
   <wgt id='1007'> -.20315E-01 </wgt>
   <wgt id='1008'> -.18708E-01 </wgt>
   <wgt id='1009'> -.22220E-01 </wgt>
  </rwgt>
  </event>
  <event>
  5      0 0.18404410E-01 0.48271165E+02 0.75467711E-02 0.92523403E-01
       -1 -1    0    0    0  501 0.00000000E+00 0.00000000E+00 0.10286752E+04 0.10286752E+04 0.32000000E+00 0.0000E+00 0.9000E+01
        1 -1    0    0  502    0 0.00000000E+00 0.00000000E+00 -.21174787E+04 0.21174787E+04 0.32000000E+00 0.0000E+00 0.9000E+01
       25  1    1    2    0    0 0.56226215E+03 -.17362556E+02 -.14572724E+04 0.15670699E+04 0.12500000E+03 0.0000E+00 0.9000E+01
        2  1    1    2  502    0 -.40734514E+02 -.25913239E+02 -.53382971E+03 0.53600845E+03 0.32000000E+00 0.0000E+00 0.9000E+01
       -2  1    1    2    0  501 -.52152764E+03 0.43275795E+02 0.90229858E+03 0.10430756E+04 0.32000000E+00 0.0000E+00 0.9000E+01
#aMCatNLO 1  0  0  2  4 0.75217933E+02 0.00000000E+00  9  6  0 0.00000000E+00 0.00000000E+00 0.00000000E+00 0.00000000E+00 0.00000000E+00
  <rwgt>
   <wgt id='1001'> 0.18404E-01 </wgt>
   <wgt id='1002'> 0.17239E-01 </wgt>
   <wgt id='1003'> 0.19781E-01 </wgt>
   <wgt id='1004'> 0.18911E-01 </wgt>
   <wgt id='1005'> 0.17681E-01 </wgt>
   <wgt id='1006'> 0.20363E-01 </wgt>
   <wgt id='1007'> 0.17644E-01 </wgt>
   <wgt id='1008'> 0.16567E-01 </wgt>
   <wgt id='1009'> 0.18915E-01 </wgt>
  </rwgt>
  </event>
  <event>
  7      0 0.18404410E-01 0.23371048E+03 0.75467711E-02 0.93341311E-01
        2 -1    0    0  503    0 0.00000000E+00 0.00000000E+00 0.90914753E+03 0.90914759E+03 0.32000000E+00 0.0000E+00 0.9000E+01
       -1 -1    0    0    0  501 0.00000000E+00 0.00000000E+00 -.35588167E+03 0.35588181E+03 0.32000000E+00 0.0000E+00 0.9000E+01
       24  2    1    2    0    0 0.22864879E+03 0.15984128E+03 0.73288443E+02 0.30242100E+03 0.90872218E+02 0.0000E+00 0.0000E+00
       25  1    1    2    0    0 -.46862950E+03 0.80039055E+02 0.24017328E+03 0.54710882E+03 0.12500000E+03 0.0000E+00 0.9000E+01
        2  1    3    3  502    0 0.13962124E+03 0.47530448E+02 0.57241692E+02 0.15820856E+03 0.32000000E+00 0.0000E+00 0.9000E+01
       -1  1    3    3    0  502 0.89027552E+02 0.11231083E+03 0.16046751E+02 0.14421244E+03 0.32000000E+00 0.0000E+00 0.9000E+01
       21  1    1    2  503  501 0.23998071E+03 -.23988033E+03 0.23980414E+03 0.41549958E+03 0.75000000E+00 0.0000E+00 0.9000E+01
#aMCatNLO 2  0  0  1  2 0.10093398E+02 0.00000000E+00  9  6  0 0.00000000E+00 0.00000000E+00 0.00000000E+00 0.00000000E+00 0.00000000E+00
  <rwgt>
   <wgt id='1001'> 0.18405E-01 </wgt>
   <wgt id='1002'> 0.17013E-01 </wgt>
   <wgt id='1003'> 0.20049E-01 </wgt>
   <wgt id='1004'> 0.17647E-01 </wgt>
   <wgt id='1005'> 0.16313E-01 </wgt>
   <wgt id='1006'> 0.19224E-01 </wgt>
   <wgt id='1007'> 0.19192E-01 </wgt>
   <wgt id='1008'> 0.17742E-01 </wgt>
   <wgt id='1009'> 0.20908E-01 </wgt>
  </rwgt>
  </event>
  <event>
  6      0 0.18404410E-01 0.21129396E+03 0.75467711E-02 0.92278688E-01
        1 -1    0    0  502    0 0.00000000E+00 0.00000000E+00 0.12300221E+04 0.12300222E+04 0.32000000E+00 0.0000E+00 0.9000E+01
        2 -1    0    0  501    0 0.00000000E+00 0.00000000E+00 -.11057792E+04 0.11057793E+04 0.32000000E+00 0.0000E+00 0.9000E+01
       25  1    1    2    0    0 -.54470025E+03 0.75946693E+02 -.25572840E+03 0.61926431E+03 0.12500000E+03 0.0000E+00 0.9000E+01
        1  1    1    2  501    0 -.12139754E+02 0.30623320E+02 -.56567519E+03 0.56663365E+03 0.32000000E+00 0.0000E+00 0.9000E+01
        2  1    1    2  503    0 0.20292478E+03 0.10380364E+03 0.45883092E+03 0.51232760E+03 0.32000000E+00 0.0000E+00 0.9000E+01
       21  1    1    2  502  503 0.35391522E+03 -.21037365E+03 0.48681556E+03 0.63757589E+03 0.75000000E+00 0.0000E+00 0.9000E+01
#aMCatNLO 2  0  0  5  2 0.16207787E+03 0.00000000E+00  9  6  0 0.00000000E+00 0.00000000E+00 0.00000000E+00 0.00000000E+00 0.00000000E+00
  <rwgt>
   <wgt id='1001'> 0.18405E-01 </wgt>
   <wgt id='1002'> 0.17028E-01 </wgt>
   <wgt id='1003'> 0.20027E-01 </wgt>
   <wgt id='1004'> 0.16994E-01 </wgt>
   <wgt id='1005'> 0.15723E-01 </wgt>
   <wgt id='1006'> 0.18492E-01 </wgt>
   <wgt id='1007'> 0.20015E-01 </wgt>
   <wgt id='1008'> 0.18518E-01 </wgt>
   <wgt id='1009'> 0.21781E-01 </wgt>
  </rwgt>
  </event>
  <event>
  6      0 0.18404410E-01 0.43971698E+02 0.75467711E-02 0.94129934E-01
        1 -1    0    0  501    0 0.00000000E+00 0.00000000E+00 0.12566775E+04 0.12566775E+04 0.32000000E+00 0.0000E+00 0.9000E+01
        1 -1    0    0  502    0 -.00000000E+00 -.00000000E+00 -.19151861E+04 0.19151861E+04 0.32000000E+00 0.0000E+00 0.9000E+01
       25  1    1    2    0    0 -.32394142E+03 0.37604887E+03 0.27417141E+03 0.58064254E+03 0.12500000E+03 0.0000E+00 0.9000E+01
        1  1    1    2  501    0 -.23233551E+02 -.37528684E+02 0.79466519E+03 0.79589011E+03 0.32000000E+00 0.0000E+00 0.9000E+01
        1  1    1    2  503    0 0.15238973E+03 -.19208791E+03 -.90670095E+03 0.93926946E+03 0.32000000E+00 0.0000E+00 0.9000E+01
       21  1    1    2  502  503 0.19478524E+03 -.14643228E+03 -.82064430E+03 0.85606153E+03 0.75000000E+00 0.0000E+00 0.9000E+01
#aMCatNLO 2  0  0  5  1 0.12845408E+03 0.00000000E+00  9  6  0 0.00000000E+00 0.00000000E+00 0.00000000E+00 0.00000000E+00 0.00000000E+00
  <rwgt>
   <wgt id='1001'> 0.18404E-01 </wgt>
   <wgt id='1002'> 0.17002E-01 </wgt>
   <wgt id='1003'> 0.20065E-01 </wgt>
   <wgt id='1004'> 0.16441E-01 </wgt>
   <wgt id='1005'> 0.15188E-01 </wgt>
   <wgt id='1006'> 0.17924E-01 </wgt>
   <wgt id='1007'> 0.20753E-01 </wgt>
   <wgt id='1008'> 0.19171E-01 </wgt>
   <wgt id='1009'> 0.22624E-01 </wgt>
  </rwgt>
  </event>
  <event>
  5      0 -.18404410E-01 0.22430626E+02 0.75467711E-02 0.92606820E-01
        2 -1    0    0  502    0 0.00000000E+00 0.00000000E+00 0.11542937E+04 0.11542938E+04 0.32000000E+00 0.0000E+00 0.9000E+01
        1 -1    0    0  501    0 0.00000000E+00 0.00000000E+00 -.60609227E+03 0.60609236E+03 0.32000000E+00 0.0000E+00 0.9000E+01
       25  1    1    2    0    0 -.31173966E+03 0.49462984E+03 0.40861866E+02 0.59927872E+03 0.12500000E+03 0.0000E+00 0.9000E+01
        2  1    1    2  501    0 0.32717157E+03 -.47834050E+03 -.69636295E+02 0.58369528E+03 0.32000000E+00 0.0000E+00 0.9000E+01
        1  1    1    2  502    0 -.15431909E+02 -.16289336E+02 0.57697589E+03 0.57741213E+03 0.32000000E+00 0.0000E+00 0.9000E+01
#aMCatNLO 1  0  0  4  5 0.46821352E+03 0.00000000E+00  9  6  0 0.00000000E+00 0.00000000E+00 0.00000000E+00 0.00000000E+00 0.00000000E+00
  <rwgt>
   <wgt id='1001'> -.18404E-01 </wgt>
   <wgt id='1002'> -.16985E-01 </wgt>
   <wgt id='1003'> -.20079E-01 </wgt>
   <wgt id='1004'> -.17347E-01 </wgt>
   <wgt id='1005'> -.16009E-01 </wgt>
   <wgt id='1006'> -.18925E-01 </wgt>
   <wgt id='1007'> -.19572E-01 </wgt>
   <wgt id='1008'> -.18064E-01 </wgt>
   <wgt id='1009'> -.21353E-01 </wgt>
  </rwgt>
  </event>
  <event>
  6      0 0.18404410E-01 0.13477788E+03 0.75467711E-02 0.94548895E-01
       -2 -1    0    0    0  501 0.00000000E+00 0.00000000E+00 0.15827316E+03 0.15827348E+03 0.32000000E+00 0.0000E+00 0.9000E+01
        2 -1    0    0  502    0 -.00000000E+00 -.00000000E+00 -.21646602E+04 0.21646602E+04 0.32000000E+00 0.0000E+00 0.9000E+01
       25  1    1    2    0    0 0.30671953E+03 -.33201084E+03 -.69569592E+03 0.83900290E+03 0.12500000E+03 0.0000E+00 0.9000E+01
        1  1    1    2  503    0 -.33086207E+02 0.16769693E+03 -.96310390E+03 0.97815448E+03 0.32000000E+00 0.0000E+00 0.9000E+01
       -1  1    1    2    0  501 -.28029240E+03 0.92914465E+02 -.28889898E+03 0.41310973E+03 0.32000000E+00 0.0000E+00 0.9000E+01
       21  1    1    2  502  503 0.66590732E+01 0.71399442E+02 -.58688227E+02 0.92666575E+02 0.75000000E+00 0.0000E+00 0.9000E+01
#aMCatNLO 2  0  0  4  4 0.78454723E+02 0.00000000E+00  9  6  0 0.00000000E+00 0.00000000E+00 0.00000000E+00 0.00000000E+00 0.00000000E+00
  <rwgt>
   <wgt id='1001'> 0.18405E-01 </wgt>
   <wgt id='1002'> 0.16996E-01 </wgt>
   <wgt id='1003'> 0.20073E-01 </wgt>
   <wgt id='1004'> 0.17339E-01 </wgt>
   <wgt id='1005'> 0.16012E-01 </wgt>
   <wgt id='1006'> 0.18911E-01 </wgt>
   <wgt id='1007'> 0.19546E-01 </wgt>
   <wgt id='1008'> 0.18050E-01 </wgt>
   <wgt id='1009'> 0.21318E-01 </wgt>
  </rwgt>
  </event>
  <event>
  7      0 0.18404410E-01 0.95261892E+02 0.75467711E-02 0.93673875E-01
        2 -1    0    0  503    0 0.00000000E+00 0.00000000E+00 0.15672669E+04 0.15672669E+04 0.32000000E+00 0.0000E+00 0.9000E+01
       -1 -1    0    0    0  501 0.00000000E+00 0.00000000E+00 -.43712843E+03 0.43712855E+03 0.32000000E+00 0.0000E+00 0.9000E+01
       24  2    1    2    0    0 -.18991823E+03 0.38105325E+03 -.11027071E+03 0.44719034E+03 0.80926244E+02 0.0000E+00 0.0000E+00
       25  1    1    2    0    0 0.23404299E+03 -.48323981E+03 0.33524271E+03 0.64522051E+03 0.12500000E+03 0.0000E+00 0.9000E+01
        4  1    3    3  502    0 -.16699287E+03 0.32663588E+03 -.12273394E+03 0.38683800E+03 0.15500000E+01 0.0000E+00 0.9000E+01
       -3  1    3    3    0  502 -.22925359E+02 0.54417373E+02 0.12463236E+02 0.60352339E+02 0.50000000E+00 0.0000E+00 0.9000E+01
       21  1    1    2  503  501 -.44124757E+02 0.10218655E+03 0.90516643E+03 0.91198460E+03 0.75000000E+00 0.0000E+00 0.9000E+01
#aMCatNLO 2  0  0  0  0 0.00000000E+00 0.00000000E+00  9  6  0 0.00000000E+00 0.00000000E+00 0.00000000E+00 0.00000000E+00 0.00000000E+00
  <rwgt>
   <wgt id='1001'> 0.18405E-01 </wgt>
   <wgt id='1002'> 0.17008E-01 </wgt>
   <wgt id='1003'> 0.20056E-01 </wgt>
   <wgt id='1004'> 0.17168E-01 </wgt>
   <wgt id='1005'> 0.15866E-01 </wgt>
   <wgt id='1006'> 0.18709E-01 </wgt>
   <wgt id='1007'> 0.19775E-01 </wgt>
   <wgt id='1008'> 0.18276E-01 </wgt>
   <wgt id='1009'> 0.21550E-01 </wgt>
  </rwgt>
  </event>
  <event>
  5      0 0.18404410E-01 0.20766307E+03 0.75467711E-02 0.94839309E-01
        1 -1    0    0  502    0 0.00000000E+00 0.00000000E+00 0.47948990E+03 0.47949001E+03 0.32000000E+00 0.0000E+00 0.9000E+01
        1 -1    0    0  501    0 0.00000000E+00 0.00000000E+00 -.22203577E+04 0.22203577E+04 0.32000000E+00 0.0000E+00 0.9000E+01
       25  1    1    2    0    0 -.42729228E+03 -.21724885E+03 0.70679536E+01 0.49542982E+03 0.12500000E+03 0.0000E+00 0.9000E+01
        1  1    1    2  501    0 0.22752850E+03 0.16027557E+03 -.19166839E+04 0.19367847E+04 0.32000000E+00 0.0000E+00 0.9000E+01
        1  1    1    2  502    0 0.19976378E+03 0.56973279E+02 0.16874815E+03 0.26763326E+03 0.32000000E+00 0.0000E+00 0.9000E+01
#aMCatNLO 1  0  0  2  5 0.22141497E+02 0.00000000E+00  9  6  0 0.00000000E+00 0.00000000E+00 0.00000000E+00 0.00000000E+00 0.00000000E+00
  <rwgt>
   <wgt id='1001'> 0.18405E-01 </wgt>
   <wgt id='1002'> 0.21282E-01 </wgt>
   <wgt id='1003'> 0.14994E-01 </wgt>
   <wgt id='1004'> 0.16456E-01 </wgt>
   <wgt id='1005'> 0.19104E-01 </wgt>
   <wgt id='1006'> 0.13318E-01 </wgt>
   <wgt id='1007'> 0.20685E-01 </wgt>
   <wgt id='1008'> 0.23827E-01 </wgt>
   <wgt id='1009'> 0.16960E-01 </wgt>
  </rwgt>
  </event>
  <event>
  5      0 -.18404410E-01 0.40078932E+02 0.75467711E-02 0.92894261E-01
        2 -1    0    0  502    0 0.00000000E+00 0.00000000E+00 0.95041208E+03 0.95041213E+03 0.32000000E+00 0.0000E+00 0.9000E+01
        1 -1    0    0  501    0 -.00000000E+00 -.00000000E+00 -.11853318E+04 0.11853318E+04 0.32000000E+00 0.0000E+00 0.9000E+01
       25  1    1    2    0    0 0.53298148E+03 0.15375467E+03 0.31906555E+03 0.65202575E+03 0.12500000E+03 0.0000E+00 0.9000E+01
        2  1    1    2  501    0 -.26530771E+02 -.30033024E+02 -.87207601E+03 0.87299629E+03 0.32000000E+00 0.0000E+00 0.9000E+01
        1  1    1    2  502    0 -.50645071E+03 -.12372164E+03 0.31809079E+03 0.61072188E+03 0.32000000E+00 0.0000E+00 0.9000E+01
#aMCatNLO 1  0  0  4  1 0.32356129E+02 0.00000000E+00  9  6  0 0.00000000E+00 0.00000000E+00 0.00000000E+00 0.00000000E+00 0.00000000E+00
  <rwgt>
   <wgt id='1001'> -.18404E-01 </wgt>
   <wgt id='1002'> -.16841E-01 </wgt>
   <wgt id='1003'> -.20251E-01 </wgt>
   <wgt id='1004'> -.17112E-01 </wgt>
   <wgt id='1005'> -.15659E-01 </wgt>
   <wgt id='1006'> -.18830E-01 </wgt>
   <wgt id='1007'> -.19867E-01 </wgt>
   <wgt id='1008'> -.18180E-01 </wgt>
   <wgt id='1009'> -.21860E-01 </wgt>
  </rwgt>
  </event>
  <event>
  5      0 0.18404410E-01 0.43079216E+02 0.75467711E-02 0.93586209E-01
        2 -1    0    0  502    0 0.00000000E+00 0.00000000E+00 0.16829433E+04 0.16829433E+04 0.32000000E+00 0.0000E+00 0.9000E+01
        1 -1    0    0  501    0 0.00000000E+00 0.00000000E+00 -.11818171E+04 0.11818172E+04 0.32000000E+00 0.0000E+00 0.9000E+01
       25  1    1    2    0    0 0.20250667E+03 -.49111567E+03 0.82435861E+03 0.98863323E+03 0.12500000E+03 0.0000E+00 0.9000E+01
        2  1    1    2  501    0 0.12491292E+02 0.41223516E+02 -.10191251E+04 0.10200351E+04 0.32000000E+00 0.0000E+00 0.9000E+01
        1  1    1    2  502    0 -.21499796E+03 0.44989215E+03 0.69589273E+03 0.85609220E+03 0.32000000E+00 0.0000E+00 0.9000E+01
#aMCatNLO 1  0  0  2  5 0.14920865E+02 0.00000000E+00  9  6  0 0.00000000E+00 0.00000000E+00 0.00000000E+00 0.00000000E+00 0.00000000E+00
  <rwgt>
   <wgt id='1001'> 0.18404E-01 </wgt>
   <wgt id='1002'> 0.17069E-01 </wgt>
   <wgt id='1003'> 0.19983E-01 </wgt>
   <wgt id='1004'> 0.17695E-01 </wgt>
   <wgt id='1005'> 0.16408E-01 </wgt>
   <wgt id='1006'> 0.19217E-01 </wgt>
   <wgt id='1007'> 0.19140E-01 </wgt>
   <wgt id='1008'> 0.17755E-01 </wgt>
   <wgt id='1009'> 0.20777E-01 </wgt>
  </rwgt>
  </event>
  <event>
  5      0 0.18404410E-01 0.69220970E+02 0.75467711E-02 0.90087086E-01
        2 -1    0    0  501    0 0.00000000E+00 0.00000000E+00 0.79755197E+03 0.79755204E+03 0.32000000E+00 0.0000E+00 0.9000E+01
        2 -1    0    0  502    0 -.00000000E+00 -.00000000E+00 -.19913043E+04 0.19913043E+04 0.32000000E+00 0.0000E+00 0.9000E+01
       25  1    1    2    0    0 0.29404834E+03 -.63552393E+03 -.12283902E+04 0.14194797E+04 0.12500000E+03 0.0000E+00 0.9000E+01
        2  1    1    2  501    0 -.36245573E+03 0.64617222E+03 0.50327369E+03 0.89565462E+03 0.32000000E+00 0.0000E+00 0.9000E+01
        2  1    1    2  502    0 0.68407390E+02 -.10648292E+02 -.46863584E+03 0.47372208E+03 0.32000000E+00 0.0000E+00 0.9000E+01
#aMCatNLO 1  0  0  5  2 0.97844122E+01 0.00000000E+00  9  6  0 0.00000000E+00 0.00000000E+00 0.00000000E+00 0.00000000E+00 0.00000000E+00
  <rwgt>
   <wgt id='1001'> 0.18405E-01 </wgt>
   <wgt id='1002'> 0.17200E-01 </wgt>
   <wgt id='1003'> 0.19820E-01 </wgt>
   <wgt id='1004'> 0.16916E-01 </wgt>
   <wgt id='1005'> 0.15809E-01 </wgt>
   <wgt id='1006'> 0.18215E-01 </wgt>
   <wgt id='1007'> 0.20110E-01 </wgt>
   <wgt id='1008'> 0.18794E-01 </wgt>
   <wgt id='1009'> 0.21657E-01 </wgt>
  </rwgt>
  </event>
  <event>
  5      0 -.18404410E-01 0.12071610E+03 0.75467711E-02 0.94982197E-01
       -3 -1    0    0    0  501 0.00000000E+00 0.00000000E+00 0.30665671E+03 0.30665712E+03 0.50000000E+00 0.0000E+00 0.9000E+01
        3 -1    0    0  502    0 0.00000000E+00 0.00000000E+00 -.17894099E+04 0.17894100E+04 0.50000000E+00 0.0000E+00 0.9000E+01
       25  1    1    2    0    0 -.16725127E+03 0.42242666E+03 -.61107015E+03 0.77165342E+03 0.12500000E+03 0.0000E+00 0.9000E+01
        4  1    1    2  502    0 -.45034880E+02 -.11190220E+03 -.93518654E+03 0.94293505E+03 0.15500000E+01 0.0000E+00 0.9000E+01
       -4  1    1    2    0  501 0.21228615E+03 -.31052446E+03 0.63503498E+02 0.38147863E+03 0.15500000E+01 0.0000E+00 0.9000E+01
#aMCatNLO 1  0  0  1  5 0.10964825E+01 0.00000000E+00  9  6  0 0.00000000E+00 0.00000000E+00 0.00000000E+00 0.00000000E+00 0.00000000E+00
  <rwgt>
   <wgt id='1001'> -.18404E-01 </wgt>
   <wgt id='1002'> -.16888E-01 </wgt>
   <wgt id='1003'> -.20208E-01 </wgt>
   <wgt id='1004'> -.16821E-01 </wgt>
   <wgt id='1005'> -.15435E-01 </wgt>
   <wgt id='1006'> -.18470E-01 </wgt>
   <wgt id='1007'> -.20054E-01 </wgt>
   <wgt id='1008'> -.18403E-01 </wgt>
   <wgt id='1009'> -.22020E-01 </wgt>
  </rwgt>
  </event>
  <event>
  6      0 0.18404410E-01 0.23954343E+02 0.75467711E-02 0.87918529E-01
        2 -1    0    0  503    0 0.00000000E+00 0.00000000E+00 0.11389012E+04 0.11389013E+04 0.32000000E+00 0.0000E+00 0.9000E+01
       -1 -1    0    0    0  501 0.00000000E+00 0.00000000E+00 -.99940559E+03 0.99940564E+03 0.32000000E+00 0.0000E+00 0.9000E+01
       25  1    1    2    0    0 -.89291831E+03 0.29643002E+03 -.39424555E+03 0.10277297E+04 0.12500000E+03 0.0000E+00 0.9000E+01
        2  1    1    2  502    0 0.40506979E+03 -.14921736E+03 0.20733892E+03 0.47889131E+03 0.32000000E+00 0.0000E+00 0.9000E+01
       -1  1    1    2    0  502 0.47379992E+03 -.13641252E+03 0.24914752E+03 0.55242134E+03 0.32000000E+00 0.0000E+00 0.9000E+01
       21  1    1    2  503  501 0.14048594E+02 -.10800141E+02 0.77254759E+02 0.79264534E+02 0.75000000E+00 0.0000E+00 0.9000E+01
#aMCatNLO 2  0  0  1  2 0.10093398E+02 0.00000000E+00  9  6  0 0.00000000E+00 0.00000000E+00 0.00000000E+00 0.00000000E+00 0.00000000E+00
  <rwgt>
   <wgt id='1001'> 0.18405E-01 </wgt>
   <wgt id='1002'> 0.17091E-01 </wgt>
   <wgt id='1003'> 0.19942E-01 </wgt>
   <wgt id='1004'> 0.16901E-01 </wgt>
   <wgt id='1005'> 0.15694E-01 </wgt>
   <wgt id='1006'> 0.18313E-01 </wgt>
   <wgt id='1007'> 0.20126E-01 </wgt>
   <wgt id='1008'> 0.18689E-01 </wgt>
   <wgt id='1009'> 0.21807E-01 </wgt>
  </rwgt>
  </event>
  <event>
  5      0 0.18404410E-01 0.38871715E+02 0.75467711E-02 0.80737177E-01
        2 -1    0    0  501    0 0.00000000E+00 0.00000000E+00 0.15905804E+04 0.15905805E+04 0.32000000E+00 0.0000E+00 0.9000E+01
        2 -1    0    0  502    0 0.00000000E+00 0.00000000E+00 -.13176285E+04 0.13176285E+04 0.32000000E+00 0.0000E+00 0.9000E+01
       25  1    1    2    0    0 0.77947898E+02 0.50636286E+03 0.65820232E+03 0.84340650E+03 0.12500000E+03 0.0000E+00 0.9000E+01
        2  1    1    2  501    0 -.78435290E+02 -.54522755E+03 0.74907815E+03 0.92980823E+03 0.32000000E+00 0.0000E+00 0.9000E+01
        2  1    1    2  502    0 0.48739263E+00 0.38864687E+02 -.11343285E+04 0.11349942E+04 0.32000000E+00 0.0000E+00 0.9000E+01
#aMCatNLO 1  0  0  1  2 0.13505131E+03 0.00000000E+00  9  6  0 0.00000000E+00 0.00000000E+00 0.00000000E+00 0.00000000E+00 0.00000000E+00
  <rwgt>
   <wgt id='1001'> 0.18405E-01 </wgt>
   <wgt id='1002'> 0.18675E-01 </wgt>
   <wgt id='1003'> 0.18086E-01 </wgt>
   <wgt id='1004'> 0.16526E-01 </wgt>
   <wgt id='1005'> 0.16791E-01 </wgt>
   <wgt id='1006'> 0.16211E-01 </wgt>
   <wgt id='1007'> 0.20630E-01 </wgt>
   <wgt id='1008'> 0.20900E-01 </wgt>
   <wgt id='1009'> 0.20311E-01 </wgt>
  </rwgt>
  </event>
  <event>
  7      0 0.18404410E-01 0.30849886E+02 0.75467711E-02 0.92157255E-01
       -1 -1    0    0    0  501 0.00000000E+00 0.00000000E+00 0.56950418E+03 0.56950427E+03 0.32000000E+00 0.0000E+00 0.9000E+01
        2 -1    0    0  503    0 0.00000000E+00 0.00000000E+00 -.82404663E+03 0.82404669E+03 0.32000000E+00 0.0000E+00 0.9000E+01
       24  2    1    2    0    0 -.59415223E+03 0.12242402E+03 -.11451853E+03 0.62291276E+03 0.83074065E+02 0.0000E+00 0.0000E+00
       25  1    1    2    0    0 0.59028629E+03 -.94640265E+02 0.17134998E+02 0.61099369E+03 0.12500000E+03 0.0000E+00 0.9000E+01
       -1  1    3    3    0  502 -.45683038E+03 0.12769738E+03 -.77924151E+02 0.48070042E+03 0.32000000E+00 0.0000E+00 0.9000E+01
        2  1    3    3  502    0 -.13732185E+03 -.52733645E+01 -.36594375E+02 0.14221234E+03 0.32000000E+00 0.0000E+00 0.9000E+01
       21  1    1    2  503  501 0.38659391E+01 -.27783754E+02 -.15715891E+03 0.15964451E+03 0.75000000E+00 0.0000E+00 0.9000E+01
#aMCatNLO 2  0  0  2  1 0.65952606E+01 0.00000000E+00  9  6  0 0.00000000E+00 0.00000000E+00 0.00000000E+00 0.00000000E+00 0.00000000E+00
  <rwgt>
   <wgt id='1001'> 0.18404E-01 </wgt>
   <wgt id='1002'> 0.17030E-01 </wgt>
   <wgt id='1003'> 0.20026E-01 </wgt>
   <wgt id='1004'> 0.17440E-01 </wgt>
   <wgt id='1005'> 0.16138E-01 </wgt>
   <wgt id='1006'> 0.18976E-01 </wgt>
   <wgt id='1007'> 0.19447E-01 </wgt>
   <wgt id='1008'> 0.17994E-01 </wgt>
   <wgt id='1009'> 0.21159E-01 </wgt>
  </rwgt>
  </event>
  <event>
  6      0 0.18404410E-01 0.28142760E+02 0.75467711E-02 0.91327787E-01
        1 -1    0    0  501    0 0.00000000E+00 0.00000000E+00 0.25753502E+04 0.25753502E+04 0.32000000E+00 0.0000E+00 0.9000E+01
       -1 -1    0    0    0  501 0.00000000E+00 0.00000000E+00 -.19049506E+03 0.19049533E+03 0.32000000E+00 0.0000E+00 0.9000E+01
       25  1    1    2    0    0 0.39516461E+03 -.53219845E+03 0.14687291E+04 0.16162242E+04 0.12500000E+03 0.0000E+00 0.9000E+01
        3  1    1    2  502    0 -.35909846E+03 0.45219867E+03 0.72538757E+03 0.92715841E+03 0.50000000E+00 0.0000E+00 0.9000E+01
       -3  1    1    2    0  503 -.20857877E+02 0.82073882E+02 0.10278556E+03 0.13317768E+03 0.50000000E+00 0.0000E+00 0.9000E+01
       21  1    1    2  503  502 -.15208275E+02 -.20740946E+01 0.87952834E+02 0.89285256E+02 0.75000000E+00 0.0000E+00 0.9000E+01
#aMCatNLO 2  0  0  0  0 0.00000000E+00 0.00000000E+00  9  6  0 0.00000000E+00 0.00000000E+00 0.00000000E+00 0.00000000E+00 0.00000000E+00
  <rwgt>
   <wgt id='1001'> 0.18404E-01 </wgt>
   <wgt id='1002'> 0.17042E-01 </wgt>
   <wgt id='1003'> 0.20009E-01 </wgt>
   <wgt id='1004'> 0.16988E-01 </wgt>
   <wgt id='1005'> 0.15730E-01 </wgt>
   <wgt id='1006'> 0.18469E-01 </wgt>
   <wgt id='1007'> 0.19999E-01 </wgt>
   <wgt id='1008'> 0.18518E-01 </wgt>
   <wgt id='1009'> 0.21743E-01 </wgt>
  </rwgt>
  </event>
  <event>
  5      0 0.18404410E-01 0.81465207E+02 0.75467711E-02 0.85400294E-01
        2 -1    0    0  501    0 0.00000000E+00 0.00000000E+00 0.41453046E+04 0.41453046E+04 0.32000000E+00 0.0000E+00 0.9000E+01
        2 -1    0    0  502    0 0.00000000E+00 0.00000000E+00 -.16036048E+04 0.16036048E+04 0.32000000E+00 0.0000E+00 0.9000E+01
       25  1    1    2    0    0 -.52636364E+03 0.15068750E+03 0.45397544E+03 0.72213856E+03 0.12500000E+03 0.0000E+00 0.9000E+01
        2  1    1    2  501    0 0.53166582E+03 -.69399289E+02 0.35358923E+04 0.35763136E+04 0.32000000E+00 0.0000E+00 0.9000E+01
        2  1    1    2  502    0 -.53021793E+01 -.81288212E+02 -.14481679E+04 0.14504572E+04 0.32000000E+00 0.0000E+00 0.9000E+01
#aMCatNLO 1  0  0  5  2 0.52981144E+02 0.00000000E+00  9  6  0 0.00000000E+00 0.00000000E+00 0.00000000E+00 0.00000000E+00 0.00000000E+00
  <rwgt>
   <wgt id='1001'> 0.18405E-01 </wgt>
   <wgt id='1002'> 0.18280E-01 </wgt>
   <wgt id='1003'> 0.18550E-01 </wgt>
   <wgt id='1004'> 0.15403E-01 </wgt>
   <wgt id='1005'> 0.15305E-01 </wgt>
   <wgt id='1006'> 0.15517E-01 </wgt>
   <wgt id='1007'> 0.22246E-01 </wgt>
   <wgt id='1008'> 0.22088E-01 </wgt>
   <wgt id='1009'> 0.22432E-01 </wgt>
  </rwgt>
  </event>
  <event>
  5      0 0.18404410E-01 0.70206136E+02 0.75467711E-02 0.91166258E-01
        1 -1    0    0  502    0 0.00000000E+00 0.00000000E+00 0.40793241E+03 0.40793253E+03 0.32000000E+00 0.0000E+00 0.9000E+01
        2 -1    0    0  501    0 -.00000000E+00 -.00000000E+00 -.34640175E+04 0.34640175E+04 0.32000000E+00 0.0000E+00 0.9000E+01
       25  1    1    2    0    0 -.44660579E+03 0.49988384E+03 -.12163194E+04 0.13944169E+04 0.12500000E+03 0.0000E+00 0.9000E+01
        1  1    1    2  501    0 0.70185823E+02 -.13865022E+01 -.18514403E+04 0.18527707E+04 0.32000000E+00 0.0000E+00 0.9000E+01
        2  1    1    2  502    0 0.37641996E+03 -.49849734E+03 0.11674718E+02 0.62476235E+03 0.32000000E+00 0.0000E+00 0.9000E+01
#aMCatNLO 1  0  0  5  2 0.20111845E+02 0.00000000E+00  9  6  0 0.00000000E+00 0.00000000E+00 0.00000000E+00 0.00000000E+00 0.00000000E+00
  <rwgt>
   <wgt id='1001'> 0.18405E-01 </wgt>
   <wgt id='1002'> 0.19307E-01 </wgt>
   <wgt id='1003'> 0.17343E-01 </wgt>
   <wgt id='1004'> 0.16252E-01 </wgt>
   <wgt id='1005'> 0.17070E-01 </wgt>
   <wgt id='1006'> 0.15291E-01 </wgt>
   <wgt id='1007'> 0.20975E-01 </wgt>
   <wgt id='1008'> 0.21978E-01 </wgt>
   <wgt id='1009'> 0.19795E-01 </wgt>
  </rwgt>
  </event>
  <event>
  6      0 0.18404410E-01 0.19759576E+03 0.75467711E-02 0.89029257E-01
        1 -1    0    0  502    0 0.00000000E+00 0.00000000E+00 0.14864659E+04 0.14864659E+04 0.32000000E+00 0.0000E+00 0.9000E+01
        2 -1    0    0  501    0 0.00000000E+00 0.00000000E+00 -.93749110E+03 0.93749115E+03 0.32000000E+00 0.0000E+00 0.9000E+01
       25  1    1    2    0    0 0.54977718E+03 0.46123838E+03 -.31522230E+02 0.72911895E+03 0.12500000E+03 0.0000E+00 0.9000E+01
        1  1    1    2  501    0 -.12911160E+03 0.16383609E+03 -.40313898E+03 0.45390881E+03 0.32000000E+00 0.0000E+00 0.9000E+01
        2  1    1    2  503    0 -.37659207E+03 -.56827859E+03 0.85450660E+03 0.10931348E+04 0.32000000E+00 0.0000E+00 0.9000E+01
       21  1    1    2  502  503 -.44073507E+02 -.56795877E+02 0.12912941E+03 0.14779450E+03 0.75000000E+00 0.0000E+00 0.9000E+01
#aMCatNLO 2  0  0  5  1 0.21892862E+02 0.00000000E+00  9  6  0 0.00000000E+00 0.00000000E+00 0.00000000E+00 0.00000000E+00 0.00000000E+00
  <rwgt>
   <wgt id='1001'> 0.18405E-01 </wgt>
   <wgt id='1002'> 0.17075E-01 </wgt>
   <wgt id='1003'> 0.19963E-01 </wgt>
   <wgt id='1004'> 0.16988E-01 </wgt>
   <wgt id='1005'> 0.15760E-01 </wgt>
   <wgt id='1006'> 0.18427E-01 </wgt>
   <wgt id='1007'> 0.20023E-01 </wgt>
   <wgt id='1008'> 0.18576E-01 </wgt>
   <wgt id='1009'> 0.21720E-01 </wgt>
  </rwgt>
  </event>
  <event>
  5      0 0.18404410E-01 0.23830789E+02 0.75467711E-02 0.89233522E-01
        1 -1    0    0  502    0 0.00000000E+00 0.00000000E+00 0.21598132E+04 0.21598133E+04 0.32000000E+00 0.0000E+00 0.9000E+01
        2 -1    0    0  501    0 0.00000000E+00 0.00000000E+00 -.99698076E+03 0.99698081E+03 0.32000000E+00 0.0000E+00 0.9000E+01
       25  1    1    2    0    0 0.68497478E+03 0.59293434E+02 0.10022117E+04 0.12217854E+04 0.12500000E+03 0.0000E+00 0.9000E+01
        1  1    1    2  501    0 -.66600917E+03 -.73734137E+02 -.76049382E+03 0.10135857E+04 0.32000000E+00 0.0000E+00 0.9000E+01
        2  1    1    2  502    0 -.18965612E+02 0.14440702E+02 0.92111459E+03 0.92142304E+03 0.32000000E+00 0.0000E+00 0.9000E+01
#aMCatNLO 1  0  0  4  1 0.25967572E+03 0.00000000E+00  9  6  0 0.00000000E+00 0.00000000E+00 0.00000000E+00 0.00000000E+00 0.00000000E+00
  <rwgt>
   <wgt id='1001'> 0.18405E-01 </wgt>
   <wgt id='1002'> 0.18556E-01 </wgt>
   <wgt id='1003'> 0.18226E-01 </wgt>
   <wgt id='1004'> 0.16509E-01 </wgt>
   <wgt id='1005'> 0.16656E-01 </wgt>
   <wgt id='1006'> 0.16340E-01 </wgt>
   <wgt id='1007'> 0.20639E-01 </wgt>
   <wgt id='1008'> 0.20798E-01 </wgt>
   <wgt id='1009'> 0.20452E-01 </wgt>
  </rwgt>
  </event>
  <event>
  5      0 0.18404410E-01 0.47973493E+02 0.75467711E-02 0.87966546E-01
        1 -1    0    0  502    0 0.00000000E+00 0.00000000E+00 0.14238665E+04 0.14238665E+04 0.32000000E+00 0.0000E+00 0.9000E+01
        2 -1    0    0  501    0 -.00000000E+00 -.00000000E+00 -.18131768E+04 0.18131768E+04 0.32000000E+00 0.0000E+00 0.9000E+01
       25  1    1    2    0    0 -.28165753E+03 -.48833299E+03 -.31050543E+02 0.57826396E+03 0.12500000E+03 0.0000E+00 0.9000E+01
        1  1    1    2  501    0 0.17218409E+02 0.44772797E+02 -.14501435E+04 0.14509367E+04 0.32000000E+00 0.0000E+00 0.9000E+01
        2  1    1    2  502    0 0.26443912E+03 0.44356019E+03 0.10918837E+04 0.12078426E+04 0.32000000E+00 0.0000E+00 0.9000E+01
#aMCatNLO 1  0  0  5  1 0.12777487E+03 0.00000000E+00  9  6  0 0.00000000E+00 0.00000000E+00 0.00000000E+00 0.00000000E+00 0.00000000E+00
  <rwgt>
   <wgt id='1001'> 0.18405E-01 </wgt>
   <wgt id='1002'> 0.18761E-01 </wgt>
   <wgt id='1003'> 0.17983E-01 </wgt>
   <wgt id='1004'> 0.16392E-01 </wgt>
   <wgt id='1005'> 0.16722E-01 </wgt>
   <wgt id='1006'> 0.16003E-01 </wgt>
   <wgt id='1007'> 0.20798E-01 </wgt>
   <wgt id='1008'> 0.21186E-01 </wgt>
   <wgt id='1009'> 0.20341E-01 </wgt>
  </rwgt>
  </event>
  <event>
  5      0 0.18404410E-01 0.67271474E+02 0.75467711E-02 0.94663972E-01
        1 -1    0    0  502    0 0.00000000E+00 0.00000000E+00 0.92775976E+03 0.92775982E+03 0.32000000E+00 0.0000E+00 0.9000E+01
        2 -1    0    0  501    0 0.00000000E+00 0.00000000E+00 -.74340305E+03 0.74340311E+03 0.32000000E+00 0.0000E+00 0.9000E+01
       25  1    1    2    0    0 0.15102547E+03 0.45951185E+03 -.10439319E+03 0.51037513E+03 0.12500000E+03 0.0000E+00 0.9000E+01
        1  1    1    2  501    0 -.53348825E+02 -.40967593E+02 -.36899321E+03 0.37507403E+03 0.32000000E+00 0.0000E+00 0.9000E+01
        2  1    1    2  502    0 -.97676649E+02 -.41854425E+03 0.65774312E+03 0.78571377E+03 0.32000000E+00 0.0000E+00 0.9000E+01
#aMCatNLO 1  0  0  2  4 0.13945613E+02 0.00000000E+00  9  6  0 0.00000000E+00 0.00000000E+00 0.00000000E+00 0.00000000E+00 0.00000000E+00
  <rwgt>
   <wgt id='1001'> 0.18405E-01 </wgt>
   <wgt id='1002'> 0.16994E-01 </wgt>
   <wgt id='1003'> 0.20076E-01 </wgt>
   <wgt id='1004'> 0.17372E-01 </wgt>
   <wgt id='1005'> 0.16041E-01 </wgt>
   <wgt id='1006'> 0.18949E-01 </wgt>
   <wgt id='1007'> 0.19543E-01 </wgt>
   <wgt id='1008'> 0.18044E-01 </wgt>
   <wgt id='1009'> 0.21316E-01 </wgt>
  </rwgt>
  </event>
  <event>
  5      0 0.18404410E-01 0.44057416E+02 0.75467711E-02 0.95243361E-01
       -1 -1    0    0    0  501 0.00000000E+00 0.00000000E+00 0.80571700E+03 0.80571706E+03 0.32000000E+00 0.0000E+00 0.9000E+01
        1 -1    0    0  502    0 -.00000000E+00 -.00000000E+00 -.23402522E+04 0.23402522E+04 0.32000000E+00 0.0000E+00 0.9000E+01
       25  1    1    2    0    0 0.45588802E+03 -.92729138E+02 0.29712615E+03 0.56598722E+03 0.12500000E+03 0.0000E+00 0.9000E+01
        2  1    1    2  502    0 -.41379637E+03 0.79673209E+02 -.21843118E+04 0.22245884E+04 0.32000000E+00 0.0000E+00 0.9000E+01
       -2  1    1    2    0  501 -.42091653E+02 0.13055929E+02 0.35265050E+03 0.35539364E+03 0.32000000E+00 0.0000E+00 0.9000E+01
#aMCatNLO 1  0  0  4  2 0.19812084E+02 0.00000000E+00  9  6  0 0.00000000E+00 0.00000000E+00 0.00000000E+00 0.00000000E+00 0.00000000E+00
  <rwgt>
   <wgt id='1001'> 0.18404E-01 </wgt>
   <wgt id='1002'> 0.17000E-01 </wgt>
   <wgt id='1003'> 0.20070E-01 </wgt>
   <wgt id='1004'> 0.16296E-01 </wgt>
   <wgt id='1005'> 0.15053E-01 </wgt>
   <wgt id='1006'> 0.17771E-01 </wgt>
   <wgt id='1007'> 0.20942E-01 </wgt>
   <wgt id='1008'> 0.19344E-01 </wgt>
   <wgt id='1009'> 0.22837E-01 </wgt>
  </rwgt>
  </event>
  <event>
  5      0 0.18404410E-01 0.34988496E+02 0.75467711E-02 0.78255363E-01
        1 -1    0    0  502    0 0.00000000E+00 0.00000000E+00 0.49786150E+03 0.49786160E+03 0.32000000E+00 0.0000E+00 0.9000E+01
        2 -1    0    0  501    0 0.00000000E+00 0.00000000E+00 -.26805113E+04 0.26805113E+04 0.32000000E+00 0.0000E+00 0.9000E+01
       25  1    1    2    0    0 0.57830668E+03 -.30550563E+03 -.18216103E+04 0.19395003E+04 0.12500000E+03 0.0000E+00 0.9000E+01
        1  1    1    2  501    0 -.60803168E+03 0.28703846E+03 -.65745763E+03 0.94039579E+03 0.32000000E+00 0.0000E+00 0.9000E+01
        2  1    1    2  502    0 0.29725006E+02 0.18467167E+02 0.29641813E+03 0.29847684E+03 0.32000000E+00 0.0000E+00 0.9000E+01
#aMCatNLO 1  0  0  1  5 0.33858077E+01 0.00000000E+00  9  6  0 0.00000000E+00 0.00000000E+00 0.00000000E+00 0.00000000E+00 0.00000000E+00
  <rwgt>
   <wgt id='1001'> 0.18405E-01 </wgt>
   <wgt id='1002'> 0.18457E-01 </wgt>
   <wgt id='1003'> 0.18342E-01 </wgt>
   <wgt id='1004'> 0.16537E-01 </wgt>
   <wgt id='1005'> 0.16596E-01 </wgt>
   <wgt id='1006'> 0.16468E-01 </wgt>
   <wgt id='1007'> 0.20605E-01 </wgt>
   <wgt id='1008'> 0.20648E-01 </wgt>
   <wgt id='1009'> 0.20555E-01 </wgt>
  </rwgt>
  </event>
  <event>
  5      0 0.18404410E-01 0.47297638E+02 0.75467711E-02 0.94180935E-01
        3 -1    0    0  501    0 0.00000000E+00 0.00000000E+00 0.51165577E+03 0.51165601E+03 0.50000000E+00 0.0000E+00 0.9000E+01
        4 -1    0    0  502    0 -.00000000E+00 -.00000000E+00 -.92839365E+03 0.92839494E+03 0.15500000E+01 0.0000E+00 0.9000E+01
       25  1    1    2    0    0 -.43886801E+03 -.15789035E+03 -.18407836E+03 0.51676333E+03 0.12500000E+03 0.0000E+00 0.9000E+01
        3  1    1    2  501    0 -.41698775E+02 -.22388222E+02 0.22845502E+03 0.23330659E+03 0.50000000E+00 0.0000E+00 0.9000E+01
        4  1    1    2  502    0 0.48056679E+03 0.18027857E+03 -.46111454E+03 0.68998103E+03 0.15500000E+01 0.0000E+00 0.9000E+01
#aMCatNLO 1  0  0  5  2 0.13175934E+02 0.00000000E+00  9  6  0 0.00000000E+00 0.00000000E+00 0.00000000E+00 0.00000000E+00 0.00000000E+00
  <rwgt>
   <wgt id='1001'> 0.18405E-01 </wgt>
   <wgt id='1002'> 0.18973E-01 </wgt>
   <wgt id='1003'> 0.17731E-01 </wgt>
   <wgt id='1004'> 0.17697E-01 </wgt>
   <wgt id='1005'> 0.18261E-01 </wgt>
   <wgt id='1006'> 0.17030E-01 </wgt>
   <wgt id='1007'> 0.19017E-01 </wgt>
   <wgt id='1008'> 0.19588E-01 </wgt>
   <wgt id='1009'> 0.18343E-01 </wgt>
  </rwgt>
  </event>
  <event>
  5      0 0.18404410E-01 0.14051868E+03 0.75467711E-02 0.92053431E-01
        2 -1    0    0  502    0 0.00000000E+00 0.00000000E+00 0.19662338E+04 0.19662338E+04 0.32000000E+00 0.0000E+00 0.9000E+01
        1 -1    0    0  501    0 0.00000000E+00 0.00000000E+00 -.12571921E+04 0.12571921E+04 0.32000000E+00 0.0000E+00 0.9000E+01
       25  1    1    2    0    0 0.39866032E+03 -.39920774E+03 0.46147204E+03 0.73951221E+03 0.12500000E+03 0.0000E+00 0.9000E+01
        2  1    1    2  501    0 -.12201367E+03 -.69674666E+02 -.10590940E+04 0.10683735E+04 0.32000000E+00 0.0000E+00 0.9000E+01
        1  1    1    2  502    0 -.27664664E+03 0.46888241E+03 0.13066636E+04 0.14155402E+04 0.32000000E+00 0.0000E+00 0.9000E+01
#aMCatNLO 1  0  0  4  2 0.14874489E+02 0.00000000E+00  9  6  0 0.00000000E+00 0.00000000E+00 0.00000000E+00 0.00000000E+00 0.00000000E+00
  <rwgt>
   <wgt id='1001'> 0.18404E-01 </wgt>
   <wgt id='1002'> 0.17031E-01 </wgt>
   <wgt id='1003'> 0.20023E-01 </wgt>
   <wgt id='1004'> 0.16550E-01 </wgt>
   <wgt id='1005'> 0.15316E-01 </wgt>
   <wgt id='1006'> 0.18006E-01 </wgt>
   <wgt id='1007'> 0.20596E-01 </wgt>
   <wgt id='1008'> 0.19060E-01 </wgt>
   <wgt id='1009'> 0.22408E-01 </wgt>
  </rwgt>
  </event>
  <event>
  5      0 0.18404410E-01 0.17009280E+03 0.75467711E-02 0.95280603E-01
        1 -1    0    0  502    0 0.00000000E+00 0.00000000E+00 0.71315672E+03 0.71315679E+03 0.32000000E+00 0.0000E+00 0.9000E+01
        2 -1    0    0  501    0 0.00000000E+00 0.00000000E+00 -.63624545E+03 0.63624553E+03 0.32000000E+00 0.0000E+00 0.9000E+01
       25  1    1    2    0    0 -.46048519E+03 0.51035897E+02 0.41033254E+02 0.48162226E+03 0.12500000E+03 0.0000E+00 0.9000E+01
        1  1    1    2  501    0 0.16661680E+03 -.34009050E+02 -.34605219E+03 0.38557748E+03 0.32000000E+00 0.0000E+00 0.9000E+01
        2  1    1    2  502    0 0.29386839E+03 -.17026847E+02 0.38193020E+03 0.48220258E+03 0.32000000E+00 0.0000E+00 0.9000E+01
#aMCatNLO 1  0  0  5  1 0.74083416E+00 0.00000000E+00  9  6  0 0.00000000E+00 0.00000000E+00 0.00000000E+00 0.00000000E+00 0.00000000E+00
  <rwgt>
   <wgt id='1001'> 0.18405E-01 </wgt>
   <wgt id='1002'> 0.16989E-01 </wgt>
   <wgt id='1003'> 0.20082E-01 </wgt>
   <wgt id='1004'> 0.17584E-01 </wgt>
   <wgt id='1005'> 0.16233E-01 </wgt>
   <wgt id='1006'> 0.19188E-01 </wgt>
   <wgt id='1007'> 0.19284E-01 </wgt>
   <wgt id='1008'> 0.17801E-01 </wgt>
   <wgt id='1009'> 0.21043E-01 </wgt>
  </rwgt>
  </event>
</LesHouchesEvents>
