<event>
 5    0  0.2554440E+000  0.2444146E+03  0.7546771E-02  0.1116886E+00
         21   -1    0    0  502  501  0.00000000000E+00  0.00000000000E+00  0.15362954071E+04  0.15362954071E+04  0.00000000000E+00 0.  1.
         21   -1    0    0  503  502 -0.00000000000E+00 -0.00000000000E+00 -0.10863473022E+03  0.10863473022E+03  0.00000000000E+00 0. -1.
         25    1    1    2    0    0  0.19049716235E+03  0.88455295315E+02  0.13979994386E+04  0.14192043328E+04  0.12500000000E+03 0.  0.
         21    1    1    2  503  504 -0.14859686480E+03 -0.97787551645E+02  0.38240482072E+02  0.18194990507E+03  0.00000000000E+00 0. -1.
         21    1    1    2  504  501 -0.41900297545E+02  0.93322563297E+01 -0.85792437815E+01  0.43775899379E+02  0.00000000000E+00 0.  1.
<mgrwt>
<rscale>  4 0.24441462E+03</rscale>
<asrwt>0</asrwt>
<pdfrwt beam="1">  1       21 0.23635312E+00 0.24441462E+03</pdfrwt>
<pdfrwt beam="2">  1       21 0.16713036E-01 0.24441462E+03</pdfrwt>
<totfact> 0.24504730E+03</totfact>
</mgrwt>
</event>
<event>
 5    0  0.3148082E+000  0.2091707E+03  0.7546771E-02  0.1142224E+00
         21   -1    0    0  502  501  0.00000000000E+00  0.00000000000E+00  0.12466519953E+03  0.12466519953E+03  0.00000000000E+00 0.  1.
         21   -1    0    0  503  502 -0.00000000000E+00 -0.00000000000E+00 -0.78682314699E+03  0.78682314699E+03  0.00000000000E+00 0.  1.
         25    1    1    2    0    0  0.22687336789E+03  0.68445687525E+02 -0.10908977917E+03  0.28927826935E+03  0.12500000000E+03 0.  0.
         21    1    1    2  503  504 -0.68084315447E+02 -0.67555311619E+02 -0.85767994051E+02  0.12866756756E+03  0.00000000000E+00 0.  1.
         21    1    1    2  504  501 -0.15878905244E+03 -0.89037590612E+00 -0.46730017424E+03  0.49354250961E+03  0.00000000000E+00 0.  1.
<mgrwt>
<rscale>  4 0.20917075E+03</rscale>
<asrwt>0</asrwt>
<pdfrwt beam="1">  1       21 0.19179261E-01 0.20917075E+03</pdfrwt>
<pdfrwt beam="2">  1       21 0.12104972E+00 0.20917075E+03</pdfrwt>
<totfact> 0.12753399E+04</totfact>
</mgrwt>
</event>
<event>
 5    0  0.2159162E+000  0.3088783E+03  0.7546771E-02  0.1080885E+00
         21   -1    0    0  502  501  0.00000000000E+00  0.00000000000E+00  0.23156873716E+03  0.23156873716E+03  0.00000000000E+00 0.  1.
         21   -1    0    0  503  502 -0.00000000000E+00 -0.00000000000E+00 -0.88052443462E+03  0.88052443462E+03  0.00000000000E+00 0. -1.
         25    1    1    2    0    0  0.90837118672E+01  0.28230883537E+03  0.88555251739E+02  0.32132199576E+03  0.12500000000E+03 0.  0.
         21    1    1    2  503  504 -0.13061142065E+02 -0.26064517823E+03 -0.70249861701E+03  0.74940697173E+03  0.00000000000E+00 0. -1.
         21    1    1    2  504  501  0.39774301978E+01 -0.21663657135E+02 -0.35012332189E+02  0.41364204292E+02  0.00000000000E+00 0.  1.
<mgrwt>
<rscale>  4 0.30887828E+03</rscale>
<asrwt>0</asrwt>
<pdfrwt beam="1">  1       21 0.35625960E-01 0.30887828E+03</pdfrwt>
<pdfrwt beam="2">  1       21 0.13546530E+00 0.30887828E+03</pdfrwt>
<totfact> 0.27225578E+03</totfact>
</mgrwt>
</event>
<event>
 5    0  0.2159162E+000  0.5492278E+03  0.7546771E-02  0.1001673E+00
         21   -1    0    0  502  501  0.00000000000E+00  0.00000000000E+00  0.11499203901E+04  0.11499203901E+04  0.00000000000E+00 0. -1.
         21   -1    0    0  503  502 -0.00000000000E+00 -0.00000000000E+00 -0.29989098605E+03  0.29989098605E+03  0.00000000000E+00 0. -1.
         25    1    1    2    0    0 -0.10055584338E+03 -0.52527580493E+03  0.68457843566E+03  0.87766666990E+03  0.12500000000E+03 0.  0.
         21    1    1    2  503  504  0.61812616527E+02  0.46391956527E+03  0.10987792655E+03  0.48074454895E+03  0.00000000000E+00 0. -1.
         21    1    1    2  504  501  0.38743226850E+02  0.61356239664E+02  0.55573041800E+02  0.91400157261E+02  0.00000000000E+00 0. -1.
<mgrwt>
<rscale>  4 0.54922778E+03</rscale>
<asrwt>0</asrwt>
<pdfrwt beam="1">  1       21 0.17691083E+00 0.54922778E+03</pdfrwt>
<pdfrwt beam="2">  1       21 0.46137076E-01 0.54922778E+03</pdfrwt>
<totfact> 0.68856034E+02</totfact>
</mgrwt>
</event>
<event>
 5    0  0.2159162E+000  0.2374972E+03  0.7546771E-02  0.1121471E+00
         21   -1    0    0  502  501  0.00000000000E+00  0.00000000000E+00  0.74850373545E+03  0.74850373545E+03  0.00000000000E+00 0.  1.
         21   -1    0    0  503  502 -0.00000000000E+00 -0.00000000000E+00 -0.54670929368E+03  0.54670929368E+03  0.00000000000E+00 0. -1.
         25    1    1    2    0    0 -0.16168083837E+03  0.12099271720E+03  0.70664772663E+03  0.74549040280E+03  0.12500000000E+03 0.  0.
         21    1    1    2  503  504  0.10335615119E+03 -0.32763622777E+02 -0.20750378881E+03  0.23412341049E+03  0.00000000000E+00 0. -1.
         21    1    1    2  504  501  0.58324687173E+02 -0.88229094427E+02 -0.29734949605E+03  0.31559921584E+03  0.00000000000E+00 0. -1.
<mgrwt>
<rscale>  4 0.23749722E+03</rscale>
<asrwt>0</asrwt>
<pdfrwt beam="1">  1       21 0.11515442E+00 0.23749722E+03</pdfrwt>
<pdfrwt beam="2">  1       21 0.84109122E-01 0.23749722E+03</pdfrwt>
<totfact> 0.68642042E+02</totfact>
</mgrwt>
</event>
<event>
 5    0  0.2159162E+000  0.2600249E+03  0.7546771E-02  0.1107128E+00
         21   -1    0    0  502  501  0.00000000000E+00  0.00000000000E+00  0.55036978043E+02  0.55036978043E+02  0.00000000000E+00 0. -1.
         21   -1    0    0  503  502 -0.00000000000E+00 -0.00000000000E+00 -0.15535275361E+04  0.15535275361E+04  0.00000000000E+00 0.  1.
         25    1    1    2    0    0  0.14604247613E+03 -0.17509864857E+03 -0.34635063317E+03  0.43309548908E+03  0.12500000000E+03 0.  0.
         21    1    1    2  503  504 -0.70597130135E+02  0.58915075947E+02 -0.54705194779E+03  0.55472585530E+03  0.00000000000E+00 0.  1.
         21    1    1    2  504  501 -0.75445345999E+02  0.11618357262E+03 -0.60508797707E+03  0.62074316973E+03  0.00000000000E+00 0.  1.
<mgrwt>
<rscale>  4 0.26002489E+03</rscale>
<asrwt>0</asrwt>
<pdfrwt beam="1">  1       21 0.84672279E-02 0.26002489E+03</pdfrwt>
<pdfrwt beam="2">  1       21 0.23900422E+00 0.26002489E+03</pdfrwt>
<totfact> 0.79362774E+03</totfact>
</mgrwt>
</event>
<event>
 5    0  0.2159162E+000  0.2791281E+03  0.7546771E-02  0.1096166E+00
         21   -1    0    0  502  501  0.00000000000E+00  0.00000000000E+00  0.22687972816E+03  0.22687972816E+03  0.00000000000E+00 0. -1.
         21   -1    0    0  503  502 -0.00000000000E+00 -0.00000000000E+00 -0.93056106153E+03  0.93056106153E+03  0.00000000000E+00 0.  1.
         25    1    1    2    0    0 -0.20109233099E+03 -0.14632535959E+03  0.10432299511E+03  0.29724993482E+03  0.12500000000E+03 0.  0.
         21    1    1    2  503  504 -0.25335232117E+02  0.21767745016E+02 -0.58230973701E+02  0.67130879687E+02  0.00000000000E+00 0.  1.
         21    1    1    2  504  501  0.22642756311E+03  0.12455761458E+03 -0.74977335479E+03  0.79305997518E+03  0.00000000000E+00 0.  1.
<mgrwt>
<rscale>  4 0.27912812E+03</rscale>
<asrwt>0</asrwt>
<pdfrwt beam="1">  1       21 0.34904574E-01 0.27912812E+03</pdfrwt>
<pdfrwt beam="2">  1       21 0.14316324E+00 0.27912812E+03</pdfrwt>
<totfact> 0.24985845E+03</totfact>
</mgrwt>
</event>
<event>
 5    0  0.2159162E+000  0.2459815E+03  0.7546771E-02  0.1115871E+00
         21   -1    0    0  502  501  0.00000000000E+00  0.00000000000E+00  0.98976401061E+02  0.98976401061E+02  0.00000000000E+00 0.  1.
         21   -1    0    0  503  502 -0.00000000000E+00 -0.00000000000E+00 -0.15165387342E+04  0.15165387342E+04  0.00000000000E+00 0.  1.
         25    1    1    2    0    0 -0.17915104337E+03  0.11199225666E+03 -0.87933476006E+02  0.26075785338E+03  0.12500000000E+03 0.  0.
         21    1    1    2  503  504  0.16477679203E+03 -0.14164466742E+03 -0.99171537173E+03  0.10152408490E+04  0.00000000000E+00 0.  1.
         21    1    1    2  504  501  0.14374251340E+02  0.29652410755E+02 -0.33791348540E+03  0.33951643286E+03  0.00000000000E+00 0. -1.
<mgrwt>
<rscale>  4 0.24598152E+03</rscale>
<asrwt>0</asrwt>
<pdfrwt beam="1">  1       21 0.15227139E-01 0.24598152E+03</pdfrwt>
<pdfrwt beam="2">  1       21 0.23331365E+00 0.24598152E+03</pdfrwt>
<totfact> 0.30306681E+03</totfact>
</mgrwt>
</event>
<event>
 5    0  0.2530297E+000  0.2516934E+03  0.7546771E-02  0.1112239E+00
         21   -1    0    0  502  501  0.00000000000E+00  0.00000000000E+00  0.10172975206E+04  0.10172975206E+04  0.00000000000E+00 0.  1.
         21   -1    0    0  503  502 -0.00000000000E+00 -0.00000000000E+00 -0.90978702069E+02  0.90978702069E+02  0.00000000000E+00 0.  1.
         25    1    1    2    0    0  0.21130931090E+03  0.55433949924E+02  0.81101202969E+03  0.84917021849E+03  0.12500000000E+03 0.  0.
         21    1    1    2  503  504 -0.16349145034E+03 -0.71946357279E+02  0.10588587685E+03  0.20764766210E+03  0.00000000000E+00 0.  1.
         21    1    1    2  504  501 -0.47817860554E+02  0.16512407356E+02  0.94209119728E+01  0.51458342055E+02  0.00000000000E+00 0.  1.
<mgrwt>
<rscale>  4 0.25169336E+03</rscale>
<asrwt>0</asrwt>
<pdfrwt beam="1">  1       21 0.15650730E+00 0.25169336E+03</pdfrwt>
<pdfrwt beam="2">  1       21 0.13996724E-01 0.25169336E+03</pdfrwt>
<totfact> 0.11416175E+04</totfact>
</mgrwt>
</event>
<event>
 5    0  0.2159162E+000  0.2932234E+03  0.7546771E-02  0.1088678E+00
         21   -1    0    0  502  501  0.00000000000E+00  0.00000000000E+00  0.44613695632E+03  0.44613695632E+03  0.00000000000E+00 0.  1.
         21   -1    0    0  503  502 -0.00000000000E+00 -0.00000000000E+00 -0.14129560877E+04  0.14129560877E+04  0.00000000000E+00 0. -1.
         25    1    1    2    0    0 -0.16874481334E+03 -0.22900450343E+03  0.36746220236E+03  0.48121860395E+03  0.12500000000E+03 0.  0.
         21    1    1    2  503  504  0.96131680747E+02  0.11886786864E+03 -0.31549100014E+03  0.35057872355E+03  0.00000000000E+00 0.  1.
         21    1    1    2  504  501  0.72613132597E+02  0.11013663479E+03 -0.10187903336E+04  0.10272957165E+04  0.00000000000E+00 0. -1.
<mgrwt>
<rscale>  4 0.29322341E+03</rscale>
<asrwt>0</asrwt>
<pdfrwt beam="1">  1       21 0.68636455E-01 0.29322341E+03</pdfrwt>
<pdfrwt beam="2">  1       21 0.21737786E+00 0.29322341E+03</pdfrwt>
<totfact> 0.18061803E+02</totfact>
</mgrwt>
</event>
<event>
 5    0  0.2159162E+000  0.2332363E+03  0.7546771E-02  0.1124382E+00
         21   -1    0    0  502  501  0.00000000000E+00  0.00000000000E+00  0.15961127194E+04  0.15961127194E+04  0.00000000000E+00 0. -1.
         21   -1    0    0  503  502 -0.00000000000E+00 -0.00000000000E+00 -0.25394263010E+03  0.25394263010E+03  0.00000000000E+00 0.  1.
         25    1    1    2    0    0 -0.62635934734E+02  0.19024116721E+03  0.15305831733E+04  0.15486848655E+04  0.12500000000E+03 0.  0.
         21    1    1    2  503  504  0.75263579421E+02 -0.44491578614E+02 -0.54406839772E+02  0.10297675062E+03  0.00000000000E+00 0. -1.
         21    1    1    2  504  501 -0.12627644687E+02 -0.14574958860E+03 -0.13400624422E+03  0.19839373346E+03  0.00000000000E+00 0.  1.
<mgrwt>
<rscale>  4 0.23323627E+03</rscale>
<asrwt>0</asrwt>
<pdfrwt beam="1">  1       21 0.24555580E+00 0.23323627E+03</pdfrwt>
<pdfrwt beam="2">  1       21 0.39068098E-01 0.23323627E+03</pdfrwt>
<totfact> 0.42444424E+02</totfact>
</mgrwt>
</event>
<event>
 5    0  0.2159162E+000  0.3103192E+03  0.7546771E-02  0.1080193E+00
         21   -1    0    0  502  501  0.00000000000E+00  0.00000000000E+00  0.77171349726E+03  0.77171349726E+03  0.00000000000E+00 0.  1.
         21   -1    0    0  503  502 -0.00000000000E+00 -0.00000000000E+00 -0.24035339634E+03  0.24035339634E+03  0.00000000000E+00 0.  1.
         25    1    1    2    0    0  0.32552153092E+03 -0.84029821161E+01  0.37637238709E+03  0.51314330452E+03  0.12500000000E+03 0.  0.
         21    1    1    2  503  504 -0.21939379633E+03 -0.15264732184E+03  0.14890591612E+03  0.30595394194E+03  0.00000000000E+00 0.  1.
         21    1    1    2  504  501 -0.10612773459E+03  0.16105030396E+03  0.60817977104E+01  0.19296964714E+03  0.00000000000E+00 0.  1.
<mgrwt>
<rscale>  4 0.31031918E+03</rscale>
<asrwt>0</asrwt>
<pdfrwt beam="1">  1       21 0.11872515E+00 0.31031918E+03</pdfrwt>
<pdfrwt beam="2">  1       21 0.36977446E-01 0.31031918E+03</pdfrwt>
<totfact> 0.35328129E+03</totfact>
</mgrwt>
</event>
