<event>
 5    0  0.4257006E+000  0.1691636E+03  0.7546771E-02  0.1178723E+00
         21   -1    0    0  503  501  0.00000000000E+00  0.00000000000E+00  0.94811402784E+03  0.94811402784E+03  0.00000000000E+00 0.  1.
         21   -1    0    0  504  502 -0.00000000000E+00 -0.00000000000E+00 -0.17629451491E+04  0.17629451491E+04  0.00000000000E+00 0.  1.
         25    1    1    2    0    0 -0.20710449968E+03  0.25689180502E+02  0.69443201138E+03  0.73580773726E+03  0.12500000000E+03 0.  0.
         21    1    1    2  503  502  0.98155682545E+02 -0.57536240734E+02 -0.17264483416E+04  0.17301932936E+04  0.00000000000E+00 0.  1.
         21    1    1    2  504  501  0.10894881713E+03  0.31847060232E+02  0.21718520893E+03  0.24505814611E+03  0.00000000000E+00 0.  1.
<mgrwt>
<rscale>  4 0.16916362E+03</rscale>
<asrwt>0</asrwt>
<pdfrwt beam="1">  1       21 0.14586370E+00 0.16916362E+03</pdfrwt>
<pdfrwt beam="2">  1       21 0.27122233E+00 0.16916362E+03</pdfrwt>
<totfact> 0.16863633E+01</totfact>
</mgrwt>
</event>
<event>
 5    0  0.4257006E+000  0.2497753E+03  0.7546771E-02  0.1113447E+00
         21   -1    0    0  503  501  0.00000000000E+00  0.00000000000E+00  0.63103304718E+02  0.63103304718E+02  0.00000000000E+00 0.  1.
         21   -1    0    0  504  502 -0.00000000000E+00 -0.00000000000E+00 -0.10381386949E+04  0.10381386949E+04  0.00000000000E+00 0.  1.
         25    1    1    2    0    0  0.20331297687E+03  0.35336753645E+02 -0.54735506936E+03  0.59817006334E+03  0.12500000000E+03 0.  0.
         21    1    1    2  503  502  0.19434219198E+02 -0.25572346712E+02 -0.11254397807E+03  0.11703751873E+03  0.00000000000E+00 0. -1.
         21    1    1    2  504  501 -0.22274719607E+03 -0.97644069328E+01 -0.31513634271E+03  0.38603441750E+03  0.00000000000E+00 0.  1.
<mgrwt>
<rscale>  4 0.24977532E+03</rscale>
<asrwt>0</asrwt>
<pdfrwt beam="1">  1       21 0.97082006E-02 0.24977532E+03</pdfrwt>
<pdfrwt beam="2">  1       21 0.15971365E+00 0.24977532E+03</pdfrwt>
<totfact> 0.20871671E+04</totfact>
</mgrwt>
</event>
<event>
 5    0  0.4257006E+000  0.2727849E+03  0.7546771E-02  0.1099696E+00
         21   -1    0    0  503  501  0.00000000000E+00  0.00000000000E+00  0.98595803190E+03  0.98595803190E+03  0.00000000000E+00 0. -1.
         21   -1    0    0  504  502 -0.00000000000E+00 -0.00000000000E+00 -0.10218272445E+04  0.10218272445E+04  0.00000000000E+00 0. -1.
         25    1    1    2    0    0 -0.41690610524E+03  0.14261007239E+03  0.45068515450E+03  0.64256551558E+03  0.12500000000E+03 0.  0.
         21    1    1    2  503  502  0.18775849578E+03 -0.82700996266E+02  0.39893584792E+03  0.44860062224E+03  0.00000000000E+00 0. -1.
         21    1    1    2  504  501  0.22914760945E+03 -0.59909076122E+02 -0.88549021504E+03  0.91661913860E+03  0.00000000000E+00 0. -1.
<mgrwt>
<rscale>  4 0.27278494E+03</rscale>
<asrwt>0</asrwt>
<pdfrwt beam="1">  1       21 0.15168585E+00 0.27278494E+03</pdfrwt>
<pdfrwt beam="2">  1       21 0.15720419E+00 0.27278494E+03</pdfrwt>
<totfact> 0.69394548E+01</totfact>
</mgrwt>
</event>
<event>
 5    0  0.4257006E+000  0.2435690E+03  0.7546771E-02  0.1117438E+00
         21   -1    0    0  503  501  0.00000000000E+00  0.00000000000E+00  0.83109377112E+03  0.83109377112E+03  0.00000000000E+00 0.  1.
         21   -1    0    0  504  502 -0.00000000000E+00 -0.00000000000E+00 -0.26290701452E+03  0.26290701452E+03  0.00000000000E+00 0.  1.
         25    1    1    2    0    0 -0.15706235064E+03  0.13020100198E+03  0.69475829641E+03  0.73480267646E+03  0.12500000000E+03 0.  0.
         21    1    1    2  503  502 -0.44080354345E+02  0.65806013944E+01 -0.10611607752E+03  0.11509562920E+03  0.00000000000E+00 0.  1.
         21    1    1    2  504  501  0.20114270499E+03 -0.13678160337E+03 -0.20455462299E+02  0.24410247997E+03  0.00000000000E+00 0.  1.
<mgrwt>
<rscale>  4 0.24356897E+03</rscale>
<asrwt>0</asrwt>
<pdfrwt beam="1">  1       21 0.12786058E+00 0.24356897E+03</pdfrwt>
<pdfrwt beam="2">  1       21 0.40447234E-01 0.24356897E+03</pdfrwt>
<totfact> 0.25459525E+03</totfact>
</mgrwt>
</event>
<event>
 5    0  0.4257006E+000  0.2832274E+03  0.7546771E-02  0.1093939E+00
         21   -1    0    0  503  501  0.00000000000E+00  0.00000000000E+00  0.13075320342E+04  0.13075320342E+04  0.00000000000E+00 0.  1.
         21   -1    0    0  504  502 -0.00000000000E+00 -0.00000000000E+00 -0.27982572072E+03  0.27982572072E+03  0.00000000000E+00 0. -1.
         25    1    1    2    0    0  0.21043351369E+03 -0.19548292564E+03  0.11501341969E+04  0.11920274781E+04  0.12500000000E+03 0.  0.
         21    1    1    2  503  502 -0.55129044020E+02  0.13903690409E+03 -0.16699411409E+03  0.22418185996E+03  0.00000000000E+00 0. -1.
         21    1    1    2  504  501 -0.15530446967E+03  0.56446021548E+02  0.44566230696E+02  0.17114841678E+03  0.00000000000E+00 0. -1.
<mgrwt>
<rscale>  4 0.28322736E+03</rscale>
<asrwt>0</asrwt>
<pdfrwt beam="1">  1       21 0.20115877E+00 0.28322736E+03</pdfrwt>
<pdfrwt beam="2">  1       21 0.43050111E-01 0.28322736E+03</pdfrwt>
<totfact> 0.62653180E+02</totfact>
</mgrwt>
</event>
<event>
 5    0  0.4368864E+000  0.4078076E+03  0.7546771E-02  0.1041109E+00
         21   -1    0    0  503  501  0.00000000000E+00  0.00000000000E+00  0.79207043309E+03  0.79207043309E+03  0.00000000000E+00 0.  1.
         21   -1    0    0  504  502 -0.00000000000E+00 -0.00000000000E+00 -0.98736934542E+03  0.98736934542E+03  0.00000000000E+00 0. -1.
         25    1    1    2    0    0 -0.26385906821E+03 -0.29146735126E+03  0.68040973207E+03  0.79571177459E+03  0.12500000000E+03 0.  0.
         21    1    1    2  503  502  0.25023771269E+03  0.19920645162E+03 -0.80645230926E+03  0.86756409005E+03  0.00000000000E+00 0. -1.
         21    1    1    2  504  501  0.13621355523E+02  0.92260899637E+02 -0.69256335144E+02  0.11616391387E+03  0.00000000000E+00 0. -1.
<mgrwt>
<rscale>  4 0.40780764E+03</rscale>
<asrwt>0</asrwt>
<pdfrwt beam="1">  1       21 0.12185699E+00 0.40780764E+03</pdfrwt>
<pdfrwt beam="2">  1       21 0.15190298E+00 0.40780764E+03</pdfrwt>
<totfact> 0.12127691E+02</totfact>
</mgrwt>
</event>
<event>
 5    0  0.4257006E+000  0.1979602E+03  0.7546771E-02  0.1151471E+00
         21   -1    0    0  503  501  0.00000000000E+00  0.00000000000E+00  0.22037838599E+04  0.22037838599E+04  0.00000000000E+00 0.  1.
         21   -1    0    0  504  502 -0.00000000000E+00 -0.00000000000E+00 -0.13385412713E+03  0.13385412713E+03  0.00000000000E+00 0.  1.
         25    1    1    2    0    0 -0.23083645843E+03  0.63244015162E+02  0.19014093302E+04  0.19204863230E+04  0.12500000000E+03 0.  0.
         21    1    1    2  503  502  0.81356069087E+02 -0.39712170170E+02  0.23502701840E+03  0.25186021086E+03  0.00000000000E+00 0.  1.
         21    1    1    2  504  501  0.14948038935E+03 -0.23531844991E+02 -0.66506615834E+02  0.16529145313E+03  0.00000000000E+00 0.  1.
<mgrwt>
<rscale>  4 0.19796022E+03</rscale>
<asrwt>0</asrwt>
<pdfrwt beam="1">  1       21 0.33904364E+00 0.19796022E+03</pdfrwt>
<pdfrwt beam="2">  1       21 0.20592944E-01 0.19796022E+03</pdfrwt>
<totfact> 0.43969638E+02</totfact>
</mgrwt>
</event>
<event>
 5    0  0.4257006E+000  0.2699329E+03  0.7546771E-02  0.1101318E+00
         21   -1    0    0  504  501  0.00000000000E+00  0.00000000000E+00  0.68023794240E+03  0.68023794240E+03  0.00000000000E+00 0. -1.
         21   -1    0    0  501  502 -0.00000000000E+00 -0.00000000000E+00 -0.13356162579E+03  0.13356162579E+03  0.00000000000E+00 0.  1.
         25    1    1    2    0    0 -0.18973308717E+03 -0.14573999397E+03  0.49504169525E+03  0.56385287997E+03  0.12500000000E+03 0.  0.
         21    1    1    2  503  502  0.92068257149E+02  0.67063066141E+02 -0.10710450760E+01  0.11390858595E+03  0.00000000000E+00 0.  1.
         21    1    1    2  504  503  0.97664830026E+02  0.78676927824E+02  0.52705666433E+02  0.13603810227E+03  0.00000000000E+00 0.  1.
<mgrwt>
<rscale>  4 0.26993294E+03</rscale>
<asrwt>0</asrwt>
<pdfrwt beam="1">  1       21 0.10465199E+00 0.26993294E+03</pdfrwt>
<pdfrwt beam="2">  1       21 0.20547943E-01 0.26993294E+03</pdfrwt>
<totfact> 0.15465009E+04</totfact>
</mgrwt>
</event>
<event>
 5    0  0.4257006E+000  0.4940351E+03  0.7546771E-02  0.1015348E+00
         21   -1    0    0  504  501  0.00000000000E+00  0.00000000000E+00  0.90568315112E+03  0.90568315112E+03  0.00000000000E+00 0. -1.
         21   -1    0    0  503  502 -0.00000000000E+00 -0.00000000000E+00 -0.86808689414E+03  0.86808689414E+03  0.00000000000E+00 0. -1.
         25    1    1    2    0    0  0.47778372417E+03 -0.22580819248E+03  0.27666394017E+03  0.60945431549E+03  0.12500000000E+03 0.  0.
         21    1    1    2  503  501 -0.39228675998E+03  0.21105012284E+03  0.35148334656E+03  0.56742541300E+03  0.00000000000E+00 0. -1.
         21    1    1    2  504  502 -0.85496964188E+02  0.14758069641E+02 -0.59055102976E+03  0.59689031677E+03  0.00000000000E+00 0. -1.
<mgrwt>
<rscale>  4 0.49403506E+03</rscale>
<asrwt>0</asrwt>
<pdfrwt beam="1">  1       21 0.13933587E+00 0.49403506E+03</pdfrwt>
<pdfrwt beam="2">  1       21 0.13355183E+00 0.49403506E+03</pdfrwt>
<totfact> 0.11518457E+02</totfact>
</mgrwt>
</event>
<event>
 5    0  0.4257006E+000  0.2776554E+03  0.7546771E-02  0.1096976E+00
         21   -1    0    0  503  501  0.00000000000E+00  0.00000000000E+00  0.12509845446E+03  0.12509845446E+03  0.00000000000E+00 0. -1.
         21   -1    0    0  504  502 -0.00000000000E+00 -0.00000000000E+00 -0.16611705939E+04  0.16611705939E+04  0.00000000000E+00 0. -1.
         25    1    1    2    0    0 -0.19272131971E+03  0.18441195660E+03 -0.98805774110E+02  0.31070381041E+03  0.12500000000E+03 0.  0.
         21    1    1    2  503  502 -0.12107330159E+02 -0.47532751953E+02 -0.65376465632E+02  0.81731464017E+02  0.00000000000E+00 0.  1.
         21    1    1    2  504  501  0.20482864987E+03 -0.13687920465E+03 -0.13718898996E+04  0.13938337739E+04  0.00000000000E+00 0. -1.
<mgrwt>
<rscale>  4 0.27765544E+03</rscale>
<asrwt>0</asrwt>
<pdfrwt beam="1">  1       21 0.19245918E-01 0.27765544E+03</pdfrwt>
<pdfrwt beam="2">  1       21 0.25556468E+00 0.27765544E+03</pdfrwt>
<totfact> 0.14042982E+03</totfact>
</mgrwt>
</event>
<event>
 5    0  0.4257006E+000  0.2475813E+03  0.7546771E-02  0.1114843E+00
         21   -1    0    0  503  501  0.00000000000E+00  0.00000000000E+00  0.47708940074E+03  0.47708940074E+03  0.00000000000E+00 0. -1.
         21   -1    0    0  504  502 -0.00000000000E+00 -0.00000000000E+00 -0.34026996154E+03  0.34026996154E+03  0.00000000000E+00 0.  1.
         25    1    1    2    0    0 -0.22709437328E+02  0.22240564675E+03  0.24160131058E+01  0.25614610551E+03  0.12500000000E+03 0.  0.
         21    1    1    2  503  502 -0.11106772621E+03 -0.49654373874E+02 -0.15597597557E+03  0.19781329987E+03  0.00000000000E+00 0.  1.
         21    1    1    2  504  501  0.13377716353E+03 -0.17275127287E+03  0.29037940167E+03  0.36339995690E+03  0.00000000000E+00 0. -1.
<mgrwt>
<rscale>  4 0.24758127E+03</rscale>
<asrwt>0</asrwt>
<pdfrwt beam="1">  1       21 0.73398369E-01 0.24758127E+03</pdfrwt>
<pdfrwt beam="2">  1       21 0.52349225E-01 0.24758127E+03</pdfrwt>
<totfact> 0.55583511E+03</totfact>
</mgrwt>
</event>
<event>
 5    0  0.4257006E+000  0.2359683E+03  0.7546771E-02  0.1122508E+00
         21   -1    0    0  504  501  0.00000000000E+00  0.00000000000E+00  0.42455676852E+02  0.42455676852E+02  0.00000000000E+00 0. -1.
         21   -1    0    0  501  502 -0.00000000000E+00 -0.00000000000E+00 -0.18731637809E+04  0.18731637809E+04  0.00000000000E+00 0. -1.
         25    1    1    2    0    0 -0.18448355407E+03  0.81931836555E+02 -0.71967664828E+03  0.75783011662E+03  0.12500000000E+03 0.  0.
         21    1    1    2  503  502 -0.10189537328E+02 -0.34660518754E+02 -0.69601751638E+03  0.69695449014E+03  0.00000000000E+00 0. -1.
         21    1    1    2  504  503  0.19467309140E+03 -0.47271317801E+02 -0.41501393941E+03  0.46083485101E+03  0.00000000000E+00 0. -1.
<mgrwt>
<rscale>  4 0.23596830E+03</rscale>
<asrwt>0</asrwt>
<pdfrwt beam="1">  1       21 0.65316421E-02 0.23596830E+03</pdfrwt>
<pdfrwt beam="2">  1       21 0.28817906E+00 0.23596830E+03</pdfrwt>
<totfact> 0.65142111E+03</totfact>
</mgrwt>
</event>
<event>
 5    0  0.4257006E+000  0.2494928E+03  0.7546771E-02  0.1113626E+00
         21   -1    0    0  503  501  0.00000000000E+00  0.00000000000E+00  0.22248984283E+03  0.22248984283E+03  0.00000000000E+00 0.  1.
         21   -1    0    0  504  502 -0.00000000000E+00 -0.00000000000E+00 -0.20862589473E+04  0.20862589473E+04  0.00000000000E+00 0.  1.
         25    1    1    2    0    0  0.20484593755E+03  0.83014544741E+02 -0.83281359577E+02  0.26723408769E+03  0.12500000000E+03 0.  0.
         21    1    1    2  503  502 -0.18748561433E+03 -0.10289144498E+03  0.42743141230E+02  0.21809282692E+03  0.00000000000E+00 0.  1.
         21    1    1    2  504  501 -0.17360323216E+02  0.19876900239E+02 -0.18232308862E+04  0.18234218756E+04  0.00000000000E+00 0.  1.
<mgrwt>
<rscale>  4 0.24949280E+03</rscale>
<asrwt>0</asrwt>
<pdfrwt beam="1">  1       21 0.34229204E-01 0.24949280E+03</pdfrwt>
<pdfrwt beam="2">  1       21 0.32096294E+00 0.24949280E+03</pdfrwt>
<totfact> 0.19621995E+02</totfact>
</mgrwt>
</event>
<event>
 5    0  0.4257006E+000  0.2786587E+03  0.7546771E-02  0.1096424E+00
         21   -1    0    0  503  501  0.00000000000E+00  0.00000000000E+00  0.58717550121E+03  0.58717550121E+03  0.00000000000E+00 0. -1.
         21   -1    0    0  504  502 -0.00000000000E+00 -0.00000000000E+00 -0.19640593679E+03  0.19640593679E+03  0.00000000000E+00 0.  1.
         25    1    1    2    0    0 -0.23873563968E+03  0.58818678238E+02  0.40955188235E+03  0.49377331530E+03  0.12500000000E+03 0.  0.
         21    1    1    2  503  502 -0.67778357672E+01  0.26852666335E+02 -0.10580686555E+02  0.29647186628E+02  0.00000000000E+00 0. -1.
         21    1    1    2  504  501  0.24551347544E+03 -0.85671344573E+02 -0.82016313733E+01  0.26016093608E+03  0.00000000000E+00 0.  1.
<mgrwt>
<rscale>  4 0.27865875E+03</rscale>
<asrwt>0</asrwt>
<pdfrwt beam="1">  1       21 0.90334692E-01 0.27865875E+03</pdfrwt>
<pdfrwt beam="2">  1       21 0.30216298E-01 0.27865875E+03</pdfrwt>
<totfact> 0.10401726E+04</totfact>
</mgrwt>
</event>
<event>
 5    0  0.4257006E+000  0.3365190E+03  0.7546771E-02  0.1068288E+00
         21   -1    0    0  503  501  0.00000000000E+00  0.00000000000E+00  0.23413094747E+04  0.23413094747E+04  0.00000000000E+00 0. -1.
         21   -1    0    0  504  502 -0.00000000000E+00 -0.00000000000E+00 -0.41405178755E+03  0.41405178755E+03  0.00000000000E+00 0.  1.
         25    1    1    2    0    0  0.29488466615E+03 -0.10322505097E+03  0.20387682394E+04  0.20663526591E+04  0.12500000000E+03 0.  0.
         21    1    1    2  503  502 -0.76416484997E+02 -0.19922719556E+03 -0.21387829061E+03  0.30211732460E+03  0.00000000000E+00 0.  1.
         21    1    1    2  504  501 -0.21846818115E+03  0.30245224654E+03  0.10236773834E+03  0.38689127861E+03  0.00000000000E+00 0.  1.
<mgrwt>
<rscale>  4 0.33651897E+03</rscale>
<asrwt>0</asrwt>
<pdfrwt beam="1">  1       21 0.36020145E+00 0.33651897E+03</pdfrwt>
<pdfrwt beam="2">  1       21 0.63700277E-01 0.33651897E+03</pdfrwt>
<totfact> 0.28299872E+01</totfact>
</mgrwt>
</event>
<event>
 5    0  0.4257006E+000  0.2542039E+03  0.7546771E-02  0.1110677E+00
         21   -1    0    0  503  501  0.00000000000E+00  0.00000000000E+00  0.95236013415E+02  0.95236013415E+02  0.00000000000E+00 0.  1.
         21   -1    0    0  504  502 -0.00000000000E+00 -0.00000000000E+00 -0.71306674171E+03  0.71306674171E+03  0.00000000000E+00 0.  1.
         25    1    1    2    0    0 -0.20273618628E+03  0.91686494394E+02 -0.28992393592E+03  0.38625025968E+03  0.12500000000E+03 0.  0.
         21    1    1    2  503  502  0.15195940408E+02  0.25927735084E+02 -0.48710943708E+01  0.30444894676E+02  0.00000000000E+00 0.  1.
         21    1    1    2  504  501  0.18754024587E+03 -0.11761422948E+03 -0.32303569800E+03  0.39160760077E+03  0.00000000000E+00 0.  1.
<mgrwt>
<rscale>  4 0.25420387E+03</rscale>
<asrwt>0</asrwt>
<pdfrwt beam="1">  1       21 0.14651694E-01 0.25420387E+03</pdfrwt>
<pdfrwt beam="2">  1       21 0.10970258E+00 0.25420387E+03</pdfrwt>
<totfact> 0.26037497E+04</totfact>
</mgrwt>
</event>
<event>
 5    0  0.4257006E+000  0.3506523E+03  0.7546771E-02  0.1062348E+00
         21   -1    0    0  503  501  0.00000000000E+00  0.00000000000E+00  0.10624184492E+04  0.10624184492E+04  0.00000000000E+00 0. -1.
         21   -1    0    0  504  502 -0.00000000000E+00 -0.00000000000E+00 -0.27071364267E+03  0.27071364267E+03  0.00000000000E+00 0.  1.
         25    1    1    2    0    0 -0.17561680412E+03 -0.27896634266E+03  0.86129526680E+03  0.93065461845E+03  0.12500000000E+03 0.  0.
         21    1    1    2  503  502 -0.25566628670E+02  0.20494312392E+02  0.44828840101E+02  0.55527418874E+02  0.00000000000E+00 0. -1.
         21    1    1    2  504  501  0.20118343279E+03  0.25847203027E+03 -0.11441930036E+03  0.34695005456E+03  0.00000000000E+00 0.  1.
<mgrwt>
<rscale>  4 0.35065228E+03</rscale>
<asrwt>0</asrwt>
<pdfrwt beam="1">  1       21 0.16344899E+00 0.35065228E+03</pdfrwt>
<pdfrwt beam="2">  1       21 0.41648253E-01 0.35065228E+03</pdfrwt>
<totfact> 0.11686788E+03</totfact>
</mgrwt>
</event>
<event>
 5    0  0.4257006E+000  0.2922067E+03  0.7546771E-02  0.1089203E+00
         21   -1    0    0  504  501  0.00000000000E+00  0.00000000000E+00  0.23137606285E+04  0.23137606285E+04  0.00000000000E+00 0.  1.
         21   -1    0    0  503  502 -0.00000000000E+00 -0.00000000000E+00 -0.11779095098E+03  0.11779095098E+03  0.00000000000E+00 0.  1.
         25    1    1    2    0    0 -0.20026550159E+03 -0.16968982253E+03  0.17254269924E+04  0.17497497573E+04  0.12500000000E+03 0.  0.
         21    1    1    2  503  501  0.15458765273E+03  0.22894274205E+03  0.52228170360E+03  0.59083864078E+03  0.00000000000E+00 0.  1.
         21    1    1    2  504  502  0.45677848858E+02 -0.59252919519E+02 -0.51739018454E+02  0.90963181444E+02  0.00000000000E+00 0.  1.
<mgrwt>
<rscale>  4 0.29220671E+03</rscale>
<asrwt>0</asrwt>
<pdfrwt beam="1">  1       21 0.35596314E+00 0.29220671E+03</pdfrwt>
<pdfrwt beam="2">  1       21 0.18121687E-01 0.29220671E+03</pdfrwt>
<totfact> 0.39414385E+02</totfact>
</mgrwt>
</event>
<event>
 5    0  0.4257006E+000  0.2465537E+03  0.7546771E-02  0.1115502E+00
         21   -1    0    0  504  501  0.00000000000E+00  0.00000000000E+00  0.50819308838E+03  0.50819308838E+03  0.00000000000E+00 0. -1.
         21   -1    0    0  501  502 -0.00000000000E+00 -0.00000000000E+00 -0.12499910916E+03  0.12499910916E+03  0.00000000000E+00 0. -1.
         25    1    1    2    0    0 -0.18640774259E+03 -0.10019365665E+03  0.28477819373E+03  0.37617846157E+03  0.12500000000E+03 0.  0.
         21    1    1    2  503  502  0.19871133187E+03  0.81103561609E+02  0.91026490891E+02  0.23313044238E+03  0.00000000000E+00 0. -1.
         21    1    1    2  504  503 -0.12303589284E+02  0.19090095043E+02  0.73892945929E+01  0.23883293587E+02  0.00000000000E+00 0.  1.
<mgrwt>
<rscale>  4 0.24655373E+03</rscale>
<asrwt>0</asrwt>
<pdfrwt beam="1">  1       21 0.78183551E-01 0.24655373E+03</pdfrwt>
<pdfrwt beam="2">  1       21 0.19230632E-01 0.24655373E+03</pdfrwt>
<totfact> 0.35023992E+04</totfact>
</mgrwt>
</event>
<event>
 5    0  0.4257006E+000  0.2674178E+03  0.7546771E-02  0.1102767E+00
         21   -1    0    0  504  501  0.00000000000E+00  0.00000000000E+00  0.96425273731E+03  0.96425273731E+03  0.00000000000E+00 0. -1.
         21   -1    0    0  503  502 -0.00000000000E+00 -0.00000000000E+00 -0.75725480736E+02  0.75725480736E+02  0.00000000000E+00 0. -1.
         25    1    1    2    0    0  0.21271465848E+03  0.69934101450E+02  0.32561693421E+03  0.41447520109E+03  0.12500000000E+03 0.  0.
         21    1    1    2  503  501 -0.23443625316E+03 -0.66847152742E+02  0.54550156605E+03  0.59749548718E+03  0.00000000000E+00 0. -1.
         21    1    1    2  504  502  0.21721594687E+02 -0.30869487077E+01  0.17408756312E+02  0.28007529780E+02  0.00000000000E+00 0.  1.
<mgrwt>
<rscale>  4 0.26741782E+03</rscale>
<asrwt>0</asrwt>
<pdfrwt beam="1">  1       21 0.14834657E+00 0.26741782E+03</pdfrwt>
<pdfrwt beam="2">  1       21 0.11650075E-01 0.26741782E+03</pdfrwt>
<totfact> 0.18208509E+04</totfact>
</mgrwt>
</event>
<event>
 5    0  0.4257006E+000  0.2629850E+03  0.7546771E-02  0.1105363E+00
         21   -1    0    0  503  501  0.00000000000E+00  0.00000000000E+00  0.70360458083E+03  0.70360458083E+03  0.00000000000E+00 0.  1.
         21   -1    0    0  504  502 -0.00000000000E+00 -0.00000000000E+00 -0.98525396958E+02  0.98525396958E+02  0.00000000000E+00 0.  1.
         25    1    1    2    0    0 -0.25450265101E+02  0.22148732826E+03  0.22323559658E+03  0.33935745779E+03  0.12500000000E+03 0.  0.
         21    1    1    2  503  502  0.46533370051E+02 -0.23224972597E+03  0.35722530553E+03  0.42862012162E+03  0.00000000000E+00 0.  1.
         21    1    1    2  504  501 -0.21083104950E+02  0.10762397704E+02  0.24618281758E+02  0.34152398385E+02  0.00000000000E+00 0.  1.
<mgrwt>
<rscale>  4 0.26298497E+03</rscale>
<asrwt>0</asrwt>
<pdfrwt beam="1">  1       21 0.10824686E+00 0.26298497E+03</pdfrwt>
<pdfrwt beam="2">  1       21 0.15157754E-01 0.26298497E+03</pdfrwt>
<totfact> 0.25173886E+04</totfact>
</mgrwt>
</event>
<event>
 5    0  0.4257006E+000  0.2781390E+03  0.7546771E-02  0.1096710E+00
         21   -1    0    0  504  501  0.00000000000E+00  0.00000000000E+00  0.88323239789E+02  0.88323239789E+02  0.00000000000E+00 0. -1.
         21   -1    0    0  501  502 -0.00000000000E+00 -0.00000000000E+00 -0.17941563805E+04  0.17941563805E+04  0.00000000000E+00 0. -1.
         25    1    1    2    0    0  0.23945161331E+03  0.10604244572E+03 -0.33289205380E+03  0.44161543779E+03  0.12500000000E+03 0.  0.
         21    1    1    2  503  502 -0.24771551201E+02 -0.11979982416E+02 -0.10000541963E+04  0.10004326790E+04  0.00000000000E+00 0. -1.
         21    1    1    2  504  503 -0.21468006211E+03 -0.94062463306E+02 -0.37288689068E+03  0.44043150354E+03  0.00000000000E+00 0. -1.
<mgrwt>
<rscale>  4 0.27813897E+03</rscale>
<asrwt>0</asrwt>
<pdfrwt beam="1">  1       21 0.13588191E-01 0.27813897E+03</pdfrwt>
<pdfrwt beam="2">  1       21 0.27602405E+00 0.27813897E+03</pdfrwt>
<totfact> 0.20203577E+03</totfact>
</mgrwt>
</event>
<event>
 5    0  0.4257006E+000  0.2316389E+03  0.7546771E-02  0.1125492E+00
         21   -1    0    0  503  501  0.00000000000E+00  0.00000000000E+00  0.11350465648E+03  0.11350465648E+03  0.00000000000E+00 0.  1.
         21   -1    0    0  504  502 -0.00000000000E+00 -0.00000000000E+00 -0.24375379821E+04  0.24375379821E+04  0.00000000000E+00 0.  1.
         25    1    1    2    0    0 -0.24167122227E+03  0.19219426567E+02 -0.16841084395E+03  0.32056446839E+03  0.12500000000E+03 0.  0.
         21    1    1    2  503  502  0.49510820054E+02 -0.30163665340E+02  0.78113983472E+01  0.58499452590E+02  0.00000000000E+00 0.  1.
         21    1    1    2  504  501  0.19216040222E+03  0.10944238773E+02 -0.21634338800E+04  0.21719787176E+04  0.00000000000E+00 0.  1.
<mgrwt>
<rscale>  4 0.23163888E+03</rscale>
<asrwt>0</asrwt>
<pdfrwt beam="1">  1       21 0.17462254E-01 0.23163888E+03</pdfrwt>
<pdfrwt beam="2">  1       21 0.37500587E+00 0.23163888E+03</pdfrwt>
<totfact> 0.34721303E+02</totfact>
</mgrwt>
</event>
<event>
 5    0  0.4257006E+000  0.5202334E+03  0.7546771E-02  0.1008629E+00
         21   -1    0    0  503  501  0.00000000000E+00  0.00000000000E+00  0.19574714275E+04  0.19574714275E+04  0.00000000000E+00 0. -1.
         21   -1    0    0  504  502 -0.00000000000E+00 -0.00000000000E+00 -0.36439613633E+03  0.36439613633E+03  0.00000000000E+00 0.  1.
         25    1    1    2    0    0 -0.11565055716E+03  0.27276422235E+03  0.11098870089E+04  0.11555299844E+04  0.12500000000E+03 0.  0.
         21    1    1    2  503  502  0.50654084497E+02  0.27661140931E+03  0.54139941590E+03  0.61007625390E+03  0.00000000000E+00 0. -1.
         21    1    1    2  504  501  0.64996472668E+02 -0.54937563165E+03 -0.58211133690E+02  0.55626132546E+03  0.00000000000E+00 0.  1.
<mgrwt>
<rscale>  4 0.52023336E+03</rscale>
<asrwt>0</asrwt>
<pdfrwt beam="1">  1       21 0.30114945E+00 0.52023336E+03</pdfrwt>
<pdfrwt beam="2">  1       21 0.56060945E-01 0.52023336E+03</pdfrwt>
<totfact> 0.74167014E+01</totfact>
</mgrwt>
</event>
<event>
 5    0  0.4257006E+000  0.3667149E+03  0.7546771E-02  0.1055956E+00
         21   -1    0    0  504  501  0.00000000000E+00  0.00000000000E+00  0.14429309337E+03  0.14429309337E+03  0.00000000000E+00 0.  1.
         21   -1    0    0  503  502 -0.00000000000E+00 -0.00000000000E+00 -0.11994685398E+04  0.11994685398E+04  0.00000000000E+00 0.  1.
         25    1    1    2    0    0 -0.22788567172E+03 -0.25308083649E+03 -0.35971708608E+03  0.51088469462E+03  0.12500000000E+03 0.  0.
         21    1    1    2  503  501  0.25546108749E+03  0.23886036196E+03 -0.38211949026E+03  0.51800573797E+03  0.00000000000E+00 0.  1.
         21    1    1    2  504  502 -0.27575415769E+02  0.14220474537E+02 -0.31333887012E+03  0.31487120062E+03  0.00000000000E+00 0. -1.
<mgrwt>
<rscale>  4 0.36671492E+03</rscale>
<asrwt>0</asrwt>
<pdfrwt beam="1">  1       21 0.22198937E-01 0.36671492E+03</pdfrwt>
<pdfrwt beam="2">  1       21 0.18453363E+00 0.36671492E+03</pdfrwt>
<totfact> 0.28537805E+03</totfact>
</mgrwt>
</event>
<event>
 5    0  0.4926731E+000  0.2596578E+03  0.7546771E-02  0.1107349E+00
         21   -1    0    0  504  501  0.00000000000E+00  0.00000000000E+00  0.13879284097E+04  0.13879284097E+04  0.00000000000E+00 0.  1.
         21   -1    0    0  501  502 -0.00000000000E+00 -0.00000000000E+00 -0.11969363373E+04  0.11969363373E+04  0.00000000000E+00 0. -1.
         25    1    1    2    0    0  0.14794652348E+03  0.17294223704E+03  0.13643167790E+04  0.13888061292E+04  0.12500000000E+03 0.  0.
         21    1    1    2  503  502 -0.21894636140E+01 -0.22486865720E+02 -0.11842009487E+03  0.12055609379E+03  0.00000000000E+00 0. -1.
         21    1    1    2  504  503 -0.14575705986E+03 -0.15045537132E+03 -0.10549046117E+04  0.10755025240E+04  0.00000000000E+00 0. -1.
<mgrwt>
<rscale>  4 0.25965783E+03</rscale>
<asrwt>0</asrwt>
<pdfrwt beam="1">  1       21 0.21352745E+00 0.25965783E+03</pdfrwt>
<pdfrwt beam="2">  1       21 0.18414405E+00 0.25965783E+03</pdfrwt>
<totfact> 0.16972997E+01</totfact>
</mgrwt>
</event>
<event>
 5    0  0.4257006E+000  0.2115482E+03  0.7546771E-02  0.1140346E+00
         21   -1    0    0  504  501  0.00000000000E+00  0.00000000000E+00  0.82241147227E+02  0.82241147227E+02  0.00000000000E+00 0. -1.
         21   -1    0    0  501  502 -0.00000000000E+00 -0.00000000000E+00 -0.70235169479E+03  0.70235169479E+03  0.00000000000E+00 0.  1.
         25    1    1    2    0    0 -0.13031073803E+03 -0.15523080327E+03 -0.23421610748E+03  0.33400550255E+03  0.12500000000E+03 0.  0.
         21    1    1    2  503  502  0.36743504333E+02  0.39010557676E+02 -0.22443304008E+03  0.23074249327E+03  0.00000000000E+00 0.  1.
         21    1    1    2  504  503  0.93567233701E+02  0.11622024559E+03 -0.16146140000E+03  0.21984484620E+03  0.00000000000E+00 0. -1.
<mgrwt>
<rscale>  4 0.21154822E+03</rscale>
<asrwt>0</asrwt>
<pdfrwt beam="1">  1       21 0.12652484E-01 0.21154822E+03</pdfrwt>
<pdfrwt beam="2">  1       21 0.10805411E+00 0.21154822E+03</pdfrwt>
<totfact> 0.36014702E+04</totfact>
</mgrwt>
</event>
<event>
 5    0  0.4257006E+000  0.2660859E+03  0.7546771E-02  0.1103541E+00
         21   -1    0    0  504  501  0.00000000000E+00  0.00000000000E+00  0.14139496755E+03  0.14139496755E+03  0.00000000000E+00 0. -1.
         21   -1    0    0  501  502 -0.00000000000E+00 -0.00000000000E+00 -0.19024792761E+04  0.19024792761E+04  0.00000000000E+00 0. -1.
         25    1    1    2    0    0  0.63471277887E+01 -0.25844909261E+03 -0.34297803816E+03  0.44731996843E+03  0.12500000000E+03 0.  0.
         21    1    1    2  503  502  0.31183046055E+02  0.34672439465E+02 -0.13620268959E+04  0.13628249431E+04  0.00000000000E+00 0. -1.
         21    1    1    2  504  503 -0.37530173844E+02  0.22377665314E+03 -0.56079374495E+02  0.23372933210E+03  0.00000000000E+00 0. -1.
<mgrwt>
<rscale>  4 0.26608586E+03</rscale>
<asrwt>0</asrwt>
<pdfrwt beam="1">  1       21 0.21753072E-01 0.26608586E+03</pdfrwt>
<pdfrwt beam="2">  1       21 0.29268912E+00 0.26608586E+03</pdfrwt>
<totfact> 0.68039629E+02</totfact>
</mgrwt>
</event>
<event>
 5    0  0.4257006E+000  0.2753901E+03  0.7546771E-02  0.1098234E+00
         21   -1    0    0  504  501  0.00000000000E+00  0.00000000000E+00  0.91526839255E+02  0.91526839255E+02  0.00000000000E+00 0.  1.
         21   -1    0    0  501  502 -0.00000000000E+00 -0.00000000000E+00 -0.30683404633E+04  0.30683404633E+04  0.00000000000E+00 0.  1.
         25    1    1    2    0    0 -0.24253288133E+03  0.37316531886E+02 -0.13524230146E+03  0.30680645720E+03  0.12500000000E+03 0.  0.
         21    1    1    2  503  502  0.43042039550E+02 -0.15693134112E+02 -0.28836249960E+03  0.29197914789E+03  0.00000000000E+00 0.  1.
         21    1    1    2  504  503  0.19949084178E+03 -0.21623397774E+02 -0.25532088230E+04  0.25610816974E+04  0.00000000000E+00 0.  1.
<mgrwt>
<rscale>  4 0.27539013E+03</rscale>
<asrwt>0</asrwt>
<pdfrwt beam="1">  1       21 0.14081052E-01 0.27539013E+03</pdfrwt>
<pdfrwt beam="2">  1       21 0.47205237E+00 0.27539013E+03</pdfrwt>
<totfact> 0.11470047E+02</totfact>
</mgrwt>
</event>
<event>
 5    0  0.4257006E+000  0.2514332E+03  0.7546771E-02  0.1112402E+00
         21   -1    0    0  504  501  0.00000000000E+00  0.00000000000E+00  0.37741056276E+03  0.37741056276E+03  0.00000000000E+00 0. -1.
         21   -1    0    0  501  502 -0.00000000000E+00 -0.00000000000E+00 -0.29063207651E+03  0.29063207651E+03  0.00000000000E+00 0.  1.
         25    1    1    2    0    0  0.80448280146E+02 -0.20315851944E+03  0.26317232311E+03  0.36418399395E+03  0.12500000000E+03 0.  0.
         21    1    1    2  503  502  0.22259318767E+02  0.10955693317E+02 -0.39053871416E+02  0.46267800473E+02  0.00000000000E+00 0. -1.
         21    1    1    2  504  503 -0.10270759891E+03  0.19220282612E+03 -0.13733996544E+03  0.25759084485E+03  0.00000000000E+00 0.  1.
<mgrwt>
<rscale>  4 0.25143317E+03</rscale>
<asrwt>0</asrwt>
<pdfrwt beam="1">  1       21 0.58063164E-01 0.25143317E+03</pdfrwt>
<pdfrwt beam="2">  1       21 0.44712627E-01 0.25143317E+03</pdfrwt>
<totfact> 0.12890277E+04</totfact>
</mgrwt>
</event>
<event>
 5    0  0.4257006E+000  0.2483210E+03  0.7546771E-02  0.1114371E+00
         21   -1    0    0  504  501  0.00000000000E+00  0.00000000000E+00  0.12733387580E+04  0.12733387580E+04  0.00000000000E+00 0. -1.
         21   -1    0    0  501  502 -0.00000000000E+00 -0.00000000000E+00 -0.15416273522E+03  0.15416273522E+03  0.00000000000E+00 0. -1.
         25    1    1    2    0    0  0.72800005297E+02  0.21016244509E+03  0.10342097447E+04  0.10652149502E+04  0.12500000000E+03 0.  0.
         21    1    1    2  503  502  0.60185723446E+02 -0.59199176701E+02 -0.68932201101E+02  0.10898858737E+03  0.00000000000E+00 0. -1.
         21    1    1    2  504  503 -0.13298572874E+03 -0.15096326838E+03  0.15389847922E+03  0.25329795569E+03  0.00000000000E+00 0. -1.
<mgrwt>
<rscale>  4 0.24832096E+03</rscale>
<asrwt>0</asrwt>
<pdfrwt beam="1">  1       21 0.19589826E+00 0.24832096E+03</pdfrwt>
<pdfrwt beam="2">  1       21 0.23717345E-01 0.24832096E+03</pdfrwt>
<totfact> 0.22716907E+03</totfact>
</mgrwt>
</event>
<event>
 5    0  0.4257006E+000  0.1873237E+03  0.7546771E-02  0.1160898E+00
         21   -1    0    0  503  501  0.00000000000E+00  0.00000000000E+00  0.83137935517E+03  0.83137935517E+03  0.00000000000E+00 0. -1.
         21   -1    0    0  504  502 -0.00000000000E+00 -0.00000000000E+00 -0.84297840292E+02  0.84297840292E+02  0.00000000000E+00 0.  1.
         25    1    1    2    0    0  0.14832106382E+03  0.14856206190E+03  0.45882067635E+03  0.51981846568E+03  0.12500000000E+03 0.  0.
         21    1    1    2  503  502 -0.68374794383E+02 -0.49576629993E+02  0.24864325715E+03  0.26259555227E+03  0.00000000000E+00 0. -1.
         21    1    1    2  504  501 -0.79946269435E+02 -0.98985431908E+02  0.39617581377E+02  0.13326317751E+03  0.00000000000E+00 0.  1.
<mgrwt>
<rscale>  4 0.18732366E+03</rscale>
<asrwt>0</asrwt>
<pdfrwt beam="1">  1       21 0.12790451E+00 0.18732366E+03</pdfrwt>
<pdfrwt beam="2">  1       21 0.12968899E-01 0.18732366E+03</pdfrwt>
<totfact> 0.23065262E+04</totfact>
</mgrwt>
</event>
<event>
 5    0  0.4257006E+000  0.2423932E+03  0.7546771E-02  0.1118209E+00
         21   -1    0    0  504  501  0.00000000000E+00  0.00000000000E+00  0.17717336266E+03  0.17717336266E+03  0.00000000000E+00 0.  1.
         21   -1    0    0  501  502 -0.00000000000E+00 -0.00000000000E+00 -0.40429690805E+03  0.40429690805E+03  0.00000000000E+00 0.  1.
         25    1    1    2    0    0  0.21243816496E+03  0.10331303786E+02  0.21192474780E+02  0.24761023960E+03  0.12500000000E+03 0.  0.
         21    1    1    2  503  502 -0.16792734759E+02  0.15746163479E+02 -0.44713072982E+02  0.50291117511E+02  0.00000000000E+00 0.  1.
         21    1    1    2  504  503 -0.19564543020E+03 -0.26077467264E+02 -0.20360294718E+03  0.28356891360E+03  0.00000000000E+00 0.  1.
<mgrwt>
<rscale>  4 0.24239318E+03</rscale>
<asrwt>0</asrwt>
<pdfrwt beam="1">  1       21 0.27257441E-01 0.24239318E+03</pdfrwt>
<pdfrwt beam="2">  1       21 0.62199524E-01 0.24239318E+03</pdfrwt>
<totfact> 0.29998327E+04</totfact>
</mgrwt>
</event>
<event>
 5    0  0.4257006E+000  0.2256442E+03  0.7546771E-02  0.1129744E+00
         21   -1    0    0  503  501  0.00000000000E+00  0.00000000000E+00  0.29930980182E+03  0.29930980182E+03  0.00000000000E+00 0. -1.
         21   -1    0    0  504  502 -0.00000000000E+00 -0.00000000000E+00 -0.11066383740E+04  0.11066383740E+04  0.00000000000E+00 0. -1.
         25    1    1    2    0    0  0.18330191018E+03  0.86019226404E+02  0.20077415137E+03  0.31134250825E+03  0.12500000000E+03 0.  0.
         21    1    1    2  503  502 -0.13854834962E+03 -0.62456425946E+02 -0.93139061179E+02  0.17824515433E+03  0.00000000000E+00 0. -1.
         21    1    1    2  504  501 -0.44753560556E+02 -0.23562800457E+02 -0.91496366239E+03  0.91636051324E+03  0.00000000000E+00 0. -1.
<mgrwt>
<rscale>  4 0.22564421E+03</rscale>
<asrwt>0</asrwt>
<pdfrwt beam="1">  1       21 0.46047660E-01 0.22564421E+03</pdfrwt>
<pdfrwt beam="2">  1       21 0.17025206E+00 0.22564421E+03</pdfrwt>
<totfact> 0.92856261E+02</totfact>
</mgrwt>
</event>
<event>
 5    0  0.4257006E+000  0.3473059E+03  0.7546771E-02  0.1063726E+00
         21   -1    0    0  503  501  0.00000000000E+00  0.00000000000E+00  0.33200066883E+03  0.33200066883E+03  0.00000000000E+00 0.  1.
         21   -1    0    0  504  502 -0.00000000000E+00 -0.00000000000E+00 -0.39595166318E+03  0.39595166318E+03  0.00000000000E+00 0. -1.
         25    1    1    2    0    0 -0.30155802731E+03  0.99672811447E+02 -0.62017813181E+02  0.34690506241E+03  0.12500000000E+03 0.  0.
         21    1    1    2  503  502  0.31835497728E+03 -0.82528689112E+02  0.41437464408E+02  0.33147841489E+03  0.00000000000E+00 0. -1.
         21    1    1    2  504  501 -0.16796949968E+02 -0.17144122335E+02 -0.43370645583E+02  0.49568854709E+02  0.00000000000E+00 0.  1.
<mgrwt>
<rscale>  4 0.34730593E+03</rscale>
<asrwt>0</asrwt>
<pdfrwt beam="1">  1       21 0.51077026E-01 0.34730593E+03</pdfrwt>
<pdfrwt beam="2">  1       21 0.60915640E-01 0.34730593E+03</pdfrwt>
<totfact> 0.84188256E+03</totfact>
</mgrwt>
</event>
<event>
 5    0  0.4257006E+000  0.3508911E+03  0.7546771E-02  0.1062250E+00
         21   -1    0    0  504  501  0.00000000000E+00  0.00000000000E+00  0.30340247225E+03  0.30340247225E+03  0.00000000000E+00 0. -1.
         21   -1    0    0  501  502 -0.00000000000E+00 -0.00000000000E+00 -0.94501250728E+03  0.94501250728E+03  0.00000000000E+00 0. -1.
         25    1    1    2    0    0 -0.84679423395E+02  0.35994677893E+03  0.45282231353E+02  0.39294753961E+03  0.12500000000E+03 0.  0.
         21    1    1    2  503  502  0.16790788955E+03 -0.91016488866E+02 -0.44518626547E+03  0.48442530031E+03  0.00000000000E+00 0. -1.
         21    1    1    2  504  503 -0.83228466152E+02 -0.26893029006E+03 -0.24170600090E+03  0.37104213961E+03  0.00000000000E+00 0. -1.
<mgrwt>
<rscale>  4 0.35089113E+03</rscale>
<asrwt>0</asrwt>
<pdfrwt beam="1">  1       21 0.46677304E-01 0.35089113E+03</pdfrwt>
<pdfrwt beam="2">  1       21 0.14538654E+00 0.35089113E+03</pdfrwt>
<totfact> 0.12682515E+03</totfact>
</mgrwt>
</event>
<event>
 5    0  0.4257006E+000  0.3683289E+03  0.7546771E-02  0.1055334E+00
         21   -1    0    0  504  501  0.00000000000E+00  0.00000000000E+00  0.76137177094E+03  0.76137177094E+03  0.00000000000E+00 0.  1.
         21   -1    0    0  501  502 -0.00000000000E+00 -0.00000000000E+00 -0.19407490436E+03  0.19407490436E+03  0.00000000000E+00 0.  1.
         25    1    1    2    0    0 -0.24559625379E+01  0.34192553016E+03  0.26970406871E+03  0.45308319832E+03  0.12500000000E+03 0.  0.
         21    1    1    2  503  502  0.34550675493E+02  0.78103671543E+01 -0.85695649631E+01  0.36444319938E+02  0.00000000000E+00 0.  1.
         21    1    1    2  504  503 -0.32094712955E+02 -0.34973589731E+03  0.30616236284E+03  0.46591915703E+03  0.00000000000E+00 0.  1.
<mgrwt>
<rscale>  4 0.36832890E+03</rscale>
<asrwt>0</asrwt>
<pdfrwt beam="1">  1       21 0.11713412E+00 0.36832890E+03</pdfrwt>
<pdfrwt beam="2">  1       21 0.29857678E-01 0.36832890E+03</pdfrwt>
<totfact> 0.54523307E+03</totfact>
</mgrwt>
</event>
<event>
 5    0  0.4257006E+000  0.2832266E+03  0.7546771E-02  0.1093940E+00
         21   -1    0    0  504  501  0.00000000000E+00  0.00000000000E+00  0.43918621411E+02  0.43918621411E+02  0.00000000000E+00 0. -1.
         21   -1    0    0  503  502 -0.00000000000E+00 -0.00000000000E+00 -0.19714352858E+04  0.19714352858E+04  0.00000000000E+00 0. -1.
         25    1    1    2    0    0  0.15937971833E+03  0.16696266777E+03 -0.86298345811E+03  0.90202210395E+03  0.12500000000E+03 0.  0.
         21    1    1    2  503  501 -0.19112495525E+03 -0.20176506171E+03 -0.87755322895E+03  0.92050940153E+03  0.00000000000E+00 0. -1.
         21    1    1    2  504  502  0.31745236926E+02  0.34802393936E+02 -0.18697997737E+03  0.19282240178E+03  0.00000000000E+00 0. -1.
<mgrwt>
<rscale>  4 0.28322662E+03</rscale>
<asrwt>0</asrwt>
<pdfrwt beam="1">  1       21 0.67567111E-02 0.28322662E+03</pdfrwt>
<pdfrwt beam="2">  1       21 0.30329773E+00 0.28322662E+03</pdfrwt>
<totfact> 0.48146253E+03</totfact>
</mgrwt>
</event>
<event>
 5    0  0.4257006E+000  0.3469595E+03  0.7546771E-02  0.1063870E+00
         21   -1    0    0  504  501  0.00000000000E+00  0.00000000000E+00  0.51017686763E+03  0.51017686763E+03  0.00000000000E+00 0.  1.
         21   -1    0    0  501  502 -0.00000000000E+00 -0.00000000000E+00 -0.11142551302E+04  0.11142551302E+04  0.00000000000E+00 0.  1.
         25    1    1    2    0    0 -0.32562817503E+03 -0.12765465058E+02  0.41264821395E+03  0.54046296261E+03  0.12500000000E+03 0.  0.
         21    1    1    2  503  502  0.30432185305E+02 -0.51738791039E+02 -0.30346229719E+03  0.30934185979E+03  0.00000000000E+00 0. -1.
         21    1    1    2  504  503  0.29519598973E+03  0.64504256097E+02 -0.71326417931E+03  0.77462717541E+03  0.00000000000E+00 0.  1.
<mgrwt>
<rscale>  4 0.34695945E+03</rscale>
<asrwt>0</asrwt>
<pdfrwt beam="1">  1       21 0.78488749E-01 0.34695945E+03</pdfrwt>
<pdfrwt beam="2">  1       21 0.17142387E+00 0.34695945E+03</pdfrwt>
<totfact> 0.25987986E+02</totfact>
</mgrwt>
</event>
<event>
 5    0  0.4257006E+000  0.2691211E+03  0.7546771E-02  0.1101784E+00
         21   -1    0    0  503  501  0.00000000000E+00  0.00000000000E+00  0.13101759748E+04  0.13101759748E+04  0.00000000000E+00 0.  1.
         21   -1    0    0  504  502 -0.00000000000E+00 -0.00000000000E+00 -0.90418816374E+02  0.90418816374E+02  0.00000000000E+00 0.  1.
         25    1    1    2    0    0  0.18239801295E+03  0.15933104565E+03  0.10185803184E+04  0.10544127666E+04  0.12500000000E+03 0.  0.
         21    1    1    2  503  502  0.10647092416E+02 -0.35708336358E+02 -0.53368356593E+01  0.37642099798E+02  0.00000000000E+00 0. -1.
         21    1    1    2  504  501 -0.19304510536E+03 -0.12362270929E+03  0.20651367564E+03  0.30853992478E+03  0.00000000000E+00 0.  1.
<mgrwt>
<rscale>  4 0.26912105E+03</rscale>
<asrwt>0</asrwt>
<pdfrwt beam="1">  1       21 0.20156552E+00 0.26912105E+03</pdfrwt>
<pdfrwt beam="2">  1       21 0.13910588E-01 0.26912105E+03</pdfrwt>
<totfact> 0.55570716E+03</totfact>
</mgrwt>
</event>
<event>
 5    0  0.4257006E+000  0.3029611E+03  0.7546771E-02  0.1083770E+00
         21   -1    0    0  503  501  0.00000000000E+00  0.00000000000E+00  0.84199410569E+02  0.84199410569E+02  0.00000000000E+00 0. -1.
         21   -1    0    0  504  502 -0.00000000000E+00 -0.00000000000E+00 -0.14545058388E+04  0.14545058388E+04  0.00000000000E+00 0. -1.
         25    1    1    2    0    0 -0.30160981817E+03  0.20244773616E+02 -0.59694081821E+03  0.68069205499E+03  0.12500000000E+03 0.  0.
         21    1    1    2  503  502  0.25640257963E+03  0.49758238996E+02 -0.41707592251E+03  0.49210820997E+03  0.00000000000E+00 0. -1.
         21    1    1    2  504  501  0.45207238539E+02 -0.70003012611E+02 -0.35628968753E+03  0.36590498443E+03  0.00000000000E+00 0. -1.
<mgrwt>
<rscale>  4 0.30296108E+03</rscale>
<asrwt>0</asrwt>
<pdfrwt beam="1">  1       21 0.12953756E-01 0.30296108E+03</pdfrwt>
<pdfrwt beam="2">  1       21 0.22377011E+00 0.30296108E+03</pdfrwt>
<totfact> 0.44729085E+03</totfact>
</mgrwt>
</event>
<event>
 5    0  0.4257006E+000  0.3986811E+03  0.7546771E-02  0.1044237E+00
         21   -1    0    0  504  501  0.00000000000E+00  0.00000000000E+00  0.20116569036E+03  0.20116569036E+03  0.00000000000E+00 0.  1.
         21   -1    0    0  503  502 -0.00000000000E+00 -0.00000000000E+00 -0.14611805967E+04  0.14611805967E+04  0.00000000000E+00 0.  1.
         25    1    1    2    0    0  0.36566851575E+03  0.99839968951E+02 -0.11773568179E+03  0.41613480217E+03  0.12500000000E+03 0.  0.
         21    1    1    2  503  501 -0.37378399895E+03 -0.61456267529E+02 -0.64964293275E+03  0.75201548572E+03  0.00000000000E+00 0.  1.
         21    1    1    2  504  502  0.81154832009E+01 -0.38383701422E+02 -0.49263629178E+03  0.49419599916E+03  0.00000000000E+00 0.  1.
<mgrwt>
<rscale>  4 0.39868107E+03</rscale>
<asrwt>0</asrwt>
<pdfrwt beam="1">  1       21 0.30948567E-01 0.39868107E+03</pdfrwt>
<pdfrwt beam="2">  1       21 0.22479702E+00 0.39868107E+03</pdfrwt>
<totfact> 0.79829857E+02</totfact>
</mgrwt>
</event>
<event>
 5    0  0.4257006E+000  0.2592228E+03  0.7546771E-02  0.1107611E+00
         21   -1    0    0  503  501  0.00000000000E+00  0.00000000000E+00  0.52592976442E+03  0.52592976442E+03  0.00000000000E+00 0.  1.
         21   -1    0    0  504  502 -0.00000000000E+00 -0.00000000000E+00 -0.11880267181E+03  0.11880267181E+03  0.00000000000E+00 0.  1.
         25    1    1    2    0    0  0.18161825270E+03 -0.13633148483E+03  0.24112022367E+03  0.35402743641E+03  0.12500000000E+03 0.  0.
         21    1    1    2  503  502 -0.47737455682E+02  0.90162000794E+01  0.11652784836E+02  0.49959422868E+02  0.00000000000E+00 0. -1.
         21    1    1    2  504  501 -0.13388079702E+03  0.12731528475E+03  0.15435408410E+03  0.24074557695E+03  0.00000000000E+00 0.  1.
<mgrwt>
<rscale>  4 0.25922281E+03</rscale>
<asrwt>0</asrwt>
<pdfrwt beam="1">  1       21 0.80912270E-01 0.25922281E+03</pdfrwt>
<pdfrwt beam="2">  1       21 0.18277334E-01 0.25922281E+03</pdfrwt>
<totfact> 0.35429543E+04</totfact>
</mgrwt>
</event>
<event>
 5    0  0.4257006E+000  0.3210134E+03  0.7546771E-02  0.1075184E+00
         21   -1    0    0  504  501  0.00000000000E+00  0.00000000000E+00  0.16867047452E+04  0.16867047452E+04  0.00000000000E+00 0. -1.
         21   -1    0    0  503  502 -0.00000000000E+00 -0.00000000000E+00 -0.95239280709E+02  0.95239280709E+02  0.00000000000E+00 0. -1.
         25    1    1    2    0    0  0.21874826495E+03 -0.16430987480E+03  0.12464230143E+04  0.12822027409E+04  0.12500000000E+03 0.  0.
         21    1    1    2  503  501 -0.21585780379E+03  0.21068180705E+03  0.24200955386E+03  0.38671700174E+03  0.00000000000E+00 0. -1.
         21    1    1    2  504  502 -0.28904611604E+01 -0.46371932253E+02  0.10303289638E+03  0.11302428325E+03  0.00000000000E+00 0. -1.
<mgrwt>
<rscale>  4 0.32101339E+03</rscale>
<asrwt>0</asrwt>
<pdfrwt beam="1">  1       21 0.25949302E+00 0.32101339E+03</pdfrwt>
<pdfrwt beam="2">  1       21 0.14652198E-01 0.32101339E+03</pdfrwt>
<totfact> 0.21368403E+03</totfact>
</mgrwt>
</event>
<event>
 5    0  0.4257006E+000  0.3121789E+03  0.7546771E-02  0.1079306E+00
         21   -1    0    0  503  501  0.00000000000E+00  0.00000000000E+00  0.27838548168E+03  0.27838548168E+03  0.00000000000E+00 0.  1.
         21   -1    0    0  504  502 -0.00000000000E+00 -0.00000000000E+00 -0.10675904006E+04  0.10675904006E+04  0.00000000000E+00 0.  1.
         25    1    1    2    0    0 -0.68287609399E+02 -0.27407295267E+03  0.14574539175E+03  0.34153462519E+03  0.12500000000E+03 0.  0.
         21    1    1    2  503  502  0.22714687943E+02 -0.41795808178E+02 -0.10623335965E+03  0.11639747993E+03  0.00000000000E+00 0.  1.
         21    1    1    2  504  501  0.45572921456E+02  0.31586876085E+03 -0.82871695100E+03  0.88804377714E+03  0.00000000000E+00 0.  1.
<mgrwt>
<rscale>  4 0.31217887E+03</rscale>
<asrwt>0</asrwt>
<pdfrwt beam="1">  1       21 0.42828537E-01 0.31217887E+03</pdfrwt>
<pdfrwt beam="2">  1       21 0.16424467E+00 0.31217887E+03</pdfrwt>
<totfact> 0.11140521E+03</totfact>
</mgrwt>
</event>
<event>
 5    0  0.4257006E+000  0.3304616E+03  0.7546771E-02  0.1070933E+00
         21   -1    0    0  503  501  0.00000000000E+00  0.00000000000E+00  0.70162728796E+03  0.70162728796E+03  0.00000000000E+00 0. -1.
         21   -1    0    0  504  502 -0.00000000000E+00 -0.00000000000E+00 -0.27972699969E+03  0.27972699969E+03  0.00000000000E+00 0.  1.
         25    1    1    2    0    0 -0.11743869886E+03  0.28180581286E+03  0.52145080868E+03  0.61704319948E+03  0.12500000000E+03 0.  0.
         21    1    1    2  503  502  0.35517089496E+02  0.17747486566E+02 -0.15113558459E+02  0.42483603601E+02  0.00000000000E+00 0. -1.
         21    1    1    2  504  501  0.81921609368E+02 -0.29955329942E+03 -0.84436961952E+02  0.32182748456E+03  0.00000000000E+00 0.  1.
<mgrwt>
<rscale>  4 0.33046158E+03</rscale>
<asrwt>0</asrwt>
<pdfrwt beam="1">  1       21 0.10794266E+00 0.33046158E+03</pdfrwt>
<pdfrwt beam="2">  1       21 0.43034923E-01 0.33046158E+03</pdfrwt>
<totfact> 0.32441165E+03</totfact>
</mgrwt>
</event>
