<event>
 5    0  0.2159162E+000  0.2421765E+03  0.7546771E-02  0.1118351E+00
         21   -1    0    0  502  501  0.00000000000E+00  0.00000000000E+00  0.89253284267E+03  0.89253284267E+03  0.00000000000E+00 0.  1.
         21   -1    0    0  503  502 -0.00000000000E+00 -0.00000000000E+00 -0.97041938650E+03  0.97041938650E+03  0.00000000000E+00 0. -1.
         25    1    1    2    0    0  0.12447704534E+03 -0.16693184487E+03  0.86158443135E+03  0.89516116314E+03  0.12500000000E+03 0.  0.
         21    1    1    2  503  504 -0.11220220637E+03  0.12281206603E+03 -0.86110087686E+03  0.87702158400E+03  0.00000000000E+00 0. -1.
         21    1    1    2  504  501 -0.12274838967E+02  0.44119778849E+02 -0.78370098328E+02  0.90769482037E+02  0.00000000000E+00 0.  1.
<mgrwt>
<rscale>  4 0.24217650E+03</rscale>
<asrwt>0</asrwt>
<pdfrwt beam="1">  1       21 0.13731275E+00 0.24217650E+03</pdfrwt>
<pdfrwt beam="2">  1       21 0.14929529E+00 0.24217650E+03</pdfrwt>
<totfact> 0.10702341E+02</totfact>
</mgrwt>
</event>
<event>
 5    0  0.3090193E+001  0.2564666E+03  0.7546771E-02  0.1109285E+00
         21   -1    0    0  502  501  0.00000000000E+00  0.00000000000E+00  0.11499138318E+03  0.11499138318E+03  0.00000000000E+00 0. -1.
         21   -1    0    0  503  502 -0.00000000000E+00 -0.00000000000E+00 -0.51730502305E+03  0.51730502305E+03  0.00000000000E+00 0. -1.
         25    1    1    2    0    0  0.20570065405E+03  0.88528870271E+02 -0.22650045464E+03  0.34216600635E+03  0.12500000000E+03 0.  0.
         21    1    1    2  503  504 -0.18297379579E+03 -0.96307483924E+02 -0.15746746941E+03  0.25990487746E+03  0.00000000000E+00 0. -1.
         21    1    1    2  504  501 -0.22726858262E+02  0.77786136528E+01 -0.18345715820E+02  0.30225522423E+02  0.00000000000E+00 0.  1.
<mgrwt>
<rscale>  4 0.25646661E+03</rscale>
<asrwt>0</asrwt>
<pdfrwt beam="1">  1       21 0.17690982E-01 0.25646661E+03</pdfrwt>
<pdfrwt beam="2">  1       21 0.79585387E-01 0.25646661E+03</pdfrwt>
<totfact> 0.39137256E+04</totfact>
</mgrwt>
</event>
<event>
 5    0  0.7115088E+000  0.2502255E+03  0.7546771E-02  0.1113162E+00
         21   -1    0    0  502  501  0.00000000000E+00  0.00000000000E+00  0.24653317191E+03  0.24653317191E+03  0.00000000000E+00 0.  1.
         21   -1    0    0  503  502 -0.00000000000E+00 -0.00000000000E+00 -0.30586838839E+03  0.30586838839E+03  0.00000000000E+00 0.  1.
         25    1    1    2    0    0  0.10774995603E+03 -0.19586344424E+03  0.89601128960E+02  0.27134093706E+03  0.12500000000E+03 0.  0.
         21    1    1    2  503  504  0.11484128526E+02  0.29506961473E+02 -0.33425827119E+02  0.46041632269E+02  0.00000000000E+00 0. -1.
         21    1    1    2  504  501 -0.11923408455E+03  0.16635648277E+03 -0.11551051832E+03  0.23501899098E+03  0.00000000000E+00 0.  1.
<mgrwt>
<rscale>  4 0.25022551E+03</rscale>
<asrwt>0</asrwt>
<pdfrwt beam="1">  1       21 0.37928180E-01 0.25022551E+03</pdfrwt>
<pdfrwt beam="2">  1       21 0.47056675E-01 0.25022551E+03</pdfrwt>
<totfact> 0.28140515E+04</totfact>
</mgrwt>
</event>
<event>
 5    0  0.2159162E+000  0.3144563E+03  0.7546771E-02  0.1078229E+00
         21   -1    0    0  502  501  0.00000000000E+00  0.00000000000E+00  0.50930924994E+03  0.50930924994E+03  0.00000000000E+00 0. -1.
         21   -1    0    0  503  502 -0.00000000000E+00 -0.00000000000E+00 -0.16773431891E+04  0.16773431891E+04  0.00000000000E+00 0. -1.
         25    1    1    2    0    0  0.24131657807E+03  0.15819008657E+03  0.44551272998E+03  0.54531127525E+03  0.12500000000E+03 0.  0.
         21    1    1    2  503  504 -0.12929680888E+03 -0.63386775017E+02 -0.58949208116E+03  0.60682490208E+03  0.00000000000E+00 0. -1.
         21    1    1    2  504  501 -0.11201976920E+03 -0.94803311549E+02 -0.10240545880E+04  0.10345162617E+04  0.00000000000E+00 0. -1.
<mgrwt>
<rscale>  4 0.31445635E+03</rscale>
<asrwt>0</asrwt>
<pdfrwt beam="1">  1       21 0.78355268E-01 0.31445635E+03</pdfrwt>
<pdfrwt beam="2">  1       21 0.25805280E+00 0.31445635E+03</pdfrwt>
<totfact> 0.74112726E+01</totfact>
</mgrwt>
</event>
<event>
 5    0  0.2159162E+000  0.2474248E+03  0.7546771E-02  0.1114943E+00
         21   -1    0    0  502  501  0.00000000000E+00  0.00000000000E+00  0.27907436111E+04  0.27907436111E+04  0.00000000000E+00 0.  1.
         21   -1    0    0  503  502 -0.00000000000E+00 -0.00000000000E+00 -0.25041170795E+02  0.25041170795E+02  0.00000000000E+00 0.  1.
         25    1    1    2    0    0  0.13848011784E+03  0.15173099533E+03  0.88703182558E+03  0.91904814758E+03  0.12500000000E+03 0.  0.
         21    1    1    2  503  504  0.11721370294E+02  0.18085734198E+02  0.42003692103E+03  0.42058946650E+03  0.00000000000E+00 0. -1.
         21    1    1    2  504  501 -0.15020148813E+03 -0.16981672952E+03  0.14586336937E+04  0.14761471678E+04  0.00000000000E+00 0.  1.
<mgrwt>
<rscale>  4 0.24742477E+03</rscale>
<asrwt>0</asrwt>
<pdfrwt beam="1">  1       21 0.42934492E+00 0.24742477E+03</pdfrwt>
<pdfrwt beam="2">  1       21 0.38524900E-02 0.24742477E+03</pdfrwt>
<totfact> 0.22059400E+03</totfact>
</mgrwt>
</event>
<event>
 5    0  0.2159162E+000  0.2509066E+03  0.7546771E-02  0.1112733E+00
         21   -1    0    0  502  501  0.00000000000E+00  0.00000000000E+00  0.92847230406E+02  0.92847230406E+02  0.00000000000E+00 0. -1.
         21   -1    0    0  503  502 -0.00000000000E+00 -0.00000000000E+00 -0.14097182200E+04  0.14097182200E+04  0.00000000000E+00 0.  1.
         25    1    1    2    0    0 -0.46434152564E+02 -0.21253933007E+03 -0.11296441796E+03  0.27516369142E+03  0.12500000000E+03 0.  0.
         21    1    1    2  503  504 -0.17564017132E+02  0.96299514284E+02 -0.67717080639E+03  0.68420931898E+03  0.00000000000E+00 0.  1.
         21    1    1    2  504  501  0.63998169696E+02  0.11623981578E+03 -0.52673576523E+03  0.54319244000E+03  0.00000000000E+00 0.  1.
<mgrwt>
<rscale>  4 0.25090655E+03</rscale>
<asrwt>0</asrwt>
<pdfrwt beam="1">  1       21 0.14284189E-01 0.25090655E+03</pdfrwt>
<pdfrwt beam="2">  1       21 0.21687973E+00 0.25090655E+03</pdfrwt>
<totfact> 0.42847327E+03</totfact>
</mgrwt>
</event>
<event>
 5    0  0.2239464E+000  0.2178570E+03  0.7546771E-02  0.1135491E+00
         21   -1    0    0  502  501  0.00000000000E+00  0.00000000000E+00  0.19212569142E+03  0.19212569142E+03  0.00000000000E+00 0.  1.
         21   -1    0    0  503  502 -0.00000000000E+00 -0.00000000000E+00 -0.41647955913E+03  0.41647955913E+03  0.00000000000E+00 0.  1.
         25    1    1    2    0    0  0.16363372295E+03  0.15715856286E+03  0.49697652811E+01  0.25908397815E+03  0.12500000000E+03 0.  0.
         21    1    1    2  503  504 -0.34053030782E+02 -0.12581282848E+03 -0.10822381227E+03  0.16941331193E+03  0.00000000000E+00 0.  1.
         21    1    1    2  504  501 -0.12958069217E+03 -0.31345734379E+02 -0.12109982072E+03  0.18010796047E+03  0.00000000000E+00 0.  1.
<mgrwt>
<rscale>  4 0.21785702E+03</rscale>
<asrwt>0</asrwt>
<pdfrwt beam="1">  1       21 0.29557799E-01 0.21785702E+03</pdfrwt>
<pdfrwt beam="2">  1       21 0.64073777E-01 0.21785702E+03</pdfrwt>
<totfact> 0.24315764E+04</totfact>
</mgrwt>
</event>
<event>
 5    0  0.2159162E+000  0.2578665E+03  0.7546771E-02  0.1108432E+00
         21   -1    0    0  502  501  0.00000000000E+00  0.00000000000E+00  0.14946820145E+04  0.14946820145E+04  0.00000000000E+00 0.  1.
         21   -1    0    0  503  502 -0.00000000000E+00 -0.00000000000E+00 -0.63222772543E+02  0.63222772543E+02  0.00000000000E+00 0.  1.
         25    1    1    2    0    0  0.11886690482E+03  0.19167884701E+03  0.12047278502E+04  0.12320163613E+04  0.12500000000E+03 0.  0.
         21    1    1    2  503  504 -0.32860667533E+02 -0.11140820487E+03  0.12070906717E+03  0.16751803031E+03  0.00000000000E+00 0. -1.
         21    1    1    2  504  501 -0.86006237289E+02 -0.80270642137E+02  0.10602232462E+03  0.15837039546E+03  0.00000000000E+00 0.  1.
<mgrwt>
<rscale>  4 0.25786648E+03</rscale>
<asrwt>0</asrwt>
<pdfrwt beam="1">  1       21 0.22995105E+00 0.25786648E+03</pdfrwt>
<pdfrwt beam="2">  1       21 0.97265816E-02 0.25786648E+03</pdfrwt>
<totfact> 0.70636032E+03</totfact>
</mgrwt>
</event>
<event>
 5    0  0.2159162E+000  0.2483184E+03  0.7546771E-02  0.1114372E+00
         21   -1    0    0  502  501  0.00000000000E+00  0.00000000000E+00  0.14932714201E+03  0.14932714201E+03  0.00000000000E+00 0.  1.
         21   -1    0    0  503  502 -0.00000000000E+00 -0.00000000000E+00 -0.37022163758E+03  0.37022163758E+03  0.00000000000E+00 0.  1.
         25    1    1    2    0    0 -0.16285707469E+03  0.13969461632E+03 -0.89475463010E+02  0.26394672016E+03  0.12500000000E+03 0.  0.
         21    1    1    2  503  504  0.24952530268E+02 -0.33745106338E+02 -0.44559055251E+02  0.61211684942E+02  0.00000000000E+00 0.  1.
         21    1    1    2  504  501  0.13790454442E+03 -0.10594950998E+03 -0.86859977307E+02  0.19439037449E+03  0.00000000000E+00 0.  1.
<mgrwt>
<rscale>  4 0.24831837E+03</rscale>
<asrwt>0</asrwt>
<pdfrwt beam="1">  1       21 0.22973407E-01 0.24831837E+03</pdfrwt>
<pdfrwt beam="2">  1       21 0.56957174E-01 0.24831837E+03</pdfrwt>
<totfact> 0.50247708E+04</totfact>
</mgrwt>
</event>
<event>
 5    0  0.2159162E+000  0.2246277E+03  0.7546771E-02  0.1130479E+00
         21   -1    0    0  502  501  0.00000000000E+00  0.00000000000E+00  0.28345646611E+03  0.28345646611E+03  0.00000000000E+00 0. -1.
         21   -1    0    0  503  502 -0.00000000000E+00 -0.00000000000E+00 -0.23334167996E+03  0.23334167996E+03  0.00000000000E+00 0. -1.
         25    1    1    2    0    0 -0.16401726027E+03  0.15481295502E+03 -0.14659638139E+02  0.25828011479E+03  0.12500000000E+03 0.  0.
         21    1    1    2  503  504  0.11940852160E+03 -0.10942465530E+03 -0.76020476472E+01  0.16214173228E+03  0.00000000000E+00 0. -1.
         21    1    1    2  504  501  0.44608738666E+02 -0.45388299724E+02  0.72376471941E+02  0.96376298994E+02  0.00000000000E+00 0. -1.
<mgrwt>
<rscale>  4 0.22462774E+03</rscale>
<asrwt>0</asrwt>
<pdfrwt beam="1">  1       21 0.43608687E-01 0.22462774E+03</pdfrwt>
<pdfrwt beam="2">  1       21 0.35898720E-01 0.22462774E+03</pdfrwt>
<totfact> 0.37210623E+04</totfact>
</mgrwt>
</event>
<event>
 5    0  0.2159162E+000  0.3680964E+03  0.7546771E-02  0.1055423E+00
         21   -1    0    0  502  501  0.00000000000E+00  0.00000000000E+00  0.23647563147E+03  0.23647563147E+03  0.00000000000E+00 0. -1.
         21   -1    0    0  503  502 -0.00000000000E+00 -0.00000000000E+00 -0.93009152813E+03  0.93009152813E+03  0.00000000000E+00 0.  1.
         25    1    1    2    0    0  0.28429417415E+03 -0.19760259982E+03  0.19807360175E+02  0.36862894138E+03  0.12500000000E+03 0.  0.
         21    1    1    2  503  504 -0.18299696974E+03  0.17130438640E+03 -0.54079296987E+03  0.59606217796E+03  0.00000000000E+00 0.  1.
         21    1    1    2  504  501 -0.10129720441E+03  0.26298213421E+02 -0.17263028696E+03  0.20187604025E+03  0.00000000000E+00 0. -1.
<mgrwt>
<rscale>  4 0.36809641E+03</rscale>
<asrwt>0</asrwt>
<pdfrwt beam="1">  1       21 0.36380866E-01 0.36809641E+03</pdfrwt>
<pdfrwt beam="2">  1       21 0.14309100E+00 0.36809641E+03</pdfrwt>
<totfact> 0.21910039E+03</totfact>
</mgrwt>
</event>
<event>
 5    0  0.2159162E+000  0.2571884E+03  0.7546771E-02  0.1108844E+00
         21   -1    0    0  502  501  0.00000000000E+00  0.00000000000E+00  0.34588574074E+03  0.34588574074E+03  0.00000000000E+00 0.  1.
         21   -1    0    0  503  502 -0.00000000000E+00 -0.00000000000E+00 -0.13635079215E+04  0.13635079215E+04  0.00000000000E+00 0. -1.
         25    1    1    2    0    0  0.16752666126E+03 -0.15389176572E+03  0.26815067580E+03  0.37319919979E+03  0.12500000000E+03 0.  0.
         21    1    1    2  503  504 -0.87708565776E+02  0.14010875554E+01 -0.81671998749E+02  0.11985437387E+03  0.00000000000E+00 0.  1.
         21    1    1    2  504  501 -0.79818095484E+02  0.15249067817E+03 -0.12041008579E+04  0.12163400886E+04  0.00000000000E+00 0. -1.
<mgrwt>
<rscale>  4 0.25718839E+03</rscale>
<asrwt>0</asrwt>
<pdfrwt beam="1">  1       21 0.53213189E-01 0.25718839E+03</pdfrwt>
<pdfrwt beam="2">  1       21 0.20977046E+00 0.25718839E+03</pdfrwt>
<totfact> 0.36243522E+02</totfact>
</mgrwt>
</event>
