<event>
 5    0  0.1856407E+000  0.3355001E+03  0.7546771E-02  0.1068729E+00
         21   -1    0    0  502  501  0.00000000000E+00  0.00000000000E+00  0.17775861361E+03  0.17775861361E+03  0.00000000000E+00 0. -1.
         21   -1    0    0  503  502 -0.00000000000E+00 -0.00000000000E+00 -0.94597899742E+03  0.94597899742E+03  0.00000000000E+00 0.  1.
         25    1    1    2    0    0 -0.27724635117E+03 -0.14166787542E+03 -0.48947071258E+02  0.33905182782E+03  0.12500000000E+03 0.  0.
         21    1    1    2  503  504  0.25624042384E+03  0.13983648210E+03 -0.68228926829E+03  0.74211322732E+03  0.00000000000E+00 0.  1.
         21    1    1    2  504  501  0.21005927329E+02  0.18313933175E+01 -0.36984044271E+02  0.42572555890E+02  0.00000000000E+00 0. -1.
<mgrwt>
<rscale>  4 0.33550011E+03</rscale>
<asrwt>0</asrwt>
<pdfrwt beam="1">  1       21 0.27347479E-01 0.33550011E+03</pdfrwt>
<pdfrwt beam="2">  1       21 0.14553523E+00 0.33550011E+03</pdfrwt>
<totfact> 0.37536575E+03</totfact>
</mgrwt>
</event>
<event>
 5    0  0.1856407E+000  0.2724120E+03  0.7546771E-02  0.1099907E+00
         21   -1    0    0  502  501  0.00000000000E+00  0.00000000000E+00  0.38473750509E+03  0.38473750509E+03  0.00000000000E+00 0. -1.
         21   -1    0    0  503  502 -0.00000000000E+00 -0.00000000000E+00 -0.70456547074E+03  0.70456547074E+03  0.00000000000E+00 0.  1.
         25    1    1    2    0    0  0.13002467414E+03  0.20636683806E+03  0.30377499161E+03  0.40914292522E+03  0.12500000000E+03 0.  0.
         21    1    1    2  503  504 -0.94960184920E+02 -0.20564506994E+03 -0.45882515655E+03  0.51169117229E+03  0.00000000000E+00 0.  1.
         21    1    1    2  504  501 -0.35064489223E+02 -0.72176811185E+00 -0.16477780071E+03  0.16846887831E+03  0.00000000000E+00 0.  1.
<mgrwt>
<rscale>  4 0.27241197E+03</rscale>
<asrwt>0</asrwt>
<pdfrwt beam="1">  1       21 0.59190385E-01 0.27241197E+03</pdfrwt>
<pdfrwt beam="2">  1       21 0.10839469E+00 0.27241197E+03</pdfrwt>
<totfact> 0.16937961E+03</totfact>
</mgrwt>
</event>
<event>
 5    0  0.1856407E+000  0.3133315E+03  0.7546771E-02  0.1078760E+00
         21   -1    0    0  502  501  0.00000000000E+00  0.00000000000E+00  0.22520807271E+04  0.22520807271E+04  0.00000000000E+00 0.  1.
         21   -1    0    0  503  502 -0.00000000000E+00 -0.00000000000E+00 -0.50801826942E+02  0.50801826942E+02  0.00000000000E+00 0.  1.
         25    1    1    2    0    0 -0.61240382066E+02  0.29333974068E+03  0.10235886019E+04  0.10738515790E+04  0.12500000000E+03 0.  0.
         21    1    1    2  503  504 -0.39795700378E+02 -0.31863406226E+02  0.71100936795E+02  0.87488957235E+02  0.00000000000E+00 0.  1.
         21    1    1    2  504  501  0.10103608244E+03 -0.26147633445E+03  0.11065893614E+04  0.11415420178E+04  0.00000000000E+00 0.  1.
<mgrwt>
<rscale>  4 0.31333152E+03</rscale>
<asrwt>0</asrwt>
<pdfrwt beam="1">  1       21 0.34647388E+00 0.31333152E+03</pdfrwt>
<pdfrwt beam="2">  1       21 0.78156674E-02 0.31333152E+03</pdfrwt>
<totfact> 0.20194095E+03</totfact>
</mgrwt>
</event>
<event>
 5    0  0.1856407E+000  0.2449453E+03  0.7546771E-02  0.1116542E+00
         21   -1    0    0  502  501  0.00000000000E+00  0.00000000000E+00  0.13494659609E+03  0.13494659609E+03  0.00000000000E+00 0.  1.
         21   -1    0    0  503  502 -0.00000000000E+00 -0.00000000000E+00 -0.43006622970E+03  0.43006622970E+03  0.00000000000E+00 0.  1.
         25    1    1    2    0    0  0.18940167655E+03 -0.92196602867E+02 -0.86910749386E+02  0.25990707382E+03  0.12500000000E+03 0.  0.
         21    1    1    2  503  504 -0.65723343217E+02  0.30099147952E+02 -0.27159779040E+02  0.77221565308E+02  0.00000000000E+00 0.  1.
         21    1    1    2  504  501 -0.12367833333E+03  0.62097454915E+02 -0.18104910518E+03  0.22788418666E+03  0.00000000000E+00 0.  1.
<mgrwt>
<rscale>  4 0.24494532E+03</rscale>
<asrwt>0</asrwt>
<pdfrwt beam="1">  1       21 0.20761015E-01 0.24494532E+03</pdfrwt>
<pdfrwt beam="2">  1       21 0.66164036E-01 0.24494532E+03</pdfrwt>
<totfact> 0.44042471E+04</totfact>
</mgrwt>
</event>
<event>
 5    0  0.2381488E+000  0.2464847E+03  0.7546771E-02  0.1115547E+00
         21   -1    0    0  502  501  0.00000000000E+00  0.00000000000E+00  0.46760742171E+03  0.46760742171E+03  0.00000000000E+00 0.  1.
         21   -1    0    0  503  502 -0.00000000000E+00 -0.00000000000E+00 -0.23259802034E+03  0.23259802034E+03  0.00000000000E+00 0. -1.
         25    1    1    2    0    0 -0.21243735261E+03 -0.28604602521E+00  0.37119357483E+03  0.44557758090E+03  0.12500000000E+03 0.  0.
         21    1    1    2  503  504  0.34120615832E+02  0.12320889192E+02 -0.26602291623E+02  0.44985582745E+02  0.00000000000E+00 0.  1.
         21    1    1    2  504  501  0.17831673678E+03 -0.12034843167E+02 -0.10958188184E+03  0.20964227840E+03  0.00000000000E+00 0. -1.
<mgrwt>
<rscale>  4 0.24648471E+03</rscale>
<asrwt>0</asrwt>
<pdfrwt beam="1">  1       21 0.71939603E-01 0.24648471E+03</pdfrwt>
<pdfrwt beam="2">  1       21 0.35784311E-01 0.24648471E+03</pdfrwt>
<totfact> 0.12715155E+04</totfact>
</mgrwt>
</event>
<event>
 5    0  0.1856407E+000  0.4145821E+03  0.7546771E-02  0.1038844E+00
         21   -1    0    0  502  501  0.00000000000E+00  0.00000000000E+00  0.53591687441E+03  0.53591687441E+03  0.00000000000E+00 0.  1.
         21   -1    0    0  503  502 -0.00000000000E+00 -0.00000000000E+00 -0.48221085356E+03  0.48221085356E+03  0.00000000000E+00 0.  1.
         25    1    1    2    0    0 -0.35187992387E+03 -0.18009402709E+03  0.32904639782E+03  0.52929185837E+03  0.12500000000E+03 0.  0.
         21    1    1    2  503  504  0.24727728624E+03  0.86903652506E+02 -0.20055281251E+03  0.33002989518E+03  0.00000000000E+00 0.  1.
         21    1    1    2  504  501  0.10460263762E+03  0.93190374584E+02 -0.74787564461E+02  0.15880597442E+03  0.00000000000E+00 0.  1.
<mgrwt>
<rscale>  4 0.41458213E+03</rscale>
<asrwt>0</asrwt>
<pdfrwt beam="1">  1       21 0.82448750E-01 0.41458213E+03</pdfrwt>
<pdfrwt beam="2">  1       21 0.74186285E-01 0.41458213E+03</pdfrwt>
<totfact> 0.18281789E+03</totfact>
</mgrwt>
</event>
<event>
 5    0  0.1984288E+000  0.2726238E+03  0.7546771E-02  0.1099787E+00
         21   -1    0    0  502  501  0.00000000000E+00  0.00000000000E+00  0.97067790045E+03  0.97067790045E+03  0.00000000000E+00 0.  1.
         21   -1    0    0  503  502 -0.00000000000E+00 -0.00000000000E+00 -0.90295689732E+02  0.90295689732E+02  0.00000000000E+00 0.  1.
         25    1    1    2    0    0 -0.26110618929E+03  0.36884261088E+02  0.56462679625E+03  0.63558265383E+03  0.12500000000E+03 0.  0.
         21    1    1    2  503  504  0.40899087501E+02 -0.17390629760E+02  0.60100184581E+01  0.44847404426E+02  0.00000000000E+00 0. -1.
         21    1    1    2  504  501  0.22020710179E+03 -0.19493631328E+02  0.30974539601E+03  0.38054353193E+03  0.00000000000E+00 0.  1.
<mgrwt>
<rscale>  4 0.27262381E+03</rscale>
<asrwt>0</asrwt>
<pdfrwt beam="1">  1       21 0.14933505E+00 0.27262381E+03</pdfrwt>
<pdfrwt beam="2">  1       21 0.13891645E-01 0.27262381E+03</pdfrwt>
<totfact> 0.12971886E+04</totfact>
</mgrwt>
</event>
<event>
 5    0  0.1856407E+000  0.3016512E+03  0.7546771E-02  0.1084418E+00
         21   -1    0    0  502  501  0.00000000000E+00  0.00000000000E+00  0.71942563532E+02  0.71942563532E+02  0.00000000000E+00 0. -1.
         21   -1    0    0  503  502 -0.00000000000E+00 -0.00000000000E+00 -0.12303015100E+04  0.12303015100E+04  0.00000000000E+00 0. -1.
         25    1    1    2    0    0  0.27383625007E+03 -0.19548108519E+02 -0.59147521138E+03  0.66395507836E+03  0.12500000000E+03 0.  0.
         21    1    1    2  503  504 -0.21016227590E+03  0.24125658128E+02 -0.51244194493E+03  0.55438883152E+03  0.00000000000E+00 0. -1.
         21    1    1    2  504  501 -0.63673974176E+02 -0.45775496089E+01 -0.54441790196E+02  0.83900163692E+02  0.00000000000E+00 0. -1.
<mgrwt>
<rscale>  4 0.30165116E+03</rscale>
<asrwt>0</asrwt>
<pdfrwt beam="1">  1       21 0.11068087E-01 0.30165116E+03</pdfrwt>
<pdfrwt beam="2">  1       21 0.18927715E+00 0.30165116E+03</pdfrwt>
<totfact> 0.99413388E+03</totfact>
</mgrwt>
</event>
<event>
 5    0  0.1360276E+001  0.2634993E+03  0.7546771E-02  0.1105059E+00
         21   -1    0    0  502  501  0.00000000000E+00  0.00000000000E+00  0.89385969133E+02  0.89385969133E+02  0.00000000000E+00 0. -1.
         21   -1    0    0  503  502 -0.00000000000E+00 -0.00000000000E+00 -0.71292183454E+03  0.71292183454E+03  0.00000000000E+00 0. -1.
         25    1    1    2    0    0 -0.10980744571E+03 -0.20432622808E+03 -0.27577390865E+03  0.38142251023E+03  0.12500000000E+03 0.  0.
         21    1    1    2  503  504  0.11335011695E+03  0.18427046171E+03 -0.32400484809E+03  0.38959336963E+03  0.00000000000E+00 0. -1.
         21    1    1    2  504  501 -0.35426712447E+01  0.20055766367E+02 -0.23757108663E+02  0.31291923817E+02  0.00000000000E+00 0.  1.
<mgrwt>
<rscale>  4 0.26349930E+03</rscale>
<asrwt>0</asrwt>
<pdfrwt beam="1">  1       21 0.13751688E-01 0.26349930E+03</pdfrwt>
<pdfrwt beam="2">  1       21 0.10968028E+00 0.26349930E+03</pdfrwt>
<totfact> 0.29121743E+04</totfact>
</mgrwt>
</event>
<event>
 5    0  0.1856407E+000  0.2540223E+03  0.7546771E-02  0.1110789E+00
         21   -1    0    0  502  501  0.00000000000E+00  0.00000000000E+00  0.26187030288E+04  0.26187030288E+04  0.00000000000E+00 0.  1.
         21   -1    0    0  503  502 -0.00000000000E+00 -0.00000000000E+00 -0.82219066618E+02  0.82219066618E+02  0.00000000000E+00 0.  1.
         25    1    1    2    0    0 -0.20950133521E+03  0.77747033789E+02  0.23014499954E+04  0.23156494752E+04  0.12500000000E+03 0.  0.
         21    1    1    2  503  504  0.20935356168E+03 -0.34180031163E+02  0.25960905583E+03  0.33525221877E+03  0.00000000000E+00 0.  1.
         21    1    1    2  504  501  0.14777353036E+00 -0.43567002626E+02 -0.24575089074E+02  0.50020401416E+02  0.00000000000E+00 0.  1.
<mgrwt>
<rscale>  4 0.25402235E+03</rscale>
<asrwt>0</asrwt>
<pdfrwt beam="1">  1       21 0.40287732E+00 0.25402235E+03</pdfrwt>
<pdfrwt beam="2">  1       21 0.12649089E-01 0.25402235E+03</pdfrwt>
<totfact> 0.40885031E+02</totfact>
</mgrwt>
</event>
