<event>
 5    0  0.4115852E+000  0.2256122E+03  0.7546771E-02  0.1129767E+00
         21   -1    0    0  503  502  0.00000000000E+00  0.00000000000E+00  0.62932516677E+02  0.62932516677E+02  0.00000000000E+00 0.  1.
          2   -1    0    0  502    0 -0.00000000000E+00 -0.00000000000E+00 -0.19263775207E+04  0.19263775207E+04  0.00000000000E+00 0.  1.
         25    1    1    2    0    0  0.71776646813E+01  0.25102919830E+03 -0.96219219690E+03  0.10022504682E+04  0.12500000000E+03 0.  0.
         21    1    1    2  503  501 -0.25553614171E+02 -0.87751989414E+02 -0.23922409015E+02  0.94475819638E+02  0.00000000000E+00 0.  1.
          2    1    1    2  501    0  0.18375949490E+02 -0.16327720889E+03 -0.87733039810E+03  0.89258374951E+03  0.00000000000E+00 0.  1.
<mgrwt>
<rscale>  4 0.22561217E+03</rscale>
<asrwt>0</asrwt>
<pdfrwt beam="1">  1       21 0.96819240E-02 0.22561217E+03</pdfrwt>
<pdfrwt beam="2">  1        2 0.29636582E+00 0.22561217E+03</pdfrwt>
<totfact> 0.89169108E+03</totfact>
</mgrwt>
</event>
<event>
 5    0  0.4115852E+000  0.3400401E+03  0.7546771E-02  0.1066779E+00
          2   -1    0    0  502    0 -0.00000000000E+00  0.00000000000E+00  0.37068719279E+03  0.37068719279E+03  0.00000000000E+00 0.  1.
         21   -1    0    0  503  502  0.00000000000E+00 -0.00000000000E+00 -0.72399738839E+03  0.72399738839E+03  0.00000000000E+00 0. -1.
         25    1    1    2    0    0 -0.21121790362E+03 -0.13270677016E+03 -0.93629068559E+02  0.29430510042E+03  0.12500000000E+03 0.  0.
         21    1    1    2  503  501 -0.97447453494E+02 -0.49199920949E+02 -0.40073191820E+03  0.41533445400E+03  0.00000000000E+00 0. -1.
          2    1    1    2  501    0  0.30866535711E+03  0.18190669111E+03  0.14105079116E+03  0.38504502677E+03  0.00000000000E+00 0.  1.
<mgrwt>
<rscale>  4 0.34004015E+03</rscale>
<asrwt>0</asrwt>
<pdfrwt beam="1">  1       21 0.11138421E+00 0.34004015E+03</pdfrwt>
<pdfrwt beam="2">  1        2 0.57028799E-01 0.34004015E+03</pdfrwt>
<totfact> 0.64046157E+02</totfact>
</mgrwt>
</event>
<event>
 5    0  0.4115852E+000  0.2407430E+03  0.7546771E-02  0.1119299E+00
         -4   -1    0    0    0  501 -0.00000000000E+00  0.00000000000E+00  0.99536969239E+03  0.99536969239E+03  0.00000000000E+00 0. -1.
         21   -1    0    0  501  502  0.00000000000E+00 -0.00000000000E+00 -0.41999739961E+03  0.41999739961E+03  0.00000000000E+00 0.  1.
         25    1    1    2    0    0 -0.15216785508E+03 -0.15024861267E+03 -0.31355933791E+03  0.39959249258E+03  0.12500000000E+03 0.  0.
         21    1    1    2  503  502 -0.39210571957E+02  0.73983174106E+02 -0.18079299915E+02  0.85661193603E+02  0.00000000000E+00 0. -1.
         -4    1    1    2    0  503  0.19137842704E+03  0.76265438563E+02  0.90701093060E+03  0.93011340582E+03  0.00000000000E+00 0. -1.
<mgrwt>
<rscale>  4 0.24074299E+03</rscale>
<asrwt>0</asrwt>
<pdfrwt beam="1">  1       21 0.64614985E-01 0.24074299E+03</pdfrwt>
<pdfrwt beam="2">  1       -4 0.15313380E+00 0.24074299E+03</pdfrwt>
<totfact> 0.27438962E+01</totfact>
</mgrwt>
</event>
<event>
 5    0  0.4115852E+000  0.2412944E+03  0.7546771E-02  0.1118934E+00
         21   -1    0    0  503  502  0.00000000000E+00  0.00000000000E+00  0.89710268303E+02  0.89710268303E+02  0.00000000000E+00 0.  1.
          2   -1    0    0  502    0 -0.00000000000E+00 -0.00000000000E+00 -0.17076595102E+04  0.17076595102E+04  0.00000000000E+00 0.  1.
         25    1    1    2    0    0 -0.12510828045E+03  0.18287768721E+03 -0.59882662207E+03  0.65062635484E+03  0.12500000000E+03 0.  0.
         21    1    1    2  503  501  0.17652419990E+02 -0.13068194534E+02  0.52254889221E+02  0.56682969995E+02  0.00000000000E+00 0.  1.
          2    1    1    2  501    0  0.10745586046E+03 -0.16980949268E+03 -0.10713775090E+04  0.10900604536E+04  0.00000000000E+00 0.  1.
<mgrwt>
<rscale>  4 0.24129436E+03</rscale>
<asrwt>0</asrwt>
<pdfrwt beam="1">  1       21 0.13801579E-01 0.24129436E+03</pdfrwt>
<pdfrwt beam="2">  1        2 0.26271686E+00 0.24129436E+03</pdfrwt>
<totfact> 0.61084721E+03</totfact>
</mgrwt>
</event>
<event>
 5    0  0.4115852E+000  0.2182596E+03  0.7546771E-02  0.1135187E+00
          1   -1    0    0  502    0 -0.00000000000E+00  0.00000000000E+00  0.75085338193E+03  0.75085338193E+03  0.00000000000E+00 0. -1.
         21   -1    0    0  503  502  0.00000000000E+00 -0.00000000000E+00 -0.16127283943E+03  0.16127283943E+03  0.00000000000E+00 0. -1.
         25    1    1    2    0    0 -0.25858841192E+02 -0.28539234491E+03  0.35754138316E+03  0.47495085101E+03  0.12500000000E+03 0.  0.
         21    1    1    2  503  501 -0.58852941602E+02  0.15050756382E+03  0.73694601676E+01  0.16177300283E+03  0.00000000000E+00 0. -1.
          1    1    1    2  501    0  0.84711782794E+02  0.13488478109E+03  0.22466969917E+03  0.27540236753E+03  0.00000000000E+00 0. -1.
<mgrwt>
<rscale>  4 0.21825957E+03</rscale>
<asrwt>0</asrwt>
<pdfrwt beam="1">  1       21 0.24811207E-01 0.21825957E+03</pdfrwt>
<pdfrwt beam="2">  1        1 0.11551590E+00 0.21825957E+03</pdfrwt>
<totfact> 0.43140941E+03</totfact>
</mgrwt>
</event>
<event>
 5    0  0.4115852E+000  0.2316612E+03  0.7546771E-02  0.1125476E+00
         21   -1    0    0  503  502  0.00000000000E+00  0.00000000000E+00  0.11434041620E+03  0.11434041620E+03  0.00000000000E+00 0.  1.
          2   -1    0    0  502    0 -0.00000000000E+00 -0.00000000000E+00 -0.85365716762E+03  0.85365716762E+03  0.00000000000E+00 0.  1.
         25    1    1    2    0    0  0.18836334499E+03  0.72460504051E+02 -0.52460248217E+03  0.57581597640E+03  0.12500000000E+03 0.  0.
         21    1    1    2  503  501 -0.69747009929E+02  0.94717537733E+02 -0.44581118680E+02  0.12579162727E+03  0.00000000000E+00 0.  1.
          2    1    1    2  501    0 -0.11861633506E+03 -0.16717804178E+03 -0.17013315058E+03  0.26638998015E+03  0.00000000000E+00 0.  1.
<mgrwt>
<rscale>  4 0.23166125E+03</rscale>
<asrwt>0</asrwt>
<pdfrwt beam="1">  1       21 0.17590833E-01 0.23166125E+03</pdfrwt>
<pdfrwt beam="2">  1        2 0.13133187E+00 0.23166125E+03</pdfrwt>
<totfact> 0.11977160E+04</totfact>
</mgrwt>
</event>
<event>
 5    0  0.4115852E+000  0.2805522E+03  0.7546771E-02  0.1095388E+00
         21   -1    0    0  503  502  0.00000000000E+00  0.00000000000E+00  0.36925835511E+03  0.36925835511E+03  0.00000000000E+00 0. -1.
          2   -1    0    0  502    0 -0.00000000000E+00 -0.00000000000E+00 -0.24965555323E+04  0.24965555323E+04  0.00000000000E+00 0. -1.
         25    1    1    2    0    0 -0.12405250975E+03 -0.32869014718E+03 -0.13059651816E+04  0.13581591562E+04  0.12500000000E+03 0.  0.
         21    1    1    2  503  501  0.85893495973E+02  0.11791502074E+03  0.31720528896E+03  0.34914300811E+03  0.00000000000E+00 0. -1.
          2    1    1    2  501    0  0.38159013774E+02  0.21077512644E+03 -0.11385372846E+04  0.11585117232E+04  0.00000000000E+00 0. -1.
<mgrwt>
<rscale>  4 0.28055225E+03</rscale>
<asrwt>0</asrwt>
<pdfrwt beam="1">  1       21 0.56808979E-01 0.28055225E+03</pdfrwt>
<pdfrwt beam="2">  1        2 0.38408546E+00 0.28055225E+03</pdfrwt>
<totfact> 0.14263308E+02</totfact>
</mgrwt>
</event>
<event>
 5    0  0.4115852E+000  0.2539178E+03  0.7546771E-02  0.1110854E+00
         21   -1    0    0  503  502  0.00000000000E+00  0.00000000000E+00  0.25398017188E+03  0.25398017188E+03  0.00000000000E+00 0. -1.
          2   -1    0    0  502    0 -0.00000000000E+00 -0.00000000000E+00 -0.40784305978E+03  0.40784305978E+03  0.00000000000E+00 0.  1.
         25    1    1    2    0    0  0.10977024297E+03 -0.17967995823E+03 -0.23158566835E+03  0.33703310730E+03  0.12500000000E+03 0.  0.
         21    1    1    2  503  501  0.28160863162E+02 -0.24727428540E+02  0.68434082646E+02  0.78023737438E+02  0.00000000000E+00 0. -1.
          2    1    1    2  501    0 -0.13793110613E+03  0.20440738677E+03  0.92886978111E+01  0.24676638692E+03  0.00000000000E+00 0.  1.
<mgrwt>
<rscale>  4 0.25391781E+03</rscale>
<asrwt>0</asrwt>
<pdfrwt beam="1">  1       21 0.39073873E-01 0.25391781E+03</pdfrwt>
<pdfrwt beam="2">  1        2 0.62745086E-01 0.25391781E+03</pdfrwt>
<totfact> 0.60538614E+03</totfact>
</mgrwt>
</event>
<event>
 5    0  0.4115852E+000  0.2415017E+03  0.7546771E-02  0.1118796E+00
         21   -1    0    0  503  502  0.00000000000E+00  0.00000000000E+00  0.28521245686E+03  0.28521245686E+03  0.00000000000E+00 0. -1.
          2   -1    0    0  502    0 -0.00000000000E+00 -0.00000000000E+00 -0.37717153726E+03  0.37717153726E+03  0.00000000000E+00 0.  1.
         25    1    1    2    0    0 -0.10577472705E+03  0.19856430752E+03  0.16653328426E+03  0.30655246186E+03  0.12500000000E+03 0.  0.
         21    1    1    2  503  501  0.21699876561E+02 -0.12733730091E+02  0.17070520765E+01  0.25217980719E+02  0.00000000000E+00 0. -1.
          2    1    1    2  501    0  0.84074850492E+02 -0.18583057743E+03 -0.26019941673E+03  0.33061355154E+03  0.00000000000E+00 0.  1.
<mgrwt>
<rscale>  4 0.24150173E+03</rscale>
<asrwt>0</asrwt>
<pdfrwt beam="1">  1       21 0.43878839E-01 0.24150173E+03</pdfrwt>
<pdfrwt beam="2">  1        2 0.58026390E-01 0.24150173E+03</pdfrwt>
<totfact> 0.52177122E+03</totfact>
</mgrwt>
</event>
<event>
 5    0  0.4115852E+000  0.2223242E+03  0.7546771E-02  0.1132162E+00
          1   -1    0    0  502    0 -0.00000000000E+00  0.00000000000E+00  0.92592384056E+03  0.92592384056E+03  0.00000000000E+00 0.  1.
         21   -1    0    0  503  502  0.00000000000E+00 -0.00000000000E+00 -0.12855870185E+03  0.12855870185E+03  0.00000000000E+00 0. -1.
         25    1    1    2    0    0 -0.15855555471E+03 -0.14240255271E+03  0.12896908388E+03  0.27870481794E+03  0.12500000000E+03 0.  0.
         21    1    1    2  503  501  0.61909146763E+02 -0.98660244871E+01 -0.18689282087E+02  0.65416895042E+02  0.00000000000E+00 0. -1.
          1    1    1    2  501    0  0.96646407948E+02  0.15226857719E+03  0.68708533692E+03  0.71036082942E+03  0.00000000000E+00 0.  1.
<mgrwt>
<rscale>  4 0.22232421E+03</rscale>
<asrwt>0</asrwt>
<pdfrwt beam="1">  1       21 0.19778262E-01 0.22232421E+03</pdfrwt>
<pdfrwt beam="2">  1        1 0.14244982E+00 0.22232421E+03</pdfrwt>
<totfact> 0.47661851E+03</totfact>
</mgrwt>
</event>
<event>
 5    0  0.4115852E+000  0.3938842E+03  0.7546771E-02  0.1045918E+00
          2   -1    0    0  502    0 -0.00000000000E+00  0.00000000000E+00  0.14754054139E+04  0.14754054139E+04  0.00000000000E+00 0.  1.
         21   -1    0    0  503  502  0.00000000000E+00 -0.00000000000E+00 -0.54929021568E+03  0.54929021568E+03  0.00000000000E+00 0. -1.
         25    1    1    2    0    0  0.76443950696E+02  0.39093893883E+03  0.15642621451E+03  0.44583751758E+03  0.12500000000E+03 0.  0.
         21    1    1    2  503  501  0.34204704570E+01 -0.31114454259E+02 -0.37499385227E+03  0.37629801769E+03  0.00000000000E+00 0. -1.
          2    1    1    2  501    0 -0.79864421153E+02 -0.35982448457E+03  0.11446828360E+04  0.12025600943E+04  0.00000000000E+00 0.  1.
<mgrwt>
<rscale>  4 0.39388424E+03</rscale>
<asrwt>0</asrwt>
<pdfrwt beam="1">  1       21 0.84506187E-01 0.39388424E+03</pdfrwt>
<pdfrwt beam="2">  1        2 0.22698545E+00 0.39388424E+03</pdfrwt>
<totfact> 0.19510372E+02</totfact>
</mgrwt>
</event>
<event>
 5    0  0.4115852E+000  0.2330550E+03  0.7546771E-02  0.1124508E+00
         21   -1    0    0  503  502  0.00000000000E+00  0.00000000000E+00  0.68000024872E+02  0.68000024872E+02  0.00000000000E+00 0. -1.
          2   -1    0    0  502    0 -0.00000000000E+00 -0.00000000000E+00 -0.33713079676E+04  0.33713079676E+04  0.00000000000E+00 0. -1.
         25    1    1    2    0    0 -0.20181679225E+03 -0.86417211673E+02 -0.74438109115E+03  0.78608279524E+03  0.12500000000E+03 0.  0.
         21    1    1    2  503  501  0.70463581387E+02 -0.58519048666E+02 -0.49069725614E+01  0.91726079925E+02  0.00000000000E+00 0. -1.
          2    1    1    2  501    0  0.13135321086E+03  0.14493626034E+03 -0.25540198790E+04  0.25614991173E+04  0.00000000000E+00 0. -1.
<mgrwt>
<rscale>  4 0.23305504E+03</rscale>
<asrwt>0</asrwt>
<pdfrwt beam="1">  1       21 0.10461545E-01 0.23305504E+03</pdfrwt>
<pdfrwt beam="2">  1        2 0.51866262E+00 0.23305504E+03</pdfrwt>
<totfact> 0.11864310E+03</totfact>
</mgrwt>
</event>
<event>
 5    0  0.4115852E+000  0.3471119E+03  0.7546771E-02  0.1063807E+00
         -2   -1    0    0    0  501 -0.00000000000E+00  0.00000000000E+00  0.22928183857E+04  0.22928183857E+04  0.00000000000E+00 0.  1.
         21   -1    0    0  501  502  0.00000000000E+00 -0.00000000000E+00 -0.94271848187E+03  0.94271848187E+03  0.00000000000E+00 0.  1.
         25    1    1    2    0    0 -0.19526613107E+03  0.44128533651E+03  0.80133845476E+03  0.94373191598E+03  0.12500000000E+03 0.  0.
         21    1    1    2  503  502  0.21533151148E+03 -0.23571542056E+03 -0.83435464847E+03  0.89335160981E+03  0.00000000000E+00 0.  1.
         -2    1    1    2    0  503 -0.20065380408E+02 -0.20556991595E+03  0.13831160976E+04  0.13984533418E+04  0.00000000000E+00 0.  1.
<mgrwt>
<rscale>  4 0.34711192E+03</rscale>
<asrwt>0</asrwt>
<pdfrwt beam="1">  1       21 0.14503361E+00 0.34711192E+03</pdfrwt>
<pdfrwt beam="2">  1       -2 0.35274129E+00 0.34711192E+03</pdfrwt>
<totfact> 0.42171245E-01</totfact>
</mgrwt>
</event>
<event>
 5    0  0.4115852E+000  0.2584930E+03  0.7546771E-02  0.1108052E+00
          2   -1    0    0  502    0 -0.00000000000E+00  0.00000000000E+00  0.10724922068E+04  0.10724922068E+04  0.00000000000E+00 0.  1.
         21   -1    0    0  503  502  0.00000000000E+00 -0.00000000000E+00 -0.33742746015E+03  0.33742746015E+03  0.00000000000E+00 0. -1.
         25    1    1    2    0    0 -0.11094364492E+03  0.21676823848E+03 -0.24376327383E+03  0.36652761865E+03  0.12500000000E+03 0.  0.
         21    1    1    2  503  501  0.38472389263E+02 -0.30841383817E+01 -0.30429434691E+00  0.38597010768E+02  0.00000000000E+00 0. -1.
          2    1    1    2  501    0  0.72471255653E+02 -0.21368410010E+03  0.97913231486E+03  0.10047950376E+04  0.00000000000E+00 0.  1.
<mgrwt>
<rscale>  4 0.25849296E+03</rscale>
<asrwt>0</asrwt>
<pdfrwt beam="1">  1       21 0.51911917E-01 0.25849296E+03</pdfrwt>
<pdfrwt beam="2">  1        2 0.16499880E+00 0.25849296E+03</pdfrwt>
<totfact> 0.10283113E+03</totfact>
</mgrwt>
</event>
<event>
 5    0  0.4115852E+000  0.2080911E+03  0.7546771E-02  0.1143087E+00
          1   -1    0    0  502    0 -0.00000000000E+00  0.00000000000E+00  0.11234779795E+04  0.11234779795E+04  0.00000000000E+00 0. -1.
         21   -1    0    0  503  502  0.00000000000E+00 -0.00000000000E+00 -0.83340523097E+03  0.83340523097E+03  0.00000000000E+00 0.  1.
         25    1    1    2    0    0  0.16472136275E+03  0.21218772842E+03 -0.16744196472E+03  0.34032127613E+03  0.12500000000E+03 0.  0.
         21    1    1    2  503  501 -0.38854604959E+02 -0.15116635724E+03 -0.56416193447E+03  0.58535428263E+03  0.00000000000E+00 0.  1.
          1    1    1    2  501    0 -0.12586675779E+03 -0.61021371179E+02  0.10216766478E+04  0.10312076518E+04  0.00000000000E+00 0. -1.
<mgrwt>
<rscale>  4 0.20809111E+03</rscale>
<asrwt>0</asrwt>
<pdfrwt beam="1">  1       21 0.12821619E+00 0.20809111E+03</pdfrwt>
<pdfrwt beam="2">  1        1 0.17284277E+00 0.20809111E+03</pdfrwt>
<totfact> 0.64517405E+01</totfact>
</mgrwt>
</event>
<event>
 5    0  0.4115852E+000  0.3153258E+03  0.7546771E-02  0.1077821E+00
          2   -1    0    0  502    0 -0.00000000000E+00  0.00000000000E+00  0.93622231413E+03  0.93622231413E+03  0.00000000000E+00 0.  1.
         21   -1    0    0  503  502  0.00000000000E+00 -0.00000000000E+00 -0.23348736790E+03  0.23348736790E+03  0.00000000000E+00 0. -1.
         25    1    1    2    0    0  0.20397942605E+03  0.15407790804E+02  0.67352637109E+03  0.71491802245E+03  0.12500000000E+03 0.  0.
         21    1    1    2  503  501 -0.30285526259E+03  0.41913874517E+02 -0.57791670521E+02  0.31115584542E+03  0.00000000000E+00 0. -1.
          2    1    1    2  501    0  0.98875836535E+02 -0.57321665321E+02  0.87000245652E+02  0.14363581416E+03  0.00000000000E+00 0.  1.
<mgrwt>
<rscale>  4 0.31532581E+03</rscale>
<asrwt>0</asrwt>
<pdfrwt beam="1">  1       21 0.35921134E-01 0.31532581E+03</pdfrwt>
<pdfrwt beam="2">  1        2 0.14403420E+00 0.31532581E+03</pdfrwt>
<totfact> 0.26102308E+03</totfact>
</mgrwt>
</event>
<event>
 5    0  0.4115852E+000  0.2656570E+03  0.7546771E-02  0.1103791E+00
         21   -1    0    0  503  502  0.00000000000E+00  0.00000000000E+00  0.38353505317E+03  0.38353505317E+03  0.00000000000E+00 0.  1.
          2   -1    0    0  502    0 -0.00000000000E+00 -0.00000000000E+00 -0.18176609414E+04  0.18176609414E+04  0.00000000000E+00 0. -1.
         25    1    1    2    0    0 -0.31212656621E+03 -0.18780173340E+03 -0.44986051699E+03  0.59219251021E+03  0.12500000000E+03 0.  0.
         21    1    1    2  503  501  0.22792153933E+03 -0.85835176450E+01  0.26037995476E+03  0.34614971574E+03  0.00000000000E+00 0.  1.
          2    1    1    2  501    0  0.84205026878E+02  0.19638525104E+03 -0.12446453260E+04  0.12628537687E+04  0.00000000000E+00 0. -1.
<mgrwt>
<rscale>  4 0.26565704E+03</rscale>
<asrwt>0</asrwt>
<pdfrwt beam="1">  1       21 0.59005393E-01 0.26565704E+03</pdfrwt>
<pdfrwt beam="2">  1        2 0.27964014E+00 0.26565704E+03</pdfrwt>
<totfact> 0.30526825E+02</totfact>
</mgrwt>
</event>
<event>
 5    0  0.4115852E+000  0.2329371E+03  0.7546771E-02  0.1124589E+00
         21   -1    0    0  503  502  0.00000000000E+00  0.00000000000E+00  0.23149691953E+03  0.23149691953E+03  0.00000000000E+00 0. -1.
          2   -1    0    0  502    0 -0.00000000000E+00 -0.00000000000E+00 -0.18734059337E+04  0.18734059337E+04  0.00000000000E+00 0.  1.
         25    1    1    2    0    0  0.13746915502E+03  0.17211560331E+03  0.82263883652E+02  0.26629663167E+03  0.12500000000E+03 0.  0.
         21    1    1    2  503  501 -0.57784964573E+01 -0.27169254246E+02  0.48101012216E+02  0.55545177773E+02  0.00000000000E+00 0. -1.
          2    1    1    2  501    0 -0.13169065856E+03 -0.14494634906E+03 -0.17722739100E+04  0.17830610437E+04  0.00000000000E+00 0.  1.
<mgrwt>
<rscale>  4 0.23293709E+03</rscale>
<asrwt>0</asrwt>
<pdfrwt beam="1">  1       21 0.35614910E-01 0.23293709E+03</pdfrwt>
<pdfrwt beam="2">  1        2 0.28821630E+00 0.23293709E+03</pdfrwt>
<totfact> 0.82949355E+02</totfact>
</mgrwt>
</event>
<event>
 5    0  0.4115852E+000  0.4235357E+03  0.7546771E-02  0.1035922E+00
         21   -1    0    0  503  502  0.00000000000E+00  0.00000000000E+00  0.12690128963E+04  0.12690128963E+04  0.00000000000E+00 0.  1.
          3   -1    0    0  502    0 -0.00000000000E+00 -0.00000000000E+00 -0.21903655058E+03  0.21903655058E+03  0.00000000000E+00 0. -1.
         25    1    1    2    0    0 -0.25706544744E+03 -0.27096787014E+03  0.75484005855E+03  0.85141925331E+03  0.12500000000E+03 0.  0.
         21    1    1    2  503  501 -0.63909210467E+02  0.71315869265E+01  0.20041240063E+03  0.21047654749E+03  0.00000000000E+00 0.  1.
          3    1    1    2  501    0  0.32097465791E+03  0.26383628321E+03  0.94723886491E+02  0.42615364604E+03  0.00000000000E+00 0. -1.
<mgrwt>
<rscale>  4 0.42353572E+03</rscale>
<asrwt>0</asrwt>
<pdfrwt beam="1">  1       21 0.19523275E+00 0.42353572E+03</pdfrwt>
<pdfrwt beam="2">  1        3 0.33697932E-01 0.42353572E+03</pdfrwt>
<totfact> 0.55689012E+01</totfact>
</mgrwt>
</event>
<event>
 5    0  0.4115852E+000  0.1863616E+03  0.7546771E-02  0.1161784E+00
          2   -1    0    0  502    0 -0.00000000000E+00  0.00000000000E+00  0.15502928061E+04  0.15502928061E+04  0.00000000000E+00 0. -1.
         21   -1    0    0  503  502  0.00000000000E+00 -0.00000000000E+00 -0.27970409199E+04  0.27970409199E+04  0.00000000000E+00 0. -1.
         25    1    1    2    0    0  0.16352345211E+03  0.15009841019E+03 -0.40664984106E+03  0.47985262880E+03  0.12500000000E+03 0.  0.
         21    1    1    2  503  501 -0.43499591695E+02 -0.82659701439E+02 -0.23497294716E+04  0.23515853016E+04  0.00000000000E+00 0. -1.
          2    1    1    2  501    0 -0.12002386041E+03 -0.67438708751E+02  0.15096311988E+04  0.15158957956E+04  0.00000000000E+00 0. -1.
<mgrwt>
<rscale>  4 0.18636159E+03</rscale>
<asrwt>0</asrwt>
<pdfrwt beam="1">  1       21 0.43031398E+00 0.18636159E+03</pdfrwt>
<pdfrwt beam="2">  1        2 0.23850659E+00 0.18636159E+03</pdfrwt>
<totfact> 0.93725149E-01</totfact>
</mgrwt>
</event>
<event>
 5    0  0.4115852E+000  0.2626492E+03  0.7546771E-02  0.1105562E+00
         21   -1    0    0  503  502  0.00000000000E+00  0.00000000000E+00  0.32355337014E+03  0.32355337014E+03  0.00000000000E+00 0. -1.
          1   -1    0    0  502    0 -0.00000000000E+00 -0.00000000000E+00 -0.20731664483E+04  0.20731664483E+04  0.00000000000E+00 0. -1.
         25    1    1    2    0    0 -0.47820001007E+02  0.20262970637E+03 -0.19059754152E+04  0.19213830523E+04  0.12500000000E+03 0.  0.
         21    1    1    2  503  501  0.44316663962E+02 -0.22722674121E+03  0.27192915337E+03  0.35712942063E+03  0.00000000000E+00 0. -1.
          1    1    1    2  501    0  0.35033370451E+01  0.24597034841E+02 -0.11556681626E+03  0.11820734543E+03  0.00000000000E+00 0. -1.
<mgrwt>
<rscale>  4 0.26264919E+03</rscale>
<asrwt>0</asrwt>
<pdfrwt beam="1">  1       21 0.49777442E-01 0.26264919E+03</pdfrwt>
<pdfrwt beam="2">  1        1 0.31894868E+00 0.26264919E+03</pdfrwt>
<totfact> 0.12609067E+02</totfact>
</mgrwt>
</event>
<event>
 5    0  0.4115852E+000  0.3164792E+03  0.7546771E-02  0.1077281E+00
          1   -1    0    0  502    0 -0.00000000000E+00  0.00000000000E+00  0.12023222527E+04  0.12023222527E+04  0.00000000000E+00 0. -1.
         21   -1    0    0  503  502  0.00000000000E+00 -0.00000000000E+00 -0.11772228635E+04  0.11772228635E+04  0.00000000000E+00 0.  1.
         25    1    1    2    0    0 -0.19494589255E+03 -0.35599248718E+03 -0.37023108263E+03  0.56340980334E+03  0.12500000000E+03 0.  0.
         21    1    1    2  503  501  0.99355436179E+02  0.86071923263E+02 -0.68551368622E+03  0.69800350476E+03  0.00000000000E+00 0.  1.
          1    1    1    2  501    0  0.95590456376E+02  0.26992056392E+03  0.10808441581E+04  0.11181318081E+04  0.00000000000E+00 0. -1.
<mgrwt>
<rscale>  4 0.31647917E+03</rscale>
<asrwt>0</asrwt>
<pdfrwt beam="1">  1       21 0.18111121E+00 0.31647917E+03</pdfrwt>
<pdfrwt beam="2">  1        1 0.18497265E+00 0.31647917E+03</pdfrwt>
<totfact> 0.20552499E+01</totfact>
</mgrwt>
</event>
<event>
 5    0  0.4115852E+000  0.8207580E+03  0.7546771E-02  0.9530447E-01
          2   -1    0    0  502    0 -0.00000000000E+00  0.00000000000E+00  0.21175423488E+04  0.21175423488E+04  0.00000000000E+00 0. -1.
         21   -1    0    0  503  502  0.00000000000E+00 -0.00000000000E+00 -0.56210464708E+03  0.56210464708E+03  0.00000000000E+00 0.  1.
         25    1    1    2    0    0  0.59215618246E+03  0.61071583980E+03  0.15631793593E+03  0.87388962604E+03  0.12500000000E+03 0.  0.
         21    1    1    2  503  501 -0.60555153488E+02 -0.12486634148E+02 -0.93517826987E+02  0.11210899433E+03  0.00000000000E+00 0.  1.
          2    1    1    2  501    0 -0.53160102897E+03 -0.59822920565E+03  0.14926375927E+04  0.16936483755E+04  0.00000000000E+00 0. -1.
<mgrwt>
<rscale>  4 0.82075802E+03</rscale>
<asrwt>0</asrwt>
<pdfrwt beam="1">  1       21 0.86477639E-01 0.82075802E+03</pdfrwt>
<pdfrwt beam="2">  1        2 0.32577574E+00 0.82075802E+03</pdfrwt>
<totfact> 0.72999728E+01</totfact>
</mgrwt>
</event>
<event>
 5    0  0.4115852E+000  0.2550647E+03  0.7546771E-02  0.1110145E+00
          2   -1    0    0  502    0 -0.00000000000E+00  0.00000000000E+00  0.70021671365E+03  0.70021671365E+03  0.00000000000E+00 0. -1.
         21   -1    0    0  503  502  0.00000000000E+00 -0.00000000000E+00 -0.27877070047E+03  0.27877070047E+03  0.00000000000E+00 0. -1.
         25    1    1    2    0    0  0.20514653484E+03  0.11773999107E+03  0.38918618431E+03  0.47226972412E+03  0.12500000000E+03 0.  0.
         21    1    1    2  503  501 -0.29473736748E+02 -0.52382605811E+01 -0.19554804121E+03  0.19782612808E+03  0.00000000000E+00 0. -1.
          2    1    1    2  501    0 -0.17567279810E+03 -0.11250173049E+03  0.22780787008E+03  0.30889156192E+03  0.00000000000E+00 0. -1.
<mgrwt>
<rscale>  4 0.25506465E+03</rscale>
<asrwt>0</asrwt>
<pdfrwt beam="1">  1       21 0.42887800E-01 0.25506465E+03</pdfrwt>
<pdfrwt beam="2">  1        2 0.10772565E+00 0.25506465E+03</pdfrwt>
<totfact> 0.26984732E+03</totfact>
</mgrwt>
</event>
<event>
 5    0  0.4115852E+000  0.3036812E+03  0.7546771E-02  0.1083415E+00
         21   -1    0    0  503  502  0.00000000000E+00  0.00000000000E+00  0.35304902811E+03  0.35304902811E+03  0.00000000000E+00 0.  1.
          1   -1    0    0  502    0 -0.00000000000E+00 -0.00000000000E+00 -0.50468845997E+03  0.50468845997E+03  0.00000000000E+00 0.  1.
         25    1    1    2    0    0 -0.27251316619E+03 -0.11151689477E+03  0.19907599659E+03  0.37677008372E+03  0.12500000000E+03 0.  0.
         21    1    1    2  503  501  0.82993976523E+02  0.33231755472E+02 -0.19633886659E+02  0.91530537070E+02  0.00000000000E+00 0.  1.
          1    1    1    2  501    0  0.18951918967E+03  0.78285139303E+02 -0.33108154179E+03  0.38943686728E+03  0.00000000000E+00 0.  1.
<mgrwt>
<rscale>  4 0.30368124E+03</rscale>
<asrwt>0</asrwt>
<pdfrwt beam="1">  1       21 0.54315236E-01 0.30368124E+03</pdfrwt>
<pdfrwt beam="2">  1        1 0.77644378E-01 0.30368124E+03</pdfrwt>
<totfact> 0.15133875E+03</totfact>
</mgrwt>
</event>
<event>
 5    0  0.4115852E+000  0.2564216E+03  0.7546771E-02  0.1109312E+00
         21   -1    0    0  501  502  0.00000000000E+00  0.00000000000E+00  0.59436281440E+02  0.59436281440E+02  0.00000000000E+00 0.  1.
         -1   -1    0    0    0  501 -0.00000000000E+00 -0.00000000000E+00 -0.15887390213E+04  0.15887390213E+04  0.00000000000E+00 0.  1.
         25    1    1    2    0    0  0.16967866241E+03  0.13368597750E+03 -0.60329791066E+03  0.65288295893E+03  0.12500000000E+03 0.  0.
         21    1    1    2  503  502  0.19972766104E+02 -0.63146683804E+01  0.15760357358E+02  0.26214028432E+02  0.00000000000E+00 0. -1.
         -1    1    1    2    0  503 -0.18965142851E+03 -0.12737130912E+03 -0.94176518658E+03  0.96907831540E+03  0.00000000000E+00 0.  1.
<mgrwt>
<rscale>  4 0.25642160E+03</rscale>
<asrwt>0</asrwt>
<pdfrwt beam="1">  1       21 0.91440430E-02 0.25642160E+03</pdfrwt>
<pdfrwt beam="2">  1       -1 0.24442140E+00 0.25642160E+03</pdfrwt>
<totfact> 0.76425889E+02</totfact>
</mgrwt>
</event>
<event>
 5    0  0.4115852E+000  0.2675435E+03  0.7546771E-02  0.1102694E+00
         -4   -1    0    0    0  501 -0.00000000000E+00  0.00000000000E+00  0.63869012164E+03  0.63869012164E+03  0.00000000000E+00 0.  1.
         21   -1    0    0  501  502  0.00000000000E+00 -0.00000000000E+00 -0.17293300816E+03  0.17293300816E+03  0.00000000000E+00 0.  1.
         25    1    1    2    0    0  0.38230478854E+02  0.24475796441E+03  0.36575546854E+03  0.45909704140E+03  0.12500000000E+03 0.  0.
         21    1    1    2  503  502  0.10475210869E+02 -0.26700928439E+02 -0.67460337286E+02  0.73304616014E+02  0.00000000000E+00 0.  1.
         -4    1    1    2    0  503 -0.48705689723E+02 -0.21805703597E+03  0.16746198223E+03  0.27922147239E+03  0.00000000000E+00 0.  1.
<mgrwt>
<rscale>  4 0.26754350E+03</rscale>
<asrwt>0</asrwt>
<pdfrwt beam="1">  1       21 0.26605078E-01 0.26754350E+03</pdfrwt>
<pdfrwt beam="2">  1       -4 0.98260018E-01 0.26754350E+03</pdfrwt>
<totfact> 0.50146631E+02</totfact>
</mgrwt>
</event>
<event>
 5    0  0.4115852E+000  0.2449755E+03  0.7546771E-02  0.1116522E+00
         21   -1    0    0  501  502  0.00000000000E+00  0.00000000000E+00  0.16473151158E+03  0.16473151158E+03  0.00000000000E+00 0. -1.
         -3   -1    0    0    0  501 -0.00000000000E+00 -0.00000000000E+00 -0.41426788685E+03  0.41426788685E+03  0.00000000000E+00 0. -1.
         25    1    1    2    0    0  0.76208217841E+02  0.19036864515E+03 -0.11092123572E+03  0.26453059191E+03  0.12500000000E+03 0.  0.
         21    1    1    2  503  502  0.47825342300E+02 -0.12108018087E+02  0.11263537222E+02  0.50603702818E+02  0.00000000000E+00 0. -1.
         -3    1    1    2    0  503 -0.12403356014E+03 -0.17826062706E+03 -0.14987867678E+03  0.26386510371E+03  0.00000000000E+00 0. -1.
<mgrwt>
<rscale>  4 0.24497547E+03</rscale>
<asrwt>0</asrwt>
<pdfrwt beam="1">  1       21 0.25343310E-01 0.24497547E+03</pdfrwt>
<pdfrwt beam="2">  1       -3 0.63733520E-01 0.24497547E+03</pdfrwt>
<totfact> 0.17650740E+03</totfact>
</mgrwt>
</event>
<event>
 5    0  0.4115852E+000  0.2933307E+03  0.7546771E-02  0.1088623E+00
          2   -1    0    0  502    0 -0.00000000000E+00  0.00000000000E+00  0.10330427058E+04  0.10330427058E+04  0.00000000000E+00 0.  1.
         21   -1    0    0  503  502  0.00000000000E+00 -0.00000000000E+00 -0.10896529578E+04  0.10896529578E+04  0.00000000000E+00 0. -1.
         25    1    1    2    0    0  0.43634988670E+02  0.28756441914E+03 -0.17110937165E+03  0.35986209089E+03  0.12500000000E+03 0.  0.
         21    1    1    2  503  501 -0.59659863438E+01 -0.26683002212E+02 -0.80542621249E+03  0.80589016582E+03  0.00000000000E+00 0. -1.
          2    1    1    2  501    0 -0.37669002327E+02 -0.26088141693E+03  0.91992533208E+03  0.95694340692E+03  0.00000000000E+00 0.  1.
<mgrwt>
<rscale>  4 0.29333070E+03</rscale>
<asrwt>0</asrwt>
<pdfrwt beam="1">  1       21 0.16763892E+00 0.29333070E+03</pdfrwt>
<pdfrwt beam="2">  1        2 0.15892965E+00 0.29333070E+03</pdfrwt>
<totfact> 0.65009100E+01</totfact>
</mgrwt>
</event>
<event>
 5    0  0.4115852E+000  0.2761016E+03  0.7546771E-02  0.1097837E+00
          1   -1    0    0  502    0 -0.00000000000E+00  0.00000000000E+00  0.88745595050E+03  0.88745595050E+03  0.00000000000E+00 0. -1.
         21   -1    0    0  503  502  0.00000000000E+00 -0.00000000000E+00 -0.20710339948E+03  0.20710339948E+03  0.00000000000E+00 0.  1.
         25    1    1    2    0    0  0.30817396360E+03 -0.11762544804E+03  0.19446258345E+03  0.40279974457E+03  0.12500000000E+03 0.  0.
         21    1    1    2  503  501 -0.77881126991E+02  0.12782788418E+03 -0.46488580082E+01  0.14975663523E+03  0.00000000000E+00 0.  1.
          1    1    1    2  501    0 -0.23029283660E+03 -0.10202436133E+02  0.49053882557E+03  0.54200297019E+03  0.00000000000E+00 0. -1.
<mgrwt>
<rscale>  4 0.27610156E+03</rscale>
<asrwt>0</asrwt>
<pdfrwt beam="1">  1       21 0.31862062E-01 0.27610156E+03</pdfrwt>
<pdfrwt beam="2">  1        1 0.13653168E+00 0.27610156E+03</pdfrwt>
<totfact> 0.20045212E+03</totfact>
</mgrwt>
</event>
<event>
 5    0  0.4115852E+000  0.3423987E+03  0.7546771E-02  0.1065779E+00
          1   -1    0    0  502    0 -0.00000000000E+00  0.00000000000E+00  0.40222092570E+03  0.40222092570E+03  0.00000000000E+00 0.  1.
         21   -1    0    0  503  502  0.00000000000E+00 -0.00000000000E+00 -0.69104368729E+03  0.69104368729E+03  0.00000000000E+00 0.  1.
         25    1    1    2    0    0 -0.86707184601E+02  0.28626346221E+03 -0.20332002451E+03  0.38266034289E+03  0.12500000000E+03 0.  0.
         21    1    1    2  503  501 -0.26312410495E+02  0.17986729307E+02 -0.31276509186E+03  0.31438490432E+03  0.00000000000E+00 0.  1.
          1    1    1    2  501    0  0.11301959510E+03 -0.30425019152E+03  0.22726235479E+03  0.39621936578E+03  0.00000000000E+00 0.  1.
<mgrwt>
<rscale>  4 0.34239873E+03</rscale>
<asrwt>0</asrwt>
<pdfrwt beam="1">  1       21 0.10631441E+00 0.34239873E+03</pdfrwt>
<pdfrwt beam="2">  1        1 0.61880142E-01 0.34239873E+03</pdfrwt>
<totfact> 0.43687887E+02</totfact>
</mgrwt>
</event>
<event>
 5    0  0.4115852E+000  0.3949704E+03  0.7546771E-02  0.1045535E+00
          2   -1    0    0  502    0 -0.00000000000E+00  0.00000000000E+00  0.29006965426E+04  0.29006965426E+04  0.00000000000E+00 0.  1.
         21   -1    0    0  503  502  0.00000000000E+00 -0.00000000000E+00 -0.20089627311E+03  0.20089627311E+03  0.00000000000E+00 0.  1.
         25    1    1    2    0    0  0.22074265751E+02  0.39325964473E+03  0.38258080166E+03  0.56314606558E+03  0.12500000000E+03 0.  0.
         21    1    1    2  503  501  0.99235921392E+01 -0.22975304528E+02 -0.94755411475E+02  0.98004746328E+02  0.00000000000E+00 0.  1.
          2    1    1    2  501    0 -0.31997857890E+02 -0.37028434020E+03  0.24119748793E+04  0.24404420038E+04  0.00000000000E+00 0.  1.
<mgrwt>
<rscale>  4 0.39497044E+03</rscale>
<asrwt>0</asrwt>
<pdfrwt beam="1">  1       21 0.30907121E-01 0.39497044E+03</pdfrwt>
<pdfrwt beam="2">  1        2 0.44626098E+00 0.39497044E+03</pdfrwt>
<totfact> 0.27719429E+02</totfact>
</mgrwt>
</event>
<event>
 5    0  0.4115852E+000  0.3797423E+03  0.7546771E-02  0.1051029E+00
         21   -1    0    0  503  502  0.00000000000E+00  0.00000000000E+00  0.14693762011E+03  0.14693762011E+03  0.00000000000E+00 0. -1.
          1   -1    0    0  502    0 -0.00000000000E+00 -0.00000000000E+00 -0.18217244220E+04  0.18217244220E+04  0.00000000000E+00 0. -1.
         25    1    1    2    0    0 -0.31292266301E+03 -0.12359455594E+03 -0.23991046181E+03  0.43171545834E+03  0.12500000000E+03 0.  0.
         21    1    1    2  503  501 -0.10836418698E+03 -0.60924418792E+01 -0.24165808557E+03  0.26491233491E+03  0.00000000000E+00 0. -1.
          1    1    1    2  501    0  0.42128684998E+03  0.12968699782E+03 -0.11932182545E+04  0.12720342488E+04  0.00000000000E+00 0. -1.
<mgrwt>
<rscale>  4 0.37974227E+03</rscale>
<asrwt>0</asrwt>
<pdfrwt beam="1">  1       21 0.22605787E-01 0.37974227E+03</pdfrwt>
<pdfrwt beam="2">  1        1 0.28026530E+00 0.37974227E+03</pdfrwt>
<totfact> 0.84498391E+02</totfact>
</mgrwt>
</event>
<event>
 5    0  0.4115852E+000  0.2523152E+03  0.7546771E-02  0.1111850E+00
          2   -1    0    0  502    0 -0.00000000000E+00  0.00000000000E+00  0.22291334646E+04  0.22291334646E+04  0.00000000000E+00 0.  1.
         21   -1    0    0  503  502  0.00000000000E+00 -0.00000000000E+00 -0.34829074171E+02  0.34829074171E+02  0.00000000000E+00 0.  1.
         25    1    1    2    0    0  0.17340965058E+03 -0.13712302756E+03  0.89781721880E+03  0.93304575985E+03  0.12500000000E+03 0.  0.
         21    1    1    2  503  501  0.31295245650E+02  0.53138343675E+02  0.13332579260E+03  0.14689738915E+03  0.00000000000E+00 0. -1.
          2    1    1    2  501    0 -0.20470489623E+03  0.83984683882E+02  0.11631613791E+04  0.11840193898E+04  0.00000000000E+00 0.  1.
<mgrwt>
<rscale>  4 0.25231522E+03</rscale>
<asrwt>0</asrwt>
<pdfrwt beam="1">  1       21 0.53583208E-02 0.25231522E+03</pdfrwt>
<pdfrwt beam="2">  1        2 0.34294350E+00 0.25231522E+03</pdfrwt>
<totfact> 0.17128331E+04</totfact>
</mgrwt>
</event>
<event>
 5    0  0.4115852E+000  0.2424779E+03  0.7546771E-02  0.1118153E+00
         21   -1    0    0  503  502  0.00000000000E+00  0.00000000000E+00  0.45255054887E+02  0.45255054887E+02  0.00000000000E+00 0.  1.
          2   -1    0    0  502    0 -0.00000000000E+00 -0.00000000000E+00 -0.20688501822E+04  0.20688501822E+04  0.00000000000E+00 0.  1.
         25    1    1    2    0    0  0.16007075167E+03  0.14343061105E+03 -0.10029860607E+04  0.10333445813E+04  0.12500000000E+03 0.  0.
         21    1    1    2  503  501 -0.49085546250E+02 -0.21243563938E+03 -0.53125581792E+03  0.57425694232E+03  0.00000000000E+00 0.  1.
          2    1    1    2  501    0 -0.11098520542E+03  0.69005028336E+02 -0.48935324865E+03  0.50650371344E+03  0.00000000000E+00 0.  1.
<mgrwt>
<rscale>  4 0.24247794E+03</rscale>
<asrwt>0</asrwt>
<pdfrwt beam="1">  1       21 0.69623175E-02 0.24247794E+03</pdfrwt>
<pdfrwt beam="2">  1        2 0.31828458E+00 0.24247794E+03</pdfrwt>
<totfact> 0.13299755E+04</totfact>
</mgrwt>
</event>
<event>
 5    0  0.4115852E+000  0.3365757E+03  0.7546771E-02  0.1068264E+00
         21   -1    0    0  503  502  0.00000000000E+00  0.00000000000E+00  0.18793551551E+04  0.18793551551E+04  0.00000000000E+00 0. -1.
          1   -1    0    0  502    0 -0.00000000000E+00 -0.00000000000E+00 -0.87786143751E+03  0.87786143751E+03  0.00000000000E+00 0. -1.
         25    1    1    2    0    0 -0.28711364524E+03 -0.32676764888E+03  0.10014595875E+04  0.10989802760E+04  0.12500000000E+03 0.  0.
         21    1    1    2  503  501  0.13756054569E+03  0.55936373313E+02  0.79314114225E+03  0.80692295364E+03  0.00000000000E+00 0. -1.
          1    1    1    2  501    0  0.14955309954E+03  0.27083127557E+03 -0.79310701210E+03  0.85131336302E+03  0.00000000000E+00 0. -1.
<mgrwt>
<rscale>  4 0.33657566E+03</rscale>
<asrwt>0</asrwt>
<pdfrwt beam="1">  1       21 0.28913156E+00 0.33657566E+03</pdfrwt>
<pdfrwt beam="2">  1        1 0.13505561E+00 0.33657566E+03</pdfrwt>
<totfact> 0.74790722E+00</totfact>
</mgrwt>
</event>
<event>
 5    0  0.4115852E+000  0.2577890E+03  0.7546771E-02  0.1108479E+00
         21   -1    0    0  503  502  0.00000000000E+00  0.00000000000E+00  0.19053598581E+03  0.19053598581E+03  0.00000000000E+00 0.  1.
          1   -1    0    0  502    0 -0.00000000000E+00 -0.00000000000E+00 -0.10217058268E+04  0.10217058268E+04  0.00000000000E+00 0.  1.
         25    1    1    2    0    0  0.12008628942E+03  0.16904560941E+03 -0.61036302304E+02  0.24969494421E+03  0.12500000000E+03 0.  0.
         21    1    1    2  503  501 -0.17608299038E+03  0.66260414697E+02 -0.38591465625E+02  0.19205458411E+03  0.00000000000E+00 0.  1.
          1    1    1    2  501    0  0.55996700965E+02 -0.23530602410E+03 -0.73154207307E+03  0.77049228430E+03  0.00000000000E+00 0.  1.
<mgrwt>
<rscale>  4 0.25778901E+03</rscale>
<asrwt>0</asrwt>
<pdfrwt beam="1">  1       21 0.29313229E-01 0.25778901E+03</pdfrwt>
<pdfrwt beam="2">  1        1 0.15718551E+00 0.25778901E+03</pdfrwt>
<totfact> 0.18760610E+03</totfact>
</mgrwt>
</event>
<event>
 5    0  0.4115852E+000  0.2411019E+03  0.7546771E-02  0.1119061E+00
         21   -1    0    0  501  502  0.00000000000E+00  0.00000000000E+00  0.47655251597E+03  0.47655251597E+03  0.00000000000E+00 0. -1.
         -2   -1    0    0    0  501 -0.00000000000E+00 -0.00000000000E+00 -0.56381802641E+03  0.56381802641E+03  0.00000000000E+00 0. -1.
         25    1    1    2    0    0  0.29249980275E+03  0.13968993131E+03 -0.20458877211E+03  0.40317611188E+03  0.12500000000E+03 0.  0.
         21    1    1    2  503  502 -0.16330793094E+03 -0.26157048413E+02  0.32673419782E+03  0.36620883047E+03  0.00000000000E+00 0. -1.
         -2    1    1    2    0  503 -0.12919187181E+03 -0.11353288290E+03 -0.20941093616E+03  0.27098560003E+03  0.00000000000E+00 0. -1.
<mgrwt>
<rscale>  4 0.24110191E+03</rscale>
<asrwt>0</asrwt>
<pdfrwt beam="1">  1       21 0.73315771E-01 0.24110191E+03</pdfrwt>
<pdfrwt beam="2">  1       -2 0.86741235E-01 0.24110191E+03</pdfrwt>
<totfact> 0.15887386E+02</totfact>
</mgrwt>
</event>
<event>
 5    0  0.4115852E+000  0.2552580E+03  0.7546771E-02  0.1110026E+00
          1   -1    0    0  502    0 -0.00000000000E+00  0.00000000000E+00  0.28728005521E+04  0.28728005521E+04  0.00000000000E+00 0.  1.
         21   -1    0    0  503  502  0.00000000000E+00 -0.00000000000E+00 -0.68686059924E+02  0.68686059924E+02  0.00000000000E+00 0.  1.
         25    1    1    2    0    0  0.21884404299E+03  0.10730587835E+03  0.17612693006E+04  0.17824426543E+04  0.12500000000E+03 0.  0.
         21    1    1    2  503  501 -0.28621984503E+02 -0.33884305722E+02 -0.38444710873E+02  0.58697188734E+02  0.00000000000E+00 0.  1.
          1    1    1    2  501    0 -0.19022205848E+03 -0.73421572626E+02  0.10812899025E+04  0.11003467690E+04  0.00000000000E+00 0.  1.
<mgrwt>
<rscale>  4 0.25525804E+03</rscale>
<asrwt>0</asrwt>
<pdfrwt beam="1">  1       21 0.10567088E-01 0.25525804E+03</pdfrwt>
<pdfrwt beam="2">  1        1 0.44196922E+00 0.25525804E+03</pdfrwt>
<totfact> 0.72712589E+02</totfact>
</mgrwt>
</event>
<event>
 5    0  0.4115852E+000  0.2533194E+03  0.7546771E-02  0.1111225E+00
         21   -1    0    0  503  502  0.00000000000E+00  0.00000000000E+00  0.19291501054E+03  0.19291501054E+03  0.00000000000E+00 0.  1.
          2   -1    0    0  502    0 -0.00000000000E+00 -0.00000000000E+00 -0.58218263656E+03  0.58218263656E+03  0.00000000000E+00 0.  1.
         25    1    1    2    0    0 -0.16503837275E+03  0.14597286111E+03 -0.46597018098E+03  0.53037623460E+03  0.12500000000E+03 0.  0.
         21    1    1    2  503  501  0.87443006479E+01 -0.37686732667E+02 -0.24447669243E+01  0.38765055117E+02  0.00000000000E+00 0. -1.
          2    1    1    2  501    0  0.15629407210E+03 -0.10828612844E+03  0.79147321889E+02  0.20595635739E+03  0.00000000000E+00 0.  1.
<mgrwt>
<rscale>  4 0.25331944E+03</rscale>
<asrwt>0</asrwt>
<pdfrwt beam="1">  1       21 0.29679233E-01 0.25331944E+03</pdfrwt>
<pdfrwt beam="2">  1        2 0.89566559E-01 0.25331944E+03</pdfrwt>
<totfact> 0.70274586E+03</totfact>
</mgrwt>
</event>
<event>
 5    0  0.4115852E+000  0.2092807E+03  0.7546771E-02  0.1142137E+00
          2   -1    0    0  502    0 -0.00000000000E+00  0.00000000000E+00  0.39228245591E+04  0.39228245591E+04  0.00000000000E+00 0. -1.
         21   -1    0    0  503  502  0.00000000000E+00 -0.00000000000E+00 -0.26395366112E+03  0.26395366112E+03  0.00000000000E+00 0.  1.
         25    1    1    2    0    0 -0.16271397686E+03  0.13703906267E+03 -0.93228683539E+02  0.26376529415E+03  0.12500000000E+03 0.  0.
         21    1    1    2  503  501  0.17252958004E+01 -0.90525115630E+02 -0.59105256726E+02  0.10812587377E+03  0.00000000000E+00 0.  1.
          2    1    1    2  501    0  0.16098868106E+03 -0.46513947039E+02  0.38112048383E+04  0.38148870523E+04  0.00000000000E+00 0. -1.
<mgrwt>
<rscale>  4 0.20928068E+03</rscale>
<asrwt>0</asrwt>
<pdfrwt beam="1">  1       21 0.40608258E-01 0.20928068E+03</pdfrwt>
<pdfrwt beam="2">  1        2 0.60351143E+00 0.20928068E+03</pdfrwt>
<totfact> 0.39238987E+01</totfact>
</mgrwt>
</event>
<event>
 5    0  0.4115852E+000  0.3258609E+03  0.7546771E-02  0.1072983E+00
         21   -1    0    0  503  502  0.00000000000E+00  0.00000000000E+00  0.63028218092E+03  0.63028218092E+03  0.00000000000E+00 0. -1.
          2   -1    0    0  502    0 -0.00000000000E+00 -0.00000000000E+00 -0.74282251472E+03  0.74282251472E+03  0.00000000000E+00 0. -1.
         25    1    1    2    0    0 -0.27795632323E+03  0.67943982067E+02 -0.35102673744E+03  0.46980940042E+03  0.12500000000E+03 0.  0.
         21    1    1    2  503  501 -0.51741736538E+02 -0.91668367847E+02  0.48159956478E+03  0.49296900284E+03  0.00000000000E+00 0. -1.
          2    1    1    2  501    0  0.32969805977E+03  0.23724385780E+02 -0.24311316115E+03  0.41032629238E+03  0.00000000000E+00 0. -1.
<mgrwt>
<rscale>  4 0.32586092E+03</rscale>
<asrwt>0</asrwt>
<pdfrwt beam="1">  1       21 0.96966490E-01 0.32586092E+03</pdfrwt>
<pdfrwt beam="2">  1        2 0.11428039E+00 0.32586092E+03</pdfrwt>
<totfact> 0.40471468E+02</totfact>
</mgrwt>
</event>
<event>
 5    0  0.4115852E+000  0.2405059E+03  0.7546771E-02  0.1119456E+00
         21   -1    0    0  503  502  0.00000000000E+00  0.00000000000E+00  0.80454558640E+02  0.80454558640E+02  0.00000000000E+00 0. -1.
          1   -1    0    0  502    0 -0.00000000000E+00 -0.00000000000E+00 -0.11332105452E+04  0.11332105452E+04  0.00000000000E+00 0. -1.
         25    1    1    2    0    0 -0.17806656609E+03 -0.14282277749E+03 -0.22878480022E+03  0.34651628034E+03  0.12500000000E+03 0.  0.
         21    1    1    2  503  501  0.18733702726E+02  0.20703327130E+02 -0.11419529002E+02  0.30165957878E+02  0.00000000000E+00 0.  1.
          1    1    1    2  501    0  0.15933286337E+03  0.12211945036E+03 -0.81255165737E+03  0.83698286565E+03  0.00000000000E+00 0. -1.
<mgrwt>
<rscale>  4 0.24050585E+03</rscale>
<asrwt>0</asrwt>
<pdfrwt beam="1">  1       21 0.12377625E-01 0.24050585E+03</pdfrwt>
<pdfrwt beam="2">  1        1 0.17434008E+00 0.24050585E+03</pdfrwt>
<totfact> 0.78739849E+03</totfact>
</mgrwt>
</event>
<event>
 5    0  0.4115852E+000  0.2328193E+03  0.7546771E-02  0.1124671E+00
         21   -1    0    0  503  502  0.00000000000E+00  0.00000000000E+00  0.55422745664E+02  0.55422745664E+02  0.00000000000E+00 0. -1.
          1   -1    0    0  502    0 -0.00000000000E+00 -0.00000000000E+00 -0.15499911216E+04  0.15499911216E+04  0.00000000000E+00 0. -1.
         25    1    1    2    0    0  0.22089956256E+03  0.42726277471E+02 -0.48333967148E+03  0.54759874867E+03  0.12500000000E+03 0.  0.
         21    1    1    2  503  501 -0.37408207833E+02  0.10015935212E+01 -0.96734697946E+01  0.38651691046E+02  0.00000000000E+00 0.  1.
          1    1    1    2  501    0 -0.18349135473E+03 -0.43727870992E+02 -0.10015552347E+04  0.10191634275E+04  0.00000000000E+00 0. -1.
<mgrwt>
<rscale>  4 0.23281931E+03</rscale>
<asrwt>0</asrwt>
<pdfrwt beam="1">  1       21 0.85265769E-02 0.23281931E+03</pdfrwt>
<pdfrwt beam="2">  1        1 0.23846016E+00 0.23281931E+03</pdfrwt>
<totfact> 0.79797669E+03</totfact>
</mgrwt>
</event>
<event>
 5    0  0.4115852E+000  0.4763995E+03  0.7546771E-02  0.1020129E+00
          2   -1    0    0  502    0 -0.00000000000E+00  0.00000000000E+00  0.29869479936E+04  0.29869479936E+04  0.00000000000E+00 0. -1.
         21   -1    0    0  503  502  0.00000000000E+00 -0.00000000000E+00 -0.94085071579E+02  0.94085071579E+02  0.00000000000E+00 0. -1.
         25    1    1    2    0    0  0.43348466812E+03 -0.25621162230E+02  0.82744277355E+03  0.94278944889E+03  0.12500000000E+03 0.  0.
         21    1    1    2  503  501  0.33785285953E+02 -0.44953692329E+02  0.82862069595E+02  0.10014191220E+03  0.00000000000E+00 0. -1.
          2    1    1    2  501    0 -0.46726995408E+03  0.70574854559E+02  0.19825580789E+04  0.20381017041E+04  0.00000000000E+00 0. -1.
<mgrwt>
<rscale>  4 0.47639951E+03</rscale>
<asrwt>0</asrwt>
<pdfrwt beam="1">  1       21 0.14474629E-01 0.47639951E+03</pdfrwt>
<pdfrwt beam="2">  1        2 0.45953039E+00 0.47639951E+03</pdfrwt>
<totfact> 0.10210568E+03</totfact>
</mgrwt>
</event>
<event>
 5    0  0.4115852E+000  0.3525987E+03  0.7546771E-02  0.1061553E+00
         21   -1    0    0  503  502  0.00000000000E+00  0.00000000000E+00  0.52816103599E+03  0.52816103599E+03  0.00000000000E+00 0. -1.
          2   -1    0    0  502    0 -0.00000000000E+00 -0.00000000000E+00 -0.88471885146E+03  0.88471885146E+03  0.00000000000E+00 0. -1.
         25    1    1    2    0    0  0.44664353960E+03 -0.56502646302E+01  0.19086050595E+03  0.50157263650E+03  0.12500000000E+03 0.  0.
         21    1    1    2  503  501 -0.13648351392E+03 -0.65568242189E+02  0.10578459770E+03  0.18470875742E+03  0.00000000000E+00 0. -1.
          2    1    1    2  501    0 -0.31016002568E+03  0.71218506819E+02 -0.65320291913E+03  0.72659849353E+03  0.00000000000E+00 0. -1.
<mgrwt>
<rscale>  4 0.35259867E+03</rscale>
<asrwt>0</asrwt>
<pdfrwt beam="1">  1       21 0.81255544E-01 0.35259867E+03</pdfrwt>
<pdfrwt beam="2">  1        2 0.13611059E+00 0.35259867E+03</pdfrwt>
<totfact> 0.48320923E+02</totfact>
</mgrwt>
</event>
<event>
 5    0  0.4115852E+000  0.3559067E+03  0.7546771E-02  0.1060216E+00
         21   -1    0    0  503  502  0.00000000000E+00  0.00000000000E+00  0.16559452633E+03  0.16559452633E+03  0.00000000000E+00 0.  1.
          1   -1    0    0  502    0 -0.00000000000E+00 -0.00000000000E+00 -0.10300412276E+04  0.10300412276E+04  0.00000000000E+00 0. -1.
         25    1    1    2    0    0  0.54427456482E+02  0.34651855962E+03 -0.23144821553E+03  0.43844125793E+03  0.12500000000E+03 0.  0.
         21    1    1    2  503  501  0.68462700593E+02 -0.42045908541E+02 -0.75825196541E+02  0.11047379883E+03  0.00000000000E+00 0. -1.
          1    1    1    2  501    0 -0.12289015708E+03 -0.30447265108E+03 -0.55717328920E+03  0.64672069718E+03  0.00000000000E+00 0. -1.
<mgrwt>
<rscale>  4 0.35590672E+03</rscale>
<asrwt>0</asrwt>
<pdfrwt beam="1">  1       21 0.25476081E-01 0.35590672E+03</pdfrwt>
<pdfrwt beam="2">  1        1 0.15846788E+00 0.35590672E+03</pdfrwt>
<totfact> 0.23567584E+03</totfact>
</mgrwt>
</event>
<event>
 5    0  0.4115852E+000  0.2364586E+03  0.7546771E-02  0.1122175E+00
          3   -1    0    0  502    0 -0.00000000000E+00  0.00000000000E+00  0.13262771668E+04  0.13262771668E+04  0.00000000000E+00 0. -1.
         21   -1    0    0  503  502  0.00000000000E+00 -0.00000000000E+00 -0.17041870335E+03  0.17041870335E+03  0.00000000000E+00 0. -1.
         25    1    1    2    0    0  0.18970663105E+03  0.13969719260E+03 -0.86088521765E+01  0.26683894735E+03  0.12500000000E+03 0.  0.
         21    1    1    2  503  501 -0.28773188846E+02 -0.23312219985E+02 -0.10285546459E+02  0.38433689166E+02  0.00000000000E+00 0.  1.
          3    1    1    2  501    0 -0.16093344220E+03 -0.11638497262E+03  0.11747528621E+04  0.11914232336E+04  0.00000000000E+00 0. -1.
<mgrwt>
<rscale>  4 0.23645862E+03</rscale>
<asrwt>0</asrwt>
<pdfrwt beam="1">  1       21 0.26218263E-01 0.23645862E+03</pdfrwt>
<pdfrwt beam="2">  1        3 0.20404263E+00 0.23645862E+03</pdfrwt>
<totfact> 0.10270374E+02</totfact>
</mgrwt>
</event>
<event>
 5    0  0.4115852E+000  0.1941438E+03  0.7546771E-02  0.1154776E+00
          2   -1    0    0  502    0 -0.00000000000E+00  0.00000000000E+00  0.64376878899E+03  0.64376878899E+03  0.00000000000E+00 0.  1.
         21   -1    0    0  503  502  0.00000000000E+00 -0.00000000000E+00 -0.17310027937E+03  0.17310027937E+03  0.00000000000E+00 0. -1.
         25    1    1    2    0    0  0.93176750651E+02  0.18089947875E+03  0.95728750791E+01  0.23900453597E+03  0.12500000000E+03 0.  0.
         21    1    1    2  503  501  0.78133693206E+01 -0.77981491783E+02 -0.15538477311E+02  0.79897472288E+02  0.00000000000E+00 0.  1.
          2    1    1    2  501    0 -0.10099011997E+03 -0.10291798697E+03  0.47663411185E+03  0.49796706011E+03  0.00000000000E+00 0.  1.
<mgrwt>
<rscale>  4 0.19414384E+03</rscale>
<asrwt>0</asrwt>
<pdfrwt beam="1">  1       21 0.26630812E-01 0.19414384E+03</pdfrwt>
<pdfrwt beam="2">  1        2 0.99041351E-01 0.19414384E+03</pdfrwt>
<totfact> 0.78386924E+03</totfact>
</mgrwt>
</event>
<event>
 5    0  0.4115852E+000  0.3223432E+03  0.7546771E-02  0.1074576E+00
         21   -1    0    0  503  502  0.00000000000E+00  0.00000000000E+00  0.35295331494E+02  0.35295331494E+02  0.00000000000E+00 0.  1.
          2   -1    0    0  502    0 -0.00000000000E+00 -0.00000000000E+00 -0.40095305442E+04  0.40095305442E+04  0.00000000000E+00 0.  1.
         25    1    1    2    0    0 -0.30868116636E+03 -0.11657108488E+02 -0.14645938843E+04  0.15020253648E+04  0.12500000000E+03 0.  0.
         21    1    1    2  503  501  0.19251857887E+02 -0.28479471137E+02 -0.28900976334E+02  0.44910808737E+02  0.00000000000E+00 0.  1.
          2    1    1    2  501    0  0.28942930847E+03  0.40136579625E+02 -0.24807403521E+04  0.24978897021E+04  0.00000000000E+00 0.  1.
<mgrwt>
<rscale>  4 0.32234316E+03</rscale>
<asrwt>0</asrwt>
<pdfrwt beam="1">  1       21 0.54300537E-02 0.32234316E+03</pdfrwt>
<pdfrwt beam="2">  1        2 0.61685055E+00 0.32234316E+03</pdfrwt>
<totfact> 0.12681082E+03</totfact>
</mgrwt>
</event>
<event>
 5    0  0.4115852E+000  0.2343692E+03  0.7546771E-02  0.1123602E+00
          1   -1    0    0  502    0 -0.00000000000E+00  0.00000000000E+00  0.10202631201E+04  0.10202631201E+04  0.00000000000E+00 0.  1.
         21   -1    0    0  503  502  0.00000000000E+00 -0.00000000000E+00 -0.53943387705E+03  0.53943387705E+03  0.00000000000E+00 0. -1.
         25    1    1    2    0    0 -0.16885587112E+03  0.14266652847E+03 -0.47555366579E+03  0.53911254169E+03  0.12500000000E+03 0.  0.
         21    1    1    2  503  501  0.23620538902E+02 -0.83726893907E+01 -0.15039480913E+02  0.29227004153E+02  0.00000000000E+00 0. -1.
          1    1    1    2  501    0  0.14523533222E+03 -0.13429383908E+03  0.97142238979E+03  0.99135745134E+03  0.00000000000E+00 0.  1.
<mgrwt>
<rscale>  4 0.23436916E+03</rscale>
<asrwt>0</asrwt>
<pdfrwt beam="1">  1       21 0.82989827E-01 0.23436916E+03</pdfrwt>
<pdfrwt beam="2">  1        1 0.15696356E+00 0.23436916E+03</pdfrwt>
<totfact> 0.21320824E+02</totfact>
</mgrwt>
</event>
<event>
 5    0  0.4115852E+000  0.2687111E+03  0.7546771E-02  0.1102020E+00
          2   -1    0    0  502    0 -0.00000000000E+00  0.00000000000E+00  0.73025741741E+03  0.73025741741E+03  0.00000000000E+00 0. -1.
         21   -1    0    0  503  502  0.00000000000E+00 -0.00000000000E+00 -0.12426756166E+04  0.12426756166E+04  0.00000000000E+00 0.  1.
         25    1    1    2    0    0 -0.10484441605E+03 -0.21239861230E+03 -0.11724685137E+04  0.12026690890E+04  0.12500000000E+03 0.  0.
         21    1    1    2  503  501  0.22135687147E+02 -0.10666045528E+02 -0.30914349490E+02  0.39489874361E+02  0.00000000000E+00 0.  1.
          2    1    1    2  501    0  0.82708728906E+02  0.22306465783E+03  0.69096466400E+03  0.73077407063E+03  0.00000000000E+00 0. -1.
<mgrwt>
<rscale>  4 0.26871111E+03</rscale>
<asrwt>0</asrwt>
<pdfrwt beam="1">  1       21 0.19118087E+00 0.26871111E+03</pdfrwt>
<pdfrwt beam="2">  1        2 0.11234729E+00 0.26871111E+03</pdfrwt>
<totfact> 0.72052802E+01</totfact>
</mgrwt>
</event>
<event>
 5    0  0.4115852E+000  0.3865165E+03  0.7546771E-02  0.1048551E+00
          2   -1    0    0  502    0 -0.00000000000E+00  0.00000000000E+00  0.18367594237E+04  0.18367594237E+04  0.00000000000E+00 0.  1.
         21   -1    0    0  503  502  0.00000000000E+00 -0.00000000000E+00 -0.22374737599E+03  0.22374737599E+03  0.00000000000E+00 0.  1.
         25    1    1    2    0    0  0.32516306141E+03  0.14077249096E+03  0.24021296819E+03  0.44595423623E+03  0.12500000000E+03 0.  0.
         21    1    1    2  503  501 -0.14479322617E+02  0.58587332544E+02 -0.88628126640E+02  0.10722439624E+03  0.00000000000E+00 0. -1.
          2    1    1    2  501    0 -0.31068373880E+03 -0.19935982351E+03  0.14614272062E+04  0.15073281672E+04  0.00000000000E+00 0.  1.
<mgrwt>
<rscale>  4 0.38651652E+03</rscale>
<asrwt>0</asrwt>
<pdfrwt beam="1">  1       21 0.34422674E-01 0.38651652E+03</pdfrwt>
<pdfrwt beam="2">  1        2 0.28257836E+00 0.38651652E+03</pdfrwt>
<totfact> 0.86622795E+02</totfact>
</mgrwt>
</event>
<event>
 5    0  0.4115852E+000  0.2716840E+03  0.7546771E-02  0.1100320E+00
          2   -1    0    0  502    0 -0.00000000000E+00  0.00000000000E+00  0.52632425784E+03  0.52632425784E+03  0.00000000000E+00 0. -1.
         21   -1    0    0  503  502  0.00000000000E+00 -0.00000000000E+00 -0.66762669396E+03  0.66762669396E+03  0.00000000000E+00 0. -1.
         25    1    1    2    0    0  0.10888410199E+03  0.25001256167E+03 -0.15823993717E+03  0.33915616813E+03  0.12500000000E+03 0.  0.
         21    1    1    2  503  501 -0.31251891272E+02 -0.25857408872E+02 -0.38550950625E+03  0.38763754425E+03  0.00000000000E+00 0. -1.
          2    1    1    2  501    0 -0.77632210718E+02 -0.22415515280E+03  0.40244700730E+03  0.46715723943E+03  0.00000000000E+00 0. -1.
<mgrwt>
<rscale>  4 0.27168400E+03</rscale>
<asrwt>0</asrwt>
<pdfrwt beam="1">  1       21 0.10271180E+00 0.27168400E+03</pdfrwt>
<pdfrwt beam="2">  1        2 0.80972962E-01 0.27168400E+03</pdfrwt>
<totfact> 0.54316220E+02</totfact>
</mgrwt>
</event>
<event>
 5    0  0.4115852E+000  0.2133850E+03  0.7546771E-02  0.1138913E+00
         -1   -1    0    0    0  501 -0.00000000000E+00  0.00000000000E+00  0.12218648377E+04  0.12218648377E+04  0.00000000000E+00 0. -1.
         21   -1    0    0  501  502  0.00000000000E+00 -0.00000000000E+00 -0.24080965090E+03  0.24080965090E+03  0.00000000000E+00 0.  1.
         25    1    1    2    0    0 -0.12476425902E+02  0.20885681913E+03  0.16370564500E+03  0.29360069875E+03  0.12500000000E+03 0.  0.
         21    1    1    2  503  502  0.44132811790E+02 -0.42334501142E+02 -0.16304357850E+03  0.17413535986E+03  0.00000000000E+00 0.  1.
         -1    1    1    2    0  503 -0.31656385887E+02 -0.16652231798E+03  0.98039312031E+03  0.99493843001E+03  0.00000000000E+00 0. -1.
<mgrwt>
<rscale>  4 0.21338503E+03</rscale>
<asrwt>0</asrwt>
<pdfrwt beam="1">  1       21 0.37047639E-01 0.21338503E+03</pdfrwt>
<pdfrwt beam="2">  1       -1 0.18797920E+00 0.21338503E+03</pdfrwt>
<totfact> 0.13294273E+02</totfact>
</mgrwt>
</event>
<event>
 5    0  0.4115852E+000  0.3123597E+03  0.7546771E-02  0.1079220E+00
         21   -1    0    0  503  502  0.00000000000E+00  0.00000000000E+00  0.63705870472E+03  0.63705870472E+03  0.00000000000E+00 0. -1.
          2   -1    0    0  502    0 -0.00000000000E+00 -0.00000000000E+00 -0.31751106124E+03  0.31751106124E+03  0.00000000000E+00 0. -1.
         25    1    1    2    0    0  0.30787896397E+03 -0.67690354742E+02  0.39914443923E+03  0.52374872215E+03  0.12500000000E+03 0.  0.
         21    1    1    2  503  501 -0.29814400796E+02  0.24489733077E+02  0.93014009915E+02  0.10069881609E+03  0.00000000000E+00 0. -1.
          2    1    1    2  501    0 -0.27806456317E+03  0.43200621665E+02 -0.17261080567E+03  0.33012222773E+03  0.00000000000E+00 0. -1.
<mgrwt>
<rscale>  4 0.31235973E+03</rscale>
<asrwt>0</asrwt>
<pdfrwt beam="1">  1       21 0.98009031E-01 0.31235973E+03</pdfrwt>
<pdfrwt beam="2">  1        2 0.48847856E-01 0.31235973E+03</pdfrwt>
<totfact> 0.10452074E+03</totfact>
</mgrwt>
</event>
<event>
 5    0  0.4115852E+000  0.2897605E+03  0.7546771E-02  0.1090474E+00
          1   -1    0    0  502    0 -0.00000000000E+00  0.00000000000E+00  0.10101190817E+04  0.10101190817E+04  0.00000000000E+00 0. -1.
         21   -1    0    0  503  502  0.00000000000E+00 -0.00000000000E+00 -0.36367115192E+03  0.36367115192E+03  0.00000000000E+00 0. -1.
         25    1    1    2    0    0 -0.54964985392E+01 -0.23375300568E+03  0.53640245200E+02  0.27050500008E+03  0.12500000000E+03 0.  0.
         21    1    1    2  503  501  0.29760230933E+02 -0.32170794411E+02 -0.23211720709E+03  0.23621818132E+03  0.00000000000E+00 0. -1.
          1    1    1    2  501    0 -0.24263732394E+02  0.26592380010E+03  0.82492489171E+03  0.86706705227E+03  0.00000000000E+00 0. -1.
<mgrwt>
<rscale>  4 0.28976052E+03</rscale>
<asrwt>0</asrwt>
<pdfrwt beam="1">  1       21 0.55949408E-01 0.28976052E+03</pdfrwt>
<pdfrwt beam="2">  1        1 0.15540293E+00 0.28976052E+03</pdfrwt>
<totfact> 0.50391684E+02</totfact>
</mgrwt>
</event>
<event>
 5    0  0.4115852E+000  0.2299414E+03  0.7546771E-02  0.1126681E+00
         -2   -1    0    0    0  501 -0.00000000000E+00  0.00000000000E+00  0.75505173187E+03  0.75505173187E+03  0.00000000000E+00 0. -1.
         21   -1    0    0  501  502  0.00000000000E+00 -0.00000000000E+00 -0.29506558229E+03  0.29506558229E+03  0.00000000000E+00 0. -1.
         25    1    1    2    0    0 -0.17565256872E+03 -0.11995939632E+03 -0.89292133469E+02  0.26237790830E+03  0.12500000000E+03 0.  0.
         21    1    1    2  503  502  0.19205707731E+02  0.95899401756E+01 -0.10440761423E+03  0.10659163227E+03  0.00000000000E+00 0. -1.
         -2    1    1    2    0  503  0.15644686099E+03  0.11036945615E+03  0.65368589727E+03  0.68114777359E+03  0.00000000000E+00 0. -1.
<mgrwt>
<rscale>  4 0.22994144E+03</rscale>
<asrwt>0</asrwt>
<pdfrwt beam="1">  1       21 0.45394705E-01 0.22994144E+03</pdfrwt>
<pdfrwt beam="2">  1       -2 0.11616180E+00 0.22994144E+03</pdfrwt>
<totfact> 0.22639935E+02</totfact>
</mgrwt>
</event>
<event>
 5    0  0.4115852E+000  0.1772531E+03  0.7546771E-02  0.1170488E+00
         21   -1    0    0  503  502  0.00000000000E+00  0.00000000000E+00  0.48708877552E+02  0.48708877552E+02  0.00000000000E+00 0.  1.
          2   -1    0    0  502    0 -0.00000000000E+00 -0.00000000000E+00 -0.20339318575E+04  0.20339318575E+04  0.00000000000E+00 0.  1.
         25    1    1    2    0    0  0.19065219938E+03  0.66569590310E+02 -0.51459744378E+03  0.56675859114E+03  0.12500000000E+03 0.  0.
         21    1    1    2  503  501 -0.85236211987E+02 -0.12432168502E+02 -0.72060166830E+02  0.11230511249E+03  0.00000000000E+00 0.  1.
          2    1    1    2  501    0 -0.10541598739E+03 -0.54137421809E+02 -0.13985653694E+04  0.14035770315E+04  0.00000000000E+00 0.  1.
<mgrwt>
<rscale>  4 0.17725310E+03</rscale>
<asrwt>0</asrwt>
<pdfrwt beam="1">  1       21 0.74936723E-02 0.17725310E+03</pdfrwt>
<pdfrwt beam="2">  1        2 0.31291264E+00 0.17725310E+03</pdfrwt>
<totfact> 0.12517389E+04</totfact>
</mgrwt>
</event>
<event>
 5    0  0.4115852E+000  0.2752401E+03  0.7546771E-02  0.1098317E+00
         21   -1    0    0  503  502  0.00000000000E+00  0.00000000000E+00  0.52870750195E+03  0.52870750195E+03  0.00000000000E+00 0. -1.
          2   -1    0    0  502    0 -0.00000000000E+00 -0.00000000000E+00 -0.62608644680E+03  0.62608644680E+03  0.00000000000E+00 0. -1.
         25    1    1    2    0    0  0.21688259533E+03 -0.11851519570E+03  0.31890734009E+03  0.42238703026E+03  0.12500000000E+03 0.  0.
         21    1    1    2  503  501 -0.13992023542E+02 -0.19097489023E+02  0.13078812348E+03  0.13291359619E+03  0.00000000000E+00 0. -1.
          2    1    1    2  501    0 -0.20289057179E+03  0.13761268473E+03 -0.54707440843E+03  0.59949332229E+03  0.00000000000E+00 0. -1.
<mgrwt>
<rscale>  4 0.27524012E+03</rscale>
<asrwt>0</asrwt>
<pdfrwt beam="1">  1       21 0.81339616E-01 0.27524012E+03</pdfrwt>
<pdfrwt beam="2">  1        2 0.96320992E-01 0.27524012E+03</pdfrwt>
<totfact> 0.76712761E+02</totfact>
</mgrwt>
</event>
<event>
 5    0  0.4115852E+000  0.2182165E+03  0.7546771E-02  0.1135220E+00
          1   -1    0    0  502    0 -0.00000000000E+00  0.00000000000E+00  0.52021713261E+03  0.52021713261E+03  0.00000000000E+00 0. -1.
         21   -1    0    0  503  502  0.00000000000E+00 -0.00000000000E+00 -0.16484741427E+03  0.16484741427E+03  0.00000000000E+00 0. -1.
         25    1    1    2    0    0  0.45424553689E+02  0.24208134594E+03  0.24406545470E+03  0.36859152772E+03  0.12500000000E+03 0.  0.
         21    1    1    2  503  501 -0.17455277867E+02 -0.16180664812E+03 -0.15855301137E+02  0.16351595847E+03  0.00000000000E+00 0. -1.
          1    1    1    2  501    0 -0.27969275823E+02 -0.80274697818E+02  0.12715956478E+03  0.15295706069E+03  0.00000000000E+00 0. -1.
<mgrwt>
<rscale>  4 0.21821646E+03</rscale>
<asrwt>0</asrwt>
<pdfrwt beam="1">  1       21 0.25361141E-01 0.21821646E+03</pdfrwt>
<pdfrwt beam="2">  1        1 0.80033404E-01 0.21821646E+03</pdfrwt>
<totfact> 0.69291493E+03</totfact>
</mgrwt>
</event>
<event>
 5    0  0.4115852E+000  0.2723251E+03  0.7546771E-02  0.1099956E+00
          2   -1    0    0  502    0 -0.00000000000E+00  0.00000000000E+00  0.50795470769E+03  0.50795470769E+03  0.00000000000E+00 0. -1.
         21   -1    0    0  503  502  0.00000000000E+00 -0.00000000000E+00 -0.48622154297E+03  0.48622154297E+03  0.00000000000E+00 0. -1.
         25    1    1    2    0    0 -0.32475899503E+02 -0.21821076503E+03 -0.25687648978E+03  0.36094480606E+03  0.12500000000E+03 0.  0.
         21    1    1    2  503  501 -0.13280821580E+02 -0.21688021677E+02 -0.14340582162E+03  0.14564333208E+03  0.00000000000E+00 0. -1.
          2    1    1    2  501    0  0.45756721083E+02  0.23989878670E+03  0.42201547612E+03  0.48758811252E+03  0.00000000000E+00 0. -1.
<mgrwt>
<rscale>  4 0.27232515E+03</rscale>
<asrwt>0</asrwt>
<pdfrwt beam="1">  1       21 0.74803314E-01 0.27232515E+03</pdfrwt>
<pdfrwt beam="2">  1        2 0.78146878E-01 0.27232515E+03</pdfrwt>
<totfact> 0.11821440E+03</totfact>
</mgrwt>
</event>
<event>
 5    0  0.4115852E+000  0.2737141E+03  0.7546771E-02  0.1099173E+00
          3   -1    0    0  502    0 -0.00000000000E+00  0.00000000000E+00  0.29796863285E+04  0.29796863285E+04  0.00000000000E+00 0. -1.
         21   -1    0    0  503  502  0.00000000000E+00 -0.00000000000E+00 -0.58553842496E+02  0.58553842496E+02  0.00000000000E+00 0. -1.
         25    1    1    2    0    0 -0.13094504145E+03 -0.20061116597E+03  0.40509638328E+03  0.48694920016E+03  0.12500000000E+03 0.  0.
         21    1    1    2  503  501  0.25932590950E+02 -0.20022882838E+02  0.11289081603E+02  0.34653404941E+02  0.00000000000E+00 0.  1.
          3    1    1    2  501    0  0.10501245049E+03  0.22063404881E+03  0.25047470211E+04  0.25166375658E+04  0.00000000000E+00 0. -1.
<mgrwt>
<rscale>  4 0.27371410E+03</rscale>
<asrwt>0</asrwt>
<pdfrwt beam="1">  1       21 0.90082858E-02 0.27371410E+03</pdfrwt>
<pdfrwt beam="2">  1        3 0.45841316E+00 0.27371410E+03</pdfrwt>
<totfact> 0.32463190E+01</totfact>
</mgrwt>
</event>
<event>
 5    0  0.4115852E+000  0.2969723E+03  0.7546771E-02  0.1086764E+00
         21   -1    0    0  503  502  0.00000000000E+00  0.00000000000E+00  0.14257123858E+03  0.14257123858E+03  0.00000000000E+00 0. -1.
          2   -1    0    0  502    0 -0.00000000000E+00 -0.00000000000E+00 -0.69460752792E+03  0.69460752792E+03  0.00000000000E+00 0. -1.
         25    1    1    2    0    0 -0.32192557699E+02 -0.26745310818E+03 -0.11731599622E+03  0.31930482116E+03  0.12500000000E+03 0.  0.
         21    1    1    2  503  501  0.25834014651E+02  0.33484773050E+02 -0.36031654822E+02  0.55559936001E+02  0.00000000000E+00 0. -1.
          2    1    1    2  501    0  0.63585430478E+01  0.23396833513E+03 -0.39868863831E+03  0.46231400934E+03  0.00000000000E+00 0. -1.
<mgrwt>
<rscale>  4 0.29697226E+03</rscale>
<asrwt>0</asrwt>
<pdfrwt beam="1">  1       21 0.21934037E-01 0.29697226E+03</pdfrwt>
<pdfrwt beam="2">  1        2 0.10686270E+00 0.29697226E+03</pdfrwt>
<totfact> 0.10120877E+04</totfact>
</mgrwt>
</event>
<event>
 5    0  0.4115852E+000  0.3401039E+03  0.7546771E-02  0.1066752E+00
         -1   -1    0    0    0  501 -0.00000000000E+00  0.00000000000E+00  0.38286267632E+03  0.38286267632E+03  0.00000000000E+00 0. -1.
         21   -1    0    0  501  502  0.00000000000E+00 -0.00000000000E+00 -0.34652749584E+03  0.34652749584E+03  0.00000000000E+00 0.  1.
         25    1    1    2    0    0  0.13752174818E+03 -0.25406158863E+03  0.35607159907E+02  0.31678445649E+03  0.12500000000E+03 0.  0.
         21    1    1    2  503  502 -0.13708632702E+02 -0.67004400449E+02  0.35118049791E+01  0.68482472679E+02  0.00000000000E+00 0.  1.
         -1    1    1    2    0  503 -0.12381311547E+03  0.32106598908E+03 -0.27837844036E+01  0.34412324298E+03  0.00000000000E+00 0. -1.
<mgrwt>
<rscale>  4 0.34010386E+03</rscale>
<asrwt>0</asrwt>
<pdfrwt beam="1">  1       21 0.53311923E-01 0.34010386E+03</pdfrwt>
<pdfrwt beam="2">  1       -1 0.58901950E-01 0.34010386E+03</pdfrwt>
<totfact> 0.88725645E+02</totfact>
</mgrwt>
</event>
<event>
 5    0  0.4115852E+000  0.2528497E+03  0.7546771E-02  0.1111517E+00
         21   -1    0    0  503  502  0.00000000000E+00  0.00000000000E+00  0.12147997698E+04  0.12147997698E+04  0.00000000000E+00 0. -1.
          2   -1    0    0  502    0 -0.00000000000E+00 -0.00000000000E+00 -0.40052568221E+03  0.40052568221E+03  0.00000000000E+00 0.  1.
         25    1    1    2    0    0 -0.11741135696E+03 -0.16533671330E+03  0.11294761554E+04  0.11543236292E+04  0.12500000000E+03 0.  0.
         21    1    1    2  503  501 -0.34932066640E+02  0.61688760086E+01  0.33327159558E+02  0.48672413903E+02  0.00000000000E+00 0. -1.
          2    1    1    2  501    0  0.15234342360E+03  0.15916783729E+03 -0.34852922730E+03  0.41232940888E+03  0.00000000000E+00 0.  1.
<mgrwt>
<rscale>  4 0.25284969E+03</rscale>
<asrwt>0</asrwt>
<pdfrwt beam="1">  1       21 0.18689227E+00 0.25284969E+03</pdfrwt>
<pdfrwt beam="2">  1        2 0.61619336E-01 0.25284969E+03</pdfrwt>
<totfact> 0.15512559E+02</totfact>
</mgrwt>
</event>
<event>
 5    0  0.4115852E+000  0.2740749E+03  0.7546771E-02  0.1098970E+00
         21   -1    0    0  503  502  0.00000000000E+00  0.00000000000E+00  0.66096184433E+03  0.66096184433E+03  0.00000000000E+00 0.  1.
          1   -1    0    0  502    0 -0.00000000000E+00 -0.00000000000E+00 -0.32710724019E+03  0.32710724019E+03  0.00000000000E+00 0. -1.
         25    1    1    2    0    0  0.20395694827E+03 -0.26469279664E+02  0.31143810479E+03  0.39359592558E+03  0.12500000000E+03 0.  0.
         21    1    1    2  503  501 -0.32009246842E+02 -0.16772253958E+03  0.21271879943E+03  0.27277230394E+03  0.00000000000E+00 0.  1.
          1    1    1    2  501    0 -0.17194770143E+03  0.19419181924E+03 -0.19030230008E+03  0.32170085500E+03  0.00000000000E+00 0. -1.
<mgrwt>
<rscale>  4 0.27407488E+03</rscale>
<asrwt>0</asrwt>
<pdfrwt beam="1">  1       21 0.10168644E+00 0.27407488E+03</pdfrwt>
<pdfrwt beam="2">  1        1 0.50324191E-01 0.27407488E+03</pdfrwt>
<totfact> 0.65144202E+02</totfact>
</mgrwt>
</event>
<event>
 5    0  0.4115852E+000  0.2227315E+03  0.7546771E-02  0.1131863E+00
         21   -1    0    0  503  502  0.00000000000E+00  0.00000000000E+00  0.64452570090E+03  0.64452570090E+03  0.00000000000E+00 0. -1.
          2   -1    0    0  502    0 -0.00000000000E+00 -0.00000000000E+00 -0.15864905102E+04  0.15864905102E+04  0.00000000000E+00 0.  1.
         25    1    1    2    0    0  0.25691620766E+03 -0.48999749613E+02  0.27184843360E+03  0.39740845999E+03  0.12500000000E+03 0.  0.
         21    1    1    2  503  501 -0.76249817903E+02  0.19388842250E+02  0.29929549758E+03  0.30946365991E+03  0.00000000000E+00 0. -1.
          2    1    1    2  501    0 -0.18066638976E+03  0.29610907362E+02 -0.15131087405E+04  0.15241440912E+04  0.00000000000E+00 0.  1.
<mgrwt>
<rscale>  4 0.22273153E+03</rscale>
<asrwt>0</asrwt>
<pdfrwt beam="1">  1       21 0.99157802E-01 0.22273153E+03</pdfrwt>
<pdfrwt beam="2">  1        2 0.24407546E+00 0.22273153E+03</pdfrwt>
<totfact> 0.12886989E+02</totfact>
</mgrwt>
</event>
<event>
 5    0  0.4115852E+000  0.2956900E+03  0.7546771E-02  0.1088430E+00
          2   -1    0    0  502    0 -0.00000000000E+00  0.00000000000E+00  0.15341192947E+04  0.15341192947E+04  0.00000000000E+00 0. -1.
         21   -1    0    0  503  502  0.00000000000E+00 -0.00000000000E+00 -0.57178280436E+03  0.57178280436E+03  0.00000000000E+00 0. -1.
         25    1    1    2    0    0 -0.24146502255E+03 -0.94437342230E+02  0.15173837910E+03  0.32538178255E+03  0.12500000000E+03 0.  0.
         21    1    1    2  503  501  0.26940864989E+03  0.38430904855E+03 -0.34902675734E+03  0.58488814553E+03  0.00000000000E+00 0. -1.
          2    1    1    2  501    0 -0.27943627340E+02 -0.28987170632E+03  0.11596248685E+04  0.11956321709E+04  0.00000000000E+00 0. -1.
<mgrwt>
<rscale>  4 0.29370634E+03</rscale>
<asrwt>0</asrwt>
<pdfrwt beam="1">  1       21 0.87966586E-01 0.29569003E+03</pdfrwt>
<pdfrwt beam="2">  1        2 0.23601835E+00 0.29569003E+03</pdfrwt>
<totfact> 0.17319138E+02</totfact>
</mgrwt>
</event>
<event>
 5    0  0.4115852E+000  0.2610946E+03  0.7546771E-02  0.1106487E+00
         21   -1    0    0  503  502  0.00000000000E+00  0.00000000000E+00  0.48266192113E+02  0.48266192113E+02  0.00000000000E+00 0. -1.
          2   -1    0    0  502    0 -0.00000000000E+00 -0.00000000000E+00 -0.17718975593E+04  0.17718975593E+04  0.00000000000E+00 0. -1.
         25    1    1    2    0    0 -0.14719773048E+03 -0.19393092131E+03 -0.10611580533E+04  0.10958821963E+04  0.12500000000E+03 0.  0.
         21    1    1    2  503  501  0.75989167618E+01  0.29967411926E+02 -0.36168812290E+01  0.31126695027E+02  0.00000000000E+00 0. -1.
          2    1    1    2  501    0  0.13959881372E+03  0.16396350938E+03 -0.65885643269E+03  0.69315486011E+03  0.00000000000E+00 0. -1.
<mgrwt>
<rscale>  4 0.26109459E+03</rscale>
<asrwt>0</asrwt>
<pdfrwt beam="1">  1       21 0.74255689E-02 0.26109459E+03</pdfrwt>
<pdfrwt beam="2">  1        2 0.27259959E+00 0.26109459E+03</pdfrwt>
<totfact> 0.16923960E+04</totfact>
</mgrwt>
</event>
<event>
 5    0  0.4115852E+000  0.1937979E+03  0.7546771E-02  0.1155080E+00
         21   -1    0    0  503  502  0.00000000000E+00  0.00000000000E+00  0.10247628668E+03  0.10247628668E+03  0.00000000000E+00 0.  1.
          2   -1    0    0  502    0 -0.00000000000E+00 -0.00000000000E+00 -0.68202296842E+03  0.68202296842E+03  0.00000000000E+00 0.  1.
         25    1    1    2    0    0  0.19077305459E+03 -0.93390097167E+02 -0.18331412041E+03  0.30715653232E+03  0.12500000000E+03 0.  0.
         21    1    1    2  503  501 -0.11192256633E+03 -0.18743938124E+02 -0.10133261709E+03  0.15213906584E+03  0.00000000000E+00 0.  1.
          2    1    1    2  501    0 -0.78850488261E+02  0.11213403529E+03 -0.29489994424E+03  0.32520365693E+03  0.00000000000E+00 0.  1.
<mgrwt>
<rscale>  4 0.19379792E+03</rscale>
<asrwt>0</asrwt>
<pdfrwt beam="1">  1       21 0.15765583E-01 0.19379792E+03</pdfrwt>
<pdfrwt beam="2">  1        2 0.10492661E+00 0.19379792E+03</pdfrwt>
<totfact> 0.19545792E+04</totfact>
</mgrwt>
</event>
<event>
 5    0  0.4115852E+000  0.2683452E+03  0.7546771E-02  0.1102230E+00
         21   -1    0    0  501  502  0.00000000000E+00  0.00000000000E+00  0.56316558194E+03  0.56316558194E+03  0.00000000000E+00 0. -1.
         -3   -1    0    0    0  501 -0.00000000000E+00 -0.00000000000E+00 -0.97916877487E+03  0.97916877487E+03  0.00000000000E+00 0. -1.
         25    1    1    2    0    0  0.18707114266E+03  0.80990925200E+02  0.43478406714E+03  0.49620290953E+03  0.12500000000E+03 0.  0.
         21    1    1    2  503  502  0.95201210804E+01  0.54342248185E+02  0.73287749322E+02  0.91732256289E+02  0.00000000000E+00 0.  1.
         -3    1    1    2    0  503 -0.19659126374E+03 -0.13533317339E+03 -0.92407500939E+03  0.95439919100E+03  0.00000000000E+00 0. -1.
<mgrwt>
<rscale>  4 0.26834524E+03</rscale>
<asrwt>0</asrwt>
<pdfrwt beam="1">  1       21 0.86640860E-01 0.26834524E+03</pdfrwt>
<pdfrwt beam="2">  1       -3 0.15064135E+00 0.26834524E+03</pdfrwt>
<totfact> 0.18502005E+01</totfact>
</mgrwt>
</event>
<event>
 5    0  0.4115852E+000  0.3237161E+03  0.7546771E-02  0.1073952E+00
         -3   -1    0    0    0  501 -0.00000000000E+00  0.00000000000E+00  0.30888533479E+03  0.30888533479E+03  0.00000000000E+00 0. -1.
         21   -1    0    0  501  502  0.00000000000E+00 -0.00000000000E+00 -0.55588005252E+03  0.55588005252E+03  0.00000000000E+00 0. -1.
         25    1    1    2    0    0  0.69351043941E+02 -0.29297720789E+03 -0.26612754120E+03  0.42082547431E+03  0.12500000000E+03 0.  0.
         21    1    1    2  503  502  0.45122421766E+02  0.17011118525E+02 -0.10874426588E+03  0.11895682604E+03  0.00000000000E+00 0.  1.
         -3    1    1    2    0  503 -0.11447346571E+03  0.27596608937E+03  0.12787708935E+03  0.32498308696E+03  0.00000000000E+00 0. -1.
<mgrwt>
<rscale>  4 0.32371608E+03</rscale>
<asrwt>0</asrwt>
<pdfrwt beam="1">  1       21 0.85520008E-01 0.32371608E+03</pdfrwt>
<pdfrwt beam="2">  1       -3 0.47520821E-01 0.32371608E+03</pdfrwt>
<totfact> 0.24995154E+02</totfact>
</mgrwt>
</event>
<event>
 5    0  0.4115852E+000  0.5501928E+03  0.7546771E-02  0.1001449E+00
          1   -1    0    0  502    0 -0.00000000000E+00  0.00000000000E+00  0.24883129086E+04  0.24883129086E+04  0.00000000000E+00 0.  1.
         21   -1    0    0  503  502  0.00000000000E+00 -0.00000000000E+00 -0.62795683744E+03  0.62795683744E+03  0.00000000000E+00 0. -1.
         25    1    1    2    0    0  0.40021321043E+03 -0.24113176879E+03 -0.33769784528E+03  0.58989827804E+03  0.12500000000E+03 0.  0.
         21    1    1    2  503  501  0.31099674862E+02 -0.84727476404E+02 -0.11772273119E+03  0.14833939623E+03  0.00000000000E+00 0. -1.
          1    1    1    2  501    0 -0.43131288530E+03  0.32585924520E+03  0.23157766476E+04  0.23780320717E+04  0.00000000000E+00 0.  1.
<mgrwt>
<rscale>  4 0.55019279E+03</rscale>
<asrwt>0</asrwt>
<pdfrwt beam="1">  1       21 0.96608746E-01 0.55019279E+03</pdfrwt>
<pdfrwt beam="2">  1        1 0.38281736E+00 0.55019279E+03</pdfrwt>
<totfact> 0.13043007E+01</totfact>
</mgrwt>
</event>
<event>
 5    0  0.4115852E+000  0.2927382E+03  0.7546771E-02  0.1088928E+00
         21   -1    0    0  503  502  0.00000000000E+00  0.00000000000E+00  0.91689783095E+03  0.91689783095E+03  0.00000000000E+00 0.  1.
          2   -1    0    0  502    0 -0.00000000000E+00 -0.00000000000E+00 -0.35936667502E+03  0.35936667502E+03  0.00000000000E+00 0. -1.
         25    1    1    2    0    0 -0.78244014777E+02 -0.19490072815E+03 -0.95769075405E+02  0.26249787711E+03  0.12500000000E+03 0.  0.
         21    1    1    2  503  501  0.58642241268E+02  0.26546919374E+03  0.80264025854E+03  0.84743388528E+03  0.00000000000E+00 0.  1.
          2    1    1    2  501    0  0.19601773509E+02 -0.70568465588E+02 -0.14934002721E+03  0.16633274358E+03  0.00000000000E+00 0. -1.
<mgrwt>
<rscale>  4 0.29273819E+03</rscale>
<asrwt>0</asrwt>
<pdfrwt beam="1">  1       21 0.14106120E+00 0.29273819E+03</pdfrwt>
<pdfrwt beam="2">  1        2 0.55287181E-01 0.29273819E+03</pdfrwt>
<totfact> 0.37030042E+02</totfact>
</mgrwt>
</event>
<event>
 5    0  0.4115852E+000  0.2545938E+03  0.7546771E-02  0.1110436E+00
         21   -1    0    0  503  502  0.00000000000E+00  0.00000000000E+00  0.15218396474E+04  0.15218396474E+04  0.00000000000E+00 0.  1.
          1   -1    0    0  502    0 -0.00000000000E+00 -0.00000000000E+00 -0.51148530895E+02  0.51148530895E+02  0.00000000000E+00 0.  1.
         25    1    1    2    0    0  0.80430678422E+02 -0.22316816762E+03  0.52447198747E+03  0.58904073773E+03  0.12500000000E+03 0.  0.
         21    1    1    2  503  501 -0.22038749041E+02  0.25839826266E+02  0.37960247378E+03  0.38111867074E+03  0.00000000000E+00 0.  1.
          1    1    1    2  501    0 -0.58391929381E+02  0.19732834135E+03  0.56661665522E+03  0.60282876980E+03  0.00000000000E+00 0.  1.
<mgrwt>
<rscale>  4 0.25459382E+03</rscale>
<asrwt>0</asrwt>
<pdfrwt beam="1">  1       21 0.23412914E+00 0.25459382E+03</pdfrwt>
<pdfrwt beam="2">  1        1 0.78690059E-02 0.25459382E+03</pdfrwt>
<totfact> 0.74799254E+02</totfact>
</mgrwt>
</event>
<event>
 5    0  0.4115852E+000  0.2398947E+03  0.7546771E-02  0.1119863E+00
         21   -1    0    0  503  502  0.00000000000E+00  0.00000000000E+00  0.15098541003E+03  0.15098541003E+03  0.00000000000E+00 0.  1.
          2   -1    0    0  502    0 -0.00000000000E+00 -0.00000000000E+00 -0.70271444484E+03  0.70271444484E+03  0.00000000000E+00 0.  1.
         25    1    1    2    0    0 -0.19669534513E+03 -0.56880506768E+02 -0.57867567104E+03  0.62643034976E+03  0.12500000000E+03 0.  0.
         21    1    1    2  503  501  0.95333385770E+02 -0.15722987029E+02  0.33895931014E+02  0.10239434019E+03  0.00000000000E+00 0.  1.
          2    1    1    2  501    0  0.10136195936E+03  0.72603493797E+02 -0.69492947899E+01  0.12487516492E+03  0.00000000000E+00 0.  1.
<mgrwt>
<rscale>  4 0.23989467E+03</rscale>
<asrwt>0</asrwt>
<pdfrwt beam="1">  1       21 0.23228524E-01 0.23989467E+03</pdfrwt>
<pdfrwt beam="2">  1        2 0.10810992E+00 0.23989467E+03</pdfrwt>
<totfact> 0.90563516E+03</totfact>
</mgrwt>
</event>
<event>
 5    0  0.4115852E+000  0.2447471E+03  0.7546771E-02  0.1116670E+00
          2   -1    0    0  502    0 -0.00000000000E+00  0.00000000000E+00  0.17739844397E+04  0.17739844397E+04  0.00000000000E+00 0. -1.
         21   -1    0    0  503  502  0.00000000000E+00 -0.00000000000E+00 -0.34731168088E+02  0.34731168088E+02  0.00000000000E+00 0.  1.
         25    1    1    2    0    0  0.18878364619E+03  0.95205081276E+02  0.11203476133E+04  0.11469555559E+04  0.12500000000E+03 0.  0.
         21    1    1    2  503  501 -0.13425197889E+02  0.19950062914E+02  0.52286494683E+02  0.57551007592E+02  0.00000000000E+00 0. -1.
          2    1    1    2  501    0 -0.17535844830E+03 -0.11515514419E+03  0.56661916363E+03  0.60420904430E+03  0.00000000000E+00 0. -1.
<mgrwt>
<rscale>  4 0.24474709E+03</rscale>
<asrwt>0</asrwt>
<pdfrwt beam="1">  1       21 0.53432580E-02 0.24474709E+03</pdfrwt>
<pdfrwt beam="2">  1        2 0.27292061E+00 0.24474709E+03</pdfrwt>
<totfact> 0.29924666E+04</totfact>
</mgrwt>
</event>
<event>
 5    0  0.4115852E+000  0.3821932E+03  0.7546771E-02  0.1050126E+00
         21   -1    0    0  501  502  0.00000000000E+00  0.00000000000E+00  0.33660462881E+03  0.33660462881E+03  0.00000000000E+00 0. -1.
         -2   -1    0    0    0  501 -0.00000000000E+00 -0.00000000000E+00 -0.93157477469E+03  0.93157477469E+03  0.00000000000E+00 0.  1.
         25    1    1    2    0    0  0.15450714382E+03 -0.35552109517E+03 -0.44508919589E+02  0.40972399310E+03  0.12500000000E+03 0.  0.
         21    1    1    2  503  502 -0.60851227462E+02  0.12712699067E+02  0.99710492546E+02  0.11750177414E+03  0.00000000000E+00 0.  1.
         -2    1    1    2    0  503 -0.93655916362E+02  0.34280839610E+03 -0.65017171884E+03  0.74095363626E+03  0.00000000000E+00 0.  1.
<mgrwt>
<rscale>  4 0.38219317E+03</rscale>
<asrwt>0</asrwt>
<pdfrwt beam="1">  1       21 0.51785328E-01 0.38219317E+03</pdfrwt>
<pdfrwt beam="2">  1       -2 0.14331920E+00 0.38219317E+03</pdfrwt>
<totfact> 0.96610279E+01</totfact>
</mgrwt>
</event>
<event>
 5    0  0.4115852E+000  0.2832526E+03  0.7546771E-02  0.1093926E+00
          1   -1    0    0  502    0 -0.00000000000E+00  0.00000000000E+00  0.13552888384E+04  0.13552888384E+04  0.00000000000E+00 0.  1.
         21   -1    0    0  503  502  0.00000000000E+00 -0.00000000000E+00 -0.92114552307E+02  0.92114552307E+02  0.00000000000E+00 0.  1.
         25    1    1    2    0    0  0.20792152495E+03 -0.76014956079E+02  0.26733672834E+03  0.36892216036E+03  0.12500000000E+03 0.  0.
         21    1    1    2  503  501  0.63646831504E+02  0.79778173888E+02  0.10198935753E+03  0.14428203366E+03  0.00000000000E+00 0.  1.
          1    1    1    2  501    0 -0.27156835645E+03 -0.37632178092E+01  0.89384820025E+03  0.93419919671E+03  0.00000000000E+00 0.  1.
<mgrwt>
<rscale>  4 0.28325261E+03</rscale>
<asrwt>0</asrwt>
<pdfrwt beam="1">  1       21 0.14171471E-01 0.28325261E+03</pdfrwt>
<pdfrwt beam="2">  1        1 0.20850596E+00 0.28325261E+03</pdfrwt>
<totfact> 0.42649797E+03</totfact>
</mgrwt>
</event>
<event>
 5    0  0.4115852E+000  0.4511186E+03  0.7546771E-02  0.1027389E+00
          1   -1    0    0  502    0 -0.00000000000E+00  0.00000000000E+00  0.20453374937E+04  0.20453374937E+04  0.00000000000E+00 0.  1.
         21   -1    0    0  503  502  0.00000000000E+00 -0.00000000000E+00 -0.35993566491E+03  0.35993566491E+03  0.00000000000E+00 0.  1.
         25    1    1    2    0    0  0.39239211610E+03  0.28079837658E+03  0.55267114630E+03  0.74423766165E+03  0.12500000000E+03 0.  0.
         21    1    1    2  503  501 -0.11253582956E+03  0.32288491846E+02 -0.21750135548E+03  0.24700951252E+03  0.00000000000E+00 0.  1.
          1    1    1    2  501    0 -0.27985628654E+03 -0.31308686843E+03  0.13502320380E+04  0.14140259844E+04  0.00000000000E+00 0.  1.
<mgrwt>
<rscale>  4 0.45111863E+03</rscale>
<asrwt>0</asrwt>
<pdfrwt beam="1">  1       21 0.55374719E-01 0.45111863E+03</pdfrwt>
<pdfrwt beam="2">  1        1 0.31466730E+00 0.45111863E+03</pdfrwt>
<totfact> 0.95284998E+01</totfact>
</mgrwt>
</event>
<event>
 5    0  0.4115852E+000  0.2920453E+03  0.7546771E-02  0.1089286E+00
         21   -1    0    0  503  502  0.00000000000E+00  0.00000000000E+00  0.15597828444E+03  0.15597828444E+03  0.00000000000E+00 0.  1.
          2   -1    0    0  502    0 -0.00000000000E+00 -0.00000000000E+00 -0.13405905581E+04  0.13405905581E+04  0.00000000000E+00 0.  1.
         25    1    1    2    0    0 -0.33944311196E+01 -0.21601952860E+03 -0.83363613619E+02  0.26315480420E+03  0.12500000000E+03 0.  0.
         21    1    1    2  503  501  0.17174814501E+02 -0.56257359297E+02  0.32600029052E+02  0.67250476744E+02  0.00000000000E+00 0.  1.
          2    1    1    2  501    0 -0.13780383381E+02  0.27227688790E+03 -0.11338486891E+04  0.11661635616E+04  0.00000000000E+00 0.  1.
<mgrwt>
<rscale>  4 0.29204529E+03</rscale>
<asrwt>0</asrwt>
<pdfrwt beam="1">  1       21 0.23996658E-01 0.29204529E+03</pdfrwt>
<pdfrwt beam="2">  1        2 0.20624471E+00 0.29204529E+03</pdfrwt>
<totfact> 0.33612352E+03</totfact>
</mgrwt>
</event>
<event>
 5    0  0.4115852E+000  0.4213359E+03  0.7546771E-02  0.1036632E+00
         21   -1    0    0  503  502  0.00000000000E+00  0.00000000000E+00  0.55137291025E+03  0.55137291025E+03  0.00000000000E+00 0. -1.
          1   -1    0    0  502    0 -0.00000000000E+00 -0.00000000000E+00 -0.36668254500E+03  0.36668254500E+03  0.00000000000E+00 0. -1.
         25    1    1    2    0    0  0.40061416640E+03 -0.12784636480E+02  0.18713716805E+03  0.45967431613E+03  0.12500000000E+03 0.  0.
         21    1    1    2  503  501  0.21972173440E+01  0.47510030816E+02  0.23880522958E+02  0.53219452919E+02  0.00000000000E+00 0. -1.
          1    1    1    2  501    0 -0.40281138374E+03 -0.34725394337E+02 -0.26327325757E+02  0.40516168620E+03  0.00000000000E+00 0. -1.
<mgrwt>
<rscale>  4 0.42133585E+03</rscale>
<asrwt>0</asrwt>
<pdfrwt beam="1">  1       21 0.84826602E-01 0.42133585E+03</pdfrwt>
<pdfrwt beam="2">  1        1 0.56412699E-01 0.42133585E+03</pdfrwt>
<totfact> 0.82532093E+02</totfact>
</mgrwt>
</event>
<event>
 5    0  0.4115852E+000  0.2493650E+03  0.7546771E-02  0.1113707E+00
         21   -1    0    0  503  502  0.00000000000E+00  0.00000000000E+00  0.11447796572E+03  0.11447796572E+03  0.00000000000E+00 0. -1.
          1   -1    0    0  502    0 -0.00000000000E+00 -0.00000000000E+00 -0.15986983674E+04  0.15986983674E+04  0.00000000000E+00 0. -1.
         25    1    1    2    0    0 -0.13527959323E+03  0.15978262736E+03 -0.95875907659E+02  0.26200810297E+03  0.12500000000E+03 0.  0.
         21    1    1    2  503  501  0.28166500840E+02  0.28651819673E+02  0.55166196528E+01  0.40555044477E+02  0.00000000000E+00 0. -1.
          1    1    1    2  501    0  0.10711309239E+03 -0.18843444704E+03 -0.13938611137E+04  0.14106131857E+04  0.00000000000E+00 0. -1.
<mgrwt>
<rscale>  4 0.24936504E+03</rscale>
<asrwt>0</asrwt>
<pdfrwt beam="1">  1       21 0.17611997E-01 0.24936504E+03</pdfrwt>
<pdfrwt beam="2">  1        1 0.24595356E+00 0.24936504E+03</pdfrwt>
<totfact> 0.19919271E+03</totfact>
</mgrwt>
</event>
<event>
 5    0  0.4115852E+000  0.5100536E+03  0.7546771E-02  0.1011188E+00
         21   -1    0    0  503  502  0.00000000000E+00  0.00000000000E+00  0.71212597377E+03  0.71212597377E+03  0.00000000000E+00 0. -1.
          2   -1    0    0  502    0 -0.00000000000E+00 -0.00000000000E+00 -0.35568191618E+04  0.35568191618E+04  0.00000000000E+00 0. -1.
         25    1    1    2    0    0  0.31254579530E+03  0.26675190285E+03  0.56978100818E+03  0.71352424564E+03  0.12500000000E+03 0.  0.
         21    1    1    2  503  501  0.11192386336E+03 -0.82443371213E+01 -0.75966815637E+01  0.11248390932E+03  0.00000000000E+00 0.  1.
          2    1    1    2  501    0 -0.42446965866E+03 -0.25850756573E+03 -0.34068775146E+04  0.34429369806E+04  0.00000000000E+00 0. -1.
<mgrwt>
<rscale>  4 0.51005359E+03</rscale>
<asrwt>0</asrwt>
<pdfrwt beam="1">  1       21 0.10955784E+00 0.51005359E+03</pdfrwt>
<pdfrwt beam="2">  1        2 0.54720296E+00 0.51005359E+03</pdfrwt>
<totfact> 0.62328577E+00</totfact>
</mgrwt>
</event>
<event>
 5    0  0.4115852E+000  0.5076174E+03  0.7546771E-02  0.1011810E+00
         21   -1    0    0  503  502  0.00000000000E+00  0.00000000000E+00  0.54042283024E+03  0.54042283024E+03  0.00000000000E+00 0. -1.
          2   -1    0    0  502    0 -0.00000000000E+00 -0.00000000000E+00 -0.17957660436E+04  0.17957660436E+04  0.00000000000E+00 0.  1.
         25    1    1    2    0    0 -0.30304271512E+03  0.34970289221E+03 -0.14133365583E+02  0.47953284771E+03  0.12500000000E+03 0.  0.
         21    1    1    2  503  501 -0.58276579470E+02 -0.79323303226E+01  0.26448541615E+03  0.27094578228E+03  0.00000000000E+00 0. -1.
          2    1    1    2  501    0  0.36131929459E+03 -0.34177056189E+03 -0.15056952639E+04  0.15857102438E+04  0.00000000000E+00 0.  1.
<mgrwt>
<rscale>  4 0.50761745E+03</rscale>
<asrwt>0</asrwt>
<pdfrwt beam="1">  1       21 0.83141973E-01 0.50761745E+03</pdfrwt>
<pdfrwt beam="2">  1        2 0.27627170E+00 0.50761745E+03</pdfrwt>
<totfact> 0.13038684E+02</totfact>
</mgrwt>
</event>
<event>
 5    0  0.4115852E+000  0.4055902E+03  0.7546771E-02  0.1041861E+00
         21   -1    0    0  503  502  0.00000000000E+00  0.00000000000E+00  0.71955288809E+03  0.71955288809E+03  0.00000000000E+00 0. -1.
          2   -1    0    0  502    0 -0.00000000000E+00 -0.00000000000E+00 -0.12159803969E+04  0.12159803969E+04  0.00000000000E+00 0.  1.
         25    1    1    2    0    0 -0.32685385162E+03  0.21120993571E+03  0.59716650858E+03  0.72365455587E+03  0.12500000000E+03 0.  0.
         21    1    1    2  503  501  0.97720889876E+01 -0.96020560730E+02 -0.38068943342E+02  0.10375300600E+03  0.00000000000E+00 0. -1.
          2    1    1    2  501    0  0.31708176263E+03 -0.11518937498E+03 -0.10555250741E+04  0.11081257231E+04  0.00000000000E+00 0.  1.
<mgrwt>
<rscale>  4 0.40559021E+03</rscale>
<asrwt>0</asrwt>
<pdfrwt beam="1">  1       21 0.11070044E+00 0.40559021E+03</pdfrwt>
<pdfrwt beam="2">  1        2 0.18707391E+00 0.40559021E+03</pdfrwt>
<totfact> 0.14172475E+02</totfact>
</mgrwt>
</event>
<event>
 5    0  0.4115852E+000  0.2843681E+03  0.7546771E-02  0.1093327E+00
          1   -1    0    0  502    0 -0.00000000000E+00  0.00000000000E+00  0.11274995073E+04  0.11274995073E+04  0.00000000000E+00 0. -1.
         21   -1    0    0  503  502  0.00000000000E+00 -0.00000000000E+00 -0.66545477420E+02  0.66545477420E+02  0.00000000000E+00 0. -1.
         25    1    1    2    0    0 -0.15673606506E+03  0.20167801536E+03  0.56816822183E+03  0.63535843764E+03  0.12500000000E+03 0.  0.
         21    1    1    2  503  501  0.25245295160E+02 -0.25098466506E+02  0.31410940101E+02  0.47475310496E+02  0.00000000000E+00 0. -1.
          1    1    1    2  501    0  0.13149076990E+03 -0.17657954886E+03  0.46137486795E+03  0.51121123659E+03  0.00000000000E+00 0. -1.
<mgrwt>
<rscale>  4 0.28436810E+03</rscale>
<asrwt>0</asrwt>
<pdfrwt beam="1">  1       21 0.10237767E-01 0.28436810E+03</pdfrwt>
<pdfrwt beam="2">  1        1 0.17346145E+00 0.28436810E+03</pdfrwt>
<totfact> 0.11050548E+04</totfact>
</mgrwt>
</event>
<event>
 5    0  0.4115852E+000  0.2493177E+03  0.7546771E-02  0.1113737E+00
          1   -1    0    0  502    0 -0.00000000000E+00  0.00000000000E+00  0.12792705081E+04  0.12792705081E+04  0.00000000000E+00 0.  1.
         21   -1    0    0  503  502  0.00000000000E+00 -0.00000000000E+00 -0.21071312363E+04  0.21071312363E+04  0.00000000000E+00 0.  1.
         25    1    1    2    0    0  0.14987740132E+03  0.19413063911E+03 -0.41709924871E+03  0.49974665956E+03  0.12500000000E+03 0.  0.
         21    1    1    2  503  501 -0.17397490029E+02 -0.24649168298E+02 -0.16392233322E+04  0.16395009567E+04  0.00000000000E+00 0.  1.
          1    1    1    2  501    0 -0.13247991129E+03 -0.16948147081E+03  0.12284618527E+04  0.12471541282E+04  0.00000000000E+00 0.  1.
<mgrwt>
<rscale>  4 0.24931767E+03</rscale>
<asrwt>0</asrwt>
<pdfrwt beam="1">  1       21 0.32417403E+00 0.24931767E+03</pdfrwt>
<pdfrwt beam="2">  1        1 0.19681085E+00 0.24931767E+03</pdfrwt>
<totfact> 0.25862998E+00</totfact>
</mgrwt>
</event>
<event>
 5    0  0.4115852E+000  0.2636568E+03  0.7546771E-02  0.1104966E+00
         21   -1    0    0  503  502  0.00000000000E+00  0.00000000000E+00  0.41722785379E+03  0.41722785379E+03  0.00000000000E+00 0. -1.
          1   -1    0    0  502    0 -0.00000000000E+00 -0.00000000000E+00 -0.22173840554E+03  0.22173840554E+03  0.00000000000E+00 0. -1.
         25    1    1    2    0    0  0.43535159694E+02  0.23265894957E+03  0.60733586023E+02  0.27447962659E+03  0.12500000000E+03 0.  0.
         21    1    1    2  503  501 -0.35027100238E+02 -0.28133567809E+01  0.12975521551E+03  0.13442927017E+03  0.00000000000E+00 0. -1.
          1    1    1    2  501    0 -0.85080594557E+01 -0.22984559279E+03  0.50006467195E+01  0.23005736256E+03  0.00000000000E+00 0. -1.
<mgrwt>
<rscale>  4 0.26365682E+03</rscale>
<asrwt>0</asrwt>
<pdfrwt beam="1">  1       21 0.64188900E-01 0.26365682E+03</pdfrwt>
<pdfrwt beam="2">  1        1 0.34113601E-01 0.26365682E+03</pdfrwt>
<totfact> 0.30618585E+03</totfact>
</mgrwt>
</event>
<event>
 5    0  0.4115852E+000  0.3533826E+03  0.7546771E-02  0.1061235E+00
         21   -1    0    0  503  502  0.00000000000E+00  0.00000000000E+00  0.50297984537E+03  0.50297984537E+03  0.00000000000E+00 0.  1.
          1   -1    0    0  502    0 -0.00000000000E+00 -0.00000000000E+00 -0.59804800176E+03  0.59804800176E+03  0.00000000000E+00 0. -1.
         25    1    1    2    0    0  0.28615759403E+03 -0.22342361511E+03 -0.82654931508E+02  0.39276089178E+03  0.12500000000E+03 0.  0.
         21    1    1    2  503  501 -0.10174852540E+02  0.67566729684E+02  0.27319935710E+03  0.28161441601E+03  0.00000000000E+00 0.  1.
          1    1    1    2  501    0 -0.27598274149E+03  0.15585688543E+03 -0.28561258198E+03  0.42665253934E+03  0.00000000000E+00 0. -1.
<mgrwt>
<rscale>  4 0.35338262E+03</rscale>
<asrwt>0</asrwt>
<pdfrwt beam="1">  1       21 0.77381515E-01 0.35338262E+03</pdfrwt>
<pdfrwt beam="2">  1        1 0.92007385E-01 0.35338262E+03</pdfrwt>
<totfact> 0.54048025E+02</totfact>
</mgrwt>
</event>
<event>
 5    0  0.4115852E+000  0.2549975E+03  0.7546771E-02  0.1110187E+00
         21   -1    0    0  503  502  0.00000000000E+00  0.00000000000E+00  0.14768074718E+03  0.14768074718E+03  0.00000000000E+00 0. -1.
          2   -1    0    0  502    0 -0.00000000000E+00 -0.00000000000E+00 -0.99434236678E+03  0.99434236678E+03  0.00000000000E+00 0. -1.
         25    1    1    2    0    0 -0.31461937039E+03  0.11350014912E+03 -0.37296240466E+03  0.51632701592E+03  0.12500000000E+03 0.  0.
         21    1    1    2  503  501  0.17882556026E+03 -0.55013911949E+02 -0.76968319340E+02  0.20230974690E+03  0.00000000000E+00 0. -1.
          2    1    1    2  501    0  0.13579381013E+03 -0.58486237173E+02 -0.39673089560E+03  0.42338635114E+03  0.00000000000E+00 0. -1.
<mgrwt>
<rscale>  4 0.25499752E+03</rscale>
<asrwt>0</asrwt>
<pdfrwt beam="1">  1       21 0.22720115E-01 0.25499752E+03</pdfrwt>
<pdfrwt beam="2">  1        2 0.15297575E+00 0.25499752E+03</pdfrwt>
<totfact> 0.59869060E+03</totfact>
</mgrwt>
</event>
<event>
 5    0  0.4115852E+000  0.2586946E+03  0.7546771E-02  0.1107930E+00
         21   -1    0    0  503  502  0.00000000000E+00  0.00000000000E+00  0.21665232969E+03  0.21665232969E+03  0.00000000000E+00 0. -1.
          2   -1    0    0  502    0 -0.00000000000E+00 -0.00000000000E+00 -0.11874147684E+04  0.11874147684E+04  0.00000000000E+00 0. -1.
         25    1    1    2    0    0 -0.39576281294E+02 -0.21719566895E+03 -0.58213716756E+03  0.63501883634E+03  0.12500000000E+03 0.  0.
         21    1    1    2  503  501  0.22050326685E+02 -0.14253158621E+02  0.16586834811E+03  0.16793355335E+03  0.00000000000E+00 0. -1.
          2    1    1    2  501    0  0.17525954609E+02  0.23144882757E+03 -0.55449361920E+03  0.60111470836E+03  0.00000000000E+00 0. -1.
<mgrwt>
<rscale>  4 0.25869457E+03</rscale>
<asrwt>0</asrwt>
<pdfrwt beam="1">  1       21 0.33331128E-01 0.25869457E+03</pdfrwt>
<pdfrwt beam="2">  1        2 0.18267919E+00 0.25869457E+03</pdfrwt>
<totfact> 0.21828558E+03</totfact>
</mgrwt>
</event>
<event>
 5    0  0.4115852E+000  0.1998596E+03  0.7546771E-02  0.1149858E+00
         21   -1    0    0  503  502  0.00000000000E+00  0.00000000000E+00  0.47874929948E+03  0.47874929948E+03  0.00000000000E+00 0. -1.
          1   -1    0    0  502    0 -0.00000000000E+00 -0.00000000000E+00 -0.54163881891E+03  0.54163881891E+03  0.00000000000E+00 0. -1.
         25    1    1    2    0    0  0.22630675259E+03 -0.83739126256E+01 -0.16545502430E+03  0.30705900694E+03  0.12500000000E+03 0.  0.
         21    1    1    2  503  501 -0.87788783573E+02  0.30919860715E+02  0.38599465756E+03  0.39705765825E+03  0.00000000000E+00 0. -1.
          1    1    1    2  501    0 -0.13851796902E+03 -0.22545948090E+02 -0.28342915269E+03  0.31627145320E+03  0.00000000000E+00 0. -1.
<mgrwt>
<rscale>  4 0.19985960E+03</rscale>
<asrwt>0</asrwt>
<pdfrwt beam="1">  1       21 0.73653738E-01 0.19985960E+03</pdfrwt>
<pdfrwt beam="2">  1        1 0.83329049E-01 0.19985960E+03</pdfrwt>
<totfact> 0.73965801E+02</totfact>
</mgrwt>
</event>
