<event>
 5    0  0.1911311E+001  0.2449577E+03  0.7546771E-02  0.1116534E+00
         21   -1    0    0  504  501  0.00000000000E+00  0.00000000000E+00  0.29372988782E+03  0.29372988782E+03  0.00000000000E+00 0. -1.
         21   -1    0    0  501  502 -0.00000000000E+00 -0.00000000000E+00 -0.91107889014E+03  0.91107889014E+03  0.00000000000E+00 0. -1.
         25    1    1    2    0    0 -0.35324685935E+02  0.20967157510E+03  0.21642987690E+03  0.32814157684E+03  0.12500000000E+03 0.  0.
         21    1    1    2  503  502  0.47632540943E+02 -0.22332476383E+02 -0.57188539553E+02  0.77705389223E+02  0.00000000000E+00 0. -1.
         21    1    1    2  504  503 -0.12307855008E+02 -0.18733909871E+03 -0.77659033966E+03  0.79896181189E+03  0.00000000000E+00 0. -1.
<mgrwt>
<rscale>  4 0.24495772E+03</rscale>
<asrwt>0</asrwt>
<pdfrwt beam="1">  1       21 0.45189215E-01 0.24495772E+03</pdfrwt>
<pdfrwt beam="2">  1       21 0.14016598E+00 0.24495772E+03</pdfrwt>
<totfact> 0.16004945E+03</totfact>
</mgrwt>
</event>
<event>
 5    0  0.1911311E+001  0.2467201E+03  0.7546771E-02  0.1115395E+00
         21   -1    0    0  502  501  0.00000000000E+00  0.00000000000E+00  0.70921531221E+03  0.70921531221E+03  0.00000000000E+00 0.  1.
         21   -1    0    0  504  502 -0.00000000000E+00 -0.00000000000E+00 -0.10323423496E+03  0.10323423496E+03  0.00000000000E+00 0.  1.
         25    1    1    2    0    0 -0.15551979278E+03 -0.16593137931E+03  0.32399336287E+03  0.41511001887E+03  0.12500000000E+03 0.  0.
         21    1    1    2  503  501  0.14034441057E+03  0.14636423036E+03  0.30318292150E+03  0.36474501422E+03  0.00000000000E+00 0.  1.
         21    1    1    2  504  503  0.15175382203E+02  0.19567148953E+02 -0.21195207118E+02  0.32594514077E+02  0.00000000000E+00 0.  1.
<mgrwt>
<rscale>  4 0.24672007E+03</rscale>
<asrwt>0</asrwt>
<pdfrwt beam="1">  1       21 0.10911005E+00 0.24672007E+03</pdfrwt>
<pdfrwt beam="2">  1       21 0.15882190E-01 0.24672007E+03</pdfrwt>
<totfact> 0.22837873E+04</totfact>
</mgrwt>
</event>
<event>
 5    0  0.1911311E+001  0.3393382E+03  0.7546771E-02  0.1067078E+00
         21   -1    0    0  503  501  0.00000000000E+00  0.00000000000E+00  0.15931951464E+04  0.15931951464E+04  0.00000000000E+00 0.  1.
         21   -1    0    0  504  502 -0.00000000000E+00 -0.00000000000E+00 -0.90616947922E+02  0.90616947922E+02  0.00000000000E+00 0.  1.
         25    1    1    2    0    0 -0.10402218018E+03  0.28922175129E+03  0.59718022994E+03  0.68316839975E+03  0.12500000000E+03 0.  0.
         21    1    1    2  503  502  0.18898205492E+03 -0.26994756968E+03  0.61843479530E+03  0.70074781733E+03  0.00000000000E+00 0.  1.
         21    1    1    2  504  501 -0.84959874733E+02 -0.19274181612E+02  0.28696317325E+03  0.29989587725E+03  0.00000000000E+00 0.  1.
<mgrwt>
<rscale>  4 0.33933823E+03</rscale>
<asrwt>0</asrwt>
<pdfrwt beam="1">  1       21 0.24510693E+00 0.33933823E+03</pdfrwt>
<pdfrwt beam="2">  1       21 0.13941070E-01 0.33933823E+03</pdfrwt>
<totfact> 0.28255871E+03</totfact>
</mgrwt>
</event>
<event>
 5    0  0.1911311E+001  0.2044271E+03  0.7546771E-02  0.1146057E+00
         21   -1    0    0  503  501  0.00000000000E+00  0.00000000000E+00  0.35337332922E+03  0.35337332922E+03  0.00000000000E+00 0.  1.
         21   -1    0    0  504  502 -0.00000000000E+00 -0.00000000000E+00 -0.42575974320E+03  0.42575974320E+03  0.00000000000E+00 0.  1.
         25    1    1    2    0    0  0.49327302064E+02  0.25830204163E+03  0.14321547668E+03  0.32448235730E+03  0.12500000000E+03 0.  0.
         21    1    1    2  503  502 -0.91229484532E+02 -0.12489860679E+03 -0.26459645341E+03  0.30648615627E+03  0.00000000000E+00 0.  1.
         21    1    1    2  504  501  0.41902182468E+02 -0.13340343484E+03  0.48994562754E+02  0.14816455886E+03  0.00000000000E+00 0.  1.
<mgrwt>
<rscale>  4 0.20442712E+03</rscale>
<asrwt>0</asrwt>
<pdfrwt beam="1">  1       21 0.54365128E-01 0.20442712E+03</pdfrwt>
<pdfrwt beam="2">  1       21 0.65501499E-01 0.20442712E+03</pdfrwt>
<totfact> 0.67923119E+03</totfact>
</mgrwt>
</event>
<event>
 5    0  0.1911311E+001  0.2590906E+03  0.7546771E-02  0.1107691E+00
         21   -1    0    0  502  501  0.00000000000E+00  0.00000000000E+00  0.14004961302E+03  0.14004961302E+03  0.00000000000E+00 0. -1.
         21   -1    0    0  504  502 -0.00000000000E+00 -0.00000000000E+00 -0.77821123000E+03  0.77821123000E+03  0.00000000000E+00 0. -1.
         25    1    1    2    0    0  0.85202336045E+01 -0.25305525698E+03 -0.98572861314E+02  0.29908387863E+03  0.12500000000E+03 0.  0.
         21    1    1    2  503  501 -0.29300053264E+02  0.32542897327E+02 -0.96869673741E+01  0.44848306820E+02  0.00000000000E+00 0. -1.
         21    1    1    2  504  503  0.20779819660E+02  0.22051235966E+03 -0.52990178829E+03  0.57432865757E+03  0.00000000000E+00 0. -1.
<mgrwt>
<rscale>  4 0.25909058E+03</rscale>
<asrwt>0</asrwt>
<pdfrwt beam="1">  1       21 0.21546095E-01 0.25909058E+03</pdfrwt>
<pdfrwt beam="2">  1       21 0.11972480E+00 0.25909058E+03</pdfrwt>
<totfact> 0.10220685E+04</totfact>
</mgrwt>
</event>
<event>
 5    0  0.1911311E+001  0.2089270E+03  0.7546771E-02  0.1142419E+00
         21   -1    0    0  503  501  0.00000000000E+00  0.00000000000E+00  0.58436656793E+02  0.58436656793E+02  0.00000000000E+00 0.  1.
         21   -1    0    0  504  502 -0.00000000000E+00 -0.00000000000E+00 -0.13334398932E+04  0.13334398932E+04  0.00000000000E+00 0.  1.
         25    1    1    2    0    0  0.64202590678E+02 -0.21331506803E+03 -0.64930379668E+03  0.69774329899E+03  0.12500000000E+03 0.  0.
         21    1    1    2  503  502 -0.17452213357E+02  0.68335934689E+02 -0.47376244340E+03  0.47898354095E+03  0.00000000000E+00 0.  1.
         21    1    1    2  504  501 -0.46750377321E+02  0.14497913335E+03 -0.15193699633E+03  0.21514971006E+03  0.00000000000E+00 0.  1.
<mgrwt>
<rscale>  4 0.20892697E+03</rscale>
<asrwt>0</asrwt>
<pdfrwt beam="1">  1       21 0.89902550E-02 0.20892697E+03</pdfrwt>
<pdfrwt beam="2">  1       21 0.20514460E+00 0.20892697E+03</pdfrwt>
<totfact> 0.12024114E+04</totfact>
</mgrwt>
</event>
