<event>
 5    0  0.1911311E+001  0.2574931E+03  0.7546771E-02  0.1108659E+00
         21   -1    0    0  504  501  0.00000000000E+00  0.00000000000E+00  0.36339771612E+03  0.36339771612E+03  0.00000000000E+00 0.  1.
         21   -1    0    0  501  502 -0.00000000000E+00 -0.00000000000E+00 -0.30447745937E+03  0.30447745937E+03  0.00000000000E+00 0.  1.
         25    1    1    2    0    0  0.16329475445E+03 -0.15660796257E+03 -0.15849223568E+03  0.30320953076E+03  0.12500000000E+03 0.  0.
         21    1    1    2  503  502 -0.19018041551E+03  0.12138918828E+03  0.22621118116E+03  0.31949244742E+03  0.00000000000E+00 0.  1.
         21    1    1    2  504  503  0.26885661056E+02  0.35218774287E+02 -0.87986887259E+01  0.45173197318E+02  0.00000000000E+00 0. -1.
<mgrwt>
<rscale>  4 0.25749311E+03</rscale>
<asrwt>0</asrwt>
<pdfrwt beam="1">  1       21 0.55907341E-01 0.25749311E+03</pdfrwt>
<pdfrwt beam="2">  1       21 0.46842686E-01 0.25749311E+03</pdfrwt>
<totfact> 0.12654100E+04</totfact>
</mgrwt>
</event>
<event>
 5    0  0.1911311E+001  0.4017507E+03  0.7546771E-02  0.1043175E+00
         21   -1    0    0  504  501  0.00000000000E+00  0.00000000000E+00  0.34351943137E+03  0.34351943137E+03  0.00000000000E+00 0. -1.
         21   -1    0    0  503  502 -0.00000000000E+00 -0.00000000000E+00 -0.74680013440E+03  0.74680013440E+03  0.00000000000E+00 0. -1.
         25    1    1    2    0    0  0.27778364026E+03  0.17728658852E+03 -0.26751709211E+03  0.44247562627E+03  0.12500000000E+03 0.  0.
         21    1    1    2  503  501  0.21697576453E+02  0.10115121964E+03 -0.20826619392E+03  0.23254496681E+03  0.00000000000E+00 0.  1.
         21    1    1    2  504  502 -0.29948121672E+03 -0.27843780816E+03  0.72502583008E+02  0.41529897270E+03  0.00000000000E+00 0. -1.
<mgrwt>
<rscale>  4 0.40175070E+03</rscale>
<asrwt>0</asrwt>
<pdfrwt beam="1">  1       21 0.52849143E-01 0.40175070E+03</pdfrwt>
<pdfrwt beam="2">  1       21 0.11489233E+00 0.40175070E+03</pdfrwt>
<totfact> 0.17458999E+03</totfact>
</mgrwt>
</event>
<event>
 5    0  0.1911311E+001  0.3143726E+03  0.7546771E-02  0.1078269E+00
         21   -1    0    0  502  501  0.00000000000E+00  0.00000000000E+00  0.84549291449E+03  0.84549291449E+03  0.00000000000E+00 0.  1.
         21   -1    0    0  504  502 -0.00000000000E+00 -0.00000000000E+00 -0.64961093611E+03  0.64961093611E+03  0.00000000000E+00 0.  1.
         25    1    1    2    0    0  0.25115851977E+02  0.36573397262E+03 -0.30629416191E+03  0.49379475328E+03  0.12500000000E+03 0.  0.
         21    1    1    2  503  501  0.10879869301E+03 -0.26385223940E+03  0.69146126364E+03  0.74804668234E+03  0.00000000000E+00 0.  1.
         21    1    1    2  504  503 -0.13391454498E+03 -0.10188173322E+03 -0.18928512336E+03  0.25326241499E+03  0.00000000000E+00 0.  1.
<mgrwt>
<rscale>  4 0.31437265E+03</rscale>
<asrwt>0</asrwt>
<pdfrwt beam="1">  1       21 0.13007583E+00 0.31437265E+03</pdfrwt>
<pdfrwt beam="2">  1       21 0.99940143E-01 0.31437265E+03</pdfrwt>
<totfact> 0.31715923E+02</totfact>
</mgrwt>
</event>
<event>
 5    0  0.1911311E+001  0.2294323E+03  0.7546771E-02  0.1127040E+00
         21   -1    0    0  502  501  0.00000000000E+00  0.00000000000E+00  0.76968191004E+02  0.76968191004E+02  0.00000000000E+00 0.  1.
         21   -1    0    0  504  502 -0.00000000000E+00 -0.00000000000E+00 -0.10509922450E+04  0.10509922450E+04  0.00000000000E+00 0.  1.
         25    1    1    2    0    0 -0.22069250593E+03  0.14239928194E+02 -0.73871759901E+03  0.78117645178E+03  0.12500000000E+03 0.  0.
         21    1    1    2  503  501  0.18612013827E+03 -0.68976098993E+01 -0.10937932632E+03  0.21599101814E+03  0.00000000000E+00 0.  1.
         21    1    1    2  504  503  0.34572367658E+02 -0.73423182949E+01 -0.12592712869E+03  0.13079296611E+03  0.00000000000E+00 0. -1.
<mgrwt>
<rscale>  4 0.22943229E+03</rscale>
<asrwt>0</asrwt>
<pdfrwt beam="1">  1       21 0.11841260E-01 0.22943229E+03</pdfrwt>
<pdfrwt beam="2">  1       21 0.16169111E+00 0.22943229E+03</pdfrwt>
<totfact> 0.14331986E+04</totfact>
</mgrwt>
</event>
<event>
 5    0  0.1911311E+001  0.2644476E+03  0.7546771E-02  0.1104500E+00
         21   -1    0    0  502  501  0.00000000000E+00  0.00000000000E+00  0.16898509418E+03  0.16898509418E+03  0.00000000000E+00 0. -1.
         21   -1    0    0  504  502 -0.00000000000E+00 -0.00000000000E+00 -0.45652368247E+03  0.45652368247E+03  0.00000000000E+00 0. -1.
         25    1    1    2    0    0 -0.62132508696E+02 -0.23020989073E+03 -0.55825331744E+02  0.27495183231E+03  0.12500000000E+03 0.  0.
         21    1    1    2  503  501  0.28113524138E+02  0.16207971308E+01 -0.88989639743E+01  0.29532842440E+02  0.00000000000E+00 0. -1.
         21    1    1    2  504  503  0.34018984558E+02  0.22858909360E+03 -0.22281429257E+03  0.32102410189E+03  0.00000000000E+00 0. -1.
<mgrwt>
<rscale>  4 0.26444756E+03</rscale>
<asrwt>0</asrwt>
<pdfrwt beam="1">  1       21 0.25997707E-01 0.26444756E+03</pdfrwt>
<pdfrwt beam="2">  1       21 0.70234412E-01 0.26444756E+03</pdfrwt>
<totfact> 0.24921364E+04</totfact>
</mgrwt>
</event>
<event>
 5    0  0.3959854E+001  0.2237024E+03  0.7546771E-02  0.1131152E+00
         21   -1    0    0  504  501  0.00000000000E+00  0.00000000000E+00  0.17339381045E+03  0.17339381045E+03  0.00000000000E+00 0.  1.
         21   -1    0    0  501  502 -0.00000000000E+00 -0.00000000000E+00 -0.47115034967E+03  0.47115034967E+03  0.00000000000E+00 0. -1.
         25    1    1    2    0    0  0.16246746926E+03 -0.13213314620E+03  0.96648546738E+01  0.24407633296E+03  0.12500000000E+03 0.  0.
         21    1    1    2  503  502 -0.26764633059E+02  0.12261275613E+02  0.13191432453E+02  0.32259856674E+02  0.00000000000E+00 0. -1.
         21    1    1    2  504  503 -0.13570283620E+03  0.11987187059E+03 -0.32061282635E+03  0.36820797049E+03  0.00000000000E+00 0. -1.
<mgrwt>
<rscale>  4 0.22370244E+03</rscale>
<asrwt>0</asrwt>
<pdfrwt beam="1">  1       21 0.26675971E-01 0.22370244E+03</pdfrwt>
<pdfrwt beam="2">  1       21 0.72484668E-01 0.22370244E+03</pdfrwt>
<totfact> 0.22543140E+04</totfact>
</mgrwt>
</event>
<event>
 5    0  0.1911311E+001  0.4191747E+03  0.7546771E-02  0.1037335E+00
         21   -1    0    0  503  501  0.00000000000E+00  0.00000000000E+00  0.43977726754E+03  0.43977726754E+03  0.00000000000E+00 0. -1.
         21   -1    0    0  504  502 -0.00000000000E+00 -0.00000000000E+00 -0.44001284046E+03  0.44001284046E+03  0.00000000000E+00 0. -1.
         25    1    1    2    0    0  0.67026216667E+01 -0.41735983929E+03  0.27419280363E+02  0.43659017112E+03  0.12500000000E+03 0.  0.
         21    1    1    2  503  502  0.10005787478E+02  0.33038965823E+02 -0.46665977968E+02  0.58046554983E+02  0.00000000000E+00 0. -1.
         21    1    1    2  504  501 -0.16708409145E+02  0.38432087346E+03  0.19011124685E+02  0.38515338189E+03  0.00000000000E+00 0. -1.
<mgrwt>
<rscale>  4 0.41917472E+03</rscale>
<asrwt>0</asrwt>
<pdfrwt beam="1">  1       21 0.67658042E-01 0.41917472E+03</pdfrwt>
<pdfrwt beam="2">  1       21 0.67694283E-01 0.41917472E+03</pdfrwt>
<totfact> 0.35177930E+03</totfact>
</mgrwt>
</event>
