<event>
 5    0  0.1877582E+000  0.3420213E+03  0.7546771E-02  0.1065938E+00
         21   -1    0    0  502  501  0.00000000000E+00  0.00000000000E+00  0.35699345044E+03  0.35699345044E+03  0.00000000000E+00 0. -1.
         21   -1    0    0  503  502 -0.00000000000E+00 -0.00000000000E+00 -0.33258873559E+03  0.33258873559E+03  0.00000000000E+00 0. -1.
         25    1    1    2    0    0  0.28513456847E+03 -0.14160449415E+03  0.78618334986E+02  0.35094073217E+03  0.12500000000E+03 0.  0.
         21    1    1    2  503  504 -0.13078542373E+03  0.11820392228E+03 -0.10861707586E+02  0.17662098118E+03  0.00000000000E+00 0. -1.
         21    1    1    2  504  501 -0.15434914474E+03  0.23400571864E+02 -0.43351912555E+02  0.16202047268E+03  0.00000000000E+00 0. -1.
<mgrwt>
<rscale>  4 0.34202128E+03</rscale>
<asrwt>0</asrwt>
<pdfrwt beam="1">  1       21 0.54922069E-01 0.34202128E+03</pdfrwt>
<pdfrwt beam="2">  1       21 0.51167498E-01 0.34202128E+03</pdfrwt>
<totfact> 0.10516803E+04</totfact>
</mgrwt>
</event>
<event>
 5    0  0.1856407E+000  0.4524358E+03  0.7546771E-02  0.1027132E+00
         21   -1    0    0  502  501  0.00000000000E+00  0.00000000000E+00  0.19203701053E+03  0.19203701053E+03  0.00000000000E+00 0.  1.
         21   -1    0    0  503  502 -0.00000000000E+00 -0.00000000000E+00 -0.11452688344E+04  0.11452688344E+04  0.00000000000E+00 0.  1.
         25    1    1    2    0    0  0.41586484787E+03  0.12042908974E+03 -0.65636448446E+03  0.79616962628E+03  0.12500000000E+03 0.  0.
         21    1    1    2  503  504 -0.30056435493E+03 -0.80122749789E+02 -0.13685881689E+03  0.33983661111E+03  0.00000000000E+00 0.  1.
         21    1    1    2  504  501 -0.11530049294E+03 -0.40306339949E+02 -0.16000852249E+03  0.20129960750E+03  0.00000000000E+00 0. -1.
<mgrwt>
<rscale>  4 0.45198491E+03</rscale>
<asrwt>0</asrwt>
<pdfrwt beam="1">  1       21 0.29544156E-01 0.45243584E+03</pdfrwt>
<pdfrwt beam="2">  1       21 0.17619520E+00 0.45243584E+03</pdfrwt>
<totfact> 0.17998368E+03</totfact>
</mgrwt>
</event>
<event>
 5    0  0.1856407E+000  0.2600628E+03  0.7546771E-02  0.1107105E+00
         21   -1    0    0  502  501  0.00000000000E+00  0.00000000000E+00  0.21360127730E+03  0.21360127730E+03  0.00000000000E+00 0. -1.
         21   -1    0    0  503  502 -0.00000000000E+00 -0.00000000000E+00 -0.48102706073E+03  0.48102706073E+03  0.00000000000E+00 0.  1.
         25    1    1    2    0    0 -0.21866623577E+03  0.64751467507E+02  0.74526279685E+02  0.27053066660E+03  0.12500000000E+03 0.  0.
         21    1    1    2  503  504  0.78848001236E+02 -0.11240300321E+02 -0.20978918855E+03  0.22439887540E+03  0.00000000000E+00 0. -1.
         21    1    1    2  504  501  0.13981823453E+03 -0.53511167186E+02 -0.13216287457E+03  0.19969879603E+03  0.00000000000E+00 0.  1.
<mgrwt>
<rscale>  4 0.26006283E+03</rscale>
<asrwt>0</asrwt>
<pdfrwt beam="1">  1       21 0.32861735E-01 0.26006283E+03</pdfrwt>
<pdfrwt beam="2">  1       21 0.74004163E-01 0.26006283E+03</pdfrwt>
<totfact> 0.14045395E+04</totfact>
</mgrwt>
</event>
<event>
 5    0  0.1856407E+000  0.3366324E+03  0.7546771E-02  0.1068905E+00
         21   -1    0    0  502  501  0.00000000000E+00  0.00000000000E+00  0.34002648070E+03  0.34002648070E+03  0.00000000000E+00 0.  1.
         21   -1    0    0  503  502 -0.00000000000E+00 -0.00000000000E+00 -0.33991832005E+03  0.33991832005E+03  0.00000000000E+00 0.  1.
         25    1    1    2    0    0 -0.22103431294E+03 -0.21156803512E+03  0.65692425416E+02  0.33698322768E+03  0.12500000000E+03 0.  0.
         21    1    1    2  503  504  0.14824338752E+03  0.94338252313E+02 -0.98026471642E+02  0.20120883911E+03  0.00000000000E+00 0.  1.
         21    1    1    2  504  501  0.72790925421E+02  0.11722978281E+03  0.32442206876E+02  0.14175273397E+03  0.00000000000E+00 0.  1.
<mgrwt>
<rscale>  4 0.33509327E+03</rscale>
<asrwt>0</asrwt>
<pdfrwt beam="1">  1       21 0.52311766E-01 0.33663236E+03</pdfrwt>
<pdfrwt beam="2">  1       21 0.52295126E-01 0.33663236E+03</pdfrwt>
<totfact> 0.11165091E+04</totfact>
</mgrwt>
</event>
<event>
 5    0  0.1856407E+000  0.2573395E+03  0.7546771E-02  0.1108752E+00
         21   -1    0    0  502  501  0.00000000000E+00  0.00000000000E+00  0.67446006062E+02  0.67446006062E+02  0.00000000000E+00 0.  1.
         21   -1    0    0  503  502 -0.00000000000E+00 -0.00000000000E+00 -0.88462690360E+03  0.88462690360E+03  0.00000000000E+00 0.  1.
         25    1    1    2    0    0  0.21893746258E+03 -0.51623837915E+02 -0.42406034492E+03  0.49603508878E+03  0.12500000000E+03 0.  0.
         21    1    1    2  503  504 -0.10841057568E+03  0.32882844350E+02 -0.14699955399E+03  0.18558826268E+03  0.00000000000E+00 0.  1.
         21    1    1    2  504  501 -0.11052688690E+03  0.18740993565E+02 -0.24612099862E+03  0.27044955820E+03  0.00000000000E+00 0.  1.
<mgrwt>
<rscale>  4 0.25733953E+03</rscale>
<asrwt>0</asrwt>
<pdfrwt beam="1">  1       21 0.10376309E-01 0.25733953E+03</pdfrwt>
<pdfrwt beam="2">  1       21 0.13609645E+00 0.25733953E+03</pdfrwt>
<totfact> 0.28228094E+04</totfact>
</mgrwt>
</event>
<event>
 5    0  0.1856407E+000  0.2420240E+03  0.7546771E-02  0.1118452E+00
         21   -1    0    0  502  501  0.00000000000E+00  0.00000000000E+00  0.60006077477E+03  0.60006077477E+03  0.00000000000E+00 0. -1.
         21   -1    0    0  503  502 -0.00000000000E+00 -0.00000000000E+00 -0.79260620517E+03  0.79260620517E+03  0.00000000000E+00 0. -1.
         25    1    1    2    0    0 -0.96473608241E+02 -0.18409390528E+03  0.55739043339E+03  0.60787072497E+03  0.12500000000E+03 0.  0.
         21    1    1    2  503  504  0.63153538331E+02  0.18215170192E+03 -0.68724668553E+03  0.71377560808E+03  0.00000000000E+00 0. -1.
         21    1    1    2  504  501  0.33320069910E+02  0.19422033627E+01 -0.62689178267E+02  0.71020646889E+02  0.00000000000E+00 0.  1.
<mgrwt>
<rscale>  4 0.24202399E+03</rscale>
<asrwt>0</asrwt>
<pdfrwt beam="1">  1       21 0.92317042E-01 0.24202399E+03</pdfrwt>
<pdfrwt beam="2">  1       21 0.12193942E+00 0.24202399E+03</pdfrwt>
<totfact> 0.47795834E+02</totfact>
</mgrwt>
</event>
<event>
 5    0  0.4314285E+000  0.2982964E+03  0.7546771E-02  0.1086095E+00
         21   -1    0    0  502  501  0.00000000000E+00  0.00000000000E+00  0.22711876455E+03  0.22711876455E+03  0.00000000000E+00 0.  1.
         21   -1    0    0  503  502 -0.00000000000E+00 -0.00000000000E+00 -0.46828436783E+03  0.46828436783E+03  0.00000000000E+00 0.  1.
         25    1    1    2    0    0 -0.16715760341E+03  0.22427443555E+03 -0.30051761049E+01  0.30638981364E+03  0.12500000000E+03 0.  0.
         21    1    1    2  503  504  0.13438880648E+03 -0.22055794092E+03 -0.15908998501E+03  0.30334102911E+03  0.00000000000E+00 0.  1.
         21    1    1    2  504  501  0.32768796937E+02 -0.37164946249E+01 -0.79070442164E+02  0.85672289622E+02  0.00000000000E+00 0.  1.
<mgrwt>
<rscale>  4 0.29829638E+03</rscale>
<asrwt>0</asrwt>
<pdfrwt beam="1">  1       21 0.34941349E-01 0.29829638E+03</pdfrwt>
<pdfrwt beam="2">  1       21 0.72043748E-01 0.29829638E+03</pdfrwt>
<totfact> 0.12965990E+04</totfact>
</mgrwt>
</event>
<event>
 5    0  0.1856407E+000  0.2419661E+03  0.7546771E-02  0.1118490E+00
         21   -1    0    0  502  501  0.00000000000E+00  0.00000000000E+00  0.10211424246E+04  0.10211424246E+04  0.00000000000E+00 0. -1.
         21   -1    0    0  503  502 -0.00000000000E+00 -0.00000000000E+00 -0.14944658379E+04  0.14944658379E+04  0.00000000000E+00 0. -1.
         25    1    1    2    0    0  0.18433384948E+03 -0.95459284825E+02  0.99464827755E+03  0.10237390484E+04  0.12500000000E+03 0.  0.
         21    1    1    2  503  504 -0.17756055435E+02  0.50138938105E+02 -0.10203435501E+03  0.11506606894E+03  0.00000000000E+00 0. -1.
         21    1    1    2  504  501 -0.16657779405E+03  0.45320346720E+02 -0.13659373358E+04  0.13768031452E+04  0.00000000000E+00 0. -1.
<mgrwt>
<rscale>  4 0.24196609E+03</rscale>
<asrwt>0</asrwt>
<pdfrwt beam="1">  1       21 0.15709884E+00 0.24196609E+03</pdfrwt>
<pdfrwt beam="2">  1       21 0.22991782E+00 0.24196609E+03</pdfrwt>
<totfact> 0.21420878E+01</totfact>
</mgrwt>
</event>
<event>
 5    0  0.2064617E+000  0.2441954E+03  0.7546771E-02  0.1117029E+00
         21   -1    0    0  502  501  0.00000000000E+00  0.00000000000E+00  0.26432296004E+03  0.26432296004E+03  0.00000000000E+00 0. -1.
         21   -1    0    0  503  502 -0.00000000000E+00 -0.00000000000E+00 -0.28019454799E+03  0.28019454799E+03  0.00000000000E+00 0. -1.
         25    1    1    2    0    0 -0.21872854762E+01  0.20976565696E+03  0.13595065529E+03  0.27948881146E+03  0.12500000000E+03 0.  0.
         21    1    1    2  503  504  0.26092691567E+02 -0.15609915253E+03 -0.10537289486E+03  0.19013474418E+03  0.00000000000E+00 0. -1.
         21    1    1    2  504  501 -0.23905406091E+02 -0.53666504429E+02 -0.46449348382E+02  0.74893952380E+02  0.00000000000E+00 0. -1.
<mgrwt>
<rscale>  4 0.24419544E+03</rscale>
<asrwt>0</asrwt>
<pdfrwt beam="1">  1       21 0.40665071E-01 0.24419544E+03</pdfrwt>
<pdfrwt beam="2">  1       21 0.43106853E-01 0.24419544E+03</pdfrwt>
<totfact> 0.29366697E+04</totfact>
</mgrwt>
</event>
<event>
 5    0  0.1856407E+000  0.2718015E+03  0.7546771E-02  0.1100253E+00
         21   -1    0    0  502  501  0.00000000000E+00  0.00000000000E+00  0.42057872938E+03  0.42057872938E+03  0.00000000000E+00 0.  1.
         21   -1    0    0  503  502 -0.00000000000E+00 -0.00000000000E+00 -0.17861034523E+04  0.17861034523E+04  0.00000000000E+00 0.  1.
         25    1    1    2    0    0 -0.20627196342E+03  0.13464872021E+03  0.34201600145E+03  0.43963433214E+03  0.12500000000E+03 0.  0.
         21    1    1    2  503  504  0.19663386954E+03  0.96162745276E+02 -0.70311318240E+03  0.73639683561E+03  0.00000000000E+00 0.  1.
         21    1    1    2  504  501  0.96380938729E+01 -0.23081146548E+03 -0.10044275419E+04  0.10306510139E+04  0.00000000000E+00 0.  1.
<mgrwt>
<rscale>  4 0.27180152E+03</rscale>
<asrwt>0</asrwt>
<pdfrwt beam="1">  1       21 0.64704420E-01 0.27180152E+03</pdfrwt>
<pdfrwt beam="2">  1       21 0.27478515E+00 0.27180152E+03</pdfrwt>
<totfact> 0.94471511E+01</totfact>
</mgrwt>
</event>
