<event>
 5    0  0.1943430E+001  0.2400292E+03  0.7546771E-02  0.1119773E+00
         21   -1    0    0  503  501  0.00000000000E+00  0.00000000000E+00  0.23394432112E+04  0.23394432112E+04  0.00000000000E+00 0.  1.
         21   -1    0    0  504  502 -0.00000000000E+00 -0.00000000000E+00 -0.95961069527E+02  0.95961069527E+02  0.00000000000E+00 0. -1.
         25    1    1    2    0    0 -0.12776503838E+02 -0.22551965441E+03  0.18753125963E+04  0.18929988609E+04  0.12500000000E+03 0.  0.
         21    1    1    2  503  502  0.26427113451E+02  0.58002580079E+02 -0.56819999105E+02  0.85388546770E+02  0.00000000000E+00 0. -1.
         21    1    1    2  504  501 -0.13650609613E+02  0.16751707433E+03  0.42498954451E+03  0.45701687307E+03  0.00000000000E+00 0.  1.
<mgrwt>
<rscale>  4 0.24002924E+03</rscale>
<asrwt>0</asrwt>
<pdfrwt beam="1">  1       21 0.35991430E+00 0.24002924E+03</pdfrwt>
<pdfrwt beam="2">  1       21 0.14763243E-01 0.24002924E+03</pdfrwt>
<totfact> 0.57748352E+02</totfact>
</mgrwt>
</event>
<event>
 5    0  0.1943430E+001  0.2746399E+03  0.7546771E-02  0.1098653E+00
         21   -1    0    0  504  501  0.00000000000E+00  0.00000000000E+00  0.23190175528E+03  0.23190175528E+03  0.00000000000E+00 0. -1.
         21   -1    0    0  503  502 -0.00000000000E+00 -0.00000000000E+00 -0.90244028647E+03  0.90244028647E+03  0.00000000000E+00 0. -1.
         25    1    1    2    0    0  0.19580504300E+03  0.13962072669E+03  0.77820682799E+02  0.28198336982E+03  0.12500000000E+03 0.  0.
         21    1    1    2  503  501 -0.22069629274E+03 -0.13342358587E+03 -0.27022721107E+03  0.37353909099E+03  0.00000000000E+00 0. -1.
         21    1    1    2  504  502  0.24891249743E+02 -0.61971408206E+01 -0.47813200292E+03  0.47881958094E+03  0.00000000000E+00 0. -1.
<mgrwt>
<rscale>  4 0.27463988E+03</rscale>
<asrwt>0</asrwt>
<pdfrwt beam="1">  1       21 0.35677193E-01 0.27463988E+03</pdfrwt>
<pdfrwt beam="2">  1       21 0.13883697E+00 0.27463988E+03</pdfrwt>
<totfact> 0.25994224E+03</totfact>
</mgrwt>
</event>
<event>
 5    0  0.1943430E+001  0.2537783E+03  0.7546771E-02  0.1110940E+00
         21   -1    0    0  504  501  0.00000000000E+00  0.00000000000E+00  0.26146095475E+03  0.26146095475E+03  0.00000000000E+00 0.  1.
         21   -1    0    0  501  502 -0.00000000000E+00 -0.00000000000E+00 -0.11463380233E+04  0.11463380233E+04  0.00000000000E+00 0. -1.
         25    1    1    2    0    0 -0.56490211220E+02 -0.25654212807E+03 -0.49238196698E+03  0.57190034870E+03  0.12500000000E+03 0.  0.
         21    1    1    2  503  502  0.16818247427E+02  0.43514144658E+02 -0.56004626930E+03  0.56198590551E+03  0.00000000000E+00 0. -1.
         21    1    1    2  504  503  0.39671963793E+02  0.21302798342E+03  0.16755116778E+03  0.27391272379E+03  0.00000000000E+00 0.  1.
<mgrwt>
<rscale>  4 0.25377833E+03</rscale>
<asrwt>0</asrwt>
<pdfrwt beam="1">  1       21 0.40224762E-01 0.25377833E+03</pdfrwt>
<pdfrwt beam="2">  1       21 0.17635970E+00 0.25377833E+03</pdfrwt>
<totfact> 0.10830818E+03</totfact>
</mgrwt>
</event>
<event>
 5    0  0.1943430E+001  0.2382080E+03  0.7546771E-02  0.1120992E+00
         21   -1    0    0  504  501  0.00000000000E+00  0.00000000000E+00  0.30828156529E+03  0.30828156529E+03  0.00000000000E+00 0.  1.
         21   -1    0    0  501  502 -0.00000000000E+00 -0.00000000000E+00 -0.41921917248E+03  0.41921917248E+03  0.00000000000E+00 0.  1.
         25    1    1    2    0    0 -0.11591945964E+03 -0.16637526508E+03  0.22316147830E+03  0.32641093019E+03  0.12500000000E+03 0.  0.
         21    1    1    2  503  502  0.10547886219E+02  0.51817817833E+02 -0.15518198721E+03  0.16394448238E+03  0.00000000000E+00 0.  1.
         21    1    1    2  504  503  0.10537157342E+03  0.11455744725E+03 -0.17891709827E+03  0.23714532519E+03  0.00000000000E+00 0.  1.
<mgrwt>
<rscale>  4 0.23820800E+03</rscale>
<asrwt>0</asrwt>
<pdfrwt beam="1">  1       21 0.47427933E-01 0.23820800E+03</pdfrwt>
<pdfrwt beam="2">  1       21 0.64495258E-01 0.23820800E+03</pdfrwt>
<totfact> 0.91506597E+03</totfact>
</mgrwt>
</event>
<event>
 5    0  0.1943430E+001  0.3295359E+03  0.7546771E-02  0.1071342E+00
         21   -1    0    0  503  501  0.00000000000E+00  0.00000000000E+00  0.16592663742E+04  0.16592663742E+04  0.00000000000E+00 0. -1.
         21   -1    0    0  504  502 -0.00000000000E+00 -0.00000000000E+00 -0.24998896470E+03  0.24998896470E+03  0.00000000000E+00 0. -1.
         25    1    1    2    0    0 -0.22426454269E+03  0.21430929934E+03 -0.16160377210E+02  0.33482714747E+03  0.12500000000E+03 0.  0.
         21    1    1    2  503  502 -0.87010065805E+01 -0.18242600556E+02 -0.57293925402E+02  0.60754373328E+02  0.00000000000E+00 0. -1.
         21    1    1    2  504  501  0.23296554927E+03 -0.19606669878E+03  0.14827317121E+04  0.15136738181E+04  0.00000000000E+00 0. -1.
<mgrwt>
<rscale>  4 0.32953586E+03</rscale>
<asrwt>0</asrwt>
<pdfrwt beam="1">  1       21 0.25527174E+00 0.32953586E+03</pdfrwt>
<pdfrwt beam="2">  1       21 0.38459842E-01 0.32953586E+03</pdfrwt>
<totfact> 0.35052983E+02</totfact>
</mgrwt>
</event>
<event>
 5    0  0.1943430E+001  0.2297243E+03  0.7546771E-02  0.1126834E+00
         21   -1    0    0  503  501  0.00000000000E+00  0.00000000000E+00  0.40977289717E+03  0.40977289717E+03  0.00000000000E+00 0.  1.
         21   -1    0    0  504  502 -0.00000000000E+00 -0.00000000000E+00 -0.28555866845E+03  0.28555866845E+03  0.00000000000E+00 0. -1.
         25    1    1    2    0    0  0.20909492926E+03 -0.48065662175E+02  0.30348270014E+03  0.39211955652E+03  0.12500000000E+03 0.  0.
         21    1    1    2  503  502 -0.10990819999E+03 -0.21736263311E+02 -0.41040477131E+02  0.11931721725E+03  0.00000000000E+00 0.  1.
         21    1    1    2  504  501 -0.99186729264E+02  0.69801925486E+02 -0.13822799429E+03  0.18389479185E+03  0.00000000000E+00 0. -1.
<mgrwt>
<rscale>  4 0.22972428E+03</rscale>
<asrwt>0</asrwt>
<pdfrwt beam="1">  1       21 0.63041984E-01 0.22972428E+03</pdfrwt>
<pdfrwt beam="2">  1       21 0.43932103E-01 0.22972428E+03</pdfrwt>
<totfact> 0.11322623E+04</totfact>
</mgrwt>
</event>
<event>
 5    0  0.1943430E+001  0.2640160E+03  0.7546771E-02  0.1104754E+00
         21   -1    0    0  504  501  0.00000000000E+00  0.00000000000E+00  0.60417242497E+03  0.60417242497E+03  0.00000000000E+00 0.  1.
         21   -1    0    0  503  502 -0.00000000000E+00 -0.00000000000E+00 -0.16712642371E+03  0.16712642371E+03  0.00000000000E+00 0. -1.
         25    1    1    2    0    0  0.18122852020E+03 -0.15255000769E+03  0.39051982192E+02  0.27067570762E+03  0.12500000000E+03 0.  0.
         21    1    1    2  503  501 -0.16239597540E+03  0.16517103435E+03  0.41293977793E+03  0.47346930588E+03  0.00000000000E+00 0.  1.
         21    1    1    2  504  502 -0.18832544798E+02 -0.12621026654E+02 -0.14945758865E+02  0.27153835188E+02  0.00000000000E+00 0. -1.
<mgrwt>
<rscale>  4 0.26401601E+03</rscale>
<asrwt>0</asrwt>
<pdfrwt beam="1">  1       21 0.92949603E-01 0.26401601E+03</pdfrwt>
<pdfrwt beam="2">  1       21 0.25711758E-01 0.26401601E+03</pdfrwt>
<totfact> 0.13421679E+04</totfact>
</mgrwt>
</event>
<event>
 5    0  0.1943430E+001  0.2269830E+03  0.7546771E-02  0.1128781E+00
         21   -1    0    0  503  501  0.00000000000E+00  0.00000000000E+00  0.32957418531E+03  0.32957418531E+03  0.00000000000E+00 0.  1.
         21   -1    0    0  504  502 -0.00000000000E+00 -0.00000000000E+00 -0.43717101012E+03  0.43717101012E+03  0.00000000000E+00 0.  1.
         25    1    1    2    0    0 -0.19465229903E+03  0.12187181297E+03  0.41800385732E+01  0.26150473999E+03  0.12500000000E+03 0.  0.
         21    1    1    2  503  502  0.18161607855E+03 -0.12859901465E+02  0.14058571710E+03  0.23003069557E+03  0.00000000000E+00 0.  1.
         21    1    1    2  504  501  0.13036220478E+02 -0.10901191150E+03 -0.25236258049E+03  0.27520975986E+03  0.00000000000E+00 0.  1.
<mgrwt>
<rscale>  4 0.22698304E+03</rscale>
<asrwt>0</asrwt>
<pdfrwt beam="1">  1       21 0.50703721E-01 0.22698304E+03</pdfrwt>
<pdfrwt beam="2">  1       21 0.67257079E-01 0.22698304E+03</pdfrwt>
<totfact> 0.73103157E+03</totfact>
</mgrwt>
</event>
<event>
 5    0  0.1943430E+001  0.3096533E+03  0.7546771E-02  0.1080512E+00
         21   -1    0    0  503  501  0.00000000000E+00  0.00000000000E+00  0.83324758029E+03  0.83324758029E+03  0.00000000000E+00 0. -1.
         21   -1    0    0  504  502 -0.00000000000E+00 -0.00000000000E+00 -0.52011326338E+03  0.52011326338E+03  0.00000000000E+00 0. -1.
         25    1    1    2    0    0 -0.21394313990E+03  0.40031532202E+02  0.63431479624E+03  0.68216893172E+03  0.12500000000E+03 0.  0.
         21    1    1    2  503  502 -0.47610302490E+02 -0.16800617679E+03  0.66050960814E+02  0.18669639998E+03  0.00000000000E+00 0. -1.
         21    1    1    2  504  501  0.26155344239E+03  0.12797464458E+03 -0.38723144014E+03  0.48449551196E+03  0.00000000000E+00 0. -1.
<mgrwt>
<rscale>  4 0.30965331E+03</rscale>
<asrwt>0</asrwt>
<pdfrwt beam="1">  1       21 0.12819194E+00 0.30965331E+03</pdfrwt>
<pdfrwt beam="2">  1       21 0.80017425E-01 0.30965331E+03</pdfrwt>
<totfact> 0.55617961E+02</totfact>
</mgrwt>
</event>
<event>
 5    0  0.1943430E+001  0.2142379E+03  0.7546771E-02  0.1138253E+00
         21   -1    0    0  504  501  0.00000000000E+00  0.00000000000E+00  0.75394860029E+02  0.75394860029E+02  0.00000000000E+00 0.  1.
         21   -1    0    0  503  502 -0.00000000000E+00 -0.00000000000E+00 -0.17159411708E+04  0.17159411708E+04  0.00000000000E+00 0.  1.
         25    1    1    2    0    0  0.54723827185E+02  0.21577044417E+03 -0.38178070108E+03  0.45927452091E+03  0.12500000000E+03 0.  0.
         21    1    1    2  503  501 -0.97360162074E+02 -0.12457191569E+03 -0.14743718692E+03  0.21618253266E+03  0.00000000000E+00 0.  1.
         21    1    1    2  504  502  0.42636334889E+02 -0.91198528478E+02 -0.11113284227E+04  0.11158789772E+04  0.00000000000E+00 0.  1.
<mgrwt>
<rscale>  4 0.21423795E+03</rscale>
<asrwt>0</asrwt>
<pdfrwt beam="1">  1       21 0.11599210E-01 0.21423795E+03</pdfrwt>
<pdfrwt beam="2">  1       21 0.26399093E+00 0.21423795E+03</pdfrwt>
<totfact> 0.33560173E+03</totfact>
</mgrwt>
</event>
