<LesHouchesEvents version="3.0">
  <!--
  <scalesfunctionalform>
    muR  H_T/2 := sum_i mT(i)/2, i=final state
    muF1 H_T/2 := sum_i mT(i)/2, i=final state
    muF2 H_T/2 := sum_i mT(i)/2, i=final state
    QES  H_T/2 := sum_i mT(i)/2, i=final state
  </scalesfunctionalform>
HERWIG6   
  -->
  <header>
       31
  </header>
  <init>
   2212   2212 0.65000000D+04 0.65000000D+04 -1 -1   244800   244800 -4   1
 0.50425081D-04 0.17572786D-05 0.18366665D-05     66
  </init>
  <event>
  7     66 0.18366665E-05 0.20544091E+02 0.75467711E-02 0.90776342E-01
       -2 -1    0    0    0  501 0.00000000E+00 0.00000000E+00 0.94952321E+03 0.94952326E+03 0.32000000E+00 0.0000E+00 0.9000E+01
        2 -1    0    0  503    0 0.00000000E+00 0.00000000E+00 -.72348295E+03 0.72348302E+03 0.32000000E+00 0.0000E+00 0.9000E+01
       23  2    1    2    0    0 0.60910167E+03 -.27193458E+03 0.43831214E+03 0.80324297E+03 0.90158118E+02 0.0000E+00 0.0000E+00
       25  1    1    2    0    0 -.64226125E+03 0.28995054E+03 -.66017694E+02 0.71871703E+03 0.12500000E+03 0.0000E+00 0.9000E+01
        2  1    3    3  502    0 0.52597259E+03 -.20413714E+03 0.34695785E+03 0.66234356E+03 0.32000000E+00 0.0000E+00 0.9000E+01
       -2  1    3    3    0  502 0.83129072E+02 -.67797442E+02 0.91354284E+02 0.14089941E+03 0.32000000E+00 0.0000E+00 0.9000E+01
       21  1    1    2  503  501 0.33159583E+02 -.18015958E+02 -.14625418E+03 0.15104629E+03 0.75000000E+00 0.0000E+00 0.9000E+01
#aMCatNLO 2  0  0  2  1 0.83541806D+01 0.00000000D+00  -5  6  0 0.00000000D+00 0.00000000D+00 0.00000000D+00 0.00000000D+00 0.00000000D+00
  <mgrwgt>
 0.2221464424D-03    1    2    0
 0.737620320193266D+03 0.000000000000000D+00 0.000000000000000D+00 0.737620320193266D+03
 0.737620320193266D+03 0.000000000000000D+00 0.000000000000000D+00 -.737620320193266D+03
 0.740161096787365D+03 -.625427846114705D+03 0.280804768622935D+03 -.249403569381869D+03
 0.610081958681371D+03 0.539525939082475D+03 -.211499502127236D+03 0.190734679504286D+03
 0.124997584917796D+03 0.859019070322296D+02 -.693052664956989D+02 0.586688898775837D+02
 0.000000000000000D+00 0.000000000000000D+00 -.000000000000000D+00 -.000000000000000D+00
 0.739727542076389D+03 0.000000000000000D+00 0.000000000000000D+00 0.739727542076389D+03
 0.928669765448194D+03 0.000000000000000D+00 0.000000000000000D+00 -.928669765448194D+03
 0.757890471911053D+03 -.642261249559426D+03 0.289950537691356D+03 -.249403569381869D+03
 0.595571514922502D+03 0.525978173598449D+03 -.204138855486947D+03 0.190734679504286D+03
 0.122261252715641D+03 0.831234928199787D+02 -.677957241832896D+02 0.586688898775837D+02
 0.192674067975388D+03 0.331595831409982D+02 -.180159580211192D+02 -.188942223371805D+03
0.129790377876D-03 0.000000000000D+00 0.000000000000D+00 0.113208243523D-04 0.498468793709D-07  6 -2 2 25 2 -2 21 2 0.14608036D+00 0.11130497D+00 0.50757421D+06 0.50757421D+06 0.50757421D+06 0.10680492D+01  1  2  1  2  6  2        2 0.222146442430D-03 0.100000000000D+01
  </mgrwgt>
  </event>
  <event>
  7     66 0.18366665E-05 0.49209080E+02 0.75467711E-02 0.93553857E-01
       -2 -1    0    0    0  501 0.00000000E+00 0.00000000E+00 0.19416411E+03 0.19416437E+03 0.32000000E+00 0.0000E+00 0.9000E+01
        2 -1    0    0  503    0 0.00000000E+00 0.00000000E+00 -.21790797E+04 0.21790798E+04 0.32000000E+00 0.0000E+00 0.9000E+01
       23  2    1    2    0    0 -.49297501E+03 -.22530385E+03 -.37151930E+03 0.66363798E+03 0.92750183E+02 0.0000E+00 0.0000E+00
       25  1    1    2    0    0 0.48104186E+03 0.21788148E+03 -.14963473E+04 0.15917141E+04 0.12500000E+03 0.0000E+00 0.9000E+01
        2  1    3    3  502    0 -.35276988E+03 -.18144855E+03 -.22457407E+03 0.45585499E+03 0.32000000E+00 0.0000E+00 0.9000E+01
       -2  1    3    3    0  502 -.14020513E+03 -.43855308E+02 -.14694523E+03 0.20778298E+03 0.32000000E+00 0.0000E+00 0.9000E+01
       21  1    1    2  503  501 0.11933149E+02 0.74223757E+01 -.11704906E+03 0.11789205E+03 0.75000000E+00 0.0000E+00 0.9000E+01
#aMCatNLO 2  0  0  2  1 0.52533196D+00 0.00000000D+00  -5  6  0 0.00000000D+00 0.00000000D+00 0.00000000D+00 0.00000000D+00 0.00000000D+00
  <mgrwgt>
 0.1126566745D-03    1    2    0
 0.631959252321552D+03 0.000000000000000D+00 0.000000000000000D+00 0.631959252321552D+03
 0.631959252321552D+03 0.000000000000000D+00 0.000000000000000D+00 -.631959252321552D+03
 0.634737280961545D+03 0.487006812186710D+03 0.221591659306636D+03 -.317785961382699D+03
 0.477157012262986D+03 -.348246910250215D+03 -.178635340831777D+03 0.272932810154501D+03
 0.152024211418572D+03 -.138759901936494D+03 -.429563184748586D+02 0.448531512281976D+02
 0.000000000000000D+00 0.000000000000000D+00 0.000000000000000D+00 -.000000000000000D+00
 0.633369505780097D+03 0.000000000000000D+00 0.000000000000000D+00 0.633369505780097D+03
 0.668005635506975D+03 0.000000000000000D+00 0.000000000000000D+00 -.668005635506975D+03
 0.628877193614283D+03 0.481041857413593D+03 0.217881478818945D+03 -.317785961382699D+03
 0.481523479201250D+03 -.352772409038422D+03 -.181450184856538D+03 0.272932810154501D+03
 0.153595956166883D+03 -.140202597089232D+03 -.438536696885672D+02 0.448531512281976D+02
 0.373785123046558D+02 0.119331487140607D+02 0.742237572615992D+01 -.346361297268781D+02
0.139150771683D-04 0.000000000000D+00 0.000000000000D+00 0.705962095888D-05 0.224305828650D-06  6 -2 2 25 2 -2 21 2 0.29871246D-01 0.33524107D+00 0.30268348D+06 0.30268348D+06 0.30268348D+06 0.10842659D+01  1  2  1  2  6  2        2 0.112656674534D-03 0.100000000000D+01
  </mgrwgt>
  </event>
  <event>
  7     66 0.18366665E-05 0.70473669E+02 0.75467711E-02 0.93494490E-01
       21 -1    0    0  503  501 0.00000000E+00 0.00000000E+00 0.13345445E+03 0.13345655E+03 0.75000000E+00 0.0000E+00 0.9000E+01
        2 -1    0    0  501    0 0.00000000E+00 0.00000000E+00 -.29258843E+04 0.29258844E+04 0.32000000E+00 0.0000E+00 0.9000E+01
       23  2    1    2    0    0 -.31975141E+03 0.42544356E+03 -.87594997E+03 0.10290353E+04 0.91553805E+02 0.0000E+00 0.0000E+00
       25  1    1    2    0    0 0.33892998E+03 -.41357350E+03 -.19282122E+04 0.20048800E+04 0.12500000E+03 0.0000E+00 0.9000E+01
        2  1    3    3  502    0 -.12206892E+03 0.20391308E+03 -.31788552E+03 0.39690386E+03 0.32000000E+00 0.0000E+00 0.9000E+01
        2  1    1    2  503    0 -.19178573E+02 -.11870054E+02 0.11732235E+02 0.25425648E+02 0.32000000E+00 0.0000E+00 0.9000E+01
       -2  1    3    3    0  502 -.19768248E+03 0.22153048E+03 -.55806445E+03 0.63213144E+03 0.32000000E+00 0.0000E+00 0.9000E+01
#aMCatNLO 2  0  0  1  2 0.92400246D+01 0.00000000D+00  -5  6  0 0.00000000D+00 0.00000000D+00 0.00000000D+00 0.00000000D+00 0.00000000D+00
  <mgrwgt>
 0.1411894978D-03    1    2    0
 0.578966291989408D+03 0.000000000000000D+00 0.000000000000000D+00 0.578966291989408D+03
 0.578966291989408D+03 0.000000000000000D+00 0.000000000000000D+00 -.578966291989408D+03
 0.582093806035745D+03 0.329279345138794D+03 -.419546500367384D+03 -.196885870289434D+03
 0.270041870678364D+03 -.126540361452303D+03 0.201144819339510D+03 0.128261102817132D+03
 0.000000000000000D+00 -.000000000000000D+00 -.000000000000000D+00 0.000000000000000D+00
 0.305796907264707D+03 -.202738983686491D+03 0.218401681027874D+03 0.686247674723013D+02
 0.672729550603594D+03 0.000000000000000D+00 0.000000000000000D+00 0.672729550603594D+03
 0.580434088634322D+03 0.000000000000000D+00 0.000000000000000D+00 -.580434088634322D+03
 0.583357197572696D+03 0.338929979169784D+03 -.413573504059691D+03 -.196885870289434D+03
 0.270059185636590D+03 -.122068000436602D+03 0.203912865018961D+03 0.128261102817132D+03
 0.950114105261998D+02 -.191785727952587D+02 -.118700537317076D+02 0.922954619692723D+02
 0.304735845502430D+03 -.197683405937923D+03 0.221530692772437D+03 0.686247674723013D+02
0.201317901348D-05 0.000000000000D+00 0.000000000000D+00 0.259655596879D-04 0.370163133165D-08  6 21 2 25 2 2 -2 2 0.20531607D-01 0.45013601D+00 0.30594646D+06 0.30594646D+06 0.30594646D+06 0.10839218D+01  1  2  1  5  5  1       -2 0.141189497800D-03 0.100000000000D+01
  </mgrwgt>
  </event>
  <event>
  7     66 0.18366665E-05 0.73137683E+02 0.75467711E-02 0.86953532E-01
       -2 -1    0    0    0  501 0.00000000E+00 0.00000000E+00 0.74213096E+03 0.74213103E+03 0.32000000E+00 0.0000E+00 0.9000E+01
        2 -1    0    0  503    0 0.00000000E+00 0.00000000E+00 -.15974066E+04 0.15974066E+04 0.32000000E+00 0.0000E+00 0.9000E+01
       23  2    1    2    0    0 -.53730969E+03 0.89001086E+03 -.10670755E+03 0.10491839E+04 0.92624523E+02 0.0000E+00 0.0000E+00
       25  1    1    2    0    0 0.52167121E+03 -.85575471E+03 -.69982490E+03 0.12287542E+04 0.12500000E+03 0.0000E+00 0.9000E+01
        2  1    3    3  502    0 -.23640267E+03 0.46923803E+03 -.30544615E+02 0.52631134E+03 0.32000000E+00 0.0000E+00 0.9000E+01
       -2  1    3    3    0  502 -.30090702E+03 0.42077283E+03 -.76162931E+02 0.52287255E+03 0.32000000E+00 0.0000E+00 0.9000E+01
       21  1    1    2  503  501 0.15638472E+02 -.34256145E+02 -.48743197E+02 0.61599570E+02 0.75000000E+00 0.0000E+00 0.9000E+01
#aMCatNLO 2  0  0  2  1 0.52533196D+00 0.00000000D+00  -5  6  0 0.00000000D+00 0.00000000D+00 0.00000000D+00 0.00000000D+00 0.00000000D+00
  <mgrwgt>
 0.5031244848D-03    1    2    0
 0.106502221685951D+04 0.000000000000000D+00 0.000000000000000D+00 0.106502221685951D+04
 0.106502221685951D+04 0.000000000000000D+00 0.000000000000000D+00 -.106502221685951D+04
 0.106667610199906D+04 0.529436803722928D+03 -.872765272853633D+03 -.283108381967538D+03
 0.542006855713380D+03 -.232389119096130D+03 0.460448599619316D+03 0.166594766048159D+03
 0.521361476006585D+03 -.297047684626798D+03 0.412316673234317D+03 0.116513615919379D+03
 0.000000000000000D+00 0.000000000000000D+00 -.000000000000000D+00 -.000000000000000D+00
 0.107449274845703D+04 0.000000000000000D+00 0.000000000000000D+00 0.107449274845703D+04
 0.110329129265053D+04 0.000000000000000D+00 0.000000000000000D+00 -.110329129265053D+04
 0.104891960735516D+04 0.521671214606724D+03 -.855754714041693D+03 -.283108381967538D+03
 0.551202817532094D+03 -.236401897673222D+03 0.469238609619006D+03 0.166594766048159D+03
 0.530254850366688D+03 -.300907789023114D+03 0.420772249736138D+03 0.116513615919379D+03
 0.474067658536127D+02 0.156384720896115D+02 -.342561453134510D+02 -.287985441935079D+02
0.572803402389D-03 0.000000000000D+00 0.000000000000D+00 0.136157348415D-04 0.559600508601D-07  6 -2 2 25 2 -2 21 2 0.11417369D+00 0.24575419D+00 0.10924096D+07 0.10924096D+07 0.10924096D+07 0.10453183D+01  1  2  1  2  6  2        2 0.503124484799D-03 0.100000000000D+01
  </mgrwgt>
  </event>
  <event>
  7     66 0.18366665E-05 0.40592577E+02 0.75467711E-02 0.91669374E-01
       -2 -1    0    0    0  501 0.00000000E+00 0.00000000E+00 0.10875271E+04 0.10875271E+04 0.32000000E+00 0.0000E+00 0.9000E+01
       21 -1    0    0  501  503 0.00000000E+00 0.00000000E+00 -.51333589E+03 0.51333644E+03 0.75000000E+00 0.0000E+00 0.9000E+01
       23  2    1    2    0    0 0.42508408E+03 0.48312288E+03 0.37363557E+03 0.74964868E+03 0.90914269E+02 0.0000E+00 0.0000E+00
       25  1    1    2    0    0 -.38330415E+03 -.46617283E+03 0.34053661E+03 0.70415152E+03 0.12500000E+03 0.0000E+00 0.9000E+01
        2  1    3    3  502    0 0.16257981E+03 0.13356263E+03 0.92083468E+02 0.22967507E+03 0.32000000E+00 0.0000E+00 0.9000E+01
       -2  1    3    3    0  502 0.26250427E+03 0.34956025E+03 0.28155210E+03 0.51997361E+03 0.32000000E+00 0.0000E+00 0.9000E+01
       -2  1    1    2    0  503 -.41779934E+02 -.16950053E+02 -.13998097E+03 0.14706339E+03 0.32000000E+00 0.0000E+00 0.9000E+01
#aMCatNLO 2  0  0  2  2 0.53424909D+02 0.00000000D+00  -5  6  0 0.00000000D+00 0.00000000D+00 0.00000000D+00 0.00000000D+00 0.00000000D+00
  <mgrwgt>
 0.2205134954D-04    1    2    0
 0.632744071322349D+03 0.000000000000000D+00 0.000000000000000D+00 0.632744071322349D+03
 0.632744071322349D+03 0.000000000000000D+00 0.000000000000000D+00 -.632744071322349D+03
 0.635651880342382D+03 -.403965137779413D+03 -.474554959303167D+03 -.617017361465067D+01
 0.204725968980848D+03 0.155705832845141D+03 0.130771691682082D+03 -.238155547437956D+02
 0.425110293321468D+03 0.248259304934272D+03 0.343783267621085D+03 0.299857283584462D+02
 0.000000000000000D+00 -.000000000000000D+00 -.000000000000000D+00 -.000000000000000D+00
 0.635213824774486D+03 0.000000000000000D+00 0.000000000000000D+00 0.635213824774486D+03
 0.878864671433750D+03 0.000000000000000D+00 0.000000000000000D+00 -.878864671433750D+03
 0.616362108164597D+03 -.383304149146353D+03 -.466172829094384D+03 -.617017361465067D+01
 0.211748041245154D+03 0.162578571384992D+03 0.133559950770506D+03 -.238155547437956D+02
 0.438180933377469D+03 0.262505511754306D+03 0.349562931056731D+03 0.299857283584462D+02
 0.247787413421016D+03 -.417799339929448D+02 -.169500527328536D+02 -.243650846659264D+03
0.689069796087D-05 0.000000000000D+00 0.000000000000D+00 0.338238094045D-04 0.222513620767D-08  6 -2 21 25 2 -2 -2 2 0.16731188D+00 0.78974785D-01 0.42835505D+06 0.42835505D+06 0.42835505D+06 0.10732900D+01  1  2  1  6  6  2        2 0.220513495441D-04 0.100000000000D+01
  </mgrwgt>
  </event>
  <event>
  7     66 0.18366665E-05 0.38146470E+02 0.75467711E-02 0.93784570E-01
       -2 -1    0    0    0  501 0.00000000E+00 0.00000000E+00 0.28281738E+03 0.28281756E+03 0.32000000E+00 0.0000E+00 0.9000E+01
        2 -1    0    0  503    0 0.00000000E+00 0.00000000E+00 -.15008677E+04 0.15008678E+04 0.32000000E+00 0.0000E+00 0.9000E+01
       23  2    1    2    0    0 -.29227813E+03 -.39531297E+03 -.32119298E+03 0.59425591E+03 0.90974184E+02 0.0000E+00 0.0000E+00
       25  1    1    2    0    0 0.34383792E+03 0.38318309E+03 -.33879115E+03 0.62885470E+03 0.12500000E+03 0.0000E+00 0.9000E+01
        2  1    3    3  502    0 -.25223532E+03 -.36925347E+03 -.31285847E+03 0.54575755E+03 0.32000000E+00 0.0000E+00 0.9000E+01
       -2  1    3    3    0  502 -.40042808E+02 -.26059502E+02 -.83345170E+01 0.48498358E+02 0.32000000E+00 0.0000E+00 0.9000E+01
       21  1    1    2  503  501 -.51559789E+02 0.12129883E+02 -.55806623E+03 0.56057473E+03 0.75000000E+00 0.0000E+00 0.9000E+01
#aMCatNLO 2  0  0  2  1 0.55806919D+01 0.00000000D+00  -5  6  0 0.00000000D+00 0.00000000D+00 0.00000000D+00 0.00000000D+00 0.00000000D+00
  <mgrwgt>
 0.1562896811D-03    1    2    0
 0.514202045464108D+03 0.000000000000000D+00 0.000000000000000D+00 0.514202045464108D+03
 0.514202045464108D+03 0.000000000000000D+00 0.000000000000000D+00 -.514202045464108D+03
 0.517774910462912D+03 0.317595055822763D+03 0.389356949017668D+03 0.636139501479797D+00
 0.456602183074815D+03 -.274892309501620D+03 -.363928083994834D+03 -.218202072721982D+02
 0.540269973904883D+02 -.427027463211437D+02 -.254288650228337D+02 0.211840677707184D+02
 0.000000000000000D+00 -.000000000000000D+00 0.000000000000000D+00 -.000000000000000D+00
 0.517176749479653D+03 0.000000000000000D+00 0.000000000000000D+00 0.517176749479653D+03
 0.820746357743827D+03 0.000000000000000D+00 0.000000000000000D+00 -.820746357743827D+03
 0.529791657841211D+03 0.343837920696594D+03 0.383183089835285D+03 0.636139501479797D+00
 0.447717953159234D+03 -.252237948570368D+03 -.369257716827563D+03 -.218202072721982D+02
 0.522576054941919D+02 -.400401828563829D+02 -.260552559284998D+02 0.211840677707184D+02
 0.308155890728844D+03 -.515597892698426D+02 0.121298829207778D+02 -.303569608264175D+03
0.163464350912D-04 0.000000000000D+00 0.000000000000D+00 0.166722551686D-04 0.415004103480D-07  6 -2 2 25 2 -2 21 2 0.43510345D-01 0.23090254D+00 0.29036786D+06 0.29036786D+06 0.29036786D+06 0.10856020D+01  1  2  1  2  6  2        2 0.156289681138D-03 0.100000000000D+01
  </mgrwgt>
  </event>
  <event>
  7     66 0.18366665E-05 0.18643780E+03 0.75467711E-02 0.92353007E-01
       21 -1    0    0  503  501 0.00000000E+00 0.00000000E+00 0.11099777E+04 0.11099780E+04 0.75000000E+00 0.0000E+00 0.9000E+01
        2 -1    0    0  501    0 0.00000000E+00 0.00000000E+00 -.40882165E+03 0.40882178E+03 0.32000000E+00 0.0000E+00 0.9000E+01
       23  2    1    2    0    0 0.17777538E+02 0.22931178E+03 0.13376593E+03 0.28162474E+03 0.92299718E+02 0.0000E+00 0.0000E+00
       25  1    1    2    0    0 0.38580821E+03 -.39074105E+03 0.55891900E+02 0.56592884E+03 0.12500000E+03 0.0000E+00 0.9000E+01
        2  1    3    3  502    0 0.14076920E+02 0.11805510E+03 0.16661868E+02 0.12005369E+03 0.32000000E+00 0.0000E+00 0.9000E+01
        2  1    1    2  503    0 -.40358575E+03 0.16142928E+03 0.51149824E+03 0.67124617E+03 0.32000000E+00 0.0000E+00 0.9000E+01
       -2  1    3    3    0  502 0.37006175E+01 0.11125667E+03 0.11710406E+03 0.16157105E+03 0.32000000E+00 0.0000E+00 0.9000E+01
#aMCatNLO 2  0  0  1  2 0.56022854D+00 0.00000000D+00  -5  6  0 0.00000000D+00 0.00000000D+00 0.00000000D+00 0.00000000D+00 0.00000000D+00
  <mgrwgt>
 0.2398796141D-03    1    2    0
 0.351225036390830D+03 0.000000000000000D+00 0.000000000000000D+00 0.351225036390830D+03
 0.351225036390830D+03 0.000000000000000D+00 0.000000000000000D+00 -.351225036390830D+03
 0.356282878080902D+03 0.141809298647568D+03 -.293144524295875D+03 -.725871883051070D+02
 0.159396312193595D+03 -.595231156996088D+02 0.147494333058361D+03 -.104692289113582D+02
 0.000000000000000D+00 -.000000000000000D+00 0.000000000000000D+00 0.000000000000000D+00
 0.186770882507164D+03 -.822861829479587D+02 0.145650191237514D+03 0.830564172164652D+02
 0.884014117885970D+03 0.000000000000000D+00 0.000000000000000D+00 0.884014117885970D+03
 0.513321147399019D+03 0.000000000000000D+00 0.000000000000000D+00 -.513321147399019D+03
 0.567820789236373D+03 0.385808213411245D+03 -.390741053956965D+03 -.725871883051070D+02
 0.119351558839429D+03 0.140770445748249D+02 0.118055184805419D+03 -.104692289113582D+02
 0.571274144756139D+03 -.403585750779031D+03 0.161429278219735D+03 0.370692970486950D+03
 0.138888772453048D+03 0.370049279296126D+01 0.111256590931811D+03 0.830564172164652D+02
0.132776787746D-04 0.000000000000D+00 0.000000000000D+00 0.256992451513D-04 0.703631357053D-10  6 21 2 25 2 2 -2 2 0.17076582D+00 0.62895663D-01 0.37702364D+06 0.37702364D+06 0.37702364D+06 0.10772846D+01  1  2  1  5  5  1       -2 0.239879614064D-03 0.100000000000D+01
  </mgrwgt>
  </event>
  <event>
  7     66 0.18366665E-05 0.79035691E+02 0.75467711E-02 0.94335412E-01
       -2 -1    0    0    0  503 0.00000000E+00 0.00000000E+00 0.34221226E+03 0.34221241E+03 0.32000000E+00 0.0000E+00 0.9000E+01
        2 -1    0    0  501    0 0.00000000E+00 0.00000000E+00 -.13456076E+04 0.13456076E+04 0.32000000E+00 0.0000E+00 0.9000E+01
       23  2    1    2    0    0 0.33899447E+03 0.35015408E+03 -.66675789E+02 0.50028618E+03 0.91189174E+02 0.0000E+00 0.0000E+00
       25  1    1    2    0    0 -.33894721E+03 -.36607783E+03 -.99879785E+03 0.11234413E+04 0.12500000E+03 0.0000E+00 0.9000E+01
        2  1    3    3  502    0 0.21132660E+03 0.15305932E+03 -.38945731E+02 0.26382373E+03 0.32000000E+00 0.0000E+00 0.9000E+01
       -2  1    3    3    0  502 0.12766787E+03 0.19709476E+03 -.27730058E+02 0.23646245E+03 0.32000000E+00 0.0000E+00 0.9000E+01
       21  1    1    2  501  503 -.47265581E-01 0.15923746E+02 0.62078352E+02 0.64092528E+02 0.75000000E+00 0.0000E+00 0.9000E+01
#aMCatNLO 2  0  0  1  2 0.56022854D+00 0.00000000D+00  -5  6  0 0.00000000D+00 0.00000000D+00 0.00000000D+00 0.00000000D+00 0.00000000D+00
  <mgrwgt>
 0.1982186386D-02    1    2    0
 0.612577188537639D+03 0.000000000000000D+00 0.000000000000000D+00 0.612577188537639D+03
 0.612577188537639D+03 0.000000000000000D+00 0.000000000000000D+00 -.612577188537639D+03
 0.615560296097878D+03 -.338971046142708D+03 -.358047024459451D+03 -.346684923647912D+03
 0.317763929373262D+03 0.211315414620439D+03 0.157175637839192D+03 0.177807562337407D+03
 0.291830151604137D+03 0.127655631522269D+03 0.200871386620259D+03 0.168877361310505D+03
 0.000000000000000D+00 -.000000000000000D+00 0.000000000000000D+00 0.000000000000000D+00
 0.751087879476338D+03 0.000000000000000D+00 0.000000000000000D+00 0.751087879476338D+03
 0.613086767901679D+03 0.000000000000000D+00 0.000000000000000D+00 -.613086767901679D+03
 0.620252868936735D+03 -.338947208754596D+03 -.366077826174927D+03 -.346684923647912D+03
 0.315756056000446D+03 0.211327634478744D+03 0.153058774927163D+03 0.177807562337407D+03
 0.289248931835418D+03 0.127666839857014D+03 0.197095305387152D+03 0.168877361310505D+03
 0.138916790605419D+03 -.472655811621493D-01 0.159237458606112D+02 0.138001111574658D+03
0.244655024752D-03 0.000000000000D+00 0.000000000000D+00 0.252042885353D-04 0.640115415079D-06  6 -2 2 25 2 -2 21 2 0.52647968D-01 0.20701622D+00 0.26317216D+06 0.26317216D+06 0.26317216D+06 0.10887854D+01  1  2  1  1  6  1       -2 0.198218638632D-02 0.100000000000D+01
  </mgrwgt>
  </event>
  <event>
  7     66 0.18366665E-05 0.61582286E+02 0.75467711E-02 0.93295814E-01
       21 -1    0    0  503  501 0.00000000E+00 0.00000000E+00 0.75498967E+02 0.75502692E+02 0.75000000E+00 0.0000E+00 0.9000E+01
        2 -1    0    0  501    0 0.00000000E+00 0.00000000E+00 -.42660292E+04 0.42660292E+04 0.32000000E+00 0.0000E+00 0.9000E+01
       23  2    1    2    0    0 0.33305150E+03 -.36832982E+03 -.20620252E+04 0.21232109E+04 0.97398414E+02 0.0000E+00 0.0000E+00
       25  1    1    2    0    0 -.40635054E+03 0.32548651E+03 -.19181423E+04 0.19914710E+04 0.12500000E+03 0.0000E+00 0.9000E+01
        2  1    3    3  502    0 0.24848157E+03 -.33015035E+03 -.16942398E+04 0.17439011E+04 0.32000000E+00 0.0000E+00 0.9000E+01
        2  1    1    2  503    0 0.73299043E+02 0.42843306E+02 -.21036275E+03 0.22684993E+03 0.32000000E+00 0.0000E+00 0.9000E+01
       -2  1    3    3    0  502 0.84569930E+02 -.38179471E+02 -.36778541E+03 0.37930984E+03 0.32000000E+00 0.0000E+00 0.9000E+01
#aMCatNLO 2  0  0  1  2 0.56022854D+00 0.00000000D+00  -5  6  0 0.00000000D+00 0.00000000D+00 0.00000000D+00 0.00000000D+00 0.00000000D+00
  <mgrwgt>
 0.1377188093D-03    1    2    0
 0.520015937147907D+03 0.000000000000000D+00 0.000000000000000D+00 0.520015937147907D+03
 0.520015937147907D+03 0.000000000000000D+00 0.000000000000000D+00 -.520015937147907D+03
 0.522967073204084D+03 -.369081196893065D+03 0.347270454523913D+03 0.324324092596164D+02
 0.419518385907659D+03 0.277814829290914D+03 -.313009235964493D+03 -.289795607549926D+02
 0.000000000000000D+00 0.000000000000000D+00 0.000000000000000D+00 0.000000000000000D+00
 0.975464151840715D+02 0.912663676021516D+02 -.342612185594195D+02 -.345284850462387D+01
 0.585694815823819D+03 0.000000000000000D+00 0.000000000000000D+00 0.585694815823819D+03
 0.549925623460207D+03 0.000000000000000D+00 0.000000000000000D+00 -.549925623460207D+03
 0.536413177205181D+03 -.406350544750038D+03 0.325486513223392D+03 0.324324092596164D+02
 0.414228339682380D+03 0.248483343520226D+03 -.330153495282843D+03 -.289795607549926D+02
 0.921288973200615D+02 0.732990434159353D+02 0.428433055841190D+02 0.357691923636118D+02
 0.928500250764027D+02 0.845681578138763D+02 -.381763235246670D+02 -.345284850462387D+01
0.688137646295D-05 0.000000000000D+00 0.000000000000D+00 0.810839274588D-06 0.921682060525D-10  6 21 2 25 2 2 -2 2 0.11615507D-01 0.65631214D+00 0.31715634D+06 0.31715634D+06 0.31715634D+06 0.10827695D+01  1  2  1  5  5  1       -2 0.137718809340D-03 0.100000000000D+01
  </mgrwgt>
  </event>
  <event>
  7     66 0.18366665E-05 0.68882231E+02 0.75467711E-02 0.93235595E-01
       -2 -1    0    0    0  501 0.00000000E+00 0.00000000E+00 0.15451981E+03 0.15452014E+03 0.32000000E+00 0.0000E+00 0.9000E+01
        2 -1    0    0  503    0 0.00000000E+00 0.00000000E+00 -.21755882E+04 0.21755882E+04 0.32000000E+00 0.0000E+00 0.9000E+01
       23  2    1    2    0    0 0.49983975E+03 0.20215562E+03 -.82877426E+03 0.99315467E+03 0.93716279E+02 0.0000E+00 0.0000E+00
       25  1    1    2    0    0 -.46994148E+03 -.11297013E+03 -.89115081E+03 0.10214607E+04 0.12500000E+03 0.0000E+00 0.9000E+01
        2  1    3    3  502    0 0.11215166E+03 0.48397080E+02 -.26580084E+03 0.29252429E+03 0.32000000E+00 0.0000E+00 0.9000E+01
       -2  1    3    3    0  502 0.38768809E+03 0.15375854E+03 -.56297342E+03 0.70063037E+03 0.32000000E+00 0.0000E+00 0.9000E+01
       21  1    1    2  503  501 -.29898271E+02 -.89185489E+02 -.30114330E+03 0.31549296E+03 0.75000000E+00 0.0000E+00 0.9000E+01
#aMCatNLO 2  0  0  2  1 0.55806919D+01 0.00000000D+00  -5  6  0 0.00000000D+00 0.00000000D+00 0.00000000D+00 0.00000000D+00 0.00000000D+00
  <mgrwgt>
 0.3994209225D-04    1    2    0
 0.522418644199359D+03 0.000000000000000D+00 0.000000000000000D+00 0.522418644199359D+03
 0.522418644199359D+03 0.000000000000000D+00 0.000000000000000D+00 -.522418644199359D+03
 0.525692962330711D+03 -.484595344452226D+03 -.156682095465056D+03 -.366901041146774D+02
 0.119151119401895D+03 0.108648258052245D+03 0.379549066395196D+02 -.308540165768230D+02
 0.399993206666111D+03 0.375947086399982D+03 0.118727188825536D+03 0.675441206915004D+02
 0.000000000000000D+00 -.000000000000000D+00 -.000000000000000D+00 -.000000000000000D+00
 0.550071765423054D+03 0.000000000000000D+00 0.000000000000000D+00 0.550071765423054D+03
 0.611139157779386D+03 0.000000000000000D+00 0.000000000000000D+00 -.611139157779386D+03
 0.500578074950608D+03 -.469941479711205D+03 -.112970133345736D+03 -.366901041146774D+02
 0.125981757580759D+03 0.112148448442882D+03 0.483958512278529D+02 -.308540165768230D+02
 0.422503043257264D+03 0.387691302458444D+03 0.153759771460992D+03 0.675441206915004D+02
 0.112148047413809D+03 -.298982711901205D+02 -.891854893431091D+02 -.610673923563317D+02
0.331685429798D-05 0.000000000000D+00 0.000000000000D+00 0.609226290397D-05 0.432747723422D-08  6 -2 2 25 2 -2 21 2 0.23772253D-01 0.33470516D+00 0.32064441D+06 0.32064441D+06 0.32064441D+06 0.10824200D+01  1  2  1  2  6  2        2 0.399420922510D-04 0.100000000000D+01
  </mgrwgt>
  </event>
  <event>
  7     66 0.18366665E-05 0.68843377E+02 0.75467711E-02 0.87068389E-01
       -2 -1    0    0    0  503 0.00000000E+00 0.00000000E+00 0.14575148E+04 0.14575148E+04 0.32000000E+00 0.0000E+00 0.9000E+01
        2 -1    0    0  501    0 0.00000000E+00 0.00000000E+00 -.10575063E+04 0.10575063E+04 0.32000000E+00 0.0000E+00 0.9000E+01
       23  2    1    2    0    0 -.10210637E+04 -.86909258E+02 -.33291777E+03 0.10831084E+04 0.11029660E+03 0.0000E+00 0.0000E+00
       25  1    1    2    0    0 0.99810444E+03 0.97649999E+02 0.38253420E+03 0.10806042E+04 0.12500000E+03 0.0000E+00 0.9000E+01
        2  1    3    3  502    0 -.65832938E+03 -.10299245E+03 -.18992837E+03 0.69287654E+03 0.32000000E+00 0.0000E+00 0.9000E+01
       -2  1    3    3    0  502 -.36273430E+03 0.16083197E+02 -.14298940E+03 0.39023187E+03 0.32000000E+00 0.0000E+00 0.9000E+01
       21  1    1    2  501  503 0.22959234E+02 -.10740742E+02 0.35039211E+03 0.35130853E+03 0.75000000E+00 0.0000E+00 0.9000E+01
#aMCatNLO 2  0  0  1  2 0.56022854D+00 0.00000000D+00  -5  6  0 0.00000000D+00 0.00000000D+00 0.00000000D+00 0.00000000D+00 0.00000000D+00
  <mgrwgt>
 0.7114100542D-04    1    2    0
 0.108149756343556D+04 0.000000000000000D+00 0.000000000000000D+00 0.108149756343556D+04
 0.108149756343556D+04 0.000000000000000D+00 0.000000000000000D+00 -.108149756343556D+04
 0.108229730214693D+04 0.100953810881676D+04 0.923011242208851D+02 0.357848794253609D+03
 0.690989181489086D+03 -.650963457635580D+03 -.106440526801998D+03 -.205871416209731D+03
 0.389708643235107D+03 -.358574651181181D+03 0.141394025811126D+02 -.151977378043878D+03
 0.000000000000000D+00 0.000000000000000D+00 -.000000000000000D+00 0.000000000000000D+00
 0.142446636217847D+04 0.000000000000000D+00 0.000000000000000D+00 0.142446636217847D+04
 0.108204025134393D+04 0.000000000000000D+00 0.000000000000000D+00 -.108204025134393D+04
 0.107211415232597D+04 0.998104440258422D+03 0.976499995150799D+02 0.357848794253609D+03
 0.697417764346329D+03 -.658331866678254D+03 -.102993452848019D+03 -.205871416209731D+03
 0.393611723686897D+03 -.362731807620257D+03 0.160841949509126D+02 -.151977378043878D+03
 0.343362973163212D+03 0.229592340400897D+02 -.107407416179738D+02 0.342426110834540D+03
0.278626242879D-03 0.000000000000D+00 0.000000000000D+00 0.956878514860D-07 0.899822023433D-09  6 -2 2 25 2 -2 21 2 0.22423297D+00 0.16269321D+00 0.10664747D+07 0.10664747D+07 0.10664747D+07 0.10460084D+01  1  2  1  1  6  1       -2 0.711410054222D-04 0.100000000000D+01
  </mgrwgt>
  </event>
  <event>
  7     66 0.18366665E-05 0.57796388E+02 0.75467711E-02 0.89648994E-01
       -2 -1    0    0    0  503 0.00000000E+00 0.00000000E+00 0.46481997E+03 0.46482008E+03 0.32000000E+00 0.0000E+00 0.9000E+01
        2 -1    0    0  501    0 0.00000000E+00 0.00000000E+00 -.15382271E+04 0.15382271E+04 0.32000000E+00 0.0000E+00 0.9000E+01
       23  2    1    2    0    0 0.76748005E+03 -.55975774E+02 -.69798532E+03 0.10429088E+04 0.91193586E+02 0.0000E+00 0.0000E+00
       25  1    1    2    0    0 -.78578868E+03 0.56653470E+02 -.42743640E+03 0.90498638E+03 0.12500000E+03 0.0000E+00 0.9000E+01
        2  1    3    3  502    0 0.50335440E+03 0.24438322E+01 -.47940079E+03 0.69512362E+03 0.32000000E+00 0.0000E+00 0.9000E+01
       -2  1    3    3    0  502 0.26412564E+03 -.58419606E+02 -.21858453E+03 0.34778514E+03 0.32000000E+00 0.0000E+00 0.9000E+01
       21  1    1    2  501  503 0.18308632E+02 -.67769599E+00 0.52014616E+02 0.55152044E+02 0.75000000E+00 0.0000E+00 0.9000E+01
#aMCatNLO 2  0  0  1  2 0.84783244D+01 0.00000000D+00  -5  6  0 0.00000000D+00 0.00000000D+00 0.00000000D+00 0.00000000D+00 0.00000000D+00
  <mgrwgt>
 0.5799515350D-03    1    2    0
 0.794887689403620D+03 0.000000000000000D+00 0.000000000000000D+00 0.794887689403620D+03
 0.794887689403620D+03 0.000000000000000D+00 0.000000000000000D+00 -.794887689403620D+03
 0.797186356894353D+03 -.776556257078879D+03 0.563117308705764D+02 0.116920726034748D+03
 0.518135275120717D+03 0.509290682524845D+03 0.222495871467586D+01 -.953006483530769D+02
 0.274453746792169D+03 0.267265574554034D+03 -.585366895852522D+02 -.216200776816713D+02
 0.000000000000000D+00 0.000000000000000D+00 -.000000000000000D+00 0.000000000000000D+00
 0.898518124755790D+03 0.000000000000000D+00 0.000000000000000D+00 0.898518124755790D+03
 0.795750650516908D+03 0.000000000000000D+00 0.000000000000000D+00 -.795750650516908D+03
 0.806206499841027D+03 -.785788679321106D+03 0.566534699750979D+02 0.116920726034748D+03
 0.512305388568961D+03 0.503357349803061D+03 0.244458166496697D+01 -.953006483530769D+02
 0.271369056925027D+03 0.264122697515394D+03 -.584203556528749D+02 -.216200776816713D+02
 0.104387829937683D+03 0.183086320026502D+02 -.677695987190012D+00 0.102767474238881D+03
0.190685147836D-03 0.000000000000D+00 0.000000000000D+00 0.345605111441D-04 0.623410583049D-06  6 -2 2 25 2 -2 21 2 0.71510654D-01 0.23664993D+00 0.63192490D+06 0.63192490D+06 0.63192490D+06 0.10613965D+01  1  2  1  1  6  1       -2 0.579951534977D-03 0.100000000000D+01
  </mgrwgt>
  </event>
  <event>
  5     66 0.18366665E-05 0.32081565E+02 0.75467711E-02 0.94389306E-01
       -2 -1    0    0    0  501 0.00000000E+00 0.00000000E+00 0.38698099E+03 0.38698112E+03 0.32000000E+00 0.0000E+00 0.9000E+01
        2 -1    0    0  501    0 -.00000000E+00 -.00000000E+00 -.12046537E+04 0.12046538E+04 0.32000000E+00 0.0000E+00 0.9000E+01
       25  1    1    2    0    0 0.46261900E+03 -.15923495E+03 0.12032191E+03 0.51910930E+03 0.12500000E+03 0.0000E+00 0.9000E+01
        2  1    1    2  502    0 -.44663783E+03 0.18705299E+03 -.84195258E+03 0.97126640E+03 0.32000000E+00 0.0000E+00 0.9000E+01
       -2  1    1    2    0  502 -.15981170E+02 -.27818044E+02 -.96042078E+02 0.10125920E+03 0.32000000E+00 0.0000E+00 0.9000E+01
#aMCatNLO 1  0  0  5  1 0.31535734D+01 0.00000000D+00  -5  6  0 0.00000000D+00 0.00000000D+00 0.00000000D+00 0.00000000D+00 0.00000000D+00
  <mgrwgt>
 0.1553322430D-01    9    2    0
 0.682772459194490D+03 0.000000000000000D+00 0.000000000000000D+00 0.682772459194490D+03
 0.682772459194490D+03 -.000000000000000D+00 -.000000000000000D+00 -.682772459194490D+03
 0.677104495772481D+03 0.462619090625414D+03 -.159234978296092D+03 0.451080144620957D+03
 0.627926877674935D+03 -.446639191401013D+03 0.187053491197160D+03 -.399770669061895D+03
 0.605135449415659D+02 -.159798992244002D+02 -.278185129010687D+02 -.513094755590622D+02
 0.000000000000000D+00 0.000000000000000D+00 0.000000000000000D+00 -.000000000000000D+00
 0.682772459194490D+03 0.000000000000000D+00 0.000000000000000D+00 0.682772459194490D+03
 0.682772459194490D+03 -.000000000000000D+00 -.000000000000000D+00 -.682772459194490D+03
 0.676967170608349D+03 0.462562169015282D+03 -.159334069943890D+03 0.450897376386763D+03
 0.628045002753746D+03 -.446691989154256D+03 0.186961578541198D+03 -.399940196102806D+03
 0.155032844253875D+02 -.608886780833946D+01 -.872882710954904D+01 -.112732024766094D+02
 0.450294606014983D+02 -.978131205268655D+01 -.188986814877589D+02 -.396839778073481D+02
0.637902743392D-06 0.000000000000D+00 0.000000000000D+00 0.836889790345D-09 0.000000000000D+00  6 -2 2 25 2 -2 21 0 0.59535550D-01 0.18533136D+00 0.26075363D+06 0.26075363D+06 0.26075363D+06 0.10890858D+01  1  2  2  4  6  5       -2 0.408331225137D-05 0.100000000000D+01
0.765454472701D-07 0.000000000000D+00 -.244971449827D-08 0.836889790345D-09 0.000000000000D+00  6 -2 2 25 2 -2 21 2 0.59535550D-01 0.18533136D+00 0.26075363D+06 0.26075363D+06 0.26075363D+06 0.10890858D+01  1  2  3  4  6  5       -2 0.581167972589D-06 0.100000000000D+01
-.162302871904D-06 0.000000000000D+00 0.000000000000D+00 0.836889790345D-09 0.000000000000D+00  6 -2 2 25 2 -2 21 2 0.59535550D-01 0.18533136D+00 0.26075363D+06 0.26075363D+06 0.26075363D+06 0.10890858D+01  1  2 15  4  6  5       -2 -.123227748186D-05 0.100000000000D+01
0.661834126437D-07 0.000000000000D+00 0.000000000000D+00 0.836889790345D-09 0.000000000000D+00  6 -2 2 25 2 -2 21 2 0.59535550D-01 0.18533136D+00 0.26066853D+06 0.26066853D+06 0.26066853D+06 0.10890964D+01  1  2 12  4  6  5       -2 0.502510952124D-06 0.100000000000D+01
0.494061670291D-07 0.000000000000D+00 0.000000000000D+00 0.836889790345D-09 0.000000000000D+00  6 -2 2 25 2 -2 21 2 0.59535550D-01 0.18533136D+00 0.26066853D+06 0.26066853D+06 0.26066853D+06 0.10890964D+01  1  2 12  4  6  5       -2 0.375126320068D-06 0.100000000000D+01
-.413745922491D-04 0.000000000000D+00 0.000000000000D+00 0.836889790345D-09 0.000000000000D+00  6 -2 2 25 2 -2 21 2 0.59535550D-01 0.18533136D+00 0.26075363D+06 0.26075363D+06 0.26075363D+06 0.10890858D+01  1  2  4  4  6  5       -2 -.314134788569D-03 0.100000000000D+01
-.657997976603D-05 0.000000000000D+00 0.000000000000D+00 0.836889790345D-09 0.000000000000D+00  6 -2 2 25 2 -2 21 2 0.59535550D-01 0.18533136D+00 0.26075363D+06 0.26075363D+06 0.26075363D+06 0.10890858D+01  1  2  5  4  6  5       -2 -.499582096216D-04 0.100000000000D+01
0.283072335716D-04 0.000000000000D+00 -.000000000000D+00 0.836889790345D-09 0.000000000000D+00  6 -2 2 25 2 -2 21 2 0.59535550D-01 0.18533136D+00 0.26075363D+06 0.26075363D+06 0.26075363D+06 0.10890858D+01  1  2  6  4  6  5       -2 0.214921437279D-03 0.100000000000D+01
0.206488879957D-02 0.000000000000D+00 0.000000000000D+00 0.836889790345D-09 0.231039490900D-07  6 -2 2 25 2 -2 21 2 0.59535550D-01 0.18533136D+00 0.26066853D+06 0.26066853D+06 0.26066853D+06 0.10890964D+01  1  2 11  4  6  5       -2 0.156780860227D-01 0.100000000000D+01
  </mgrwgt>
  </event>
  <event>
  7     66 0.18366665E-05 0.42890122E+02 0.75467711E-02 0.93623048E-01
       -2 -1    0    0    0  501 0.00000000E+00 0.00000000E+00 0.49638635E+03 0.49638645E+03 0.32000000E+00 0.0000E+00 0.9000E+01
        2 -1    0    0  503    0 0.00000000E+00 0.00000000E+00 -.72335609E+03 0.72335616E+03 0.32000000E+00 0.0000E+00 0.9000E+01
       23  2    1    2    0    0 -.45688107E+03 0.21575610E+03 -.17744899E+03 0.54331117E+03 0.91694453E+02 0.0000E+00 0.0000E+00
       25  1    1    2    0    0 0.49333629E+03 -.20585598E+03 0.67821291E+02 0.55315650E+03 0.12500000E+03 0.0000E+00 0.9000E+01
        2  1    3    3  502    0 -.32157101E+03 0.13209093E+03 -.79931826E+02 0.35671435E+03 0.32000000E+00 0.0000E+00 0.9000E+01
       -2  1    3    3    0  502 -.13531007E+03 0.83665169E+02 -.97517161E+02 0.18659682E+03 0.32000000E+00 0.0000E+00 0.9000E+01
       21  1    1    2  503  501 -.36455217E+02 -.99001248E+01 -.11734204E+03 0.12327495E+03 0.75000000E+00 0.0000E+00 0.9000E+01
#aMCatNLO 2  0  0  2  1 0.55806919D+01 0.00000000D+00  -5  6  0 0.00000000D+00 0.00000000D+00 0.00000000D+00 0.00000000D+00 0.00000000D+00
  <mgrwgt>
 0.2766266252D-03    1    2    0
 0.545159636025626D+03 0.000000000000000D+00 0.000000000000000D+00 0.545159636025626D+03
 0.545159636025626D+03 0.000000000000000D+00 0.000000000000000D+00 -.545159636025626D+03
 0.548469275446461D+03 0.474764732849969D+03 -.210899447129783D+03 0.123747394926178D+03
 0.360243657617483D+03 -.333451375573970D+03 0.128865794109799D+03 -.444891007989662D+02
 0.181606338987307D+03 -.141313357275999D+03 0.820336530199836D+02 -.792582941272115D+02
 0.000000000000000D+00 -.000000000000000D+00 -.000000000000000D+00 -.000000000000000D+00
 0.548764966352412D+03 0.000000000000000D+00 0.000000000000000D+00 0.548764966352412D+03
 0.654310287139632D+03 0.000000000000000D+00 0.000000000000000D+00 -.654310287139632D+03
 0.562757317422607D+03 0.493336291746049D+03 -.205855978314769D+03 0.123747394926178D+03
 0.350480843409816D+03 -.321573274370834D+03 0.132091524019432D+03 -.444891007989662D+02
 0.177735308288392D+03 -.135307800345468D+03 0.836645790647709D+02 -.792582941272115D+02
 0.112101784371229D+03 -.364552170297470D+02 -.990012476943327D+01 -.105545320787220D+03
0.309390229994D-04 0.000000000000D+00 0.000000000000D+00 0.222219501903D-04 0.990291261011D-07  6 -2 2 25 2 -2 21 2 0.76366971D-01 0.11128531D+00 0.29892961D+06 0.29892961D+06 0.29892961D+06 0.10846667D+01  1  2  1  2  6  2        2 0.276626625200D-03 0.100000000000D+01
  </mgrwgt>
  </event>
  <event>
  7     66 0.18366665E-05 0.64582066E+02 0.75467711E-02 0.92051671E-01
       21 -1    0    0  503  501 0.00000000E+00 0.00000000E+00 0.43576040E+03 0.43576104E+03 0.75000000E+00 0.0000E+00 0.9000E+01
        2 -1    0    0  501    0 0.00000000E+00 0.00000000E+00 -.16443546E+04 0.16443546E+04 0.32000000E+00 0.0000E+00 0.9000E+01
       23  2    1    2    0    0 -.19705460E+02 0.57880678E+03 -.10441713E+03 0.59595054E+03 0.94066569E+02 0.0000E+00 0.0000E+00
       25  1    1    2    0    0 -.71790406E+02 -.57244553E+03 -.12086741E+04 0.13451267E+04 0.12500000E+03 0.0000E+00 0.9000E+01
        2  1    3    3  502    0 -.24460653E+02 0.14367484E+03 0.97409144E+01 0.14606769E+03 0.32000000E+00 0.0000E+00 0.9000E+01
        2  1    1    2  503    0 0.91495866E+02 -.63612466E+01 0.10449702E+03 0.13903844E+03 0.32000000E+00 0.0000E+00 0.9000E+01
       -2  1    3    3    0  502 0.47551934E+01 0.43513194E+03 -.11415805E+03 0.44988285E+03 0.32000000E+00 0.0000E+00 0.9000E+01
#aMCatNLO 2  0  0  1  2 0.84783244D+01 0.00000000D+00  -5  6  0 0.00000000D+00 0.00000000D+00 0.00000000D+00 0.00000000D+00 0.00000000D+00
  <mgrwgt>
 0.1163521918D-03    1    2    0
 0.713295223373218D+03 0.000000000000000D+00 0.000000000000000D+00 0.713295223373218D+03
 0.713295223373218D+03 0.000000000000000D+00 0.000000000000000D+00 -.713295223373218D+03
 0.715670285114550D+03 -.259191196918057D+02 -.575634733754843D+03 -.405625208197584D+03
 0.205498662707224D+03 -.112376400053038D+02 0.142752113028132D+03 0.147394877955687D+03
 0.000000000000000D+00 0.000000000000000D+00 -.000000000000000D+00 0.000000000000000D+00
 0.505421498924663D+03 0.371567596971095D+02 0.432882620726711D+03 0.258230330241897D+03
 0.991957511525260D+03 0.000000000000000D+00 0.000000000000000D+00 0.991957511525260D+03
 0.722354666079146D+03 0.000000000000000D+00 0.000000000000000D+00 -.722354666079146D+03
 0.716243367673874D+03 -.717904063663731D+02 -.572445534322027D+03 -.405625208197584D+03
 0.207280197555421D+03 -.244609914241807D+02 0.143671466024359D+03 0.147394877955687D+03
 0.284776497117236D+03 0.914958664622866D+02 -.636124657886166D+01 0.269602845446114D+03
 0.506012115257876D+03 0.475553132826715D+01 0.435135314876530D+03 0.258230330241897D+03
0.369228813150D-05 0.000000000000D+00 0.000000000000D+00 0.240026928089D-05 0.398610213164D-10  6 21 2 25 2 2 -2 2 0.67040105D-01 0.25297765D+00 0.39874978D+06 0.39874978D+06 0.39874978D+06 0.10755256D+01  1  2  1  5  5  1       -2 0.116352191831D-03 0.100000000000D+01
  </mgrwgt>
  </event>
  <event>
  7     66 0.18366665E-05 0.60932568E+02 0.75467711E-02 0.94383313E-01
       -2 -1    0    0    0  503 0.00000000E+00 0.00000000E+00 0.13375392E+04 0.13375392E+04 0.32000000E+00 0.0000E+00 0.9000E+01
        2 -1    0    0  501    0 0.00000000E+00 0.00000000E+00 -.28056490E+03 0.28056508E+03 0.32000000E+00 0.0000E+00 0.9000E+01
       23  2    1    2    0    0 -.22310587E+03 -.44584681E+03 0.90699672E+02 0.51495888E+03 0.91654828E+02 0.0000E+00 0.0000E+00
       25  1    1    2    0    0 0.20413728E+03 0.42631942E+03 0.82274715E+03 0.95705702E+03 0.12500000E+03 0.0000E+00 0.9000E+01
        2  1    3    3  502    0 -.98807099E+02 -.28874353E+03 0.73399902E+02 0.31388424E+03 0.32000000E+00 0.0000E+00 0.9000E+01
       -2  1    3    3    0  502 -.12429877E+03 -.15710329E+03 0.17299770E+02 0.20107464E+03 0.32000000E+00 0.0000E+00 0.9000E+01
       21  1    1    2  501  503 0.18968594E+02 0.19527394E+02 0.14352746E+03 0.14608840E+03 0.75000000E+00 0.0000E+00 0.9000E+01
#aMCatNLO 2  0  0  1  2 0.84783244D+01 0.00000000D+00  -5  6  0 0.00000000D+00 0.00000000D+00 0.00000000D+00 0.00000000D+00 0.00000000D+00
  <mgrwgt>
 0.5552645993D-03    1    2    0
 0.576997528909646D+03 0.000000000000000D+00 0.000000000000000D+00 0.576997528909646D+03
 0.576997528909646D+03 0.000000000000000D+00 0.000000000000000D+00 -.576997528909646D+03
 0.580127695079995D+03 0.213583541194899D+03 0.436043963152267D+03 0.291840497066358D+03
 0.335776494145407D+03 -.932355729260532D+02 -.283009791109298D+03 -.154785141722333D+03
 0.238090868593890D+03 -.120347968268846D+03 -.153034172042969D+03 -.137055355344025D+03
 0.000000000000000D+00 0.000000000000000D+00 0.000000000000000D+00 0.000000000000000D+00
 0.647227906461781D+03 0.000000000000000D+00 0.000000000000000D+00 0.647227906461781D+03
 0.579802306016623D+03 0.000000000000000D+00 0.000000000000000D+00 -.579802306016623D+03
 0.569399814681964D+03 0.204137275475531D+03 0.426319417800015D+03 0.291840497066358D+03
 0.342191425296989D+03 -.988067881095731D+02 -.288745129954173D+03 -.154785141722333D+03
 0.242724886634195D+03 -.124299081528313D+03 -.157101682022579D+03 -.137055355344025D+03
 0.727140858652559D+02 0.189685941623547D+02 0.195273941767374D+02 0.674256004451574D+02
0.281609509219D-03 0.000000000000D+00 0.000000000000D+00 0.211794125619D-04 0.181315578593D-06  6 -2 2 25 2 -2 21 2 0.20577459D+00 0.43163704D-01 0.26094561D+06 0.26094561D+06 0.26094561D+06 0.10890618D+01  1  2  1  1  6  1       -2 0.555264599304D-03 0.100000000000D+01
  </mgrwgt>
  </event>
  <event>
  7     66 0.18366665E-05 0.27098671E+03 0.75467711E-02 0.91700010E-01
       -2 -1    0    0    0  503 0.00000000E+00 0.00000000E+00 0.22748233E+03 0.22748256E+03 0.32000000E+00 0.0000E+00 0.9000E+01
        2 -1    0    0  501    0 0.00000000E+00 0.00000000E+00 -.26467753E+04 0.26467753E+04 0.32000000E+00 0.0000E+00 0.9000E+01
       23  2    1    2    0    0 -.37427611E+03 0.16604441E+03 -.77275990E+03 0.87929696E+03 0.91388877E+02 0.0000E+00 0.0000E+00
       25  1    1    2    0    0 0.57377057E+03 0.58809578E+02 -.15806473E+04 0.16872291E+04 0.12500000E+03 0.0000E+00 0.9000E+01
        2  1    3    3  502    0 -.96966858E+02 0.74967808E+02 -.16992605E+03 0.20951780E+03 0.32000000E+00 0.0000E+00 0.9000E+01
       -2  1    3    3    0  502 -.27730925E+03 0.91076602E+02 -.60283385E+03 0.66977916E+03 0.32000000E+00 0.0000E+00 0.9000E+01
       21  1    1    2  501  503 -.19949447E+03 -.22485399E+03 -.65885769E+02 0.30773179E+03 0.75000000E+00 0.0000E+00 0.9000E+01
#aMCatNLO 2  0  0  1  2 0.84783244D+01 0.00000000D+00  -5  6  0 0.00000000D+00 0.00000000D+00 0.00000000D+00 0.00000000D+00 0.00000000D+00
  <mgrwgt>
 0.3964027785D-04    1    2    0
 0.489431644365254D+03 0.000000000000000D+00 0.000000000000000D+00 0.489431644365254D+03
 0.489431644365254D+03 0.000000000000000D+00 0.000000000000000D+00 -.489431644365254D+03
 0.493146705152952D+03 0.465273642890154D+03 -.634793669531969D+02 -.840207117689357D+02
 0.143342654306838D+03 -.124649163437422D+03 0.437638676660217D+02 0.556275694686694D+02
 0.342373929270718D+03 -.340624479452733D+03 0.197154992871752D+02 0.283931423002663D+02
 0.000000000000000D+00 -.000000000000000D+00 -.000000000000000D+00 0.000000000000000D+00
 0.109299045914439D+04 0.000000000000000D+00 0.000000000000000D+00 0.109299045914439D+04
 0.550868939684245D+03 0.000000000000000D+00 0.000000000000000D+00 -.550868939684245D+03
 0.596117201972119D+03 0.573770574383765D+03 0.588095778953853D+02 -.840207117689357D+02
 0.134598335116620D+03 -.969646470484280D+02 0.749676100322534D+02 0.556275694686694D+02
 0.293262341335254D+03 -.277311461867480D+03 0.910767996400446D+02 0.283931423002663D+02
 0.619881520404641D+03 -.199494465467857D+03 -.224853987567683D+03 0.542121519460144D+03
0.125739375739D-04 0.000000000000D+00 0.000000000000D+00 0.244586228171D-04 0.217726947576D-08  6 -2 2 25 2 -2 21 2 0.34997287D-01 0.40719606D+00 0.42589416D+06 0.42589416D+06 0.42589416D+06 0.10734693D+01  1  2  1  1  6  1       -2 0.396402778477D-04 0.100000000000D+01
  </mgrwgt>
  </event>
  <event>
  7     66 0.18366665E-05 0.62052520E+02 0.75467711E-02 0.94580924E-01
       -2 -1    0    0    0  503 0.00000000E+00 0.00000000E+00 0.10674278E+03 0.10674326E+03 0.32000000E+00 0.0000E+00 0.9000E+01
        2 -1    0    0  501    0 0.00000000E+00 0.00000000E+00 -.44921929E+04 0.44921929E+04 0.32000000E+00 0.0000E+00 0.9000E+01
       23  2    1    2    0    0 0.26265299E+03 -.37189042E+03 -.36162016E+04 0.36458977E+04 0.91471752E+02 0.0000E+00 0.0000E+00
       25  1    1    2    0    0 -.30003035E+03 0.38244024E+03 -.76361130E+03 0.91378661E+03 0.12500000E+03 0.0000E+00 0.9000E+01
        2  1    3    3  502    0 0.18224397E+03 -.18464350E+03 -.18957645E+04 0.19134339E+04 0.32000000E+00 0.0000E+00 0.9000E+01
       -2  1    3    3    0  502 0.80409023E+02 -.18724692E+03 -.17204370E+04 0.17324638E+04 0.32000000E+00 0.0000E+00 0.9000E+01
       21  1    1    2  501  503 0.37377359E+02 -.10549817E+02 -.56372116E+01 0.39251831E+02 0.75000000E+00 0.0000E+00 0.9000E+01
#aMCatNLO 2  0  0  1  2 0.84783244D+01 0.00000000D+00  -5  6  0 0.00000000D+00 0.00000000D+00 0.00000000D+00 0.00000000D+00 0.00000000D+00
  <mgrwgt>
 0.1921366280D-03    1    2    0
 0.633729385684320D+03 0.000000000000000D+00 0.000000000000000D+00 0.633729385684320D+03
 0.633729385684320D+03 0.000000000000000D+00 0.000000000000000D+00 -.633729385684320D+03
 0.636592563098065D+03 -.281088771699653D+03 0.377093944568037D+03 0.410383175564328D+03
 0.339514935094252D+03 0.192150980291069D+03 -.187439385028460D+03 -.207881862761973D+03
 0.291351273176323D+03 0.889377914085836D+02 -.189654559539576D+03 -.202501312802355D+03
 0.000000000000000D+00 0.000000000000000D+00 -.000000000000000D+00 0.000000000000000D+00
 0.752513283289023D+03 0.000000000000000D+00 0.000000000000000D+00 0.752513283289023D+03
 0.637209403425698D+03 0.000000000000000D+00 0.000000000000000D+00 -.637209403425698D+03
 0.648319440934242D+03 -.300030354015758D+03 0.382440235038371D+03 0.410383175564328D+03
 0.332447587769728D+03 0.182245217561620D+03 -.184643468404493D+03 -.207881862761973D+03
 0.287286638430576D+03 0.804077772134283D+02 -.187246950035665D+03 -.202501312802355D+03
 0.121669019580175D+03 0.373773592407093D+02 -.105498165982134D+02 0.115303879863325D+03
0.368004385404D-03 0.000000000000D+00 0.000000000000D+00 0.185555816421D-04 0.796402165761D-07  6 -2 2 25 2 -2 21 2 0.16421974D-01 0.69110539D+00 0.25198099D+06 0.25198099D+06 0.25198099D+06 0.10902013D+01  1  2  1  1  6  1       -2 0.192136628037D-03 0.100000000000D+01
  </mgrwgt>
  </event>
  <event>
  7     66 0.18366665E-05 0.37681311E+02 0.75467711E-02 0.91011601E-01
       -2 -1    0    0    0  501 0.00000000E+00 0.00000000E+00 0.62912057E+03 0.62912065E+03 0.32000000E+00 0.0000E+00 0.9000E+01
        2 -1    0    0  503    0 0.00000000E+00 0.00000000E+00 -.14079996E+04 0.14079996E+04 0.32000000E+00 0.0000E+00 0.9000E+01
       23  2    1    2    0    0 0.63099324E+03 0.26496245E+03 0.29717667E+03 0.75175931E+03 0.92035418E+02 0.0000E+00 0.0000E+00
       25  1    1    2    0    0 -.62727259E+03 -.24886387E+03 -.10548749E+04 0.12584873E+04 0.12500000E+03 0.0000E+00 0.9000E+01
        2  1    3    3  502    0 0.52322382E+03 0.18079351E+03 0.23095308E+03 0.59982405E+03 0.32000000E+00 0.0000E+00 0.9000E+01
       -2  1    3    3    0  502 0.10776943E+03 0.84168940E+02 0.66223587E+02 0.15193527E+03 0.32000000E+00 0.0000E+00 0.9000E+01
       21  1    1    2  503  501 -.37206494E+01 -.16098586E+02 -.21180817E+02 0.26873727E+02 0.75000000E+00 0.0000E+00 0.9000E+01
#aMCatNLO 2  0  0  2  1 0.15832310D+01 0.00000000D+00  -5  6  0 0.00000000D+00 0.00000000D+00 0.00000000D+00 0.00000000D+00 0.00000000D+00
  <mgrwgt>
 0.3023967488D-02    1    2    0
 0.930955376186409D+03 0.000000000000000D+00 0.000000000000000D+00 0.930955376186409D+03
 0.930955376186409D+03 0.000000000000000D+00 0.000000000000000D+00 -.930955376186409D+03
 0.932876650306576D+03 -.629133281709088D+03 -.256914732215357D+03 -.626753523248081D+03
 0.738994642664903D+03 0.521749561712950D+03 0.174394105461694D+03 0.493434061167232D+03
 0.190039459401339D+03 0.107383719996138D+03 0.825206267536627D+02 0.133319462080849D+03
 0.000000000000000D+00 -.000000000000000D+00 -.000000000000000D+00 -.000000000000000D+00
 0.935216569627325D+03 0.000000000000000D+00 0.000000000000000D+00 0.935216569627325D+03
 0.947148103702006D+03 0.000000000000000D+00 0.000000000000000D+00 -.947148103702006D+03
 0.929434832907427D+03 -.627272593243636D+03 -.248863865362527D+03 -.626753523248081D+03
 0.741574209465899D+03 0.523228840238749D+03 0.180794679588199D+03 0.493434061167232D+03
 0.190975022408354D+03 0.107764402421105D+03 0.841677716538036D+02 0.133319462080849D+03
 0.203806085476500D+02 -.372064941621777D+01 -.160985858794759D+02 -.119315340746814D+02
0.163551450166D-02 0.000000000000D+00 0.000000000000D+00 0.884286956033D-05 0.197576161033D-06  6 -2 2 25 2 -2 21 2 0.96787077D-01 0.21661374D+00 0.48522427D+06 0.48522427D+06 0.48522427D+06 0.10694323D+01  1  2  1  2  6  2        2 0.302396748817D-02 0.100000000000D+01
  </mgrwgt>
  </event>
  <event>
  7     66 0.18366665E-05 0.84836132E+02 0.75467711E-02 0.92477756E-01
       -2 -1    0    0    0  503 0.00000000E+00 0.00000000E+00 0.84440683E+03 0.84440689E+03 0.32000000E+00 0.0000E+00 0.9000E+01
        2 -1    0    0  501    0 0.00000000E+00 0.00000000E+00 -.72782742E+03 0.72782749E+03 0.32000000E+00 0.0000E+00 0.9000E+01
       23  2    1    2    0    0 0.44838517E+03 0.38404968E+03 -.43240699E+03 0.73898427E+03 0.10285196E+03 0.0000E+00 0.0000E+00
       25  1    1    2    0    0 -.43703183E+03 -.39771358E+03 0.54784317E+03 0.81543243E+03 0.12500000E+03 0.0000E+00 0.9000E+01
        2  1    3    3  502    0 0.22939387E+03 0.22694534E+03 -.29151044E+03 0.43486109E+03 0.32000000E+00 0.0000E+00 0.9000E+01
       -2  1    3    3    0  502 0.21899130E+03 0.15710435E+03 -.14089656E+03 0.30412318E+03 0.32000000E+00 0.0000E+00 0.9000E+01
       21  1    1    2  501  503 -.11353340E+02 0.13663898E+02 0.11432311E+01 0.17817686E+02 0.75000000E+00 0.0000E+00 0.9000E+01
#aMCatNLO 2  0  0  1  2 0.84783244D+01 0.00000000D+00  -5  6  0 0.00000000D+00 0.00000000D+00 0.00000000D+00 0.00000000D+00 0.00000000D+00
  <mgrwgt>
 0.3934535974D-03    1    2    0
 0.775011318044180D+03 0.000000000000000D+00 0.000000000000000D+00 0.775011318044180D+03
 0.775011318044180D+03 0.000000000000000D+00 0.000000000000000D+00 -.775011318044180D+03
 0.776639190156439D+03 -.442721169390768D+03 -.390866386968800D+03 0.488635718504160D+03
 0.458125510325723D+03 0.226039771295279D+03 0.230982844730489D+03 -.324702834056300D+03
 0.315257935606198D+03 0.216681398095490D+03 0.159883542238311D+03 -.163932884447860D+03
 0.000000000000000D+00 -.000000000000000D+00 0.000000000000000D+00 -.000000000000000D+00
 0.783855017530497D+03 0.000000000000000D+00 0.000000000000000D+00 0.783855017530497D+03
 0.784035483815237D+03 0.000000000000000D+00 0.000000000000000D+00 -.784035483815237D+03
 0.776893029979241D+03 -.437031832800078D+03 -.397713580044300D+03 0.488635718504160D+03
 0.457775075743423D+03 0.229393977053111D+03 0.226946013006310D+03 -.324702834056300D+03
 0.315456332130712D+03 0.218991196189920D+03 0.157103669178266D+03 -.163932884447860D+03
 0.177660634923585D+02 -.113533404429534D+02 0.136638978597246D+02 -.180466284740002D+00
0.163464112135D-03 0.000000000000D+00 0.000000000000D+00 0.251935987794D-06 0.492912957797D-08  6 -2 2 25 2 -2 21 2 0.12990744D+00 0.11197233D+00 0.36841963D+06 0.36841963D+06 0.36841963D+06 0.10780119D+01  1  2  1  1  6  1       -2 0.393453597394D-03 0.100000000000D+01
  </mgrwgt>
  </event>
  <event>
  7     66 0.18366665E-05 0.66468252E+02 0.75467711E-02 0.86991856E-01
       -2 -1    0    0    0  501 0.00000000E+00 0.00000000E+00 0.45979055E+03 0.45979066E+03 0.32000000E+00 0.0000E+00 0.9000E+01
        2 -1    0    0  503    0 0.00000000E+00 0.00000000E+00 -.25992000E+04 0.25992000E+04 0.32000000E+00 0.0000E+00 0.9000E+01
       23  2    1    2    0    0 -.95823772E+03 0.39273786E+03 -.67137338E+03 0.12357851E+04 0.62929461E+02 0.0000E+00 0.0000E+00
       25  1    1    2    0    0 0.87561369E+03 -.34070445E+03 -.14356703E+04 0.17203352E+04 0.12500000E+03 0.0000E+00 0.9000E+01
        2  1    3    3  502    0 -.46643430E+03 0.21470123E+03 -.30554556E+03 0.59750797E+03 0.32000000E+00 0.0000E+00 0.9000E+01
       -2  1    3    3    0  502 -.49180341E+03 0.17803663E+03 -.36582782E+03 0.63827716E+03 0.32000000E+00 0.0000E+00 0.9000E+01
       21  1    1    2  503  501 0.82624030E+02 -.52033412E+02 -.32365725E+02 0.10287035E+03 0.75000000E+00 0.0000E+00 0.9000E+01
#aMCatNLO 2  0  0  2  1 0.41372173D+02 0.00000000D+00  -5  6  0 0.00000000D+00 0.00000000D+00 0.00000000D+00 0.00000000D+00 0.00000000D+00
  <mgrwgt>
 0.7661489593D-04    1    2    0
 0.103555298178055D+04 0.000000000000000D+00 0.000000000000000D+00 0.103555298178055D+04
 0.103555298178055D+04 0.000000000000000D+00 0.000000000000000D+00 -.103555298178055D+04
 0.103836908177507D+04 0.916126021303796D+03 -.366217543818661D+03 -.298635519782746D+03
 0.517982883373950D+03 -.445314370752671D+03 0.201402071308046D+03 0.171576759330547D+03
 0.514753998412078D+03 -.470811650551125D+03 0.164815472510615D+03 0.127058760452199D+03
 0.000000000000000D+00 0.000000000000000D+00 -.000000000000000D+00 0.000000000000000D+00
 0.112278645821489D+04 0.000000000000000D+00 0.000000000000000D+00 0.112278645821489D+04
 0.106439211287162D+04 0.000000000000000D+00 0.000000000000000D+00 -.106439211287162D+04
 0.993774132517645D+03 0.875613689133999D+03 -.340704446971912D+03 -.298635519782746D+03
 0.541383373164986D+03 -.466433648849081D+03 0.214702174228530D+03 0.171576759330547D+03
 0.538248898908458D+03 -.491804070205395D+03 0.178035684900319D+03 0.127058760452199D+03
 0.113772166495424D+03 0.826240299204773D+02 -.520334121569377D+02 0.583943453432685D+02
0.104361456517D-03 0.000000000000D+00 0.000000000000D+00 0.833267533089D-07 0.512053310681D-10  6 -2 2 25 2 -2 21 2 0.70736937D-01 0.39987647D+00 0.10836789D+07 0.10836789D+07 0.10836789D+07 0.10455486D+01  1  2  1  2  6  2        2 0.766148959286D-04 0.100000000000D+01
  </mgrwgt>
  </event>
  <event>
  7     66 0.18366665E-05 0.45529914E+02 0.75467711E-02 0.92980707E-01
       21 -1    0    0  503  501 0.00000000E+00 0.00000000E+00 0.32530990E+03 0.32531076E+03 0.75000000E+00 0.0000E+00 0.9000E+01
        2 -1    0    0  501    0 0.00000000E+00 0.00000000E+00 -.11660261E+04 0.11660262E+04 0.32000000E+00 0.0000E+00 0.9000E+01
       23  2    1    2    0    0 0.14482059E+03 -.54514255E+03 -.63088297E+03 0.85117677E+03 0.91297159E+02 0.0000E+00 0.0000E+00
       25  1    1    2    0    0 -.16423406E+03 0.50322273E+03 -.14931977E+03 0.56402778E+03 0.12500000E+03 0.0000E+00 0.9000E+01
        2  1    3    3  502    0 0.12780192E+03 -.34084015E+03 -.44003790E+03 0.57108563E+03 0.32000000E+00 0.0000E+00 0.9000E+01
        2  1    1    2  503    0 0.19413469E+02 0.41919826E+02 -.60513469E+02 0.76132364E+02 0.32000000E+00 0.0000E+00 0.9000E+01
       -2  1    3    3    0  502 0.17018672E+02 -.20430240E+03 -.19084507E+03 0.28009114E+03 0.32000000E+00 0.0000E+00 0.9000E+01
#aMCatNLO 2  0  0  1  2 0.21378244D+02 0.00000000D+00  -5  6  0 0.00000000D+00 0.00000000D+00 0.00000000D+00 0.00000000D+00 0.00000000D+00
  <mgrwgt>
 0.1126794470D-03    1    2    0
 0.589905385016433D+03 0.000000000000000D+00 0.000000000000000D+00 0.589905385016433D+03
 0.589905385016433D+03 0.000000000000000D+00 0.000000000000000D+00 -.589905385016433D+03
 0.592994790988006D+03 -.154608688647950D+03 0.524006950071127D+03 0.193728397016612D+03
 0.384027646660025D+03 0.134199752462332D+03 -.327029820307532D+03 -.150063841307321D+03
 0.000000000000000D+00 0.000000000000000D+00 0.000000000000000D+00 -.000000000000000D+00
 0.202788332384835D+03 0.204089361856175D+02 -.196977129763595D+03 -.436645557092906D+02
 0.604877736148086D+03 0.000000000000000D+00 0.000000000000000D+00 0.604877736148086D+03
 0.627101760742792D+03 0.000000000000000D+00 0.000000000000000D+00 -.627101760742792D+03
 0.577374776258726D+03 -.164234058814755D+03 0.503222728396105D+03 0.193728397016612D+03
 0.393733398265968D+03 0.127803278931031D+03 -.340841831846731D+03 -.150063841307321D+03
 0.512646254511196D+02 0.194134688078572D+02 0.419198256473452D+02 -.222240245947064D+02
 0.209606696915064D+03 0.170173110758668D+02 -.204300722196719D+03 -.436645557092906D+02
0.976649457113D-06 0.000000000000D+00 0.000000000000D+00 0.331151983411D-04 0.231666846562D-09  6 21 2 25 2 2 -2 2 0.50047706D-01 0.17938856D+00 0.33589179D+06 0.33589179D+06 0.33589179D+06 0.10809394D+01  1  2  1  5  5  1       -2 0.112679447007D-03 0.100000000000D+01
  </mgrwgt>
  </event>
  <event>
  7     66 0.18366665E-05 0.67160311E+02 0.75467711E-02 0.94069967E-01
       -2 -1    0    0    0  503 0.00000000E+00 0.00000000E+00 0.19855726E+03 0.19855752E+03 0.32000000E+00 0.0000E+00 0.9000E+01
        2 -1    0    0  501    0 0.00000000E+00 0.00000000E+00 -.14947488E+04 0.14947489E+04 0.32000000E+00 0.0000E+00 0.9000E+01
       23  2    1    2    0    0 -.10075210E+03 0.49960964E+03 -.71172419E+03 0.88026767E+03 0.92515266E+02 0.0000E+00 0.0000E+00
       25  1    1    2    0    0 0.81291981E+02 -.49912589E+03 -.59506524E+03 0.79086198E+03 0.12500000E+03 0.0000E+00 0.9000E+01
        2  1    3    3  502    0 -.69973465E+02 0.29223076E+03 -.49249211E+03 0.57692606E+03 0.32000000E+00 0.0000E+00 0.9000E+01
       -2  1    3    3    0  502 -.30778633E+02 0.20737888E+03 -.21923208E+03 0.30334161E+03 0.32000000E+00 0.0000E+00 0.9000E+01
       21  1    1    2  501  503 0.19460118E+02 -.48374677E+00 0.10597864E+02 0.22176731E+02 0.75000000E+00 0.0000E+00 0.9000E+01
#aMCatNLO 2  0  0  1  4 0.25289817D+03 0.00000000D+00  -5  6  0 0.00000000D+00 0.00000000D+00 0.00000000D+00 0.00000000D+00 0.00000000D+00
  <mgrwgt>
 0.1614429025D-02    1    2    0
 0.520719881630428D+03 0.000000000000000D+00 0.000000000000000D+00 0.520719881630428D+03
 0.520719881630428D+03 0.000000000000000D+00 0.000000000000000D+00 -.520719881630428D+03
 0.524112264893009D+03 0.910673647014280D+02 -.499368889698113D+03 0.374981772795844D+02
 0.306338313696928D+03 -.642372819202437D+02 0.292089170504844D+03 -.663373991347913D+02
 0.210989184670920D+03 -.268300827811843D+02 0.207279719193269D+03 0.288392218552069D+02
 0.000000000000000D+00 0.000000000000000D+00 -.000000000000000D+00 0.000000000000000D+00
 0.567657791958686D+03 0.000000000000000D+00 0.000000000000000D+00 0.567657791958686D+03
 0.522833007581002D+03 0.000000000000000D+00 0.000000000000000D+00 -.522833007581002D+03
 0.522270191643225D+03 0.812919806186691D+02 -.499125889597859D+03 0.374981772795844D+02
 0.307727821161457D+03 -.699739342149757D+02 0.292231774321833D+03 -.663373991347913D+02
 0.211623660686728D+03 -.307781639592210D+02 0.207377862050260D+03 0.288392218552069D+02
 0.488691260482772D+02 0.194601175555277D+02 -.483746774235267D+00 0.448247843776841D+02
0.867781442468D-04 0.000000000000D+00 0.000000000000D+00 0.195225842898D-04 0.325989187020D-06  6 -2 2 25 2 -2 21 2 0.30547126D-01 0.22996012D+00 0.27590351D+06 0.27590351D+06 0.27590351D+06 0.10872525D+01  1  2  1  1  6  1       -2 0.161442902468D-02 0.100000000000D+01
  </mgrwgt>
  </event>
  <event>
  7     66 0.18366665E-05 0.53173143E+02 0.75467711E-02 0.94047677E-01
       -2 -1    0    0    0  501 0.00000000E+00 0.00000000E+00 0.16475545E+03 0.16475577E+03 0.32000000E+00 0.0000E+00 0.9000E+01
        2 -1    0    0  503    0 0.00000000E+00 0.00000000E+00 -.31596941E+04 0.31596941E+04 0.32000000E+00 0.0000E+00 0.9000E+01
       23  2    1    2    0    0 -.76353832E+02 -.50563776E+03 -.17451646E+04 0.18208551E+04 0.91731125E+02 0.0000E+00 0.0000E+00
       25  1    1    2    0    0 0.85996445E+02 0.49856254E+03 -.40830609E+03 0.66204143E+03 0.12500000E+03 0.0000E+00 0.9000E+01
        2  1    3    3  502    0 -.95683051E+02 -.35565966E+03 -.12326322E+04 0.12864802E+04 0.32000000E+00 0.0000E+00 0.9000E+01
       -2  1    3    3    0  502 0.19329219E+02 -.14997810E+03 -.51253233E+03 0.53437491E+03 0.32000000E+00 0.0000E+00 0.9000E+01
       21  1    1    2  503  501 -.96426127E+01 0.70752156E+01 -.84146798E+03 0.84155330E+03 0.75000000E+00 0.0000E+00 0.9000E+01
#aMCatNLO 2  0  0  2  1 0.25447227D+01 0.00000000D+00  -5  6  0 0.00000000D+00 0.00000000D+00 0.00000000D+00 0.00000000D+00 0.00000000D+00
  <mgrwgt>
 0.9091073299D-03    1    2    0
 0.617898954198101D+03 0.000000000000000D+00 0.000000000000000D+00 0.617898954198101D+03
 0.617898954198101D+03 0.000000000000000D+00 0.000000000000000D+00 -.617898954198101D+03
 0.620816259948703D+03 0.811611200444749D+02 0.502110438516290D+03 0.333295377619913D+03
 0.435483910649284D+03 -.990872913447796D+02 -.353165347206401D+03 -.234738541064160D+03
 0.179497737798215D+03 0.179261713003047D+02 -.148945091309889D+03 -.985568365557538D+02
 0.000000000000000D+00 -.000000000000000D+00 0.000000000000000D+00 -.000000000000000D+00
 0.618087311008287D+03 0.000000000000000D+00 0.000000000000000D+00 0.618087311008287D+03
 0.842237522172627D+03 0.000000000000000D+00 0.000000000000000D+00 -.842237522172627D+03
 0.618603918693327D+03 0.859964449769764D+02 0.498562544653388D+03 0.333295377619913D+03
 0.436753100986292D+03 -.956844506922794D+02 -.355662163374078D+03 -.234738541064160D+03
 0.180498760357337D+03 0.193306183741388D+02 -.149975596854725D+03 -.985568365557538D+02
 0.224469053143958D+03 -.964261265883581D+01 0.707521557541499D+01 -.224150211164340D+03
0.321622609417D-03 0.000000000000D+00 0.000000000000D+00 0.177703484730D-04 0.823030618246D-06  6 -2 2 25 2 -2 21 2 0.25346993D-01 0.48610632D+00 0.27700364D+06 0.27700364D+06 0.27700364D+06 0.10871237D+01  1  2  1  2  6  2        2 0.909107329921D-03 0.100000000000D+01
  </mgrwgt>
  </event>
  <event>
  7     66 0.18366665E-05 0.65337766E+02 0.75467711E-02 0.94831018E-01
       -2 -1    0    0    0  503 0.00000000E+00 0.00000000E+00 0.15497915E+03 0.15497948E+03 0.32000000E+00 0.0000E+00 0.9000E+01
        2 -1    0    0  501    0 0.00000000E+00 0.00000000E+00 -.17676383E+04 0.17676383E+04 0.32000000E+00 0.0000E+00 0.9000E+01
       23  2    1    2    0    0 0.34427315E+03 0.33323922E+03 -.56972189E+03 0.74931654E+03 0.85556250E+02 0.0000E+00 0.0000E+00
       25  1    1    2    0    0 -.33391280E+03 -.33823067E+03 -.10503234E+04 0.11596129E+04 0.12500000E+03 0.0000E+00 0.9000E+01
        2  1    3    3  502    0 0.14237604E+03 0.13607618E+03 -.30055147E+03 0.35933126E+03 0.32000000E+00 0.0000E+00 0.9000E+01
       -2  1    3    3    0  502 0.20189711E+03 0.19716304E+03 -.26917042E+03 0.38998529E+03 0.32000000E+00 0.0000E+00 0.9000E+01
       21  1    1    2  501  503 -.10360349E+02 0.49914512E+01 0.73862226E+01 0.13688323E+02 0.75000000E+00 0.0000E+00 0.9000E+01
#aMCatNLO 2  0  0  1  2 0.12098286D+01 0.00000000D+00  -5  6  0 0.00000000D+00 0.00000000D+00 0.00000000D+00 0.00000000D+00 0.00000000D+00
  <mgrwgt>
 0.1343042701D-02    1    2    0
 0.504809990988173D+03 0.000000000000000D+00 0.000000000000000D+00 0.504809990988173D+03
 0.504809990988173D+03 0.000000000000000D+00 0.000000000000000D+00 -.504809990988173D+03
 0.508922988152550D+03 -.339125846172240D+03 -.335719111540442D+03 -.125155688942128D+03
 0.196344809038471D+03 0.140356478508566D+03 0.137047921332917D+03 0.831926891947946D+01
 0.304352184785324D+03 0.198769367663674D+03 0.198671190207525D+03 0.116836420022649D+03
 0.000000000000000D+00 -.000000000000000D+00 0.000000000000000D+00 0.000000000000000D+00
 0.541667815424144D+03 0.000000000000000D+00 0.000000000000000D+00 0.541667815424144D+03
 0.505740572964781D+03 0.000000000000000D+00 0.000000000000000D+00 -.505740572964781D+03
 0.507135775865957D+03 -.333912804786708D+03 -.338230672009593D+03 -.125155688942128D+03
 0.197120282331220D+03 0.142375209981301D+03 0.136075328600616D+03 0.831926891947946D+01
 0.305429417291532D+03 0.201897943333047D+03 0.197163892184196D+03 0.116836420022649D+03
 0.377229129002169D+02 -.103603485276396D+02 0.499145122478009D+01 0.359272424593626D+02
0.651457380120D-04 0.000000000000D+00 0.000000000000D+00 0.189724865456D-05 0.914932027108D-07  6 -2 2 25 2 -2 21 2 0.23842799D-01 0.27194237D+00 0.24112693D+06 0.24112693D+06 0.24112693D+06 0.10916418D+01  1  2  1  1  6  1       -2 0.134304270059D-02 0.100000000000D+01
  </mgrwgt>
  </event>
  <event>
  7     66 0.18366665E-05 0.42723646E+02 0.75467711E-02 0.90746377E-01
       -2 -1    0    0    0  503 0.00000000E+00 0.00000000E+00 0.12047240E+04 0.12047240E+04 0.32000000E+00 0.0000E+00 0.9000E+01
        2 -1    0    0  501    0 0.00000000E+00 0.00000000E+00 -.67764706E+03 0.67764713E+03 0.32000000E+00 0.0000E+00 0.9000E+01
       23  2    1    2    0    0 0.65396853E+03 -.19170225E+03 -.52675335E+02 0.68956580E+03 0.91113715E+02 0.0000E+00 0.0000E+00
       25  1    1    2    0    0 -.64244363E+03 0.23955496E+03 0.92492057E+02 0.70306485E+03 0.12500000E+03 0.0000E+00 0.9000E+01
        2  1    3    3  502    0 0.22545049E+03 -.87287090E+02 -.57422916E+02 0.24848431E+03 0.32000000E+00 0.0000E+00 0.9000E+01
       -2  1    3    3    0  502 0.42851804E+03 -.10441516E+03 0.47475814E+01 0.44108148E+03 0.32000000E+00 0.0000E+00 0.9000E+01
       21  1    1    2  501  503 -.11524897E+02 -.47852709E+02 0.48726021E+03 0.48974053E+03 0.75000000E+00 0.0000E+00 0.9000E+01
#aMCatNLO 2  0  0  1  5 0.24144423D+02 0.00000000D+00  -5  6  0 0.00000000D+00 0.00000000D+00 0.00000000D+00 0.00000000D+00 0.00000000D+00
  <mgrwgt>
 0.3105161825D-03    1    2    0
 0.695595433672889D+03 0.000000000000000D+00 0.000000000000000D+00 0.695595433672889D+03
 0.695595433672889D+03 0.000000000000000D+00 0.000000000000000D+00 -.695595433672889D+03
 0.698227456058159D+03 -.648236341397755D+03 0.215502952252045D+03 0.724203262582665D+02
 0.251517343326596D+03 0.223370366062130D+03 -.959133979349137D+02 -.645544239840887D+02
 0.441446067961024D+03 0.424865975335625D+03 -.119589554317131D+03 -.786590227417777D+01
 0.000000000000000D+00 -.000000000000000D+00 -.000000000000000D+00 0.000000000000000D+00
 0.117075788801237D+04 0.000000000000000D+00 0.000000000000000D+00 0.117075788801237D+04
 0.697306503391066D+03 0.000000000000000D+00 0.000000000000000D+00 -.697306503391066D+03
 0.700706857530027D+03 -.642443630883082D+03 0.239554957519175D+03 0.724203262582665D+02
 0.250226032360012D+03 0.225447986218971D+03 -.872868783066914D+02 -.645544239840887D+02
 0.441128435766037D+03 0.428520541928254D+03 -.104415370364326D+03 -.786590227417777D+01
 0.476003065747361D+03 -.115248972641429D+02 -.478527088481581D+02 0.473451384621305D+03
0.332273295082D-03 0.000000000000D+00 0.000000000000D+00 0.377276447705D-04 0.107771753695D-06  6 -2 2 25 2 -2 21 2 0.18534208D+00 0.10425336D+00 0.51050261D+06 0.51050261D+06 0.51050261D+06 0.10678729D+01  1  2  1  1  6  1       -2 0.310516182492D-03 0.100000000000D+01
  </mgrwgt>
  </event>
  <event>
  7     66 0.18366665E-05 0.93180308E+02 0.75467711E-02 0.95368810E-01
       21 -1    0    0  503  501 0.00000000E+00 0.00000000E+00 0.39067385E+03 0.39067457E+03 0.75000000E+00 0.0000E+00 0.9000E+01
        2 -1    0    0  501    0 0.00000000E+00 0.00000000E+00 -.90420342E+03 0.90420348E+03 0.32000000E+00 0.0000E+00 0.9000E+01
       23  2    1    2    0    0 -.33248985E+03 -.29602484E+03 0.10571724E+03 0.46653604E+03 0.91101769E+02 0.0000E+00 0.0000E+00
       25  1    1    2    0    0 0.34810946E+03 0.29835097E+03 -.64316762E+03 0.79967686E+03 0.12500000E+03 0.0000E+00 0.9000E+01
        2  1    3    3  502    0 -.15074289E+03 -.15302385E+03 0.65260928E+01 0.21490093E+03 0.32000000E+00 0.0000E+00 0.9000E+01
        2  1    1    2  503    0 -.15619610E+02 -.23261293E+01 0.23920805E+02 0.28665143E+02 0.32000000E+00 0.0000E+00 0.9000E+01
       -2  1    3    3    0  502 -.18174696E+03 -.14300100E+03 0.99191150E+02 0.25163511E+03 0.32000000E+00 0.0000E+00 0.9000E+01
#aMCatNLO 2  0  0  1  5 0.24144423D+02 0.00000000D+00  -5  6  0 0.00000000D+00 0.00000000D+00 0.00000000D+00 0.00000000D+00 0.00000000D+00
  <mgrwgt>
 0.1999270448D-03    1    2    0
 0.573191246501891D+03 0.000000000000000D+00 0.000000000000000D+00 0.573191246501891D+03
 0.573191246501891D+03 0.000000000000000D+00 0.000000000000000D+00 -.573191246501891D+03
 0.576386282981647D+03 0.340220435184480D+03 0.297176109504626D+03 -.335458734618697D+03
 0.242787274153128D+03 -.154034093728742D+03 -.153514166073795D+03 0.107947020683938D+03
 0.000000000000000D+00 -.000000000000000D+00 -.000000000000000D+00 0.000000000000000D+00
 0.327208935869007D+03 -.186186341455738D+03 -.143661943430832D+03 0.227511713934759D+03
 0.614609172976935D+03 0.000000000000000D+00 0.000000000000000D+00 0.614609172976935D+03
 0.574752892525938D+03 0.000000000000000D+00 0.000000000000000D+00 -.574752892525938D+03
 0.581679517071952D+03 0.348109459220007D+03 0.298350971760837D+03 -.335458734618697D+03
 0.240400078194528D+03 -.150742504739449D+03 -.153023970626415D+03 0.107947020683938D+03
 0.428708080747329D+02 -.156196099796312D+02 -.232612933350936D+01 0.398562804509976D+02
 0.324411662161660D+03 -.181747344500927D+03 -.143000871800912D+03 0.227511713934759D+03
0.170463068353D-05 0.000000000000D+00 0.000000000000D+00 0.291505061720D-04 0.448227949302D-08  6 21 2 25 2 2 -2 2 0.60103666D-01 0.13910813D+00 0.21951907D+06 0.21951907D+06 0.21951907D+06 0.10947328D+01  1  2  1  5  5  1       -2 0.199927044804D-03 0.100000000000D+01
  </mgrwgt>
  </event>
  <event>
  7     66 0.18366665E-05 0.78586804E+01 0.75467711E-02 0.92576042E-01
       -2 -1    0    0    0  501 0.00000000E+00 0.00000000E+00 0.58310619E+03 0.58310628E+03 0.32000000E+00 0.0000E+00 0.9000E+01
        2 -1    0    0  503    0 0.00000000E+00 0.00000000E+00 -.70293815E+03 0.70293822E+03 0.32000000E+00 0.0000E+00 0.9000E+01
       23  2    1    2    0    0 -.57365538E+03 0.78431491E+02 0.11856184E+03 0.59635720E+03 0.79705745E+02 0.0000E+00 0.0000E+00
       25  1    1    2    0    0 0.58694910E+03 -.83359737E+02 -.18359617E+03 0.63308029E+03 0.12500000E+03 0.0000E+00 0.9000E+01
        2  1    3    3  502    0 -.11205297E+02 -.81547116E+01 -.35889290E+01 0.14319246E+02 0.32000000E+00 0.0000E+00 0.9000E+01
       -2  1    3    3    0  502 -.56245008E+03 0.86586202E+02 0.12215077E+03 0.58203795E+03 0.32000000E+00 0.0000E+00 0.9000E+01
       21  1    1    2  503  501 -.13293724E+02 0.49282463E+01 -.54797635E+02 0.56607014E+02 0.75000000E+00 0.0000E+00 0.9000E+01
#aMCatNLO 2  0  0  2  1 0.10677001D+03 0.00000000D+00  -5  6  0 0.00000000D+00 0.00000000D+00 0.00000000D+00 0.00000000D+00 0.00000000D+00
  <mgrwgt>
 0.1005361322D-04    4    2    0
 0.613817166412835D+03 0.000000000000000D+00 0.000000000000000D+00 0.613817166412835D+03
 0.613817166412835D+03 0.000000000000000D+00 0.000000000000000D+00 -.613817166412835D+03
 0.617593532920095D+03 0.580225573034829D+03 -.808671911988150D+02 -.150318174845037D+03
 0.142293823183171D+02 -.113500084994963D+02 -.809929732597606D+01 -.283795895806047D+01
 0.595811417587258D+03 -.568875564535333D+03 0.889664885247910D+02 0.153156133803097D+03
 0.000000000000000D+00 -.000000000000000D+00 0.000000000000000D+00 -.000000000000000D+00
 0.614809369599262D+03 0.000000000000000D+00 0.000000000000000D+00 0.614809369599262D+03
 0.666685036747430D+03 0.000000000000000D+00 0.000000000000000D+00 -.666685036747430D+03
 0.624242461030035D+03 0.586949104021588D+03 -.833597369978294D+02 -.150318174845037D+03
 0.141399390363417D+02 -.111964117184958D+02 -.815623868788530D+01 -.283795895806047D+01
 0.589333799163307D+03 -.562458967957805D+03 0.865877293765421D+02 0.153156133803097D+03
 0.537782071170086D+02 -.132937243452870D+02 0.492824630917257D+01 -.518756671481681D+02
-.870345328595D-07 0.000000000000D+00 0.000000000000D+00 0.498250429683D-07 0.000000000000D+00  6 -2 2 25 2 -2 21 2 0.89563501D-01 0.99568115D-01 0.35328451D+06 0.35328451D+06 0.35328451D+06 0.10793375D+01  1  2  8  2  6  2        2 -.610591137190D-06 0.100000000000D+01
-.295504229122D-06 0.000000000000D+00 0.000000000000D+00 0.498250429683D-07 0.000000000000D+00  6 -2 2 25 2 -2 21 2 0.89563501D-01 0.10822251D+00 0.35328451D+06 0.35328451D+06 0.35328451D+06 0.10793375D+01  1  2  9  2  6  2        2 -.187347857266D-05 0.100000000000D+01
0.294480788053D-06 0.000000000000D+00 0.000000000000D+00 0.498250429683D-07 0.000000000000D+00  6 -2 2 25 2 -2 21 2 0.89563501D-01 0.99568115D-01 0.35328451D+06 0.35328451D+06 0.35328451D+06 0.10793375D+01  1  2 10  2  6  2        2 0.206593122696D-05 0.100000000000D+01
0.166014712627D-05 0.000000000000D+00 0.000000000000D+00 0.498250429683D-07 0.164204632832D-08  6 -2 2 25 2 -2 21 2 0.89708276D-01 0.10814388D+00 0.36179544D+06 0.36179544D+06 0.36179544D+06 0.10785847D+01  1  2  1  2  6  2        2 0.104717517008D-04 0.100000000000D+01
  </mgrwgt>
  </event>
  <event>
  7     66 0.18366665E-05 0.34064240E+02 0.75467711E-02 0.92403177E-01
       -2 -1    0    0    0  503 0.00000000E+00 0.00000000E+00 0.81492251E+03 0.81492257E+03 0.32000000E+00 0.0000E+00 0.9000E+01
        2 -1    0    0  501    0 0.00000000E+00 0.00000000E+00 -.12790491E+04 0.12790492E+04 0.32000000E+00 0.0000E+00 0.9000E+01
       23  2    1    2    0    0 0.54264190E+03 -.26246805E+03 -.94858738E+03 0.11276829E+04 0.92200707E+02 0.0000E+00 0.0000E+00
       25  1    1    2    0    0 -.51027141E+03 0.24618504E+03 0.11054122E+03 0.59061693E+03 0.12500000E+03 0.0000E+00 0.9000E+01
        2  1    3    3  502    0 0.40084955E+03 -.22323101E+03 -.66076864E+03 0.80444251E+03 0.32000000E+00 0.0000E+00 0.9000E+01
       -2  1    3    3    0  502 0.14179235E+03 -.39237040E+02 -.28781874E+03 0.32324039E+03 0.32000000E+00 0.0000E+00 0.9000E+01
       21  1    1    2  501  503 -.32370486E+02 0.16283003E+02 0.37391956E+03 0.37567191E+03 0.75000000E+00 0.0000E+00 0.9000E+01
#aMCatNLO 2  0  0  1  2 0.26299866D+01 0.00000000D+00  -5  6  0 0.00000000D+00 0.00000000D+00 0.00000000D+00 0.00000000D+00 0.00000000D+00
  <mgrwgt>
 0.7042879312D-03    1    2    0
 0.749819962015975D+03 0.000000000000000D+00 0.000000000000000D+00 0.749819962015975D+03
 0.749819962015975D+03 0.000000000000000D+00 0.000000000000000D+00 -.749819962015975D+03
 0.752195208772821D+03 -.526355529563236D+03 0.254275675802263D+03 0.456581174923251D+03
 0.541406150383284D+03 0.389050066434975D+03 -.217296274703424D+03 -.307478445553184D+03
 0.206038564875845D+03 0.137305463128260D+03 -.369794010988389D+02 -.149102729370066D+03
 0.000000000000000D+00 -.000000000000000D+00 0.000000000000000D+00 0.000000000000000D+00
 0.138874373395501D+04 0.000000000000000D+00 0.000000000000000D+00 0.138874373395501D+04
 0.750552737938629D+03 0.000000000000000D+00 0.000000000000000D+00 -.750552737938629D+03
 0.738292192570269D+03 -.510271414518461D+03 0.246185043902443D+03 0.456581174923251D+03
 0.552321404391300D+03 0.400852675301567D+03 -.223233223272326D+03 -.307478445553184D+03
 0.209464029803629D+03 0.141789225639909D+03 -.392348234150170D+02 -.149102729370066D+03
 0.639218845128437D+03 -.323704864230146D+02 0.162830027848997D+02 0.638190996016378D+03
0.596962192108D-03 0.000000000000D+00 0.000000000000D+00 0.890359052432D-05 0.490372526145D-07  6 -2 2 25 2 -2 21 2 0.12537267D+00 0.19677674D+00 0.37353666D+06 0.37353666D+06 0.37353666D+06 0.10775772D+01  1  2  1  1  6  1       -2 0.704287931196D-03 0.100000000000D+01
  </mgrwgt>
  </event>
  <event>
  7     66 0.18366665E-05 0.65723211E+02 0.75467711E-02 0.92853061E-01
       -2 -1    0    0    0  501 0.00000000E+00 0.00000000E+00 0.49640791E+03 0.49640801E+03 0.32000000E+00 0.0000E+00 0.9000E+01
        2 -1    0    0  503    0 0.00000000E+00 0.00000000E+00 -.79436885E+03 0.79436892E+03 0.32000000E+00 0.0000E+00 0.9000E+01
       23  2    1    2    0    0 -.49214297E+03 -.29973271E+03 0.74783440E+02 0.58795237E+03 0.89727506E+02 0.0000E+00 0.0000E+00
       25  1    1    2    0    0 0.47982316E+03 0.29060994E+03 -.34284916E+03 0.66921966E+03 0.12500000E+03 0.0000E+00 0.9000E+01
        2  1    3    3  502    0 -.21732338E+03 -.82790383E+02 0.18066076E+02 0.23325991E+03 0.32000000E+00 0.0000E+00 0.9000E+01
       -2  1    3    3    0  502 -.27481959E+03 -.21694233E+03 0.56717364E+02 0.35469246E+03 0.32000000E+00 0.0000E+00 0.9000E+01
       21  1    1    2  503  501 0.12319810E+02 0.91227695E+01 -.29895225E+02 0.33604905E+02 0.75000000E+00 0.0000E+00 0.9000E+01
#aMCatNLO 2  0  0  2  1 0.44900218D+01 0.00000000D+00  -5  6  0 0.00000000D+00 0.00000000D+00 0.00000000D+00 0.00000000D+00 0.00000000D+00
  <mgrwgt>
 0.3707844705D-03    1    2    0
 0.614082091265649D+03 0.000000000000000D+00 0.000000000000000D+00 0.614082091265649D+03
 0.614082091265649D+03 0.000000000000000D+00 0.000000000000000D+00 -.614082091265649D+03
 0.617165544927568D+03 0.485978547665324D+03 0.295167980492856D+03 -.204863428524014D+03
 0.239915821320605D+03 -.214902207603713D+03 -.809963478821369D+02 0.693990930542126D+02
 0.371082816283123D+03 -.271076340061611D+03 -.214171632610719D+03 0.135464335469802D+03
 0.000000000000000D+00 0.000000000000000D+00 0.000000000000000D+00 -.000000000000000D+00
 0.616428211825848D+03 0.000000000000000D+00 0.000000000000000D+00 0.616428211825848D+03
 0.639692738857424D+03 0.000000000000000D+00 0.000000000000000D+00 -.639692738857424D+03
 0.610146231268554D+03 0.479823157516250D+03 0.290609939086299D+03 -.204863428524014D+03
 0.242691849078084D+03 -.217322650850372D+03 -.827886762761634D+02 0.693990930542126D+02
 0.375421770785429D+03 -.274820316996080D+03 -.216944032325313D+03 0.135464335469802D+03
 0.278610995512050D+02 0.123198103302026D+02 0.912276951517755D+01 -.232645270315762D+02
0.472725551292D-04 0.000000000000D+00 0.000000000000D+00 0.135578250322D-04 0.359226073044D-06  6 -2 2 25 2 -2 21 2 0.76369837D-01 0.12220961D+00 0.34383147D+06 0.34383147D+06 0.34383147D+06 0.10801972D+01  1  2  1  2  6  2        2 0.370784470532D-03 0.100000000000D+01
  </mgrwgt>
  </event>
  <event>
  6     66 0.18366665E-05 0.14197975E+02 0.75467711E-02 0.90345411E-01
       -2 -1    0    0    0  501 0.00000000E+00 0.00000000E+00 0.13132276E+04 0.13132277E+04 0.32000000E+00 0.0000E+00 0.9000E+01
        2 -1    0    0  501    0 0.00000000E+00 0.00000000E+00 -.47248445E+03 0.47248456E+03 0.32000000E+00 0.0000E+00 0.9000E+01
       23  2    1    2    0    0 -.88837496E+01 -.73684372E+03 0.13245142E+03 0.75599392E+03 0.10471790E+03 0.0000E+00 0.0000E+00
       25  1    1    2    0    0 0.88837496E+01 0.73684372E+03 0.70829176E+03 0.10297183E+04 0.12500000E+03 0.0000E+00 0.9000E+01
        2  1    3    3  502    0 0.50596186E+01 -.13272413E+02 -.11295088E+02 0.18150429E+02 0.32000000E+00 0.0000E+00 0.9000E+01
       -2  1    3    3    0  502 -.13943368E+02 -.72357130E+03 0.14374650E+03 0.73784349E+03 0.32000000E+00 0.0000E+00 0.9000E+01
#aMCatNLO 1  0  0  4  1 0.64288053D+00 0.00000000D+00  -5  6  0 0.00000000D+00 0.00000000D+00 0.00000000D+00 0.00000000D+00 0.00000000D+00
  <mgrwgt>
 0.8965029217D-03    7    2    0
 0.787705380937963D+03 0.000000000000000D+00 0.000000000000000D+00 0.787705380937963D+03
 0.787705380937963D+03 -.000000000000000D+00 -.000000000000000D+00 -.787705380937963D+03
 0.789184095177429D+03 0.888374959594802D+01 0.736843718119726D+03 0.253315909768082D+03
 0.265942872700883D+02 0.505979535783057D+01 -.132657812369646D+02 -.224871882304982D+02
 0.759632379428409D+03 -.139435449537786D+02 -.723577936882761D+03 -.230828721537583D+03
 0.000000000000000D+00 0.000000000000000D+00 0.000000000000000D+00 -.000000000000000D+00
 0.787705380937963D+03 0.000000000000000D+00 0.000000000000000D+00 0.787705380937963D+03
 0.787705380937963D+03 -.000000000000000D+00 -.000000000000000D+00 -.787705380937963D+03
 0.789117407674259D+03 0.890101241930507D+01 0.736798458416123D+03 0.253239188807891D+03
 0.253160833202872D+02 0.486155736390895D+01 -.131717408936186D+02 -.210659577638550D+02
 0.759696019463650D+03 -.139269271543759D+02 -.723621505461316D+03 -.230902575825498D+03
 0.128125141773009D+01 0.164357371161838D+00 -.521206118877859D-02 -.127065521853818D+01
0.650745089366D-06 0.000000000000D+00 0.000000000000D+00 0.430914005280D-07 0.000000000000D+00  6 -2 2 25 2 -2 21 0 0.20203503D+00 0.72689927D-01 0.55155443D+06 0.55155443D+06 0.55155443D+06 0.10655113D+01  1  2  2  3  6  4        2 0.620589705942D-06 0.100000000000D+01
0.286078241517D-06 0.000000000000D+00 -.249903248828D-08 0.430914005280D-07 0.000000000000D+00  6 -2 2 25 2 -2 21 2 0.20203503D+00 0.72689927D-01 0.55155443D+06 0.55155443D+06 0.55155443D+06 0.10655113D+01  1  2  3  3  6  4        2 0.309738108267D-06 0.100000000000D+01
-.185109327022D-06 0.000000000000D+00 0.000000000000D+00 0.430914005280D-07 0.000000000000D+00  6 -2 2 25 2 -2 21 2 0.20203503D+00 0.72689927D-01 0.55155443D+06 0.55155443D+06 0.55155443D+06 0.10655113D+01  1  2 15  3  6  4        2 -.200418642363D-06 0.100000000000D+01
-.685598525387D-03 0.000000000000D+00 0.000000000000D+00 0.430914005280D-07 0.000000000000D+00  6 -2 2 25 2 -2 21 2 0.20203503D+00 0.72689927D-01 0.55155443D+06 0.55155443D+06 0.55155443D+06 0.10655113D+01  1  2  4  3  6  4        2 -.742300390124D-03 0.100000000000D+01
-.452117320836D-04 0.000000000000D+00 0.000000000000D+00 0.430914005280D-07 0.000000000000D+00  6 -2 2 25 2 -2 21 2 0.20203503D+00 0.72689927D-01 0.55155443D+06 0.55155443D+06 0.55155443D+06 0.10655113D+01  1  2  5  3  6  4        2 -.489509313704D-04 0.100000000000D+01
0.536028364645D-04 0.000000000000D+00 -.000000000000D+00 0.430914005280D-07 0.000000000000D+00  6 -2 2 25 2 -2 21 2 0.20203503D+00 0.72689927D-01 0.55155443D+06 0.55155443D+06 0.55155443D+06 0.10655113D+01  1  2  6  3  6  4        2 0.580360151692D-04 0.100000000000D+01
0.150455648595D-02 0.000000000000D+00 0.000000000000D+00 0.430914005280D-07 0.256997976047D-04  6 -2 2 25 2 -2 21 2 0.20203503D+00 0.72689927D-01 0.55155857D+06 0.55155857D+06 0.55155857D+06 0.10655111D+01  1  2 11  3  6  4        2 0.162898831883D-02 0.100000000000D+01
  </mgrwgt>
  </event>
</LesHouchesEvents>
