<event>
 5    0  0.1911311E+001  0.3148257E+03  0.7546771E-02  0.1078056E+00
         21   -1    0    0  504  501  0.00000000000E+00  0.00000000000E+00  0.13513992991E+04  0.13513992991E+04  0.00000000000E+00 0. -1.
         21   -1    0    0  503  502 -0.00000000000E+00 -0.00000000000E+00 -0.52719589096E+03  0.52719589096E+03  0.00000000000E+00 0. -1.
         25    1    1    2    0    0 -0.20332801763E+03 -0.47120179886E+02  0.75761082199E+03  0.79571461699E+03  0.12500000000E+03 0.  0.
         21    1    1    2  503  501  0.23854145461E+03  0.17235765371E+03 -0.45689373860E+03  0.54347131915E+03  0.00000000000E+00 0. -1.
         21    1    1    2  504  502 -0.35213436986E+02 -0.12523747383E+03  0.52348632474E+03  0.53940925389E+03  0.00000000000E+00 0. -1.
<mgrwt>
<rscale>  4 0.31482571E+03</rscale>
<asrwt>0</asrwt>
<pdfrwt beam="1">  1       21 0.20790758E+00 0.31482571E+03</pdfrwt>
<pdfrwt beam="2">  1       21 0.81107061E-01 0.31482571E+03</pdfrwt>
<totfact> 0.13975074E+02</totfact>
</mgrwt>
</event>
<event>
 5    0  0.1911311E+001  0.2188562E+03  0.7546771E-02  0.1134739E+00
         21   -1    0    0  504  501  0.00000000000E+00  0.00000000000E+00  0.14071042760E+03  0.14071042760E+03  0.00000000000E+00 0.  1.
         21   -1    0    0  503  502 -0.00000000000E+00 -0.00000000000E+00 -0.64949275635E+03  0.64949275635E+03  0.00000000000E+00 0.  1.
         25    1    1    2    0    0  0.92527032899E+02 -0.22098515639E+03 -0.30207396304E+03  0.40530157945E+03  0.12500000000E+03 0.  0.
         21    1    1    2  503  501 -0.11962833831E+03  0.10155603046E+03 -0.21028720323E+03  0.26238383047E+03  0.00000000000E+00 0.  1.
         21    1    1    2  504  502  0.27101305410E+02  0.11942912593E+03  0.35788375290E+01  0.12251777403E+03  0.00000000000E+00 0.  1.
<mgrwt>
<rscale>  4 0.21885623E+03</rscale>
<asrwt>0</asrwt>
<pdfrwt beam="1">  1       21 0.21647759E-01 0.21885623E+03</pdfrwt>
<pdfrwt beam="2">  1       21 0.99921960E-01 0.21885623E+03</pdfrwt>
<totfact> 0.16099286E+04</totfact>
</mgrwt>
</event>
<event>
 5    0  0.1911311E+001  0.2549861E+03  0.7546771E-02  0.1110194E+00
         21   -1    0    0  502  501  0.00000000000E+00  0.00000000000E+00  0.69735253116E+03  0.69735253116E+03  0.00000000000E+00 0. -1.
         21   -1    0    0  504  502 -0.00000000000E+00 -0.00000000000E+00 -0.13985773157E+03  0.13985773157E+03  0.00000000000E+00 0. -1.
         25    1    1    2    0    0 -0.19040234545E+03  0.13369269996E+03  0.62878119500E+02  0.27148747501E+03  0.12500000000E+03 0.  0.
         21    1    1    2  503  501  0.18831656688E+03 -0.11379966400E+03  0.49890133762E+03  0.54526694157E+03  0.00000000000E+00 0. -1.
         21    1    1    2  504  503  0.20857785745E+01 -0.19893035957E+02 -0.42846575219E+01  0.20455846155E+02  0.00000000000E+00 0. -1.
<mgrwt>
<rscale>  4 0.25498607E+03</rscale>
<asrwt>0</asrwt>
<pdfrwt beam="1">  1       21 0.10728500E+00 0.25498607E+03</pdfrwt>
<pdfrwt beam="2">  1       21 0.21516574E-01 0.25498607E+03</pdfrwt>
<totfact> 0.13446968E+04</totfact>
</mgrwt>
</event>
