<event>
 5    0  0.2159162E+000  0.3090619E+03  0.7546771E-02  0.1080796E+00
         21   -1    0    0  502  501  0.00000000000E+00  0.00000000000E+00  0.45329270748E+03  0.45329270748E+03  0.00000000000E+00 0. -1.
         21   -1    0    0  503  502 -0.00000000000E+00 -0.00000000000E+00 -0.84668533343E+03  0.84668533343E+03  0.00000000000E+00 0.  1.
         25    1    1    2    0    0 -0.11977951579E+03 -0.25602176810E+03  0.37027381580E+03  0.48230900552E+03  0.12500000000E+03 0.  0.
         21    1    1    2  503  504  0.12841200643E+03  0.22605078664E+03 -0.65806129945E+03  0.70755443280E+03  0.00000000000E+00 0.  1.
         21    1    1    2  504  501 -0.86324906398E+01  0.29970981456E+02 -0.10560514229E+03  0.11011460259E+03  0.00000000000E+00 0. -1.
<mgrwt>
<rscale>  4 0.30906193E+03</rscale>
<asrwt>0</asrwt>
<pdfrwt beam="1">  1       21 0.69737340E-01 0.30906193E+03</pdfrwt>
<pdfrwt beam="2">  1       21 0.13025928E+00 0.30906193E+03</pdfrwt>
<totfact> 0.72862504E+02</totfact>
</mgrwt>
</event>
<event>
 5    0  0.2492740E+000  0.2250054E+03  0.7546771E-02  0.1130205E+00
         21   -1    0    0  502  501  0.00000000000E+00  0.00000000000E+00  0.12344449064E+03  0.12344449064E+03  0.00000000000E+00 0.  1.
         21   -1    0    0  503  502 -0.00000000000E+00 -0.00000000000E+00 -0.77662496676E+03  0.77662496676E+03  0.00000000000E+00 0.  1.
         25    1    1    2    0    0  0.17787217177E+03  0.93942917824E+02 -0.35006265928E+02  0.23940388458E+03  0.12500000000E+03 0.  0.
         21    1    1    2  503  504 -0.51756338713E+02 -0.50786836954E+02 -0.88175605956E+02  0.11416198531E+03  0.00000000000E+00 0.  1.
         21    1    1    2  504  501 -0.12611583306E+03 -0.43156080870E+02 -0.52999860424E+03  0.54650358751E+03  0.00000000000E+00 0.  1.
<mgrwt>
<rscale>  4 0.22500538E+03</rscale>
<asrwt>0</asrwt>
<pdfrwt beam="1">  1       21 0.18991460E-01 0.22500538E+03</pdfrwt>
<pdfrwt beam="2">  1       21 0.11948076E+00 0.22500538E+03</pdfrwt>
<totfact> 0.13283383E+04</totfact>
</mgrwt>
</event>
<event>
 5    0  0.2910811E+000  0.2675153E+03  0.7546771E-02  0.1102710E+00
         21   -1    0    0  502  501  0.00000000000E+00  0.00000000000E+00  0.17669598165E+03  0.17669598165E+03  0.00000000000E+00 0. -1.
         21   -1    0    0  503  502 -0.00000000000E+00 -0.00000000000E+00 -0.38031381811E+03  0.38031381811E+03  0.00000000000E+00 0. -1.
         25    1    1    2    0    0 -0.79061365197E+02 -0.22290973955E+03 -0.74636408873E+02  0.27773196608E+03  0.12500000000E+03 0.  0.
         21    1    1    2  503  504 -0.11645815224E+02  0.49095899135E+02 -0.37837063752E+02  0.63068817315E+02  0.00000000000E+00 0. -1.
         21    1    1    2  504  501  0.90707180422E+02  0.17381384041E+03 -0.91144363829E+02  0.21620901636E+03  0.00000000000E+00 0. -1.
<mgrwt>
<rscale>  4 0.26751533E+03</rscale>
<asrwt>0</asrwt>
<pdfrwt beam="1">  1       21 0.27183998E-01 0.26751533E+03</pdfrwt>
<pdfrwt beam="2">  1       21 0.58509817E-01 0.26751533E+03</pdfrwt>
<totfact> 0.34054316E+04</totfact>
</mgrwt>
</event>
<event>
 5    0  0.2159162E+000  0.4125998E+03  0.7546771E-02  0.1039502E+00
         21   -1    0    0  502  501  0.00000000000E+00  0.00000000000E+00  0.74695433523E+03  0.74695433523E+03  0.00000000000E+00 0.  1.
         21   -1    0    0  503  502 -0.00000000000E+00 -0.00000000000E+00 -0.29288118530E+03  0.29288118530E+03  0.00000000000E+00 0. -1.
         25    1    1    2    0    0  0.22836377336E+03  0.33823195008E+03  0.40010970521E+03  0.58503302577E+03  0.12500000000E+03 0.  0.
         21    1    1    2  503  504 -0.15167306185E+03 -0.33932521884E+03  0.64976981730E+02  0.37731728027E+03  0.00000000000E+00 0. -1.
         21    1    1    2  504  501 -0.76690711506E+02  0.10932687634E+01 -0.11013537020E+02  0.77485214497E+02  0.00000000000E+00 0.  1.
<mgrwt>
<rscale>  4 0.41259984E+03</rscale>
<asrwt>0</asrwt>
<pdfrwt beam="1">  1       21 0.11491605E+00 0.41259984E+03</pdfrwt>
<pdfrwt beam="2">  1       21 0.45058644E-01 0.41259984E+03</pdfrwt>
<totfact> 0.24337755E+03</totfact>
</mgrwt>
</event>
<event>
 5    0  0.2159162E+000  0.2592248E+03  0.7546771E-02  0.1107610E+00
         21   -1    0    0  502  501  0.00000000000E+00  0.00000000000E+00  0.13856694391E+04  0.13856694391E+04  0.00000000000E+00 0. -1.
         21   -1    0    0  503  502 -0.00000000000E+00 -0.00000000000E+00 -0.36795631995E+03  0.36795631995E+03  0.00000000000E+00 0.  1.
         25    1    1    2    0    0  0.19491871719E+03 -0.12123464478E+03  0.13058380089E+04  0.13317391077E+04  0.12500000000E+03 0.  0.
         21    1    1    2  503  504 -0.83972157328E+02 -0.18715498473E+02 -0.37891629989E+01  0.86115915171E+02  0.00000000000E+00 0. -1.
         21    1    1    2  504  501 -0.11094655986E+03  0.13995014326E+03 -0.28433572679E+03  0.33577073618E+03  0.00000000000E+00 0.  1.
<mgrwt>
<rscale>  4 0.25922478E+03</rscale>
<asrwt>0</asrwt>
<pdfrwt beam="1">  1       21 0.21317991E+00 0.25922478E+03</pdfrwt>
<pdfrwt beam="2">  1       21 0.56608665E-01 0.25922478E+03</pdfrwt>
<totfact> 0.30166608E+02</totfact>
</mgrwt>
</event>
<event>
 5    0  0.2868381E+000  0.3215662E+03  0.7546771E-02  0.1074931E+00
         21   -1    0    0  502  501  0.00000000000E+00  0.00000000000E+00  0.13548135017E+04  0.13548135017E+04  0.00000000000E+00 0. -1.
         21   -1    0    0  503  502 -0.00000000000E+00 -0.00000000000E+00 -0.10197224536E+03  0.10197224536E+03  0.00000000000E+00 0. -1.
         25    1    1    2    0    0  0.29271259889E+03  0.45816781250E+02  0.10076336127E+04  0.10577004965E+04  0.12500000000E+03 0.  0.
         21    1    1    2  503  504 -0.72796821799E+02 -0.49826926892E+01  0.12606223431E+03  0.14565675889E+03  0.00000000000E+00 0. -1.
         21    1    1    2  504  501 -0.21991577709E+03 -0.40834088560E+02  0.11914540937E+03  0.25342849164E+03  0.00000000000E+00 0. -1.
<mgrwt>
<rscale>  4 0.32156623E+03</rscale>
<asrwt>0</asrwt>
<pdfrwt beam="1">  1       21 0.20843283E+00 0.32156623E+03</pdfrwt>
<pdfrwt beam="2">  1       21 0.15688039E-01 0.32156623E+03</pdfrwt>
<totfact> 0.38940625E+03</totfact>
</mgrwt>
</event>
<event>
 5    0  0.2159162E+000  0.2627584E+03  0.7546771E-02  0.1105497E+00
         21   -1    0    0  502  501  0.00000000000E+00  0.00000000000E+00  0.22903243183E+03  0.22903243183E+03  0.00000000000E+00 0. -1.
         21   -1    0    0  503  502 -0.00000000000E+00 -0.00000000000E+00 -0.27519726398E+03  0.27519726398E+03  0.00000000000E+00 0. -1.
         25    1    1    2    0    0  0.14865416419E+03  0.17697145105E+03 -0.47736352393E+02  0.26705938358E+03  0.12500000000E+03 0.  0.
         21    1    1    2  503  504 -0.26796709250E+02 -0.55135107712E+02  0.18475387112E+02  0.64025648438E+02  0.00000000000E+00 0. -1.
         21    1    1    2  504  501 -0.12185745495E+03 -0.12183634334E+03 -0.16903866866E+02  0.17314466379E+03  0.00000000000E+00 0. -1.
<mgrwt>
<rscale>  4 0.26275836E+03</rscale>
<asrwt>0</asrwt>
<pdfrwt beam="1">  1       21 0.35235759E-01 0.26275836E+03</pdfrwt>
<pdfrwt beam="2">  1       21 0.42338040E-01 0.26275836E+03</pdfrwt>
<totfact> 0.40374541E+04</totfact>
</mgrwt>
</event>
<event>
 5    0  0.2159162E+000  0.4146650E+03  0.7546771E-02  0.1038928E+00
         21   -1    0    0  502  501  0.00000000000E+00  0.00000000000E+00  0.11478654776E+03  0.11478654776E+03  0.00000000000E+00 0.  1.
         21   -1    0    0  503  502 -0.00000000000E+00 -0.00000000000E+00 -0.15151823852E+04  0.15151823852E+04  0.00000000000E+00 0.  1.
         25    1    1    2    0    0  0.35141210798E+03 -0.17810143469E+03 -0.79740700197E+03  0.89816118680E+03  0.12500000000E+03 0.  0.
         21    1    1    2  503  504 -0.16545652991E+02  0.50307768689E+02 -0.11223576368E+03  0.12410276738E+03  0.00000000000E+00 0. -1.
         21    1    1    2  504  501 -0.33486645499E+03  0.12779366601E+03 -0.49075307178E+03  0.60770497876E+03  0.00000000000E+00 0.  1.
<mgrwt>
<rscale>  4 0.41432898E+03</rscale>
<asrwt>0</asrwt>
<pdfrwt beam="1">  1       21 0.17659470E-01 0.41466498E+03</pdfrwt>
<pdfrwt beam="2">  1       21 0.23310497E+00 0.41466498E+03</pdfrwt>
<totfact> 0.20735269E+03</totfact>
</mgrwt>
</event>
<event>
 5    0  0.2159162E+000  0.2976278E+03  0.7546771E-02  0.1086432E+00
         21   -1    0    0  502  501  0.00000000000E+00  0.00000000000E+00  0.13301577889E+04  0.13301577889E+04  0.00000000000E+00 0.  1.
         21   -1    0    0  503  502 -0.00000000000E+00 -0.00000000000E+00 -0.39760062820E+03  0.39760062820E+03  0.00000000000E+00 0. -1.
         25    1    1    2    0    0  0.21690072355E+03  0.16170825607E+03  0.12484888556E+04  0.12835672582E+04  0.12500000000E+03 0.  0.
         21    1    1    2  503  504  0.39479577347E+01 -0.21777073831E+02  0.11695272143E+02  0.25032113483E+02  0.00000000000E+00 0. -1.
         21    1    1    2  504  501 -0.22084868129E+03 -0.13993118224E+03 -0.32762696702E+03  0.41915904536E+03  0.00000000000E+00 0. -1.
<mgrwt>
<rscale>  4 0.29762782E+03</rscale>
<asrwt>0</asrwt>
<pdfrwt beam="1">  1       21 0.20463966E+00 0.29762782E+03</pdfrwt>
<pdfrwt beam="2">  1       21 0.61169328E-01 0.29762782E+03</pdfrwt>
<totfact> 0.27956446E+02</totfact>
</mgrwt>
</event>
<event>
 5    0  0.2159162E+000  0.3045030E+03  0.7546771E-02  0.1083011E+00
         21   -1    0    0  502  501  0.00000000000E+00  0.00000000000E+00  0.19976627005E+03  0.19976627005E+03  0.00000000000E+00 0. -1.
         21   -1    0    0  503  502 -0.00000000000E+00 -0.00000000000E+00 -0.64343621169E+03  0.64343621169E+03  0.00000000000E+00 0.  1.
         25    1    1    2    0    0  0.13177810272E+03 -0.24440048935E+03  0.10363577308E+02  0.30467929252E+03  0.12500000000E+03 0.  0.
         21    1    1    2  503  504 -0.93451415988E+02  0.15403424651E+03 -0.36012606417E+03  0.40267915062E+03  0.00000000000E+00 0.  1.
         21    1    1    2  504  501 -0.38326686733E+02  0.90366242840E+02 -0.93907454780E+02  0.13584403860E+03  0.00000000000E+00 0. -1.
<mgrwt>
<rscale>  4 0.30450298E+03</rscale>
<asrwt>0</asrwt>
<pdfrwt beam="1">  1       21 0.30733273E-01 0.30450298E+03</pdfrwt>
<pdfrwt beam="2">  1       21 0.98990185E-01 0.30450298E+03</pdfrwt>
<totfact> 0.80009077E+03</totfact>
</mgrwt>
</event>
<event>
 5    0  0.2159162E+000  0.2570551E+03  0.7546771E-02  0.1108926E+00
         21   -1    0    0  502  501  0.00000000000E+00  0.00000000000E+00  0.51536188572E+03  0.51536188572E+03  0.00000000000E+00 0.  1.
         21   -1    0    0  503  502 -0.00000000000E+00 -0.00000000000E+00 -0.46721263081E+03  0.46721263081E+03  0.00000000000E+00 0.  1.
         25    1    1    2    0    0 -0.21713775322E+01 -0.22460543160E+03  0.45106778286E+03  0.51917189785E+03  0.12500000000E+03 0.  0.
         21    1    1    2  503  504  0.68519000841E+01  0.15279313319E+03 -0.31180420299E+03  0.34729605683E+03  0.00000000000E+00 0.  1.
         21    1    1    2  504  501 -0.46805225520E+01  0.71812298409E+02 -0.91114324955E+02  0.11610656186E+03  0.00000000000E+00 0.  1.
<mgrwt>
<rscale>  4 0.25705508E+03</rscale>
<asrwt>0</asrwt>
<pdfrwt beam="1">  1       21 0.79286444E-01 0.25705508E+03</pdfrwt>
<pdfrwt beam="2">  1       21 0.71878867E-01 0.25705508E+03</pdfrwt>
<totfact> 0.23325343E+03</totfact>
</mgrwt>
</event>
