<event>
 5    0  0.1911311E+001  0.2259197E+03  0.7546771E-02  0.1129545E+00
         21   -1    0    0  502  501  0.00000000000E+00  0.00000000000E+00  0.23647110701E+03  0.23647110701E+03  0.00000000000E+00 0.  1.
         21   -1    0    0  504  502 -0.00000000000E+00 -0.00000000000E+00 -0.35474406426E+03  0.35474406426E+03  0.00000000000E+00 0.  1.
         25    1    1    2    0    0  0.70298588688E+02  0.18797688025E+03 -0.21045588477E+03  0.31653416642E+03  0.12500000000E+03 0.  0.
         21    1    1    2  503  501 -0.80673464282E+02 -0.16763582631E+03  0.13246378213E+03  0.22837826446E+03  0.00000000000E+00 0.  1.
         21    1    1    2  504  503  0.10374875594E+02 -0.20341053942E+02 -0.40280854613E+02  0.46302740388E+02  0.00000000000E+00 0.  1.
<mgrwt>
<rscale>  4 0.22591966E+03</rscale>
<asrwt>0</asrwt>
<pdfrwt beam="1">  1       21 0.36380170E-01 0.22591966E+03</pdfrwt>
<pdfrwt beam="2">  1       21 0.54576010E-01 0.22591966E+03</pdfrwt>
<totfact> 0.22675932E+04</totfact>
</mgrwt>
</event>
<event>
 5    0  0.1911311E+001  0.3879820E+03  0.7546771E-02  0.1048022E+00
         21   -1    0    0  504  501  0.00000000000E+00  0.00000000000E+00  0.89421340414E+03  0.89421340414E+03  0.00000000000E+00 0.  1.
         21   -1    0    0  503  502 -0.00000000000E+00 -0.00000000000E+00 -0.61951642504E+03  0.61951642504E+03  0.00000000000E+00 0.  1.
         25    1    1    2    0    0  0.31641762537E+03 -0.25730067079E+03  0.61554290862E+03  0.74889373157E+03  0.12500000000E+03 0.  0.
         21    1    1    2  503  501 -0.64144168888E+02  0.92847232535E+02 -0.43493529950E+03  0.44933706474E+03  0.00000000000E+00 0.  1.
         21    1    1    2  504  502 -0.25227345648E+03  0.16445343825E+03  0.94089369983E+02  0.31549903287E+03  0.00000000000E+00 0.  1.
<mgrwt>
<rscale>  4 0.38798196E+03</rscale>
<asrwt>0</asrwt>
<pdfrwt beam="1">  1       21 0.13757129E+00 0.38798196E+03</pdfrwt>
<pdfrwt beam="2">  1       21 0.95310220E-01 0.38798196E+03</pdfrwt>
<totfact> 0.29310354E+02</totfact>
</mgrwt>
</event>
<event>
 5    0  0.1911311E+001  0.4007393E+03  0.7546771E-02  0.1043524E+00
         21   -1    0    0  504  501  0.00000000000E+00  0.00000000000E+00  0.20527503169E+03  0.20527503169E+03  0.00000000000E+00 0. -1.
         21   -1    0    0  501  502 -0.00000000000E+00 -0.00000000000E+00 -0.14967330924E+04  0.14967330924E+04  0.00000000000E+00 0. -1.
         25    1    1    2    0    0 -0.16983927538E+03  0.28576180977E+03 -0.30757107776E+03  0.46981928362E+03  0.12500000000E+03 0.  0.
         21    1    1    2  503  502  0.22209954279E+03 -0.36555140798E+03 -0.25686013346E+03  0.49893202638E+03  0.00000000000E+00 0. -1.
         21    1    1    2  504  503 -0.52260267412E+02  0.79789598212E+02 -0.72702684950E+03  0.73325681411E+03  0.00000000000E+00 0. -1.
<mgrwt>
<rscale>  4 0.40073932E+03</rscale>
<asrwt>0</asrwt>
<pdfrwt beam="1">  1       21 0.31580775E-01 0.40073932E+03</pdfrwt>
<pdfrwt beam="2">  1       21 0.23026662E+00 0.40073932E+03</pdfrwt>
<totfact> 0.70764663E+02</totfact>
</mgrwt>
</event>
<event>
 5    0  0.1911311E+001  0.2108889E+03  0.7546771E-02  0.1140864E+00
         21   -1    0    0  502  501  0.00000000000E+00  0.00000000000E+00  0.34122741233E+03  0.34122741233E+03  0.00000000000E+00 0.  1.
         21   -1    0    0  504  502 -0.00000000000E+00 -0.00000000000E+00 -0.60558329747E+03  0.60558329747E+03  0.00000000000E+00 0.  1.
         25    1    1    2    0    0  0.17919733878E+03  0.11457055317E+03 -0.39632020221E+03  0.46683273296E+03  0.12500000000E+03 0.  0.
         21    1    1    2  503  501 -0.13680702221E+03 -0.96745122180E+02  0.27925961529E+03  0.32567117269E+03  0.00000000000E+00 0.  1.
         21    1    1    2  504  503 -0.42390316577E+02 -0.17825430994E+02 -0.14729529822E+03  0.15430680415E+03  0.00000000000E+00 0.  1.
<mgrwt>
<rscale>  4 0.21088885E+03</rscale>
<asrwt>0</asrwt>
<pdfrwt beam="1">  1       21 0.52496525E-01 0.21088885E+03</pdfrwt>
<pdfrwt beam="2">  1       21 0.93166661E-01 0.21088885E+03</pdfrwt>
<totfact> 0.32861802E+03</totfact>
</mgrwt>
</event>
<event>
 5    0  0.3055633E+001  0.2611096E+03  0.7546771E-02  0.1106478E+00
         21   -1    0    0  503  501  0.00000000000E+00  0.00000000000E+00  0.94672618648E+02  0.94672618648E+02  0.00000000000E+00 0. -1.
         21   -1    0    0  504  502 -0.00000000000E+00 -0.00000000000E+00 -0.89118271738E+03  0.89118271738E+03  0.00000000000E+00 0. -1.
         25    1    1    2    0    0 -0.22387421286E+03  0.24778042142E+01 -0.22447372912E+03  0.34079210343E+03  0.12500000000E+03 0.  0.
         21    1    1    2  503  502  0.22947431615E+03 -0.33553686072E+02 -0.56763269208E+03  0.61318120057E+03  0.00000000000E+00 0. -1.
         21    1    1    2  504  501 -0.56001032909E+01  0.31075881858E+02 -0.44036775366E+01  0.31882032024E+02  0.00000000000E+00 0.  1.
<mgrwt>
<rscale>  4 0.26110957E+03</rscale>
<asrwt>0</asrwt>
<pdfrwt beam="1">  1       21 0.14565019E-01 0.26110957E+03</pdfrwt>
<pdfrwt beam="2">  1       21 0.13710503E+00 0.26110957E+03</pdfrwt>
<totfact> 0.14987554E+04</totfact>
</mgrwt>
</event>
<event>
 5    0  0.1911311E+001  0.3435966E+03  0.7546771E-02  0.1065274E+00
         21   -1    0    0  504  501  0.00000000000E+00  0.00000000000E+00  0.45245377832E+03  0.45245377832E+03  0.00000000000E+00 0.  1.
         21   -1    0    0  503  502 -0.00000000000E+00 -0.00000000000E+00 -0.39151214137E+03  0.39151214137E+03  0.00000000000E+00 0. -1.
         25    1    1    2    0    0 -0.29805697398E+03  0.15439656203E+03  0.19533529520E+03  0.40799158772E+03  0.12500000000E+03 0.  0.
         21    1    1    2  503  501  0.30173353606E+03 -0.95234597579E+02 -0.17739631557E+03  0.36274261968E+03  0.00000000000E+00 0. -1.
         21    1    1    2  504  502 -0.36765620748E+01 -0.59161964447E+02  0.43002657332E+02  0.73231712280E+02  0.00000000000E+00 0.  1.
<mgrwt>
<rscale>  4 0.34359660E+03</rscale>
<asrwt>0</asrwt>
<pdfrwt beam="1">  1       21 0.69608274E-01 0.34359660E+03</pdfrwt>
<pdfrwt beam="2">  1       21 0.60232637E-01 0.34359660E+03</pdfrwt>
<totfact> 0.44054833E+03</totfact>
</mgrwt>
</event>
