<event>
 5    0  0.2349231E+000  0.5532740E+03  0.7546771E-02  0.1000739E+00
         21   -1    0    0  503  501  0.00000000000E+00  0.00000000000E+00  0.73574678524E+03  0.73574678524E+03  0.00000000000E+00 0. -1.
         21   -1    0    0  504  502 -0.00000000000E+00 -0.00000000000E+00 -0.34988778955E+03  0.34988778955E+03  0.00000000000E+00 0. -1.
         25    1    1    2    0    0 -0.26642261648E+03 -0.13450915529E+00 -0.14395338178E+03  0.32761044670E+03  0.12500000000E+03 0.  0.
         21    1    1    2  503  502  0.23680342646E+03 -0.39671162594E+02  0.14727095376E+02  0.24055467416E+03  0.00000000000E+00 0. -1.
         21    1    1    2  504  501  0.29619190018E+02  0.39805671749E+02  0.51508528210E+03  0.51746945393E+03  0.00000000000E+00 0. -1.
<mgrwt>
<rscale>  4 0.55327405E+03</rscale>
<asrwt>0</asrwt>
<pdfrwt beam="1">  1       21 0.11319181E+00 0.55327405E+03</pdfrwt>
<pdfrwt beam="2">  1       21 0.53828891E-01 0.55327405E+03</pdfrwt>
<totfact> 0.16474477E+03</totfact>
</mgrwt>
</event>
<event>
 5    0  0.2349231E+000  0.8732162E+03  0.7546771E-02  0.9459696E-01
         21   -1    0    0  503  501  0.00000000000E+00  0.00000000000E+00  0.40733489395E+03  0.40733489395E+03  0.00000000000E+00 0. -1.
         21   -1    0    0  504  502 -0.00000000000E+00 -0.00000000000E+00 -0.49980927013E+03  0.49980927013E+03  0.00000000000E+00 0. -1.
         25    1    1    2    0    0 -0.27349242087E+03  0.10755374996E+03  0.26873527455E+03  0.41738418895E+03  0.12500000000E+03 0.  0.
         21    1    1    2  503  502  0.23037909064E+02  0.15279336695E+02  0.63187276863E+01  0.28357180809E+02  0.00000000000E+00 0. -1.
         21    1    1    2  504  501  0.25045451180E+03 -0.12283308665E+03 -0.36752837841E+03  0.46140279431E+03  0.00000000000E+00 0. -1.
<mgrwt>
<rscale>  4 0.87321617E+03</rscale>
<asrwt>0</asrwt>
<pdfrwt beam="1">  1       21 0.62666908E-01 0.87321617E+03</pdfrwt>
<pdfrwt beam="2">  1       21 0.76893733E-01 0.87321617E+03</pdfrwt>
<totfact> 0.27882714E+03</totfact>
</mgrwt>
</event>
<event>
 5    0  0.3354854E+000  0.7342787E+03  0.7546771E-02  0.9660343E-01
         21   -1    0    0  504  501  0.00000000000E+00  0.00000000000E+00  0.73605912790E+03  0.73605912790E+03  0.00000000000E+00 0.  1.
         21   -1    0    0  501  502 -0.00000000000E+00 -0.00000000000E+00 -0.23525175940E+03  0.23525175940E+03  0.00000000000E+00 0. -1.
         25    1    1    2    0    0 -0.15642272597E+03 -0.18075189314E+03  0.48257995932E+03  0.55285416993E+03  0.12500000000E+03 0.  0.
         21    1    1    2  503  502  0.11811445037E+03  0.18535347650E+03 -0.13667692589E+03  0.25881946741E+03  0.00000000000E+00 0. -1.
         21    1    1    2  504  503  0.38308275599E+02 -0.46015833673E+01  0.15490433508E+03  0.15963724996E+03  0.00000000000E+00 0.  1.
<mgrwt>
<rscale>  4 0.73427868E+03</rscale>
<asrwt>0</asrwt>
<pdfrwt beam="1">  1       21 0.11323986E+00 0.73427868E+03</pdfrwt>
<pdfrwt beam="2">  1       21 0.36192579E-01 0.73427868E+03</pdfrwt>
<totfact> 0.36244339E+03</totfact>
</mgrwt>
</event>
<event>
 5    0  0.2349231E+000  0.5973205E+03  0.7546771E-02  0.9910981E-01
         21   -1    0    0  504  501  0.00000000000E+00  0.00000000000E+00  0.79820264678E+03  0.79820264678E+03  0.00000000000E+00 0.  1.
         21   -1    0    0  503  502 -0.00000000000E+00 -0.00000000000E+00 -0.55169588026E+03  0.55169588026E+03  0.00000000000E+00 0.  1.
         25    1    1    2    0    0  0.22258014627E+03 -0.16379879602E+03 -0.23805372946E+03  0.38557300891E+03  0.12500000000E+03 0.  0.
         21    1    1    2  503  501 -0.21410395334E+03 -0.18278522025E+03 -0.88030436966E+02  0.29495812823E+03  0.00000000000E+00 0.  1.
         21    1    1    2  504  502 -0.84761929344E+01  0.34658401627E+03  0.57259093294E+03  0.66936738991E+03  0.00000000000E+00 0.  1.
<mgrwt>
<rscale>  4 0.59732047E+03</rscale>
<asrwt>0</asrwt>
<pdfrwt beam="1">  1       21 0.12280041E+00 0.59732047E+03</pdfrwt>
<pdfrwt beam="2">  1       21 0.84876289E-01 0.59732047E+03</pdfrwt>
<totfact> 0.47323485E+02</totfact>
</mgrwt>
</event>
