<event>
 5    0  0.1856407E+000  0.3027712E+03  0.7546771E-02  0.1083863E+00
         21   -1    0    0  502  501  0.00000000000E+00  0.00000000000E+00  0.12085170428E+04  0.12085170428E+04  0.00000000000E+00 0.  1.
         21   -1    0    0  503  502 -0.00000000000E+00 -0.00000000000E+00 -0.17582648885E+03  0.17582648885E+03  0.00000000000E+00 0. -1.
         25    1    1    2    0    0 -0.17886969112E+03 -0.20988344574E+03  0.10608750981E+04  0.11032345177E+04  0.12500000000E+03 0.  0.
         21    1    1    2  503  504  0.22849838926E+02  0.73983361879E+01 -0.39618795159E+01  0.24342288442E+02  0.00000000000E+00 0. -1.
         21    1    1    2  504  501  0.15601985219E+03  0.20248510955E+03 -0.24222664638E+02  0.25676672555E+03  0.00000000000E+00 0. -1.
<mgrwt>
<rscale>  4 0.30277125E+03</rscale>
<asrwt>0</asrwt>
<pdfrwt beam="1">  1       21 0.18592569E+00 0.30277125E+03</pdfrwt>
<pdfrwt beam="2">  1       21 0.27050230E-01 0.30277125E+03</pdfrwt>
<totfact> 0.19769264E+03</totfact>
</mgrwt>
</event>
<event>
 5    0  0.1856407E+000  0.2510449E+03  0.7546771E-02  0.1112646E+00
         21   -1    0    0  502  501  0.00000000000E+00  0.00000000000E+00  0.72855637878E+03  0.72855637878E+03  0.00000000000E+00 0. -1.
         21   -1    0    0  503  502 -0.00000000000E+00 -0.00000000000E+00 -0.30394799458E+03  0.30394799458E+03  0.00000000000E+00 0. -1.
         25    1    1    2    0    0 -0.13916852812E+03 -0.16742358142E+03  0.66014096648E+03  0.70626456124E+03  0.12500000000E+03 0.  0.
         21    1    1    2  503  504  0.10872473537E+03  0.15290468955E+03 -0.21990706472E+03  0.28906751681E+03  0.00000000000E+00 0. -1.
         21    1    1    2  504  501  0.30443792755E+02  0.14518891875E+02 -0.15625517569E+02  0.37172295300E+02  0.00000000000E+00 0. -1.
<mgrwt>
<rscale>  4 0.25104489E+03</rscale>
<asrwt>0</asrwt>
<pdfrwt beam="1">  1       21 0.11208560E+00 0.25104489E+03</pdfrwt>
<pdfrwt beam="2">  1       21 0.46761230E-01 0.25104489E+03</pdfrwt>
<totfact> 0.26089873E+03</totfact>
</mgrwt>
</event>
<event>
 5    0  0.6348275E+000  0.2454026E+03  0.7546771E-02  0.1116245E+00
         21   -1    0    0  502  501  0.00000000000E+00  0.00000000000E+00  0.26025720593E+03  0.26025720593E+03  0.00000000000E+00 0.  1.
         21   -1    0    0  503  502 -0.00000000000E+00 -0.00000000000E+00 -0.25598235425E+03  0.25598235425E+03  0.00000000000E+00 0.  1.
         25    1    1    2    0    0 -0.15914123979E+03  0.14541470859E+03 -0.57210134017E+02  0.25567434582E+03  0.12500000000E+03 0.  0.
         21    1    1    2  503  504  0.16996789899E+03 -0.11844213281E+03  0.17577989891E+02  0.20791010375E+03  0.00000000000E+00 0.  1.
         21    1    1    2  504  501 -0.10826659199E+02 -0.26972575780E+02  0.43906995798E+02  0.52655110612E+02  0.00000000000E+00 0. -1.
<mgrwt>
<rscale>  4 0.24540260E+03</rscale>
<asrwt>0</asrwt>
<pdfrwt beam="1">  1       21 0.40039570E-01 0.24540260E+03</pdfrwt>
<pdfrwt beam="2">  1       21 0.39381901E-01 0.24540260E+03</pdfrwt>
<totfact> 0.36426782E+04</totfact>
</mgrwt>
</event>
<event>
 5    0  0.1995193E+000  0.2664833E+03  0.7546771E-02  0.1103309E+00
         21   -1    0    0  502  501  0.00000000000E+00  0.00000000000E+00  0.26017517789E+03  0.26017517789E+03  0.00000000000E+00 0. -1.
         21   -1    0    0  503  502 -0.00000000000E+00 -0.00000000000E+00 -0.25050912088E+03  0.25050912088E+03  0.00000000000E+00 0. -1.
         25    1    1    2    0    0  0.23102590982E+03  0.44893062304E+02 -0.35581487684E+02  0.26884828494E+03  0.12500000000E+03 0.  0.
         21    1    1    2  503  504 -0.20553646114E+03 -0.49496543706E+02  0.43745079071E+02  0.21589065899E+03  0.00000000000E+00 0. -1.
         21    1    1    2  504  501 -0.25489448679E+02  0.46034814021E+01  0.15024656199E+01  0.25945354842E+02  0.00000000000E+00 0. -1.
<mgrwt>
<rscale>  4 0.26648332E+03</rscale>
<asrwt>0</asrwt>
<pdfrwt beam="1">  1       21 0.40026951E-01 0.26648332E+03</pdfrwt>
<pdfrwt beam="2">  1       21 0.38539865E-01 0.26648332E+03</pdfrwt>
<totfact> 0.37752679E+04</totfact>
</mgrwt>
</event>
<event>
 5    0  0.1856407E+000  0.3175170E+03  0.7546771E-02  0.1076798E+00
         21   -1    0    0  502  501  0.00000000000E+00  0.00000000000E+00  0.34295334671E+03  0.34295334671E+03  0.00000000000E+00 0. -1.
         21   -1    0    0  503  502 -0.00000000000E+00 -0.00000000000E+00 -0.53320863083E+03  0.53320863083E+03  0.00000000000E+00 0.  1.
         25    1    1    2    0    0  0.32657268047E+03  0.77874081424E+02  0.13156654336E+03  0.38163967760E+03  0.12500000000E+03 0.  0.
         21    1    1    2  503  504 -0.26307018262E+03 -0.10498399696E+03 -0.31729374325E+03  0.42532679214E+03  0.00000000000E+00 0.  1.
         21    1    1    2  504  501 -0.63502497847E+02  0.27109915539E+02 -0.45280842351E+01  0.69195507804E+02  0.00000000000E+00 0.  1.
<mgrwt>
<rscale>  4 0.31751701E+03</rscale>
<asrwt>0</asrwt>
<pdfrwt beam="1">  1       21 0.52762053E-01 0.31751701E+03</pdfrwt>
<pdfrwt beam="2">  1       21 0.82032097E-01 0.31751701E+03</pdfrwt>
<totfact> 0.40870960E+03</totfact>
</mgrwt>
</event>
<event>
 5    0  0.3355302E+000  0.2449157E+03  0.7546771E-02  0.1116561E+00
         21   -1    0    0  502  501  0.00000000000E+00  0.00000000000E+00  0.41678668534E+02  0.41678668534E+02  0.00000000000E+00 0. -1.
         21   -1    0    0  503  502 -0.00000000000E+00 -0.00000000000E+00 -0.12860390557E+04  0.12860390557E+04  0.00000000000E+00 0. -1.
         25    1    1    2    0    0  0.19952815773E+03  0.67432896748E+02 -0.65491475345E+03  0.69921171012E+03  0.12500000000E+03 0.  0.
         21    1    1    2  503  504 -0.24013827419E+02  0.77731834787E+01 -0.99877668943E+02  0.10301764432E+03  0.00000000000E+00 0. -1.
         21    1    1    2  504  501 -0.17551433031E+03 -0.75206080227E+02 -0.48956796475E+03  0.52548836976E+03  0.00000000000E+00 0. -1.
<mgrwt>
<rscale>  4 0.24491566E+03</rscale>
<asrwt>0</asrwt>
<pdfrwt beam="1">  1       21 0.64121022E-02 0.24491566E+03</pdfrwt>
<pdfrwt beam="2">  1       21 0.19785218E+00 0.24491566E+03</pdfrwt>
<totfact> 0.23544481E+04</totfact>
</mgrwt>
</event>
<event>
 5    0  0.1856407E+000  0.4348573E+03  0.7546771E-02  0.1032336E+00
         21   -1    0    0  502  501  0.00000000000E+00  0.00000000000E+00  0.29107104760E+03  0.29107104760E+03  0.00000000000E+00 0.  1.
         21   -1    0    0  503  502 -0.00000000000E+00 -0.00000000000E+00 -0.67804989860E+03  0.67804989860E+03  0.00000000000E+00 0.  1.
         25    1    1    2    0    0 -0.34483172819E+03  0.23359563193E+03 -0.64100370355E+02  0.43955625067E+03  0.12500000000E+03 0.  0.
         21    1    1    2  503  504  0.33079973992E+03 -0.20981902649E+03 -0.30716333721E+03  0.49779695412E+03  0.00000000000E+00 0.  1.
         21    1    1    2  504  501  0.14031988270E+02 -0.23776605438E+02 -0.15715143443E+02  0.31767741411E+02  0.00000000000E+00 0. -1.
<mgrwt>
<rscale>  4 0.43485726E+03</rscale>
<asrwt>0</asrwt>
<pdfrwt beam="1">  1       21 0.44780161E-01 0.43485726E+03</pdfrwt>
<pdfrwt beam="2">  1       21 0.10431537E+00 0.43485726E+03</pdfrwt>
<totfact> 0.31061463E+03</totfact>
</mgrwt>
</event>
<event>
 5    0  0.1856407E+000  0.4094778E+03  0.7546771E-02  0.1040546E+00
         21   -1    0    0  502  501  0.00000000000E+00  0.00000000000E+00  0.10426500283E+04  0.10426500283E+04  0.00000000000E+00 0.  1.
         21   -1    0    0  503  502 -0.00000000000E+00 -0.00000000000E+00 -0.21154117813E+03  0.21154117813E+03  0.00000000000E+00 0.  1.
         25    1    1    2    0    0 -0.38414536278E+03 -0.66928674597E+02  0.72830691835E+03  0.83552562770E+03  0.12500000000E+03 0.  0.
         21    1    1    2  503  504  0.28525529887E+03  0.10606161266E+02  0.10683463428E+03  0.30478962461E+03  0.00000000000E+00 0.  1.
         21    1    1    2  504  501  0.98890063907E+02  0.56322513331E+02 -0.40327024092E+01  0.11387595416E+03  0.00000000000E+00 0.  1.
<mgrwt>
<rscale>  4 0.40947785E+03</rscale>
<asrwt>0</asrwt>
<pdfrwt beam="1">  1       21 0.16040769E+00 0.40947785E+03</pdfrwt>
<pdfrwt beam="2">  1       21 0.32544797E-01 0.40947785E+03</pdfrwt>
<totfact> 0.19723174E+03</totfact>
</mgrwt>
</event>
<event>
 5    0  0.1856407E+000  0.2391597E+03  0.7546771E-02  0.1120354E+00
         21   -1    0    0  502  501  0.00000000000E+00  0.00000000000E+00  0.36088252853E+03  0.36088252853E+03  0.00000000000E+00 0. -1.
         21   -1    0    0  503  502 -0.00000000000E+00 -0.00000000000E+00 -0.67160900486E+03  0.67160900486E+03  0.00000000000E+00 0.  1.
         25    1    1    2    0    0  0.16016045771E+02  0.20326305467E+03  0.30096862031E+03  0.38442098476E+03  0.12500000000E+03 0.  0.
         21    1    1    2  503  504 -0.30274641063E+02 -0.13304081829E+03 -0.32340473844E+03  0.35100860113E+03  0.00000000000E+00 0.  1.
         21    1    1    2  504  501  0.14258595292E+02 -0.70222236374E+02 -0.28829035820E+03  0.29706194750E+03  0.00000000000E+00 0.  1.
<mgrwt>
<rscale>  4 0.23915974E+03</rscale>
<asrwt>0</asrwt>
<pdfrwt beam="1">  1       21 0.55520389E-01 0.23915974E+03</pdfrwt>
<pdfrwt beam="2">  1       21 0.10332446E+00 0.23915974E+03</pdfrwt>
<totfact> 0.22342282E+03</totfact>
</mgrwt>
</event>
<event>
 5    0  0.1856407E+000  0.3783354E+03  0.7546771E-02  0.1051551E+00
         21   -1    0    0  502  501  0.00000000000E+00  0.00000000000E+00  0.13911967535E+04  0.13911967535E+04  0.00000000000E+00 0. -1.
         21   -1    0    0  503  502 -0.00000000000E+00 -0.00000000000E+00 -0.22751377334E+03  0.22751377334E+03  0.00000000000E+00 0.  1.
         25    1    1    2    0    0 -0.31474111536E+03  0.25423533778E+03  0.10265029569E+04  0.11104192439E+04  0.12500000000E+03 0.  0.
         21    1    1    2  503  504  0.97012553808E+02  0.20273627643E+02  0.12255450266E+03  0.15761364692E+03  0.00000000000E+00 0.  1.
         21    1    1    2  504  501  0.21772856155E+03 -0.27450896543E+03  0.14625520695E+02  0.35067763611E+03  0.00000000000E+00 0.  1.
<mgrwt>
<rscale>  4 0.37833537E+03</rscale>
<asrwt>0</asrwt>
<pdfrwt beam="1">  1       21 0.21403026E+00 0.37833537E+03</pdfrwt>
<pdfrwt beam="2">  1       21 0.35002120E-01 0.37833537E+03</pdfrwt>
<totfact> 0.73912630E+02</totfact>
</mgrwt>
</event>
<event>
 5    0  0.2280214E+000  0.3112400E+03  0.7546771E-02  0.1079753E+00
         21   -1    0    0  502  501  0.00000000000E+00  0.00000000000E+00  0.78296877423E+03  0.78296877423E+03  0.00000000000E+00 0.  1.
         21   -1    0    0  503  502 -0.00000000000E+00 -0.00000000000E+00 -0.13752305083E+03  0.13752305083E+03  0.00000000000E+00 0.  1.
         25    1    1    2    0    0 -0.10015945215E+03  0.26685837624E+03  0.49427630166E+03  0.58410561649E+03  0.12500000000E+03 0.  0.
         21    1    1    2  503  504  0.53933110281E+02 -0.19690381975E+03  0.14857774271E+03  0.25249800048E+03  0.00000000000E+00 0.  1.
         21    1    1    2  504  501  0.46226341869E+02 -0.69954556491E+02  0.25916790298E+01  0.83888208091E+02  0.00000000000E+00 0.  1.
<mgrwt>
<rscale>  4 0.31123995E+03</rscale>
<asrwt>0</asrwt>
<pdfrwt beam="1">  1       21 0.12045673E+00 0.31123995E+03</pdfrwt>
<pdfrwt beam="2">  1       21 0.21157393E-01 0.31123995E+03</pdfrwt>
<totfact> 0.10150890E+04</totfact>
</mgrwt>
</event>
<event>
 5    0  0.4568978E+000  0.2584349E+03  0.7546771E-02  0.1108087E+00
         21   -1    0    0  502  501  0.00000000000E+00  0.00000000000E+00  0.70036859039E+03  0.70036859039E+03  0.00000000000E+00 0.  1.
         21   -1    0    0  503  502 -0.00000000000E+00 -0.00000000000E+00 -0.94656113978E+02  0.94656113978E+02  0.00000000000E+00 0.  1.
         25    1    1    2    0    0  0.11262870347E+03  0.19615903907E+03  0.44272138290E+03  0.51263126741E+03  0.12500000000E+03 0.  0.
         21    1    1    2  503  504 -0.11361392274E+03 -0.17291097900E+03  0.15154990357E+03  0.25646384418E+03  0.00000000000E+00 0.  1.
         21    1    1    2  504  501  0.98521927441E+00 -0.23248060073E+02  0.11441189944E+02  0.25929592776E+02  0.00000000000E+00 0.  1.
<mgrwt>
<rscale>  4 0.25843489E+03</rscale>
<asrwt>0</asrwt>
<pdfrwt beam="1">  1       21 0.10774901E+00 0.25843489E+03</pdfrwt>
<pdfrwt beam="2">  1       21 0.14562480E-01 0.25843489E+03</pdfrwt>
<totfact> 0.27454376E+04</totfact>
</mgrwt>
</event>
