<event>
 5    0  0.1911311E+001  0.1945484E+03  0.7546771E-02  0.1154422E+00
         21   -1    0    0  504  501  0.00000000000E+00  0.00000000000E+00  0.56218089659E+03  0.56218089659E+03  0.00000000000E+00 0.  1.
         21   -1    0    0  503  502 -0.00000000000E+00 -0.00000000000E+00 -0.13411823286E+04  0.13411823286E+04  0.00000000000E+00 0.  1.
         25    1    1    2    0    0  0.77283603862E+02 -0.23705929020E+03  0.41988407454E+03  0.50408084525E+03  0.12500000000E+03 0.  0.
         21    1    1    2  503  501 -0.10572710265E+03  0.10411411484E+03 -0.12464477644E+04  0.12552489787E+04  0.00000000000E+00 0.  1.
         21    1    1    2  504  502  0.28443498785E+02  0.13294517536E+03  0.47562257921E+02  0.14403340118E+03  0.00000000000E+00 0.  1.
<mgrwt>
<rscale>  4 0.19454837E+03</rscale>
<asrwt>0</asrwt>
<pdfrwt beam="1">  1       21 0.86489369E-01 0.19454837E+03</pdfrwt>
<pdfrwt beam="2">  1       21 0.20633574E+00 0.19454837E+03</pdfrwt>
<totfact> 0.14052768E+02</totfact>
</mgrwt>
</event>
<event>
 5    0  0.1911311E+001  0.2004105E+03  0.7546771E-02  0.1149393E+00
         21   -1    0    0  502  501  0.00000000000E+00  0.00000000000E+00  0.11800681272E+04  0.11800681272E+04  0.00000000000E+00 0.  1.
         21   -1    0    0  504  502 -0.00000000000E+00 -0.00000000000E+00 -0.86119258299E+03  0.86119258299E+03  0.00000000000E+00 0.  1.
         25    1    1    2    0    0 -0.80091818944E+02 -0.28799704177E+03  0.80445425430E+03  0.86725350549E+03  0.12500000000E+03 0.  0.
         21    1    1    2  503  501  0.97296951305E+01  0.14939704763E+03  0.32014788222E+03  0.35342440676E+03  0.00000000000E+00 0.  1.
         21    1    1    2  504  503  0.70362123813E+02  0.13859999414E+03 -0.80572659227E+03  0.82058279798E+03  0.00000000000E+00 0.  1.
<mgrwt>
<rscale>  4 0.20041051E+03</rscale>
<asrwt>0</asrwt>
<pdfrwt beam="1">  1       21 0.18154894E+00 0.20041051E+03</pdfrwt>
<pdfrwt beam="2">  1       21 0.13249117E+00 0.20041051E+03</pdfrwt>
<totfact> 0.72351987E+01</totfact>
</mgrwt>
</event>
<event>
 5    0  0.1911311E+001  0.2533781E+03  0.7546771E-02  0.1111188E+00
         21   -1    0    0  502  501  0.00000000000E+00  0.00000000000E+00  0.43645062795E+03  0.43645062795E+03  0.00000000000E+00 0.  1.
         21   -1    0    0  504  502 -0.00000000000E+00 -0.00000000000E+00 -0.23027032401E+03  0.23027032401E+03  0.00000000000E+00 0.  1.
         25    1    1    2    0    0 -0.16987526437E+03 -0.16158442370E+03  0.28524084211E+03  0.38981337770E+03  0.12500000000E+03 0.  0.
         21    1    1    2  503  501  0.12957137399E+03  0.14385954979E+03 -0.85724579534E+01  0.19379834380E+03  0.00000000000E+00 0.  1.
         21    1    1    2  504  503  0.40303890380E+02  0.17724873904E+02 -0.70488080217E+02  0.83109230458E+02  0.00000000000E+00 0.  1.
<mgrwt>
<rscale>  4 0.25337811E+03</rscale>
<asrwt>0</asrwt>
<pdfrwt beam="1">  1       21 0.67146251E-01 0.25337811E+03</pdfrwt>
<pdfrwt beam="2">  1       21 0.35426204E-01 0.25337811E+03</pdfrwt>
<totfact> 0.15062892E+04</totfact>
</mgrwt>
</event>
<event>
 5    0  0.1911311E+001  0.3131609E+03  0.7546771E-02  0.1078841E+00
         21   -1    0    0  504  501  0.00000000000E+00  0.00000000000E+00  0.11395970836E+04  0.11395970836E+04  0.00000000000E+00 0.  1.
         21   -1    0    0  503  502 -0.00000000000E+00 -0.00000000000E+00 -0.32137752083E+03  0.32137752083E+03  0.00000000000E+00 0.  1.
         25    1    1    2    0    0 -0.13571494788E+03 -0.25281115147E+03 -0.21235234204E+03  0.37822023024E+03  0.12500000000E+03 0.  0.
         21    1    1    2  503  501  0.23521149522E+02 -0.15472209324E+02  0.31622037605E+02  0.42338953677E+02  0.00000000000E+00 0. -1.
         21    1    1    2  504  502  0.11219379836E+03  0.26828336080E+03  0.99894986725E+03  0.10404154206E+04  0.00000000000E+00 0.  1.
<mgrwt>
<rscale>  4 0.31316086E+03</rscale>
<asrwt>0</asrwt>
<pdfrwt beam="1">  1       21 0.17532263E+00 0.31316086E+03</pdfrwt>
<pdfrwt beam="2">  1       21 0.49442696E-01 0.31316086E+03</pdfrwt>
<totfact> 0.68710879E+02</totfact>
</mgrwt>
</event>
