<event>
 5    0  0.2339138E+000  0.2144225E+03  0.7546771E-02  0.1138111E+00
         21   -1    0    0  502  501  0.00000000000E+00  0.00000000000E+00  0.10455949092E+03  0.10455949092E+03  0.00000000000E+00 0.  1.
         21   -1    0    0  503  502 -0.00000000000E+00 -0.00000000000E+00 -0.10812945354E+04  0.10812945354E+04  0.00000000000E+00 0.  1.
         25    1    1    2    0    0 -0.16422582859E+03 -0.18229540562E+03 -0.15162127192E+03  0.31434972210E+03  0.12500000000E+03 0.  0.
         21    1    1    2  503  504  0.89293804637E+02  0.14003479568E+03 -0.70156346175E+03  0.72095382543E+03  0.00000000000E+00 0.  1.
         21    1    1    2  504  501  0.74932023951E+02  0.42260609941E+02 -0.12355031086E+03  0.15055047884E+03  0.00000000000E+00 0.  1.
<mgrwt>
<rscale>  4 0.21442246E+03</rscale>
<asrwt>0</asrwt>
<pdfrwt beam="1">  1       21 0.16086076E-01 0.21442246E+03</pdfrwt>
<pdfrwt beam="2">  1       21 0.16635300E+00 0.21442246E+03</pdfrwt>
<totfact> 0.76850022E+03</totfact>
</mgrwt>
</event>
<event>
 5    0  0.2159162E+000  0.2756534E+03  0.7546771E-02  0.1098087E+00
         21   -1    0    0  502  501  0.00000000000E+00  0.00000000000E+00  0.59570528049E+03  0.59570528049E+03  0.00000000000E+00 0.  1.
         21   -1    0    0  503  502 -0.00000000000E+00 -0.00000000000E+00 -0.40230755954E+03  0.40230755954E+03  0.00000000000E+00 0. -1.
         25    1    1    2    0    0  0.10045748636E+03  0.22420540471E+03  0.51487422678E+03  0.58402075260E+03  0.12500000000E+03 0.  0.
         21    1    1    2  503  504 -0.13634855903E+02 -0.12633353847E+03 -0.18948291013E+03  0.22814435226E+03  0.00000000000E+00 0. -1.
         21    1    1    2  504  501 -0.86822630452E+02 -0.97871866238E+02 -0.13199359570E+03  0.18584773517E+03  0.00000000000E+00 0. -1.
<mgrwt>
<rscale>  4 0.27565335E+03</rscale>
<asrwt>0</asrwt>
<pdfrwt beam="1">  1       21 0.91646966E-01 0.27565335E+03</pdfrwt>
<pdfrwt beam="2">  1       21 0.61893471E-01 0.27565335E+03</pdfrwt>
<totfact> 0.22930879E+03</totfact>
</mgrwt>
</event>
<event>
 5    0  0.2159162E+000  0.3862697E+03  0.7546771E-02  0.1048640E+00
         21   -1    0    0  502  501  0.00000000000E+00  0.00000000000E+00  0.10703503798E+04  0.10703503798E+04  0.00000000000E+00 0. -1.
         21   -1    0    0  503  502 -0.00000000000E+00 -0.00000000000E+00 -0.14489444427E+03  0.14489444427E+03  0.00000000000E+00 0. -1.
         25    1    1    2    0    0 -0.31920717146E+03  0.17800589893E+03  0.63284917166E+03  0.74141917458E+03  0.12500000000E+03 0.  0.
         21    1    1    2  503  504  0.20397238646E+03 -0.90176090746E+02  0.21354500136E+03  0.30876840736E+03  0.00000000000E+00 0. -1.
         21    1    1    2  504  501  0.11523478501E+03 -0.87829808181E+02  0.79061762477E+02  0.16505724209E+03  0.00000000000E+00 0. -1.
<mgrwt>
<rscale>  4 0.38626975E+03</rscale>
<asrwt>0</asrwt>
<pdfrwt beam="1">  1       21 0.16466928E+00 0.38626975E+03</pdfrwt>
<pdfrwt beam="2">  1       21 0.22291454E-01 0.38626975E+03</pdfrwt>
<totfact> 0.38860724E+03</totfact>
</mgrwt>
</event>
<event>
 5    0  0.2159162E+000  0.3642007E+03  0.7546771E-02  0.1056933E+00
         21   -1    0    0  502  501  0.00000000000E+00  0.00000000000E+00  0.42943735834E+03  0.42943735834E+03  0.00000000000E+00 0. -1.
         21   -1    0    0  503  502 -0.00000000000E+00 -0.00000000000E+00 -0.32923602884E+03  0.32923602884E+03  0.00000000000E+00 0. -1.
         25    1    1    2    0    0  0.33467122781E+03  0.70797600269E+02  0.15717270076E+03  0.39666785702E+03  0.12500000000E+03 0.  0.
         21    1    1    2  503  504 -0.24755615732E+03 -0.43661404426E+01 -0.46811359223E+02  0.25198098651E+03  0.00000000000E+00 0. -1.
         21    1    1    2  504  501 -0.87115070492E+02 -0.66431459827E+02 -0.10160012034E+02  0.11002454365E+03  0.00000000000E+00 0. -1.
<mgrwt>
<rscale>  4 0.36420067E+03</rscale>
<asrwt>0</asrwt>
<pdfrwt beam="1">  1       21 0.66067286E-01 0.36420067E+03</pdfrwt>
<pdfrwt beam="2">  1       21 0.50651697E-01 0.36420067E+03</pdfrwt>
<totfact> 0.71201102E+03</totfact>
</mgrwt>
</event>
<event>
 5    0  0.1265995E+001  0.2176455E+03  0.7546771E-02  0.1135651E+00
         21   -1    0    0  502  501  0.00000000000E+00  0.00000000000E+00  0.66251344882E+03  0.66251344882E+03  0.00000000000E+00 0. -1.
         21   -1    0    0  503  502 -0.00000000000E+00 -0.00000000000E+00 -0.16846333293E+03  0.16846333293E+03  0.00000000000E+00 0.  1.
         25    1    1    2    0    0 -0.18236817563E+03 -0.10669512441E+03  0.52660525967E+03  0.58101643744E+03  0.12500000000E+03 0.  0.
         21    1    1    2  503  504  0.28413974054E+02  0.23932839074E+02  0.45325533012E+02  0.58604937083E+02  0.00000000000E+00 0. -1.
         21    1    1    2  504  501  0.15395420158E+03  0.82762285338E+02 -0.77880676791E+02  0.19135540723E+03  0.00000000000E+00 0.  1.
<mgrwt>
<rscale>  4 0.21764551E+03</rscale>
<asrwt>0</asrwt>
<pdfrwt beam="1">  1       21 0.10192514E+00 0.21764551E+03</pdfrwt>
<pdfrwt beam="2">  1       21 0.25917436E-01 0.21764551E+03</pdfrwt>
<totfact> 0.10905055E+04</totfact>
</mgrwt>
</event>
<event>
 5    0  0.2159162E+000  0.2608102E+03  0.7546771E-02  0.1106657E+00
         21   -1    0    0  502  501  0.00000000000E+00  0.00000000000E+00  0.13389148560E+04  0.13389148560E+04  0.00000000000E+00 0.  1.
         21   -1    0    0  503  502 -0.00000000000E+00 -0.00000000000E+00 -0.52864420885E+02  0.52864420885E+02  0.00000000000E+00 0.  1.
         25    1    1    2    0    0  0.21116306574E+03  0.88357906745E+02  0.93386826255E+03  0.96960398711E+03  0.12500000000E+03 0.  0.
         21    1    1    2  503  504 -0.16714128790E+03 -0.53730491290E+02  0.24741533322E+03  0.30337686617E+03  0.00000000000E+00 0.  1.
         21    1    1    2  504  501 -0.44021777835E+02 -0.34627415455E+02  0.10476683933E+03  0.11879842359E+03  0.00000000000E+00 0.  1.
<mgrwt>
<rscale>  4 0.26081020E+03</rscale>
<asrwt>0</asrwt>
<pdfrwt beam="1">  1       21 0.20598687E+00 0.26081020E+03</pdfrwt>
<pdfrwt beam="2">  1       21 0.81329889E-02 0.26081020E+03</pdfrwt>
<totfact> 0.13655600E+04</totfact>
</mgrwt>
</event>
<event>
 5    0  0.2195966E+000  0.2363098E+03  0.7546771E-02  0.1122276E+00
         21   -1    0    0  502  501  0.00000000000E+00  0.00000000000E+00  0.56895743623E+02  0.56895743623E+02  0.00000000000E+00 0.  1.
         21   -1    0    0  503  502 -0.00000000000E+00 -0.00000000000E+00 -0.92023112461E+03  0.92023112461E+03  0.00000000000E+00 0.  1.
         25    1    1    2    0    0  0.14279759871E+03  0.14080545138E+03 -0.32890371750E+03  0.40499380825E+03  0.12500000000E+03 0.  0.
         21    1    1    2  503  504 -0.10637791658E+02 -0.22819564032E+02 -0.96324503125E+02  0.99560559542E+02  0.00000000000E+00 0.  1.
         21    1    1    2  504  501 -0.13215980705E+03 -0.11798588735E+03 -0.43810716035E+03  0.47257250043E+03  0.00000000000E+00 0.  1.
<mgrwt>
<rscale>  4 0.23630982E+03</rscale>
<asrwt>0</asrwt>
<pdfrwt beam="1">  1       21 0.87531926E-02 0.23630982E+03</pdfrwt>
<pdfrwt beam="2">  1       21 0.14157400E+00 0.23630982E+03</pdfrwt>
<totfact> 0.34788947E+04</totfact>
</mgrwt>
</event>
<event>
 5    0  0.2159162E+000  0.2316462E+03  0.7546771E-02  0.1125486E+00
         21   -1    0    0  502  501  0.00000000000E+00  0.00000000000E+00  0.38638697055E+03  0.38638697055E+03  0.00000000000E+00 0. -1.
         21   -1    0    0  503  502 -0.00000000000E+00 -0.00000000000E+00 -0.22891625555E+03  0.22891625555E+03  0.00000000000E+00 0. -1.
         25    1    1    2    0    0 -0.14208404288E+03  0.15014040907E+03  0.25611808174E+03  0.35206745017E+03  0.12500000000E+03 0.  0.
         21    1    1    2  503  504 -0.10687434471E+02 -0.70642856263E+02 -0.35748851405E+02  0.79891268442E+02  0.00000000000E+00 0. -1.
         21    1    1    2  504  501  0.15277147736E+03 -0.79497552803E+02 -0.62898515329E+02  0.18334450749E+03  0.00000000000E+00 0. -1.
<mgrwt>
<rscale>  4 0.23164622E+03</rscale>
<asrwt>0</asrwt>
<pdfrwt beam="1">  1       21 0.59444149E-01 0.23164622E+03</pdfrwt>
<pdfrwt beam="2">  1       21 0.35217885E-01 0.23164622E+03</pdfrwt>
<totfact> 0.20096886E+04</totfact>
</mgrwt>
</event>
