<event>
 5    0  0.1911311E+001  0.2707022E+03  0.7546771E-02  0.1100878E+00
         21   -1    0    0  503  501  0.00000000000E+00  0.00000000000E+00  0.84335442958E+03  0.84335442958E+03  0.00000000000E+00 0. -1.
         21   -1    0    0  504  502 -0.00000000000E+00 -0.00000000000E+00 -0.10289231988E+03  0.10289231988E+03  0.00000000000E+00 0. -1.
         25    1    1    2    0    0  0.18889278188E+03  0.15648684939E+03  0.55223202036E+03  0.61705252725E+03  0.12500000000E+03 0.  0.
         21    1    1    2  503  502 -0.16778677585E+03 -0.16957568300E+03  0.14450559715E+03  0.27890891348E+03  0.00000000000E+00 0. -1.
         21    1    1    2  504  501 -0.21106006031E+02  0.13088833607E+02  0.43724492190E+02  0.50285308720E+02  0.00000000000E+00 0. -1.
<mgrwt>
<rscale>  4 0.27070219E+03</rscale>
<asrwt>0</asrwt>
<pdfrwt beam="1">  1       21 0.12974683E+00 0.27070219E+03</pdfrwt>
<pdfrwt beam="2">  1       21 0.15829588E-01 0.27070219E+03</pdfrwt>
<totfact> 0.14745834E+04</totfact>
</mgrwt>
</event>
<event>
 5    0  0.1911311E+001  0.3238137E+03  0.7546771E-02  0.1073907E+00
         21   -1    0    0  504  501  0.00000000000E+00  0.00000000000E+00  0.10920014590E+04  0.10920014590E+04  0.00000000000E+00 0.  1.
         21   -1    0    0  503  502 -0.00000000000E+00 -0.00000000000E+00 -0.13765963181E+04  0.13765963181E+04  0.00000000000E+00 0. -1.
         25    1    1    2    0    0 -0.48472081003E+01 -0.34778589556E+03 -0.14120891143E+03  0.39565576104E+03  0.12500000000E+03 0.  0.
         21    1    1    2  503  501 -0.14709539749E+02  0.53802717282E+02 -0.10849364105E+04  0.10863692364E+04  0.00000000000E+00 0. -1.
         21    1    1    2  504  502  0.19556747849E+02  0.29398317828E+03  0.94155046286E+03  0.98657277968E+03  0.00000000000E+00 0.  1.
<mgrwt>
<rscale>  4 0.32381370E+03</rscale>
<asrwt>0</asrwt>
<pdfrwt beam="1">  1       21 0.16800023E+00 0.32381370E+03</pdfrwt>
<pdfrwt beam="2">  1       21 0.21178405E+00 0.32381370E+03</pdfrwt>
<totfact> 0.21000215E+01</totfact>
</mgrwt>
</event>
<event>
 5    0  0.1911311E+001  0.2709375E+03  0.7546771E-02  0.1100744E+00
         21   -1    0    0  504  501  0.00000000000E+00  0.00000000000E+00  0.25927610730E+03  0.25927610730E+03  0.00000000000E+00 0. -1.
         21   -1    0    0  501  502 -0.00000000000E+00 -0.00000000000E+00 -0.38257106541E+03  0.38257106541E+03  0.00000000000E+00 0. -1.
         25    1    1    2    0    0 -0.23286752345E+03 -0.81224821755E+02 -0.14014198982E+03  0.30998311641E+03  0.12500000000E+03 0.  0.
         21    1    1    2  503  502  0.18377254087E+03  0.15464920508E+03  0.31802237527E+02  0.24228104697E+03  0.00000000000E+00 0. -1.
         21    1    1    2  504  503  0.49094982578E+02 -0.73424383327E+02 -0.14955205814E+02  0.89583009339E+02  0.00000000000E+00 0. -1.
<mgrwt>
<rscale>  4 0.27093748E+03</rscale>
<asrwt>0</asrwt>
<pdfrwt beam="1">  1       21 0.39888632E-01 0.27093748E+03</pdfrwt>
<pdfrwt beam="2">  1       21 0.58857087E-01 0.27093748E+03</pdfrwt>
<totfact> 0.15670000E+04</totfact>
</mgrwt>
</event>
<event>
 5    0  0.1911311E+001  0.5189553E+03  0.7546771E-02  0.1008946E+00
         21   -1    0    0  504  501  0.00000000000E+00  0.00000000000E+00  0.11686284039E+04  0.11686284039E+04  0.00000000000E+00 0. -1.
         21   -1    0    0  503  502 -0.00000000000E+00 -0.00000000000E+00 -0.23705166095E+03  0.23705166095E+03  0.00000000000E+00 0. -1.
         25    1    1    2    0    0 -0.46914474730E+03 -0.20300506394E+03  0.47599187388E+03  0.70957812389E+03  0.12500000000E+03 0.  0.
         21    1    1    2  503  501  0.22684346730E+02 -0.14900644783E+02  0.10548689782E+02  0.29118441882E+02  0.00000000000E+00 0.  1.
         21    1    1    2  504  502  0.44646040057E+03  0.21790570873E+03  0.44503617926E+03  0.66698349906E+03  0.00000000000E+00 0. -1.
<mgrwt>
<rscale>  4 0.51895527E+03</rscale>
<asrwt>0</asrwt>
<pdfrwt beam="1">  1       21 0.17978898E+00 0.51895527E+03</pdfrwt>
<pdfrwt beam="2">  1       21 0.36469487E-01 0.51895527E+03</pdfrwt>
<totfact> 0.10820225E+03</totfact>
</mgrwt>
</event>
<event>
 5    0  0.1911311E+001  0.3243644E+03  0.7546771E-02  0.1073658E+00
         21   -1    0    0  502  501  0.00000000000E+00  0.00000000000E+00  0.61772365979E+03  0.61772365979E+03  0.00000000000E+00 0.  1.
         21   -1    0    0  504  502 -0.00000000000E+00 -0.00000000000E+00 -0.17830219477E+03  0.17830219477E+03  0.00000000000E+00 0.  1.
         25    1    1    2    0    0 -0.24679153394E+03 -0.16935534254E+03  0.33420068932E+03  0.46572781108E+03  0.12500000000E+03 0.  0.
         21    1    1    2  503  501  0.44939057032E+02  0.67028241762E+01  0.45450437598E+02  0.64266546326E+02  0.00000000000E+00 0.  1.
         21    1    1    2  504  503  0.20185247691E+03  0.16265251836E+03  0.59770338094E+02  0.26603149716E+03  0.00000000000E+00 0.  1.
<mgrwt>
<rscale>  4 0.32436445E+03</rscale>
<asrwt>0</asrwt>
<pdfrwt beam="1">  1       21 0.95034408E-01 0.32436445E+03</pdfrwt>
<pdfrwt beam="2">  1       21 0.27431107E-01 0.32436445E+03</pdfrwt>
<totfact> 0.10927196E+04</totfact>
</mgrwt>
</event>
<event>
 5    0  0.1911311E+001  0.2743649E+03  0.7546771E-02  0.1098807E+00
         21   -1    0    0  502  501  0.00000000000E+00  0.00000000000E+00  0.25654990438E+03  0.25654990438E+03  0.00000000000E+00 0. -1.
         21   -1    0    0  504  502 -0.00000000000E+00 -0.00000000000E+00 -0.76946857581E+03  0.76946857581E+03  0.00000000000E+00 0.  1.
         25    1    1    2    0    0  0.13505053108E+03 -0.16072456619E+03  0.40483437618E+02  0.24765892038E+03  0.12500000000E+03 0.  0.
         21    1    1    2  503  501  0.12218783404E+02 -0.41214907377E+02  0.83640849377E+02  0.94041261914E+02  0.00000000000E+00 0. -1.
         21    1    1    2  504  503 -0.14726931448E+03  0.20193947357E+03 -0.63704295842E+03  0.68431829790E+03  0.00000000000E+00 0.  1.
<mgrwt>
<rscale>  4 0.27436495E+03</rscale>
<asrwt>0</asrwt>
<pdfrwt beam="1">  1       21 0.39469216E-01 0.27436495E+03</pdfrwt>
<pdfrwt beam="2">  1       21 0.11837978E+00 0.27436495E+03</pdfrwt>
<totfact> 0.31826119E+03</totfact>
</mgrwt>
</event>
<event>
 5    0  0.1911311E+001  0.2577941E+03  0.7546771E-02  0.1108476E+00
         21   -1    0    0  504  501  0.00000000000E+00  0.00000000000E+00  0.81410699140E+03  0.81410699140E+03  0.00000000000E+00 0. -1.
         21   -1    0    0  501  502 -0.00000000000E+00 -0.00000000000E+00 -0.87443235716E+02  0.87443235716E+02  0.00000000000E+00 0. -1.
         25    1    1    2    0    0 -0.12202800063E+03 -0.18325700017E+03  0.45950659215E+03  0.52463822705E+03  0.12500000000E+03 0.  0.
         21    1    1    2  503  502  0.10483514746E+03  0.20942214103E+03  0.24179729225E+03  0.33662140727E+03  0.00000000000E+00 0. -1.
         21    1    1    2  504  503  0.17192853169E+02 -0.26165140859E+02  0.25359871286E+02  0.40290592796E+02  0.00000000000E+00 0.  1.
<mgrwt>
<rscale>  4 0.25779407E+03</rscale>
<asrwt>0</asrwt>
<pdfrwt beam="1">  1       21 0.12524722E+00 0.25779407E+03</pdfrwt>
<pdfrwt beam="2">  1       21 0.13452806E-01 0.25779407E+03</pdfrwt>
<totfact> 0.21863598E+04</totfact>
</mgrwt>
</event>
