<LesHouchesEvents version="3.0">
  <!--
  <scalesfunctionalform>
    muR  H_T/2 := sum_i mT(i)/2, i=final state
    muF1 H_T/2 := sum_i mT(i)/2, i=final state
    muF2 H_T/2 := sum_i mT(i)/2, i=final state
    QES  H_T/2 := sum_i mT(i)/2, i=final state
  </scalesfunctionalform>
HERWIG6   
  -->
  <header>
       19
  </header>
  <init>
   2212   2212 0.65000000D+04 0.65000000D+04 -1 -1   244800   244800 -4   1
 0.40989059D-04 0.16625541D-05 0.24864407D-05     66
  </init>
  <event>
  6     66 -.24864407E-05 0.21167912E+02 0.75467711E-02 0.93564226E-01
        3 -1    0    0  501    0 0.00000000E+00 0.00000000E+00 0.51556493E+03 0.51556517E+03 0.50000000E+00 0.0000E+00 0.9000E+01
       -3 -1    0    0    0  501 -.00000000E+00 -.00000000E+00 -.63541510E+03 0.63541529E+03 0.50000000E+00 0.0000E+00 0.9000E+01
       23  2    1    2    0    0 0.48320255E+03 0.24092580E+03 0.96338310E+02 0.55609191E+03 0.91799756E+02 0.0000E+00 0.0000E+00
       25  1    1    2    0    0 -.48320255E+03 -.24092580E+03 -.21618848E+03 0.59488856E+03 0.12500000E+03 0.0000E+00 0.9000E+01
        2  1    3    3  502    0 0.12802799E+02 0.23832744E+02 0.17053250E+02 0.31981668E+02 0.32000000E+00 0.0000E+00 0.9000E+01
       -2  1    3    3    0  502 0.47039975E+03 0.21709306E+03 0.79285060E+02 0.52411024E+03 0.32000000E+00 0.0000E+00 0.9000E+01
#aMCatNLO 1  0  0  4  5 0.10264551D+01 0.00000000D+00  -5  6  0 0.00000000D+00 0.00000000D+00 0.00000000D+00 0.00000000D+00 0.00000000D+00
  <mgrwgt>
 -.2260693521D-04    8    2    0
 0.572361768232447D+03 0.000000000000000D+00 0.000000000000000D+00 0.572361768232447D+03
 0.572361768232447D+03 -.000000000000000D+00 -.000000000000000D+00 -.572361768232447D+03
 0.575505673595818D+03 -.483202545480355D+03 -.240925804618160D+03 -.155086546970953D+03
 0.339358240461543D+02 0.127972380365021D+02 0.238303957079345D+02 0.204934890326637D+02
 0.535282038822922D+03 0.470405307443853D+03 0.217095408910226D+03 0.134593057938289D+03
 0.000000000000000D+00 0.000000000000000D+00 0.000000000000000D+00 0.000000000000000D+00
 0.572361768232447D+03 0.000000000000000D+00 0.000000000000000D+00 0.572361768232447D+03
 0.572361768232447D+03 -.000000000000000D+00 -.000000000000000D+00 -.572361768232447D+03
 0.575475551133284D+03 -.483187856464314D+03 -.240898451445246D+03 -.155063023989799D+03
 0.244969072142618D+02 0.858135908730103D+01 0.168977539203543D+02 0.155217477020502D+02
 0.535309866861550D+03 0.470418970517880D+03 0.217120851623701D+03 0.134614937976538D+03
 0.944121125579840D+01 0.418752685913310D+01 0.687984590119144D+01 0.492633831121174D+01
0.471930561817D-06 0.000000000000D+00 0.000000000000D+00 0.913404257948D-05 0.000000000000D+00  6 3 -3 25 2 -2 21 0 0.79317716D-01 0.97756203D-01 0.30214222D+06 0.30214222D+06 0.30214222D+06 0.10843233D+01  1  2  2  3  6  4        2 0.253207746114D-06 0.100000000000D+01
0.144735489076D-06 0.000000000000D+00 -.181233761955D-08 0.913404257948D-05 0.000000000000D+00  6 3 -3 25 2 -2 21 2 0.79317716D-01 0.97756203D-01 0.30214222D+06 0.30214222D+06 0.30214222D+06 0.10843233D+01  1  2  3  3  6  4        2 0.913043588694D-07 0.100000000000D+01
-.120814108803D-06 0.000000000000D+00 0.000000000000D+00 0.913404257948D-05 0.000000000000D+00  6 3 -3 25 2 -2 21 2 0.79317716D-01 0.97756203D-01 0.30214222D+06 0.30214222D+06 0.30214222D+06 0.10843233D+01  1  2 15  3  6  4        2 -.762138907122D-07 0.100000000000D+01
0.183869160492D-10 0.000000000000D+00 0.000000000000D+00 0.913404257948D-05 0.000000000000D+00  6 3 -3 25 2 -2 21 2 0.79317716D-01 0.97756203D-01 0.30211756D+06 0.30211756D+06 0.30211756D+06 0.10843259D+01  1  2 12  3  6  4        2 0.115992080929D-10 0.100000000000D+01
-.122109741731D-03 0.000000000000D+00 0.000000000000D+00 0.913404257948D-05 0.000000000000D+00  6 3 -3 25 2 -2 21 2 0.79317716D-01 0.97756203D-01 0.30214222D+06 0.30214222D+06 0.30214222D+06 0.10843233D+01  1  2  4  3  6  4        2 -.770312226226D-04 0.100000000000D+01
-.411864494278D-04 0.000000000000D+00 0.000000000000D+00 0.913404257948D-05 0.000000000000D+00  6 3 -3 25 2 -2 21 2 0.79317716D-01 0.97756203D-01 0.30214222D+06 0.30214222D+06 0.30214222D+06 0.10843233D+01  1  2  5  3  6  4        2 -.259818955469D-04 0.100000000000D+01
0.862833111689D-04 0.000000000000D+00 -.000000000000D+00 0.913404257948D-05 0.000000000000D+00  6 3 -3 25 2 -2 21 2 0.79317716D-01 0.97756203D-01 0.30214222D+06 0.30214222D+06 0.30214222D+06 0.10843233D+01  1  2  6  3  6  4        2 0.544306200068D-04 0.100000000000D+01
0.407508082863D-04 0.000000000000D+00 0.000000000000D+00 0.913404257948D-05 0.294934788185D-04  6 3 -3 25 2 -2 21 2 0.79317716D-01 0.97756203D-01 0.30211756D+06 0.30211756D+06 0.30211756D+06 0.10843259D+01  1  2 11  3  6  4        2 0.257072531359D-04 0.100000000000D+01
  </mgrwgt>
  </event>
  <event>
  6     66 -.24864407E-05 0.14138056E+02 0.75467711E-02 0.93796615E-01
        1 -1    0    0  501    0 0.00000000E+00 0.00000000E+00 0.20147383E+04 0.20147384E+04 0.32000000E+00 0.0000E+00 0.9000E+01
       -1 -1    0    0    0  501 0.00000000E+00 0.00000000E+00 -.17766536E+03 0.17766565E+03 0.32000000E+00 0.0000E+00 0.9000E+01
       23  2    1    2    0    0 0.39977912E+03 0.34454572E+03 0.43796234E+03 0.69184723E+03 0.91139912E+02 0.0000E+00 0.0000E+00
       25  1    1    2    0    0 -.39977912E+03 -.34454572E+03 0.13991106E+04 0.15005568E+04 0.12500000E+03 0.0000E+00 0.9000E+01
        4  1    3    3  502    0 -.16391024E+01 0.14120173E+02 0.20873248E+02 0.25301402E+02 0.15500000E+01 0.0000E+00 0.9000E+01
       -4  1    3    3    0  502 0.40141822E+03 0.33042555E+03 0.41708910E+03 0.66654583E+03 0.15500000E+01 0.0000E+00 0.9000E+01
#aMCatNLO 1  0  0  4  1 0.28905624D+01 0.00000000D+00  -5  6  0 0.00000000D+00 0.00000000D+00 0.00000000D+00 0.00000000D+00 0.00000000D+00
  <mgrwgt>
 -.7677035992D-03    7    2    0
 0.598288859267848D+03 0.000000000000000D+00 0.000000000000000D+00 0.598288859267848D+03
 0.598288859267848D+03 -.000000000000000D+00 -.000000000000000D+00 -.598288859267848D+03
 0.601346962570746D+03 -.399779115182326D+03 -.344545719664257D+03 0.259726924900245D+03
 0.141478053179510D+02 -.175578059806065D+01 0.140286083177779D+02 -.525146143933594D+00
 0.581082950646999D+03 0.401534895780387D+03 0.330517111346479D+03 -.259201778756312D+03
 0.000000000000000D+00 0.000000000000000D+00 0.000000000000000D+00 -.000000000000000D+00
 0.598288859267848D+03 0.000000000000000D+00 0.000000000000000D+00 0.598288859267848D+03
 0.598288859267848D+03 -.000000000000000D+00 -.000000000000000D+00 -.598288859267848D+03
 0.600936920906986D+03 -.399880656677703D+03 -.343734407665353D+03 0.259696554291978D+03
 0.100962976937680D+02 -.404222921485811D+01 0.925167478656742D+01 0.460840463139765D-01
 0.581474831189229D+03 0.401436709439164D+03 0.331301615814006D+03 -.259231145852939D+03
 0.406966874571347D+01 0.248617645339786D+01 0.318111706478002D+01 -.511492485352805D+00
0.415288152876D-05 0.000000000000D+00 0.000000000000D+00 0.548224954200D-05 0.000000000000D+00  6 1 -1 25 4 -4 21 0 0.30995977D+00 0.27333157D-01 0.28975203D+06 0.28975203D+06 0.28975203D+06 0.10856704D+01  1  2  2  3  6  4        4 0.174960084835D-04 0.100000000000D+01
0.189491907783D-05 0.000000000000D+00 -.159481585493D-07 0.548224954200D-05 0.000000000000D+00  6 1 -1 25 4 -4 21 2 0.30995977D+00 0.27333157D-01 0.28975203D+06 0.28975203D+06 0.28975203D+06 0.10856704D+01  1  2  3  3  6  4        4 0.940970722727D-05 0.100000000000D+01
-.115119176549D-05 0.000000000000D+00 0.000000000000D+00 0.548224954200D-05 0.000000000000D+00  6 1 -1 25 4 -4 21 2 0.30995977D+00 0.27333157D-01 0.28975203D+06 0.28975203D+06 0.28975203D+06 0.10856704D+01  1  2 15  3  6  4        4 -.571653829569D-05 0.100000000000D+01
-.173453568236D-03 0.000000000000D+00 0.000000000000D+00 0.548224954200D-05 0.000000000000D+00  6 1 -1 25 4 -4 21 2 0.30995977D+00 0.27333157D-01 0.28975203D+06 0.28975203D+06 0.28975203D+06 0.10856704D+01  1  2  4  3  6  4        4 -.861328229644D-03 0.100000000000D+01
-.745963413034D-05 0.000000000000D+00 0.000000000000D+00 0.548224954200D-05 0.000000000000D+00  6 1 -1 25 4 -4 21 2 0.30995977D+00 0.27333157D-01 0.28975203D+06 0.28975203D+06 0.28975203D+06 0.10856704D+01  1  2  5  3  6  4        4 -.370427286369D-04 0.100000000000D+01
0.185841653317D-04 0.000000000000D+00 -.000000000000D+00 0.548224954200D-05 0.000000000000D+00  6 1 -1 25 4 -4 21 2 0.30995977D+00 0.27333157D-01 0.28975203D+06 0.28975203D+06 0.28975203D+06 0.10856704D+01  1  2  6  3  6  4        4 0.922844446923D-04 0.100000000000D+01
0.346244586867D-05 0.000000000000D+00 0.000000000000D+00 0.548224954200D-05 0.101691034780D-05  6 1 -1 25 4 -4 21 2 0.30995977D+00 0.27333157D-01 0.28974052D+06 0.28974052D+06 0.28974052D+06 0.10856717D+01  1  2 11  3  6  4        4 0.171937369836D-04 0.100000000000D+01
  </mgrwgt>
  </event>
  <event>
  7     66 0.24864407E-05 0.10461728E+03 0.75467711E-02 0.91766680E-01
        1 -1    0    0  501    0 0.00000000E+00 0.00000000E+00 0.17819546E+04 0.17819547E+04 0.32000000E+00 0.0000E+00 0.9000E+01
       -1 -1    0    0    0  503 0.00000000E+00 0.00000000E+00 -.44292049E+03 0.44292061E+03 0.32000000E+00 0.0000E+00 0.9000E+01
       23  2    1    2    0    0 0.42914443E+03 0.35635889E+03 0.10086312E+04 0.11561767E+04 0.90834788E+02 0.0000E+00 0.0000E+00
       25  1    1    2    0    0 -.52596434E+03 -.25170326E+03 0.54711554E+03 0.80929193E+03 0.12500000E+03 0.0000E+00 0.9000E+01
        4  1    3    3  502    0 0.24573248E+03 0.21650125E+03 0.67902641E+03 0.75388096E+03 0.15500000E+01 0.0000E+00 0.9000E+01
       -4  1    3    3    0  502 0.18341195E+03 0.13985764E+03 0.32960483E+03 0.40229572E+03 0.15500000E+01 0.0000E+00 0.9000E+01
       21  1    1    2  501  503 0.96819911E+02 -.10465563E+03 -.21671263E+03 0.25940667E+03 0.75000000E+00 0.0000E+00 0.9000E+01
#aMCatNLO 2  0  0  2  1 0.52287132D+01 0.00000000D+00  -5  6  0 0.00000000D+00 0.00000000D+00 0.00000000D+00 0.00000000D+00 0.00000000D+00
  <mgrwgt>
 0.4711828218D-04    1    2    0
 0.596320371976570D+03 0.000000000000000D+00 0.000000000000000D+00 0.596320371976570D+03
 0.596320371976570D+03 0.000000000000000D+00 0.000000000000000D+00 -.596320371976570D+03
 0.599411848388185D+03 -.476819672336169D+03 -.304825241599032D+03 -.152951417598731D+03
 0.357620125680583D+03 0.274539239665006D+03 0.185405101602710D+03 0.134704522847770D+03
 0.235608769884371D+03 0.202280432671163D+03 0.119420139996321D+03 0.182468947509607D+02
 0.000000000000000D+00 0.000000000000000D+00 -.000000000000000D+00 -.000000000000000D+00
 0.607847707300270D+03 0.000000000000000D+00 0.000000000000000D+00 0.607847707300270D+03
 0.129845662311440D+04 0.000000000000000D+00 0.000000000000000D+00 -.129845662311440D+04
 0.615639626805589D+03 -.525964337555901D+03 -.251703256965908D+03 -.152951417598731D+03
 0.354148484804318D+03 0.245750640341989D+03 0.216523586671410D+03 0.134704522847770D+03
 0.231344204104002D+03 0.183393786262741D+03 0.139835298707722D+03 0.182468947509607D+02
 0.705172014700756D+03 0.968199109511717D+02 -.104655628413223D+03 -.690608915814126D+03
0.355296134034D-04 0.000000000000D+00 0.000000000000D+00 0.487510006053D-04 0.196307628894D-07  6 1 -1 25 4 -4 21 2 0.27414679D+00 0.68141604D-01 0.42059309D+06 0.42059309D+06 0.42059309D+06 0.10738594D+01  1  2  1  2  6  2       -1 0.471182821786D-04 0.100000000000D+01
  </mgrwgt>
  </event>
  <event>
  6     66 0.24864407E-05 0.19035663E+02 0.75467711E-02 0.92879834E-01
        1 -1    0    0  501    0 0.00000000E+00 0.00000000E+00 0.62843281E+03 0.62843289E+03 0.32000000E+00 0.0000E+00 0.9000E+01
       -1 -1    0    0    0  501 0.00000000E+00 0.00000000E+00 -.62021549E+03 0.62021558E+03 0.32000000E+00 0.0000E+00 0.9000E+01
       25  1    1    2    0    0 -.30435378E+03 0.46614602E+03 -.21416449E+03 0.60943807E+03 0.12500000E+03 0.0000E+00 0.9000E+01
        4  1    1    2  502    0 0.30988370E+03 -.38512405E+03 0.18459234E+03 0.52766010E+03 0.15500000E+01 0.0000E+00 0.9000E+01
       -4  1    1    2    0  503 0.20120149E+02 -.76197801E+02 0.29305030E+02 0.84095854E+02 0.15500000E+01 0.0000E+00 0.9000E+01
       21  1    1    2  503  502 -.25650071E+02 -.48241633E+01 0.84844403E+01 0.27454452E+02 0.75000000E+00 0.0000E+00 0.9000E+01
#aMCatNLO 2  0  0  5  4 0.26127807D+02 0.00000000D+00  -5  6  0 0.00000000D+00 0.00000000D+00 0.00000000D+00 0.00000000D+00 0.00000000D+00
  <mgrwgt>
 0.3057067362D-02    3    2    0
 0.624310715312528D+03 0.000000000000000D+00 0.000000000000000D+00 0.624310715312528D+03
 0.624310715312528D+03 -.000000000000000D+00 -.000000000000000D+00 -.624310715312528D+03
 0.619760726427673D+03 -.303676114497464D+03 0.476081152333282D+03 -.222723846722561D+03
 0.519417344114341D+03 0.310519606378108D+03 -.376747773438427D+03 0.177293729812330D+03
 0.109443360083042D+03 -.684349188064419D+01 -.993333788948544D+02 0.454301169102314D+02
 0.000000000000000D+00 0.000000000000000D+00 0.000000000000000D+00 0.000000000000000D+00
 0.624310715312528D+03 0.000000000000000D+00 0.000000000000000D+00 0.624310715312528D+03
 0.624310715312528D+03 -.000000000000000D+00 -.000000000000000D+00 -.624310715312528D+03
 0.610744268828021D+03 -.304369844918254D+03 0.466011645721581D+03 -.218118558271817D+03
 0.526645358371899D+03 0.309929860280720D+03 -.385307946163894D+03 0.181208724469880D+03
 0.833303027741615D+02 0.205140437266459D+02 -.756150711480587D+02 0.283808806362435D+02
 0.279015006509743D+02 -.260740590891112D+02 -.508862840962780D+01 0.852895316569317D+01
-.156980109040D-05 0.000000000000D+00 0.000000000000D+00 0.320145591682D-08 0.000000000000D+00  6 1 -1 25 4 -4 21 2 0.96681984D-01 0.95417781D-01 0.34214890D+06 0.34214890D+06 0.34214890D+06 0.10803529D+01  1  2 13  4  6  5       -4 -.783938497902D-05 0.100000000000D+01
-.513226955633D-05 0.000000000000D+00 0.000000000000D+00 0.320145591682D-08 0.000000000000D+00  6 1 -1 25 4 -4 21 2 0.96681984D-01 0.95417781D-01 0.33997586D+06 0.33997586D+06 0.33997586D+06 0.10805553D+01  1  2  8  4  6  5       -4 -.256461895719D-04 0.100000000000D+01
0.618869131069D-03 0.000000000000D+00 0.000000000000D+00 0.320145591682D-08 0.257596095281D-08  6 1 -1 25 4 -4 21 2 0.96681984D-01 0.95417781D-01 0.34214890D+06 0.34214890D+06 0.34214890D+06 0.10803529D+01  1  2  1  4  6  5       -4 0.309055293676D-02 0.100000000000D+01
  </mgrwgt>
  </event>
  <event>
  7     66 0.24864407E-05 0.69396262E+02 0.75467711E-02 0.90096717E-01
        1 -1    0    0  501    0 0.00000000E+00 0.00000000E+00 0.20930264E+04 0.20930264E+04 0.32000000E+00 0.0000E+00 0.9000E+01
       -1 -1    0    0    0  503 0.00000000E+00 0.00000000E+00 -.28994165E+03 0.28994183E+03 0.32000000E+00 0.0000E+00 0.9000E+01
       23  2    1    2    0    0 -.75373228E+03 -.38268714E+01 0.83062762E+03 0.11256460E+04 0.94918801E+02 0.0000E+00 0.0000E+00
       25  1    1    2    0    0 0.74290244E+03 0.42754100E+01 0.98542326E+03 0.12404057E+04 0.12500000E+03 0.0000E+00 0.9000E+01
        4  1    3    3  502    0 -.28756644E+03 -.37929124E+02 0.36044655E+03 0.46266315E+03 0.15500000E+01 0.0000E+00 0.9000E+01
       -4  1    3    3    0  502 -.46616584E+03 0.34102253E+02 0.47018107E+03 0.66298280E+03 0.15500000E+01 0.0000E+00 0.9000E+01
       21  1    1    2  501  503 0.10829833E+02 -.44853860E+00 -.12966160E+02 0.16916568E+02 0.75000000E+00 0.0000E+00 0.9000E+01
#aMCatNLO 2  0  0  2  4 0.39993256D+03 0.00000000D+00  -5  6  0 0.00000000D+00 0.00000000D+00 0.00000000D+00 0.00000000D+00 0.00000000D+00
  <mgrwgt>
 0.3191419317D-03    1    2    0
 0.758294495973386D+03 0.000000000000000D+00 0.000000000000000D+00 0.758294495973386D+03
 0.758294495973386D+03 0.000000000000000D+00 0.000000000000000D+00 -.758294495973386D+03
 0.760475516158837D+03 0.748313858887797D+03 0.405128569934820D+01 0.520381240792405D+02
 0.288097554890362D+03 -.285454256738318D+03 -.380338513325029D+02 0.833634191937645D+01
 0.468015920897574D+03 -.462859602149479D+03 0.339825656331547D+02 -.603744659986170D+02
 0.000000000000000D+00 0.000000000000000D+00 -.000000000000000D+00 -.000000000000000D+00
 0.759026812728301D+03 0.000000000000000D+00 0.000000000000000D+00 0.759026812728301D+03
 0.799511159556258D+03 0.000000000000000D+00 0.000000000000000D+00 -.799511159556258D+03
 0.755152491083569D+03 0.742902442653887D+03 0.427541002957172D+01 0.520381240792405D+02
 0.290132068695857D+03 -.287518774652377D+03 -.379483453069594D+02 0.833634191937645D+01
 0.471343165459522D+03 -.466213500985534D+03 0.341214738778315D+02 -.603744659986170D+02
 0.419102470456121D+02 0.108298329840242D+02 -.448538600443853D+00 -.404843468279568D+02
0.182619241300D-03 0.000000000000D+00 0.000000000000D+00 0.460155811632D-05 0.236829576337D-06  6 1 -1 25 4 -4 21 2 0.32200265D+00 0.44606227D-01 0.57886932D+06 0.57886932D+06 0.57886932D+06 0.10640436D+01  1  2  1  2  6  2       -1 0.319141931659D-03 0.100000000000D+01
  </mgrwgt>
  </event>
  <event>
  7     66 0.24864407E-05 0.30033335E+02 0.75467711E-02 0.91450186E-01
        1 -1    0    0  501    0 0.00000000E+00 0.00000000E+00 0.15786464E+04 0.15786464E+04 0.32000000E+00 0.0000E+00 0.9000E+01
       -1 -1    0    0    0  503 0.00000000E+00 0.00000000E+00 -.29941500E+03 0.29941518E+03 0.32000000E+00 0.0000E+00 0.9000E+01
       23  2    1    2    0    0 -.51812584E+03 -.40368642E+03 0.46480259E+03 0.80796750E+03 0.73163651E+02 0.0000E+00 0.0000E+00
       25  1    1    2    0    0 0.51768502E+03 0.37996627E+03 0.81650379E+03 0.10462675E+04 0.12500000E+03 0.0000E+00 0.9000E+01
        4  1    3    3  502    0 -.40250978E+03 -.28895719E+03 0.37929090E+03 0.62399870E+03 0.15500000E+01 0.0000E+00 0.9000E+01
       -4  1    3    3    0  502 -.11561606E+03 -.11472923E+03 0.85511691E+02 0.18396880E+03 0.15500000E+01 0.0000E+00 0.9000E+01
       21  1    1    2  501  503 0.44081456E+00 0.23720148E+02 -.20750177E+01 0.23826623E+02 0.75000000E+00 0.0000E+00 0.9000E+01
#aMCatNLO 2  0  0  2  4 0.39993256D+03 0.00000000D+00  -5  6  0 0.00000000D+00 0.00000000D+00 0.00000000D+00 0.00000000D+00 0.00000000D+00
  <mgrwgt>
 0.7423576985D-04    1    2    0
 0.670051935922425D+03 0.000000000000000D+00 0.000000000000000D+00 0.670051935922425D+03
 0.670051935922425D+03 0.000000000000000D+00 0.000000000000000D+00 -.670051935922425D+03
 0.673884504710890D+03 0.517905524194319D+03 0.391831299504386D+03 0.129373205986225D+03
 0.495645467185401D+03 -.402474844524203D+03 -.280217387919221D+03 -.718097777073702D+02
 0.170573899948558D+03 -.115430679670116D+03 -.111613911585165D+03 -.575634282788550D+02
 0.000000000000000D+00 0.000000000000000D+00 0.000000000000000D+00 -.000000000000000D+00
 0.674801877087036D+03 0.000000000000000D+00 0.000000000000000D+00 0.674801877087036D+03
 0.700450026583401D+03 0.000000000000000D+00 0.000000000000000D+00 -.700450026583401D+03
 0.666884231607920D+03 0.517685024837235D+03 0.379966270870721D+03 0.129373205986225D+03
 0.500815433150020D+03 -.402638719905490D+03 -.289035491142055D+03 -.718097777073702D+02
 0.172614189188037D+03 -.115487119495242D+03 -.114650927883381D+03 -.575634282788550D+02
 0.349380497244602D+02 0.440814563497110D+00 0.237201481547143D+02 -.256481494963645D+02
0.197764188381D-04 0.000000000000D+00 0.000000000000D+00 0.217063744843D-06 0.236625398913D-08  6 1 -1 25 4 -4 21 2 0.24286725D+00 0.46063589D-01 0.44643301D+06 0.44643301D+06 0.44643301D+06 0.10720060D+01  1  2  1  2  6  2       -1 0.742357698491D-04 0.100000000000D+01
  </mgrwgt>
  </event>
  <event>
  7     66 0.24864407E-05 0.65869621E+02 0.75467711E-02 0.93990855E-01
        1 -1    0    0  501    0 0.00000000E+00 0.00000000E+00 0.49914715E+03 0.49914726E+03 0.32000000E+00 0.0000E+00 0.9000E+01
       -1 -1    0    0    0  503 0.00000000E+00 0.00000000E+00 -.64512187E+03 0.64512194E+03 0.32000000E+00 0.0000E+00 0.9000E+01
       23  2    1    2    0    0 -.37146996E+03 0.35031007E+03 0.31435606E+02 0.51946671E+03 0.90279496E+02 0.0000E+00 0.0000E+00
       25  1    1    2    0    0 0.38093711E+03 -.35554985E+03 -.98123262E+02 0.54477698E+03 0.12500000E+03 0.0000E+00 0.9000E+01
        4  1    3    3  502    0 -.15225234E+03 0.12572677E+03 -.29832878E+02 0.19970077E+03 0.15500000E+01 0.0000E+00 0.9000E+01
       -4  1    3    3    0  502 -.21921763E+03 0.22458331E+03 0.61268484E+02 0.31976595E+03 0.15500000E+01 0.0000E+00 0.9000E+01
       21  1    1    2  501  503 -.94671504E+01 0.52397800E+01 -.79287057E+02 0.80025509E+02 0.75000000E+00 0.0000E+00 0.9000E+01
#aMCatNLO 2  0  0  2  1 0.37619269D+02 0.00000000D+00  -5  6  0 0.00000000D+00 0.00000000D+00 0.00000000D+00 0.00000000D+00 0.00000000D+00
  <mgrwgt>
 0.2957574863D-03    1    2    0
 0.531048563926606D+03 0.000000000000000D+00 0.000000000000000D+00 0.531048563926606D+03
 0.531048563926606D+03 0.000000000000000D+00 0.000000000000000D+00 -.531048563926606D+03
 0.534567363007331D+03 0.376149469894586D+03 -.352900039772918D+03 -.641124310793608D+02
 0.200171092458790D+03 -.154007928306560D+03 0.126680202027522D+03 -.173824822488959D+02
 0.327358672387091D+03 -.222141541588027D+03 0.226219837745396D+03 0.814949133282567D+02
 0.000000000000000D+00 -.000000000000000D+00 0.000000000000000D+00 -.000000000000000D+00
 0.531467389045776D+03 0.000000000000000D+00 0.000000000000000D+00 0.531467389045776D+03
 0.605885871586616D+03 0.000000000000000D+00 0.000000000000000D+00 -.605885871586616D+03
 0.539688971750175D+03 0.380937112282321D+03 -.355549854304374D+03 -.641124310793608D+02
 0.198183741460031D+03 -.152232578767979D+03 0.125697600023288D+03 -.173824822488959D+02
 0.324279531633273D+03 -.219237383068226D+03 0.224612474282508D+03 0.814949133282567D+02
 0.752010157889116D+02 -.946715044611573D+01 0.523977999857837D+01 -.744184825408396D+02
0.455008047833D-04 0.000000000000D+00 0.000000000000D+00 0.230106224424D-04 0.124894231991D-05  6 1 -1 25 4 -4 21 2 0.76791614D-01 0.99249183D-01 0.27983042D+06 0.27983042D+06 0.27983042D+06 0.10867953D+01  1  2  1  2  6  2       -1 0.295757486251D-03 0.100000000000D+01
  </mgrwgt>
  </event>
  <event>
  7     66 0.24864407E-05 0.17692686E+02 0.75467711E-02 0.92679812E-01
        1 -1    0    0  503    0 0.00000000E+00 0.00000000E+00 0.15365245E+04 0.15365245E+04 0.32000000E+00 0.0000E+00 0.9000E+01
       -1 -1    0    0    0  501 0.00000000E+00 0.00000000E+00 -.34664466E+03 0.34664481E+03 0.32000000E+00 0.0000E+00 0.9000E+01
       23  2    1    2    0    0 0.45479694E+03 0.36904068E+03 0.72567356E+03 0.93644784E+03 0.85446744E+02 0.0000E+00 0.0000E+00
       25  1    1    2    0    0 -.43521511E+03 -.36148866E+03 0.10737317E+03 0.58927094E+03 0.12500000E+03 0.0000E+00 0.9000E+01
        4  1    3    3  502    0 0.39943311E+03 0.35409194E+03 0.64070738E+03 0.83392821E+03 0.15500000E+01 0.0000E+00 0.9000E+01
       -4  1    3    3    0  502 0.55363825E+02 0.14948740E+02 0.84966183E+02 0.10251962E+03 0.15500000E+01 0.0000E+00 0.9000E+01
       21  1    1    2  503  501 -.19581826E+02 -.75520211E+01 0.35683311E+03 0.35745058E+03 0.75000000E+00 0.0000E+00 0.9000E+01
#aMCatNLO 2  0  0  1  1 0.18700371D+03 0.00000000D+00  -5  6  0 0.00000000D+00 0.00000000D+00 0.00000000D+00 0.00000000D+00 0.00000000D+00
  <mgrwgt>
 0.1093110846D-03    1    2    0
 0.639024734899331D+03 0.000000000000000D+00 0.000000000000000D+00 0.639024734899331D+03
 0.639024734899331D+03 0.000000000000000D+00 0.000000000000000D+00 -.639024734899331D+03
 0.642281202826082D+03 -.444987156691154D+03 -.365257397483137D+03 -.255878110567292D+03
 0.569866061527288D+03 0.390753412128834D+03 0.350812489403194D+03 0.221336161232254D+03
 0.659022054452912D+02 0.542337445623206D+02 0.144449080799426D+02 0.345419493350381D+02
 0.000000000000000D+00 -.000000000000000D+00 -.000000000000000D+00 0.000000000000000D+00
 0.832646138471835D+03 0.000000000000000D+00 0.000000000000000D+00 0.832646138471835D+03
 0.639679885002212D+03 0.000000000000000D+00 0.000000000000000D+00 -.639679885002212D+03
 0.633391547877164D+03 -.435215109979969D+03 -.361488663030899D+03 -.255878110567292D+03
 0.578002839320495D+03 0.399546441933082D+03 0.354203651494642D+03 0.221336161232254D+03
 0.668273964505817D+02 0.552504942490788D+02 0.148370326457617D+02 0.345419493350381D+02
 0.194104239825806D+03 -.195818262021916D+02 -.755202110950521D+01 0.192966253469623D+03
0.347769207340D-04 0.000000000000D+00 0.000000000000D+00 0.569964813579D-06 0.835741540768D-08  6 1 -1 25 4 -4 21 2 0.23638813D+00 0.53329902D-01 0.35494599D+06 0.35494599D+06 0.35494599D+06 0.10791890D+01  1  2  1  1  6  1        1 0.109311084613D-03 0.100000000000D+01
  </mgrwgt>
  </event>
  <event>
  7     66 0.24864407E-05 0.72545674E+02 0.75467711E-02 0.94230447E-01
       21 -1    0    0  501  503 0.00000000E+00 0.00000000E+00 0.17433757E+04 0.17433759E+04 0.75000000E+00 0.0000E+00 0.9000E+01
       -3 -1    0    0    0  501 0.00000000E+00 0.00000000E+00 -.41199854E+03 0.41199885E+03 0.50000000E+00 0.0000E+00 0.9000E+01
       23  2    1    2    0    0 -.21378559E+03 -.39776047E+03 0.16865325E+03 0.49169270E+03 0.96954244E+02 0.0000E+00 0.0000E+00
       25  1    1    2    0    0 0.30344341E+03 0.35853652E+03 -.10709383E+02 0.48617490E+03 0.12500000E+03 0.0000E+00 0.9000E+01
        2  1    3    3  502    0 -.42676627E+02 -.88707524E+02 0.81605450E+02 0.12786661E+03 0.32000000E+00 0.0000E+00 0.9000E+01
       -2  1    3    3    0  502 -.17110896E+03 -.30905295E+03 0.87047800E+02 0.36382609E+03 0.32000000E+00 0.0000E+00 0.9000E+01
       -3  1    1    2    0  503 -.89657826E+02 0.39223953E+02 0.11734333E+04 0.11775071E+04 0.50000000E+00 0.0000E+00 0.9000E+01
#aMCatNLO 2  0  0  1  5 0.72625032D+02 0.00000000D+00  -5  6  0 0.00000000D+00 0.00000000D+00 0.00000000D+00 0.00000000D+00 0.00000000D+00
  <mgrwgt>
 0.6668416484D-05    1    2    0
 0.480026493256996D+03 0.000000000000000D+00 0.000000000000000D+00 0.480026493256996D+03
 0.480026493256996D+03 0.000000000000000D+00 0.000000000000000D+00 -.480026493256996D+03
 0.483268437813838D+03 0.257910108572228D+03 0.378456658297905D+03 -.904229875268008D+02
 0.117172529706992D+03 -.535446386771007D+02 -.839499219039138D+02 0.617639376918398D+02
 0.359612018993163D+03 -.204365469895127D+03 -.294506736393991D+03 0.286590498349611D+02
 0.000000000000000D+00 -.000000000000000D+00 0.000000000000000D+00 0.000000000000000D+00
 0.148123718053892D+04 0.000000000000000D+00 0.000000000000000D+00 0.148123718053892D+04
 0.484911254558725D+03 0.000000000000000D+00 0.000000000000000D+00 -.484911254558725D+03
 0.494396256402852D+03 0.303443412123950D+03 0.358536521585260D+03 -.904229875268008D+02
 0.116209115209702D+03 -.426752298253202D+02 -.887051250941931D+02 0.617639376918398D+02
 0.354422493840188D+03 -.171110356550468D+03 -.309055349223448D+03 0.286590498349611D+02
 0.100112056964490D+04 -.896578257481620D+02 0.392239527323815D+02 0.996325925980192D+03
0.112072845688D-04 0.000000000000D+00 0.000000000000D+00 0.177788034146D-05 0.256799905755D-09  6 21 -3 25 2 -2 -3 2 0.26821165D+00 0.63384419D-01 0.26812608D+06 0.26812608D+06 0.26812608D+06 0.10881795D+01  1  2  1  5  6  1        3 0.666841648372D-05 0.100000000000D+01
  </mgrwgt>
  </event>
  <event>
  7     66 0.24864407E-05 0.45009088E+02 0.75467711E-02 0.93284072E-01
        1 -1    0    0  503    0 0.00000000E+00 0.00000000E+00 0.14576777E+04 0.14576778E+04 0.32000000E+00 0.0000E+00 0.9000E+01
       -1 -1    0    0    0  501 0.00000000E+00 0.00000000E+00 -.25900668E+03 0.25900687E+03 0.32000000E+00 0.0000E+00 0.9000E+01
       23  2    1    2    0    0 0.53370167E+03 0.60844897E+02 0.35458824E+03 0.65011286E+03 0.91511415E+02 0.0000E+00 0.0000E+00
       25  1    1    2    0    0 -.47772695E+03 -.12063001E+03 0.50053758E+03 0.71339856E+03 0.12500000E+03 0.0000E+00 0.9000E+01
        4  1    3    3  502    0 0.32153084E+03 0.42816429E+02 0.16014343E+03 0.36175081E+03 0.15500000E+01 0.0000E+00 0.9000E+01
       -4  1    3    3    0  502 0.21217083E+03 0.18028468E+02 0.19444480E+03 0.28836205E+03 0.15500000E+01 0.0000E+00 0.9000E+01
       21  1    1    2  503  501 -.55974720E+02 0.59785111E+02 0.34354524E+03 0.35317322E+03 0.75000000E+00 0.0000E+00 0.9000E+01
#aMCatNLO 2  0  0  1  2 0.14857657D+03 0.00000000D+00  -5  6  0 0.00000000D+00 0.00000000D+00 0.00000000D+00 0.00000000D+00 0.00000000D+00
  <mgrwgt>
 0.8761837315D-04    1    2    0
 0.529437393164757D+03 0.000000000000000D+00 0.000000000000000D+00 0.529437393164757D+03
 0.529437393164757D+03 0.000000000000000D+00 0.000000000000000D+00 -.529437393164757D+03
 0.532861150747204D+03 -.505326128145256D+03 -.911520615359741D+02 0.682115229788938D+02
 0.321951751202393D+03 0.304210097507487D+03 0.613569124218707D+02 -.856999181728210D+02
 0.204061884379918D+03 0.201116030637769D+03 0.297951491141034D+02 0.174883951939272D+02
 0.000000000000000D+00 -.000000000000000D+00 0.000000000000000D+00 0.000000000000000D+00
 0.697773385921561D+03 0.000000000000000D+00 0.000000000000000D+00 0.697773385921561D+03
 0.541074483404180D+03 0.000000000000000D+00 0.000000000000000D+00 -.541074483404180D+03
 0.512886392461337D+03 -.477726952207298D+03 -.120630008039581D+03 0.682115229788938D+02
 0.335530339103488D+03 0.321562243352107D+03 0.428235464952807D+02 -.856999181728210D+02
 0.213620575662950D+03 0.212139428948181D+03 0.180213502726910D+02 0.174883951939272D+02
 0.176810562097967D+03 -.559747200929894D+02 0.597851112716093D+02 0.156698902517381D+03
0.144298732314D-04 0.000000000000D+00 0.000000000000D+00 0.331838836117D-04 0.320278778797D-07  6 1 -1 25 4 -4 21 2 0.22425781D+00 0.39847141D-01 0.31783314D+06 0.31783314D+06 0.31783314D+06 0.10827014D+01  1  2  1  1  6  1        1 0.876183731480D-04 0.100000000000D+01
  </mgrwgt>
  </event>
  <event>
  7     66 0.24864407E-05 0.15836881E+02 0.75467711E-02 0.94485585E-01
        1 -1    0    0  503    0 0.00000000E+00 0.00000000E+00 0.11552202E+04 0.11552203E+04 0.32000000E+00 0.0000E+00 0.9000E+01
       -1 -1    0    0    0  501 0.00000000E+00 0.00000000E+00 -.27394358E+03 0.27394377E+03 0.32000000E+00 0.0000E+00 0.9000E+01
       23  2    1    2    0    0 -.91699199E+02 0.48453025E+03 0.27385603E+03 0.56851163E+03 0.70922783E+02 0.0000E+00 0.0000E+00
       25  1    1    2    0    0 0.79160020E+02 -.47848241E+03 0.36965935E+03 0.62248274E+03 0.12500000E+03 0.0000E+00 0.9000E+01
        4  1    3    3  502    0 0.10933564E+02 0.44773459E+02 0.33096970E+02 0.56762817E+02 0.15500000E+01 0.0000E+00 0.9000E+01
       -4  1    3    3    0  502 -.10263276E+03 0.43975680E+03 0.24075906E+03 0.51174882E+03 0.15500000E+01 0.0000E+00 0.9000E+01
       21  1    1    2  503  501 0.12539179E+02 -.60478466E+01 0.23776128E+03 0.23816968E+03 0.75000000E+00 0.0000E+00 0.9000E+01
#aMCatNLO 2  0  0  1  2 0.14857657D+03 0.00000000D+00  -5  6  0 0.00000000D+00 0.00000000D+00 0.00000000D+00 0.00000000D+00 0.00000000D+00
  <mgrwgt>
 0.9464679447D-04    1    2    0
 0.501039354981310D+03 0.000000000000000D+00 0.000000000000000D+00 0.501039354981310D+03
 0.501039354981310D+03 0.000000000000000D+00 0.000000000000000D+00 -.501039354981310D+03
 0.506325845826102D+03 0.854708875480079D+02 -.481526241104643D+03 0.395988467118244D+02
 0.458832729051772D+02 0.115627959032187D+02 0.443072425090671D+02 0.290598427975772D+01
 0.449869591231341D+03 -.970336834512266D+02 0.437218998595576D+03 -.425048309915821D+02
 0.000000000000000D+00 0.000000000000000D+00 -.000000000000000D+00 0.000000000000000D+00
 0.631084648609283D+03 0.000000000000000D+00 0.000000000000000D+00 0.631084648609283D+03
 0.501460419435380D+03 0.000000000000000D+00 0.000000000000000D+00 -.501460419435380D+03
 0.502399037625126D+03 0.791600200090460D+02 -.478482408848971D+03 0.395988467118244D+02
 0.460104208575572D+02 0.109878830220985D+02 0.445845321781896D+02 0.290598427975772D+01
 0.453765949531274D+03 -.102687082405498D+03 0.439945723247132D+03 -.425048309915821D+02
 0.130369660030706D+03 0.125391793743539D+02 -.604784657635009D+01 0.129624229173903D+03
0.103830420901D-04 0.000000000000D+00 0.000000000000D+00 0.800232536255D-07 0.268685773223D-08  6 1 -1 25 4 -4 21 2 0.17772583D+00 0.42145093D-01 0.25626217D+06 0.25626217D+06 0.25626217D+06 0.10896517D+01  1  2  1  1  6  1        1 0.946467944707D-04 0.100000000000D+01
  </mgrwgt>
  </event>
  <event>
  6     66 0.24864407E-05 0.19782220E+02 0.75467711E-02 0.95230437E-01
        1 -1    0    0  501    0 0.00000000E+00 0.00000000E+00 0.50395602E+03 0.50395612E+03 0.32000000E+00 0.0000E+00 0.9000E+01
       -1 -1    0    0    0  501 0.00000000E+00 0.00000000E+00 -.47707044E+03 0.47707055E+03 0.32000000E+00 0.0000E+00 0.9000E+01
       23  2    1    2    0    0 -.19306488E+03 -.41968871E+03 0.13775824E+03 0.48977275E+03 0.86529500E+02 0.0000E+00 0.0000E+00
       25  1    1    2    0    0 0.19306488E+03 0.41968871E+03 -.11087266E+03 0.49125391E+03 0.12500000E+03 0.0000E+00 0.9000E+01
        4  1    3    3  502    0 -.20223529E+03 -.39974554E+03 0.13104689E+03 0.46676686E+03 0.15500000E+01 0.0000E+00 0.9000E+01
       -4  1    3    3    0  502 0.91704100E+01 -.19943167E+02 0.67113541E+01 0.23005893E+02 0.15500000E+01 0.0000E+00 0.9000E+01
#aMCatNLO 1  0  0  5  4 0.30923595D+01 0.00000000D+00  -5  6  0 0.00000000D+00 0.00000000D+00 0.00000000D+00 0.00000000D+00 0.00000000D+00
  <mgrwgt>
 0.2427749393D-02    5    2    0
 0.490329094837090D+03 0.000000000000000D+00 0.000000000000000D+00 0.490329094837090D+03
 0.490329094837090D+03 -.000000000000000D+00 -.000000000000000D+00 -.490329094837090D+03
 0.494478168546575D+03 0.193064879709225D+03 0.419688709630937D+03 -.124382468219429D+03
 0.463490968857657D+03 -.202303189081233D+03 -.399867528506278D+03 0.118335360507555D+03
 0.226890522699487D+02 0.923830937200842D+01 -.198211811246587D+02 0.604710771187334D+01
 0.000000000000000D+00 -.000000000000000D+00 0.000000000000000D+00 0.000000000000000D+00
 0.490329094837090D+03 0.000000000000000D+00 0.000000000000000D+00 0.490329094837090D+03
 0.490329094837090D+03 -.000000000000000D+00 -.000000000000000D+00 -.490329094837090D+03
 0.493515404374130D+03 0.193669211304824D+03 0.418392090787232D+03 -.123986891701571D+03
 0.464389887045064D+03 -.201735626969958D+03 -.401085256875623D+03 0.118706868873627D+03
 0.196315451302427D+02 0.102780052157102D+02 -.164030030041064D+02 0.327134000584876D+01
 0.312135312474439D+01 -.221158955057617D+01 -.903830907501999D+00 0.200868282209461D+01
0.290982469972D-05 0.000000000000D+00 0.000000000000D+00 0.523567117810D-06 0.000000000000D+00  6 1 -1 25 4 -4 21 0 0.77531711D-01 0.73395468D-01 0.22494972D+06 0.22494972D+06 0.22494972D+06 0.10939256D+01  1  2  2  4  6  5       -4 0.299717691894D-04 0.100000000000D+01
0.967700555965D-06 0.000000000000D+00 -.111744930214D-07 0.523567117810D-06 0.000000000000D+00  6 1 -1 25 4 -4 21 2 0.77531711D-01 0.73395468D-01 0.22494972D+06 0.22494972D+06 0.22494972D+06 0.10939256D+01  1  2  3  4  6  5       -4 0.119278482558D-04 0.100000000000D+01
-.817431427974D-06 0.000000000000D+00 0.000000000000D+00 0.523567117810D-06 0.000000000000D+00  6 1 -1 25 4 -4 21 2 0.77531711D-01 0.73395468D-01 0.22494972D+06 0.22494972D+06 0.22494972D+06 0.10939256D+01  1  2 15  4  6  5       -4 -.100756354560D-04 0.100000000000D+01
-.401390807627D-04 0.000000000000D+00 0.000000000000D+00 0.523567117810D-06 0.000000000000D+00  6 1 -1 25 4 -4 21 2 0.77531711D-01 0.73395468D-01 0.22494972D+06 0.22494972D+06 0.22494972D+06 0.10939256D+01  1  2  4  4  6  5       -4 -.494753115017D-03 0.100000000000D+01
0.234511200914D-03 0.000000000000D+00 0.000000000000D+00 0.523567117810D-06 0.636349326049D-05  6 1 -1 25 4 -4 21 2 0.77531711D-01 0.73395468D-01 0.22486317D+06 0.22486317D+06 0.22486317D+06 0.10939383D+01  1  2 11  4  6  5       -4 0.289067852554D-02 0.100000000000D+01
  </mgrwgt>
  </event>
  <event>
  7     66 0.24864407E-05 0.61732728E+02 0.75467711E-02 0.92462725E-01
        1 -1    0    0  501    0 0.00000000E+00 0.00000000E+00 0.92537883E+03 0.92537888E+03 0.32000000E+00 0.0000E+00 0.9000E+01
       -1 -1    0    0    0  503 0.00000000E+00 0.00000000E+00 -.48309170E+03 0.48309181E+03 0.32000000E+00 0.0000E+00 0.9000E+01
       23  2    1    2    0    0 0.28217116E+03 0.52575742E+03 0.39387001E+03 0.72213459E+03 0.10150546E+03 0.0000E+00 0.0000E+00
       25  1    1    2    0    0 -.27451508E+03 -.51866346E+03 0.12178049E+03 0.61223019E+03 0.12500000E+03 0.0000E+00 0.9000E+01
        4  1    3    3  502    0 0.23962404E+03 0.34869255E+03 0.27072741E+03 0.50229663E+03 0.15500000E+01 0.0000E+00 0.9000E+01
       -4  1    3    3    0  502 0.42547116E+02 0.17706487E+03 0.12314261E+03 0.21983796E+03 0.15500000E+01 0.0000E+00 0.9000E+01
       21  1    1    2  501  503 -.76560814E+01 -.70939581E+01 -.73363372E+02 0.74105915E+02 0.75000000E+00 0.0000E+00 0.9000E+01
#aMCatNLO 2  0  0  2  5 0.72313712D+02 0.00000000D+00  -5  6  0 0.00000000D+00 0.00000000D+00 0.00000000D+00 0.00000000D+00 0.00000000D+00
  <mgrwgt>
 0.1784886638D-03    1    2    0
 0.615330192186309D+03 0.000000000000000D+00 0.000000000000000D+00 0.615330192186309D+03
 0.615330192186309D+03 0.000000000000000D+00 0.000000000000000D+00 -.615330192186309D+03
 0.617492307913689D+03 -.278341822175959D+03 -.522209242740636D+03 -.124479263962286D+03
 0.427743978096231D+03 0.236998153175321D+03 0.346256947969162D+03 0.830837659964737D+02
 0.185424098362698D+03 0.413436690006378D+02 0.175952294771473D+03 0.413954979658126D+02
 0.000000000000000D+00 -.000000000000000D+00 -.000000000000000D+00 -.000000000000000D+00
 0.615598041559038D+03 0.000000000000000D+00 0.000000000000000D+00 0.615598041559038D+03
 0.726189947359825D+03 0.000000000000000D+00 0.000000000000000D+00 -.726189947359825D+03
 0.612772721535331D+03 -.274515080065174D+03 -.518663466920541D+03 -.124479263962286D+03
 0.431229701217755D+03 0.239669992715586D+03 0.348732616243317D+03 0.830837659964737D+02
 0.186702221541559D+03 0.425011687464826D+02 0.177024808803452D+03 0.413954979658126D+02
 0.111083344624217D+03 -.765608139689414D+01 -.709395812622838D+01 -.110591905800786D+03
0.393279512390D-04 0.000000000000D+00 0.000000000000D+00 0.463986274846D-06 0.267439740862D-07  6 1 -1 25 4 -4 21 2 0.14236569D+00 0.74321660D-01 0.36944460D+06 0.36944460D+06 0.36944460D+06 0.10779243D+01  1  2  1  2  6  2       -1 0.178488663812D-03 0.100000000000D+01
  </mgrwgt>
  </event>
  <event>
  7     66 0.24864407E-05 0.76125193E+02 0.75467711E-02 0.93846067E-01
        1 -1    0    0  503    0 0.00000000E+00 0.00000000E+00 0.92670598E+03 0.92670603E+03 0.32000000E+00 0.0000E+00 0.9000E+01
       -1 -1    0    0    0  501 0.00000000E+00 0.00000000E+00 -.35209529E+03 0.35209543E+03 0.32000000E+00 0.0000E+00 0.9000E+01
       23  2    1    2    0    0 -.20054442E+03 -.47110388E+03 0.19754867E+03 0.55603841E+03 0.89422037E+02 0.0000E+00 0.0000E+00
       25  1    1    2    0    0 0.22249334E+03 0.47122771E+03 0.24562608E+03 0.58950489E+03 0.12500000E+03 0.0000E+00 0.9000E+01
        4  1    3    3  502    0 -.77430659E+02 -.23861147E+03 0.13793997E+03 0.28628793E+03 0.15500000E+01 0.0000E+00 0.9000E+01
       -4  1    3    3    0  502 -.12311376E+03 -.23249241E+03 0.59608697E+02 0.26975048E+03 0.15500000E+01 0.0000E+00 0.9000E+01
       21  1    1    2  503  501 -.21948920E+02 -.12383309E+00 0.13143594E+03 0.13325817E+03 0.75000000E+00 0.0000E+00 0.9000E+01
#aMCatNLO 2  0  0  1  2 0.14857657D+03 0.00000000D+00  -5  6  0 0.00000000D+00 0.00000000D+00 0.00000000D+00 0.00000000D+00 0.00000000D+00
  <mgrwgt>
 0.2214163374D-03    1    2    0
 0.528058665104305D+03 0.000000000000000D+00 0.000000000000000D+00 0.528058665104305D+03
 0.528058665104305D+03 0.000000000000000D+00 0.000000000000000D+00 -.528058665104305D+03
 0.531670337492007D+03 0.211397600910501D+03 0.471165112087105D+03 0.190483398251915D+02
 0.254278307513254D+03 -.826833537108545D+02 -.238643019438004D+03 0.295030500871210D+02
 0.270168685203348D+03 -.128714247199646D+03 -.232522092649100D+03 -.485513899123125D+02
 0.000000000000000D+00 -.000000000000000D+00 -.000000000000000D+00 0.000000000000000D+00
 0.616168988195986D+03 0.000000000000000D+00 0.000000000000000D+00 0.616168988195986D+03
 0.529541419193997D+03 0.000000000000000D+00 0.000000000000000D+00 -.529541419193997D+03
 0.536233796401964D+03 0.222493343165959D+03 0.471227712895159D+03 0.190483398251915D+02
 0.252586856044829D+03 -.774169210465255D+02 -.238613306875045D+03 0.295030500871210D+02
 0.267524738781539D+03 -.123127502607474D+03 -.232490572925786D+03 -.485513899123125D+02
 0.893650161616509D+02 -.219489195119602D+02 -.123833094328048D+00 0.866275690019891D+02
0.259925501503D-04 0.000000000000D+00 0.000000000000D+00 0.187863295516D-04 0.248101991432D-06  6 1 -1 25 4 -4 21 2 0.14256974D+00 0.54168361D-01 0.28718064D+06 0.28718064D+06 0.28718064D+06 0.10859579D+01  1  2  1  1  6  1        1 0.221416337352D-03 0.100000000000D+01
  </mgrwgt>
  </event>
  <event>
  6     66 0.24864407E-05 0.41987535E+02 0.75467711E-02 0.90370618E-01
        1 -1    0    0  501    0 0.00000000E+00 0.00000000E+00 0.25218588E+04 0.25218589E+04 0.32000000E+00 0.0000E+00 0.9000E+01
       -1 -1    0    0    0  501 0.00000000E+00 0.00000000E+00 -.22280919E+03 0.22280942E+03 0.32000000E+00 0.0000E+00 0.9000E+01
       25  1    1    2    0    0 -.33375248E+03 -.64186622E+03 0.13028787E+04 0.14954936E+04 0.12500000E+03 0.0000E+00 0.9000E+01
        4  1    1    2  502    0 0.67184972E+02 0.15658721E+03 0.29059356E+03 0.33686851E+03 0.15500000E+01 0.0000E+00 0.9000E+01
       -4  1    1    2    0  503 0.28120263E+03 0.48704637E+03 0.69549988E+03 0.89443366E+03 0.15500000E+01 0.0000E+00 0.9000E+01
       21  1    1    2  503  502 -.14635124E+02 -.17673636E+01 0.10077470E+02 0.17872558E+02 0.75000000E+00 0.0000E+00 0.9000E+01
#aMCatNLO 2  0  0  5  4 0.71347250D+01 0.00000000D+00  -5  6  0 0.00000000D+00 0.00000000D+00 0.00000000D+00 0.00000000D+00 0.00000000D+00
  <mgrwgt>
 0.1019905251D-02    1    2    0
 0.749595672110820D+03 0.000000000000000D+00 0.000000000000000D+00 0.749595672110820D+03
 0.749595672110820D+03 -.000000000000000D+00 -.000000000000000D+00 -.749595672110820D+03
 0.751847019928195D+03 -.339494024245923D+03 -.652318549781376D+03 0.941979749641109D+02
 0.168396767033552D+03 0.658432291499639D+02 0.154165052800716D+03 0.159773845609996D+02
 0.578947557259894D+03 0.273650795095959D+03 0.498153496980660D+03 -.110175359525111D+03
 0.000000000000000D+00 -.000000000000000D+00 0.000000000000000D+00 0.000000000000000D+00
 0.749595672110820D+03 0.000000000000000D+00 0.000000000000000D+00 0.749595672110820D+03
 0.749595672110820D+03 -.000000000000000D+00 -.000000000000000D+00 -.749595672110820D+03
 0.739872406172036D+03 -.333739342839092D+03 -.641842736379054D+03 0.918810655879560D+02
 0.171043052169059D+03 0.671527032924371D+02 0.156548817565771D+03 0.154501732865532D+02
 0.570982205807036D+03 0.281260170155079D+03 0.487072813847111D+03 -.983538003519034D+02
 0.172936800735097D+02 -.146735306084243D+02 -.177889503382764D+01 -.897743852260581D+01
0.717780047637D-03 0.000000000000D+00 0.000000000000D+00 0.543750335140D-05 0.540706929336D-06  6 1 -1 25 4 -4 21 2 0.38797830D+00 0.34278356D-01 0.54887163D+06 0.54887163D+06 0.54887163D+06 0.10656597D+01  1  2  1  4  6  5       -4 0.101990525130D-02 0.100000000000D+01
  </mgrwgt>
  </event>
  <event>
  7     66 0.24864407E-05 0.84479737E+02 0.75467711E-02 0.95428929E-01
        1 -1    0    0  501    0 0.00000000E+00 0.00000000E+00 0.83511361E+03 0.83511367E+03 0.32000000E+00 0.0000E+00 0.9000E+01
       -1 -1    0    0    0  503 0.00000000E+00 0.00000000E+00 -.19494451E+04 0.19494451E+04 0.32000000E+00 0.0000E+00 0.9000E+01
       23  2    1    2    0    0 -.89561566E+02 -.41836541E+03 -.75540955E+02 0.44695914E+03 0.10495309E+03 0.0000E+00 0.0000E+00
       25  1    1    2    0    0 0.11305066E+03 0.44072978E+03 0.56350625E+03 0.73497447E+03 0.12500000E+03 0.0000E+00 0.9000E+01
        4  1    3    3  502    0 -.46570114E+02 -.20187781E+03 -.89733225E+02 0.22578282E+03 0.15500000E+01 0.0000E+00 0.9000E+01
       -4  1    3    3    0  502 -.42991453E+02 -.21648760E+03 0.14192270E+02 0.22117633E+03 0.15500000E+01 0.0000E+00 0.9000E+01
       21  1    1    2  501  503 -.23489090E+02 -.22364372E+02 -.16022968E+04 0.16026252E+04 0.75000000E+00 0.0000E+00 0.9000E+01
#aMCatNLO 2  0  0  2  1 0.13999532D+02 0.00000000D+00  -5  6  0 0.00000000D+00 0.00000000D+00 0.00000000D+00 0.00000000D+00 0.00000000D+00
  <mgrwgt>
 0.2816714795D-04    1    2    0
 0.538006748331576D+03 0.000000000000000D+00 0.000000000000000D+00 0.538006748331576D+03
 0.538006748331576D+03 0.000000000000000D+00 0.000000000000000D+00 -.538006748331576D+03
 0.540148868701462D+03 0.101137873991694D+03 0.429387425852652D+03 0.285540486312436D+03
 0.293925636465850D+03 -.529274549064205D+02 -.207926882622499D+03 -.200891452709849D+03
 0.241938991495840D+03 -.482104190852732D+02 -.221460543230153D+03 -.846490336025870D+02
 0.000000000000000D+00 -.000000000000000D+00 -.000000000000000D+00 -.000000000000000D+00
 0.538356882913039D+03 0.000000000000000D+00 0.000000000000000D+00 0.538356882913039D+03
 0.302403102860185D+04 0.000000000000000D+00 0.000000000000000D+00 -.302403102860185D+04
 0.551526587863551D+03 0.113050662285152D+03 0.440729798803935D+03 0.285540486312436D+03
 0.288582083833686D+03 -.465709035069156D+02 -.201874699465952D+03 -.200891452709849D+03
 0.236393510135806D+03 -.429906682961990D+02 -.216490727708883D+03 -.846490336025870D+02
 0.248588572968184D+04 -.234890904820375D+02 -.223643716291004D+02 -.248567414568881D+04
0.444916125823D-03 0.000000000000D+00 0.000000000000D+00 0.171967159568D-06 0.293000071731D-08  6 1 -1 25 4 -4 21 2 0.12847901D+00 0.29991461D+00 0.21724176D+06 0.21724176D+06 0.21724176D+06 0.10950778D+01  1  2  1  2  6  2       -1 0.281671479483D-04 0.100000000000D+01
  </mgrwgt>
  </event>
  <event>
  7     66 0.24864407E-05 0.84453390E+02 0.75467711E-02 0.95037313E-01
        1 -1    0    0  503    0 0.00000000E+00 0.00000000E+00 0.11707961E+04 0.11707961E+04 0.32000000E+00 0.0000E+00 0.9000E+01
       -1 -1    0    0    0  501 0.00000000E+00 0.00000000E+00 -.23793161E+03 0.23793182E+03 0.32000000E+00 0.0000E+00 0.9000E+01
       23  2    1    2    0    0 -.44268228E+03 0.10940271E+03 0.18452902E+03 0.50053611E+03 0.92460209E+02 0.0000E+00 0.0000E+00
       25  1    1    2    0    0 0.44915009E+03 -.12470801E+03 0.65617165E+03 0.81453921E+03 0.12500000E+03 0.0000E+00 0.9000E+01
        4  1    3    3  502    0 -.23321522E+03 0.10043473E+02 0.92185321E+02 0.25097957E+03 0.15500000E+01 0.0000E+00 0.9000E+01
       -4  1    3    3    0  502 -.20946706E+03 0.99359232E+02 0.92343694E+02 0.24955654E+03 0.15500000E+01 0.0000E+00 0.9000E+01
       21  1    1    2  503  501 -.64678141E+01 0.15305302E+02 0.92163792E+02 0.93652613E+02 0.75000000E+00 0.0000E+00 0.9000E+01
#aMCatNLO 2  0  0  1  2 0.13393812D+03 0.00000000D+00  -5  6  0 0.00000000D+00 0.00000000D+00 0.00000000D+00 0.00000000D+00 0.00000000D+00
  <mgrwgt>
 0.3104128156D-03    1    2    0
 0.505561422357061D+03 0.000000000000000D+00 0.000000000000000D+00 0.505561422357061D+03
 0.505561422357061D+03 0.000000000000000D+00 0.000000000000000D+00 -.505561422357061D+03
 0.509060557284775D+03 0.445879017329876D+03 -.116967406700847D+03 0.176148172450663D+03
 0.251422581602960D+03 -.234824693125116D+03 0.138111712648113D+02 -.887689674767403D+02
 0.250639705826387D+03 -.211054324204760D+03 0.103156235436035D+03 -.873792049739231D+02
 0.000000000000000D+00 -.000000000000000D+00 0.000000000000000D+00 0.000000000000000D+00
 0.549208902776619D+03 0.000000000000000D+00 0.000000000000000D+00 0.549208902776619D+03
 0.507213490074974D+03 0.000000000000000D+00 0.000000000000000D+00 -.507213490074974D+03
 0.513751953985983D+03 0.449150091003149D+03 -.124708008237522D+03 0.176148172450663D+03
 0.249745373195262D+03 -.233221899568365D+03 0.100183535212897D+02 -.887689674767403D+02
 0.247762032233545D+03 -.209460377331686D+03 0.993843523030110D+02 -.873792049739231D+02
 0.451630334368042D+02 -.646781410309857D+01 0.153053024132214D+02 0.419954127016451D+02
0.270672489289D-04 0.000000000000D+00 0.000000000000D+00 0.196664000112D-04 0.455389348179D-06  6 1 -1 25 4 -4 21 2 0.18012139D+00 0.36604659D-01 0.23256780D+06 0.23256780D+06 0.23256780D+06 0.10928285D+01  1  2  1  1  6  1        1 0.310412815568D-03 0.100000000000D+01
  </mgrwgt>
  </event>
  <event>
  7     66 0.24864407E-05 0.52715998E+02 0.75467711E-02 0.94516400E-01
        1 -1    0    0  501    0 0.00000000E+00 0.00000000E+00 0.80833864E+03 0.80833871E+03 0.32000000E+00 0.0000E+00 0.9000E+01
       -1 -1    0    0    0  503 0.00000000E+00 0.00000000E+00 -.64974181E+03 0.64974188E+03 0.32000000E+00 0.0000E+00 0.9000E+01
       23  2    1    2    0    0 -.32596817E+02 0.47783495E+03 0.80149929E+02 0.49385739E+03 0.89901723E+02 0.0000E+00 0.0000E+00
       25  1    1    2    0    0 0.58551516E+02 -.48446131E+03 0.39895956E+03 0.64259223E+03 0.12500000E+03 0.0000E+00 0.9000E+01
        4  1    3    3  502    0 -.27949217E+02 0.30837574E+03 0.83679147E+01 0.30975665E+03 0.15500000E+01 0.0000E+00 0.9000E+01
       -4  1    3    3    0  502 -.46475999E+01 0.16945921E+03 0.71782014E+02 0.18410075E+03 0.15500000E+01 0.0000E+00 0.9000E+01
       21  1    1    2  501  503 -.25954699E+02 0.66263567E+01 -.32051266E+03 0.32163097E+03 0.75000000E+00 0.0000E+00 0.9000E+01
#aMCatNLO 2  0  0  2  1 0.98940218D+01 0.00000000D+00  -5  6  0 0.00000000D+00 0.00000000D+00 0.00000000D+00 0.00000000D+00 0.00000000D+00
  <mgrwgt>
 0.3212682503D-03    1    2    0
 0.515085983373097D+03 0.000000000000000D+00 0.000000000000000D+00 0.515085983373097D+03
 0.515085983373097D+03 0.000000000000000D+00 0.000000000000000D+00 -.515085983373097D+03
 0.518746867495151D+03 0.454285389729116D+02 -.481110950382757D+03 0.141215487127365D+03
 0.340559138556317D+03 -.364996314651154D+02 0.310598261967603D+03 -.134822191867049D+03
 0.170865960694726D+03 -.892890750779621D+01 0.170512688415154D+03 -.639329526031595D+01
 0.000000000000000D+00 -.000000000000000D+00 0.000000000000000D+00 -.000000000000000D+00
 0.515616480071525D+03 0.000000000000000D+00 0.000000000000000D+00 0.515616480071525D+03
 0.101860775311549D+04 0.000000000000000D+00 0.000000000000000D+00 -.101860775311549D+04
 0.523161402330056D+03 0.585515161511692D+02 -.484461308093568D+03 0.141215487127365D+03
 0.337756804973854D+03 -.279561493713529D+02 0.308417070861256D+03 -.134822191867049D+03
 0.169601970128384D+03 -.464066734739341D+01 0.169417880560803D+03 -.639329526031595D+01
 0.503704055754724D+03 -.259546994324229D+02 0.662635667150786D+01 -.502991273043969D+03
0.101819286122D-03 0.000000000000D+00 0.000000000000D+00 0.150397831391D-04 0.164354328929D-06  6 1 -1 25 4 -4 21 2 0.12435973D+00 0.99960235D-01 0.25486958D+06 0.25486958D+06 0.25486958D+06 0.10898294D+01  1  2  1  2  6  2       -1 0.321268250299D-03 0.100000000000D+01
  </mgrwgt>
  </event>
  <event>
  7     66 0.24864407E-05 0.42844713E+02 0.75467711E-02 0.90913944E-01
        1 -1    0    0  501    0 0.00000000E+00 0.00000000E+00 0.13545138E+04 0.13545138E+04 0.32000000E+00 0.0000E+00 0.9000E+01
       -1 -1    0    0    0  503 0.00000000E+00 0.00000000E+00 -.99860195E+03 0.99860200E+03 0.32000000E+00 0.0000E+00 0.9000E+01
       23  2    1    2    0    0 -.15881331E+03 0.67117204E+03 -.17561183E+03 0.71728878E+03 0.89275433E+02 0.0000E+00 0.0000E+00
       25  1    1    2    0    0 0.10554937E+03 -.61349945E+03 0.98702344E+03 0.11736109E+04 0.12500000E+03 0.0000E+00 0.9000E+01
        4  1    3    3  502    0 -.54536771E+02 0.37141804E+03 -.12643793E+03 0.39612444E+03 0.15500000E+01 0.0000E+00 0.9000E+01
       -4  1    3    3    0  502 -.10427654E+03 0.29975400E+03 -.49173898E+02 0.32116434E+03 0.15500000E+01 0.0000E+00 0.9000E+01
       21  1    1    2  501  503 0.53263938E+02 -.57672589E+02 -.45549976E+03 0.46221615E+03 0.75000000E+00 0.0000E+00 0.9000E+01
#aMCatNLO 2  0  0  2  1 0.98940218D+01 0.00000000D+00  -5  6  0 0.00000000D+00 0.00000000D+00 0.00000000D+00 0.00000000D+00 0.00000000D+00
  <mgrwgt>
 0.1186363674D-03    1    2    0
 0.853075261242526D+03 0.000000000000000D+00 0.000000000000000D+00 0.853075261242526D+03
 0.853075261242526D+03 0.000000000000000D+00 0.000000000000000D+00 -.853075261242526D+03
 0.855318585307031D+03 0.131848602271337D+03 -.641975472190303D+03 0.535189986413006D+03
 0.484928221480041D+03 -.391766944731563D+02 0.354824483293205D+03 -.328207484152423D+03
 0.365903715697979D+03 -.926719077981806D+02 0.287150988897097D+03 -.206982502260583D+03
 0.000000000000000D+00 0.000000000000000D+00 -.000000000000000D+00 -.000000000000000D+00
 0.856100170004082D+03 0.000000000000000D+00 0.000000000000000D+00 0.856100170004082D+03
 0.157997820082491D+04 0.000000000000000D+00 0.000000000000000D+00 -.157997820082491D+04
 0.830406870651193D+03 0.105549369008241D+03 -.613499453927968D+03 0.535189986413006D+03
 0.498658398364475D+03 -.545217637774855D+02 0.371439662503013D+03 -.328207484152423D+03
 0.378890462281280D+03 -.104291543576023D+03 0.299732380806946D+03 -.206982502260583D+03
 0.728122639532048D+03 0.532639383452677D+02 -.576725893819906D+02 -.723878030820831D+03
0.312991398587D-03 0.000000000000D+00 0.000000000000D+00 0.739560131635D-05 0.904325470210D-08  6 1 -1 25 4 -4 21 2 0.20838670D+00 0.15363104D+00 0.49436556D+06 0.49436556D+06 0.49436556D+06 0.10688584D+01  1  2  1  2  6  2       -1 0.118636367448D-03 0.100000000000D+01
  </mgrwgt>
  </event>
</LesHouchesEvents>
