<event>
 5    0  0.1856407E+000  0.2604819E+03  0.7546771E-02  0.1106854E+00
         21   -1    0    0  502  501  0.00000000000E+00  0.00000000000E+00  0.16792703328E+04  0.16792703328E+04  0.00000000000E+00 0.  1.
         21   -1    0    0  503  502 -0.00000000000E+00 -0.00000000000E+00 -0.40960478540E+02  0.40960478540E+02  0.00000000000E+00 0.  1.
         25    1    1    2    0    0  0.22764716816E+03 -0.20065058362E+02  0.61047029714E+03  0.66372044072E+03  0.12500000000E+03 0.  0.
         21    1    1    2  503  504 -0.11172100293E+03  0.22414557434E+02  0.33037297771E+03  0.34947145704E+03  0.00000000000E+00 0.  1.
         21    1    1    2  504  501 -0.11592616523E+03 -0.23494990728E+01  0.69746657945E+03  0.70703891363E+03  0.00000000000E+00 0.  1.
<mgrwt>
<rscale>  4 0.26048194E+03</rscale>
<asrwt>0</asrwt>
<pdfrwt beam="1">  1       21 0.25834923E+00 0.26048194E+03</pdfrwt>
<pdfrwt beam="2">  1       21 0.63016134E-02 0.26048194E+03</pdfrwt>
<totfact> 0.10168979E+04</totfact>
</mgrwt>
</event>
<event>
 5    0  0.3491896E+000  0.2449573E+03  0.7546771E-02  0.1116534E+00
         21   -1    0    0  502  501  0.00000000000E+00  0.00000000000E+00  0.19783529539E+03  0.19783529539E+03  0.00000000000E+00 0.  1.
         21   -1    0    0  503  502 -0.00000000000E+00 -0.00000000000E+00 -0.63468158014E+03  0.63468158014E+03  0.00000000000E+00 0.  1.
         25    1    1    2    0    0  0.18577991312E+03 -0.13612813286E+03  0.62854270946E+02  0.26948228893E+03  0.12500000000E+03 0.  0.
         21    1    1    2  503  504 -0.11058178675E+02  0.22863852913E+02 -0.44400193052E+01  0.25782801575E+02  0.00000000000E+00 0.  1.
         21    1    1    2  504  501 -0.17472173444E+03  0.11326427995E+03 -0.49526053639E+03  0.53725178502E+03  0.00000000000E+00 0.  1.
<mgrwt>
<rscale>  4 0.24495730E+03</rscale>
<asrwt>0</asrwt>
<pdfrwt beam="1">  1       21 0.30436199E-01 0.24495730E+03</pdfrwt>
<pdfrwt beam="2">  1       21 0.97643320E-01 0.24495730E+03</pdfrwt>
<totfact> 0.86933647E+03</totfact>
</mgrwt>
</event>
<event>
 5    0  0.8348469E+000  0.2701144E+03  0.7546771E-02  0.1101214E+00
         21   -1    0    0  502  501  0.00000000000E+00  0.00000000000E+00  0.95517688307E+02  0.95517688307E+02  0.00000000000E+00 0.  1.
         21   -1    0    0  503  502 -0.00000000000E+00 -0.00000000000E+00 -0.11787278192E+04  0.11787278192E+04  0.00000000000E+00 0.  1.
         25    1    1    2    0    0  0.30275100617E+02  0.24589358115E+03 -0.18988868516E+03  0.33624834233E+03  0.12500000000E+03 0.  0.
         21    1    1    2  503  504  0.31708916946E+02 -0.16070434892E+02 -0.47561104908E+02  0.59378219842E+02  0.00000000000E+00 0. -1.
         21    1    1    2  504  501 -0.61984017563E+02 -0.22982314626E+03 -0.84576034086E+03  0.87861894537E+03  0.00000000000E+00 0.  1.
<mgrwt>
<rscale>  4 0.27011439E+03</rscale>
<asrwt>0</asrwt>
<pdfrwt beam="1">  1       21 0.14695029E-01 0.27011439E+03</pdfrwt>
<pdfrwt beam="2">  1       21 0.18134274E+00 0.27011439E+03</pdfrwt>
<totfact> 0.68548318E+03</totfact>
</mgrwt>
</event>
<event>
 5    0  0.1856407E+000  0.4443916E+03  0.7546771E-02  0.1029408E+00
         21   -1    0    0  502  501  0.00000000000E+00  0.00000000000E+00  0.10538390353E+03  0.10538390353E+03  0.00000000000E+00 0. -1.
         21   -1    0    0  503  502 -0.00000000000E+00 -0.00000000000E+00 -0.18744588403E+04  0.18744588403E+04  0.00000000000E+00 0.  1.
         25    1    1    2    0    0 -0.15230076091E+02  0.42617715250E+03 -0.75919334675E+03  0.87969225203E+03  0.12500000000E+03 0.  0.
         21    1    1    2  503  504  0.33069220116E+02 -0.36559371014E+03 -0.91783582893E+03  0.98852159465E+03  0.00000000000E+00 0.  1.
         21    1    1    2  504  501 -0.17839144025E+02 -0.60583442360E+02 -0.92045761112E+02  0.11162889718E+03  0.00000000000E+00 0.  1.
<mgrwt>
<rscale>  4 0.44439163E+03</rscale>
<asrwt>0</asrwt>
<pdfrwt beam="1">  1       21 0.16212909E-01 0.44439163E+03</pdfrwt>
<pdfrwt beam="2">  1       21 0.28837827E+00 0.44439163E+03</pdfrwt>
<totfact> 0.11039249E+03</totfact>
</mgrwt>
</event>
<event>
 5    0  0.1856407E+000  0.2223833E+03  0.7546771E-02  0.1132119E+00
         21   -1    0    0  502  501  0.00000000000E+00  0.00000000000E+00  0.13676739953E+03  0.13676739953E+03  0.00000000000E+00 0. -1.
         21   -1    0    0  503  502 -0.00000000000E+00 -0.00000000000E+00 -0.71489846697E+03  0.71489846697E+03  0.00000000000E+00 0. -1.
         25    1    1    2    0    0  0.34471576416E+02  0.21735728376E+03 -0.78280628866E+02  0.26492515026E+03  0.12500000000E+03 0.  0.
         21    1    1    2  503  504 -0.89481620301E+01 -0.15336314233E+03 -0.10536704251E+03  0.18628616877E+03  0.00000000000E+00 0. -1.
         21    1    1    2  504  501 -0.25523414386E+02 -0.63994141437E+02 -0.39448339606E+03  0.40045454747E+03  0.00000000000E+00 0. -1.
<mgrwt>
<rscale>  4 0.22238329E+03</rscale>
<asrwt>0</asrwt>
<pdfrwt beam="1">  1       21 0.21041139E-01 0.22238329E+03</pdfrwt>
<pdfrwt beam="2">  1       21 0.10998438E+00 0.22238329E+03</pdfrwt>
<totfact> 0.13450474E+04</totfact>
</mgrwt>
</event>
<event>
 5    0  0.1856407E+000  0.2069242E+03  0.7546771E-02  0.1144025E+00
         21   -1    0    0  502  501  0.00000000000E+00  0.00000000000E+00  0.12026931160E+03  0.12026931160E+03  0.00000000000E+00 0.  1.
         21   -1    0    0  503  502 -0.00000000000E+00 -0.00000000000E+00 -0.65546122818E+03  0.65546122818E+03  0.00000000000E+00 0. -1.
         25    1    1    2    0    0 -0.42761907811E+02 -0.19551201010E+03 -0.72539996726E+02  0.24686145503E+03  0.12500000000E+03 0.  0.
         21    1    1    2  503  504  0.65709627806E+02  0.14569310132E+03 -0.44242493223E+03  0.47040839238E+03  0.00000000000E+00 0. -1.
         21    1    1    2  504  501 -0.22947719995E+02  0.49818908777E+02 -0.20226987622E+02  0.58460692375E+02  0.00000000000E+00 0. -1.
<mgrwt>
<rscale>  4 0.20692419E+03</rscale>
<asrwt>0</asrwt>
<pdfrwt beam="1">  1       21 0.18502971E-01 0.20692419E+03</pdfrwt>
<pdfrwt beam="2">  1       21 0.10084019E+00 0.20692419E+03</pdfrwt>
<totfact> 0.21284600E+04</totfact>
</mgrwt>
</event>
<event>
 5    0  0.1856407E+000  0.2970426E+03  0.7546771E-02  0.1086728E+00
         21   -1    0    0  502  501  0.00000000000E+00  0.00000000000E+00  0.34330701668E+03  0.34330701668E+03  0.00000000000E+00 0. -1.
         21   -1    0    0  503  502 -0.00000000000E+00 -0.00000000000E+00 -0.48374900066E+03  0.48374900066E+03  0.00000000000E+00 0. -1.
         25    1    1    2    0    0  0.15840162823E+03  0.21798675573E+03  0.22073720288E+03  0.37008001058E+03  0.12500000000E+03 0.  0.
         21    1    1    2  503  504 -0.75625279515E+02 -0.15493506009E+03 -0.25904006507E+03  0.31116846090E+03  0.00000000000E+00 0. -1.
         21    1    1    2  504  501 -0.82776348718E+02 -0.63051695634E+02 -0.10213912179E+03  0.14580754586E+03  0.00000000000E+00 0. -1.
<mgrwt>
<rscale>  4 0.29704259E+03</rscale>
<asrwt>0</asrwt>
<pdfrwt beam="1">  1       21 0.52816464E-01 0.29704259E+03</pdfrwt>
<pdfrwt beam="2">  1       21 0.74422923E-01 0.29704259E+03</pdfrwt>
<totfact> 0.51431881E+03</totfact>
</mgrwt>
</event>
<event>
 5    0  0.1856407E+000  0.2396203E+03  0.7546771E-02  0.1120046E+00
         21   -1    0    0  502  501  0.00000000000E+00  0.00000000000E+00  0.45872625297E+03  0.45872625297E+03  0.00000000000E+00 0.  1.
         21   -1    0    0  503  502 -0.00000000000E+00 -0.00000000000E+00 -0.52215975453E+03  0.52215975453E+03  0.00000000000E+00 0. -1.
         25    1    1    2    0    0  0.17739276080E+03  0.10063538962E+03  0.38964061267E+03  0.45720944902E+03  0.12500000000E+03 0.  0.
         21    1    1    2  503  504 -0.56767393399E+01  0.24540475342E+02 -0.22591063641E+01  0.25289599860E+02  0.00000000000E+00 0. -1.
         21    1    1    2  504  501 -0.17171602146E+03 -0.12517586497E+03 -0.45081500787E+03  0.49838695862E+03  0.00000000000E+00 0. -1.
<mgrwt>
<rscale>  4 0.23962026E+03</rscale>
<asrwt>0</asrwt>
<pdfrwt beam="1">  1       21 0.70573269E-01 0.23962026E+03</pdfrwt>
<pdfrwt beam="2">  1       21 0.80332270E-01 0.23962026E+03</pdfrwt>
<totfact> 0.23871284E+03</totfact>
</mgrwt>
</event>
<event>
 5    0  0.1856407E+000  0.2920176E+03  0.7546771E-02  0.1089300E+00
         21   -1    0    0  502  501  0.00000000000E+00  0.00000000000E+00  0.33256294367E+04  0.33256294367E+04  0.00000000000E+00 0. -1.
         21   -1    0    0  503  502 -0.00000000000E+00 -0.00000000000E+00 -0.63693886179E+02  0.63693886179E+02  0.00000000000E+00 0. -1.
         25    1    1    2    0    0 -0.18218845859E+02 -0.26328187549E+03  0.29816676876E+04  0.29959333223E+04  0.12500000000E+03 0.  0.
         21    1    1    2  503  504  0.34729598419E+01  0.49524513339E+02  0.10655659372E+03  0.11755444074E+03  0.00000000000E+00 0. -1.
         21    1    1    2  504  501  0.14745886017E+02  0.21375736216E+03  0.17371126918E+03  0.27583555984E+03  0.00000000000E+00 0. -1.
<mgrwt>
<rscale>  4 0.29201759E+03</rscale>
<asrwt>0</asrwt>
<pdfrwt beam="1">  1       21 0.51163516E+00 0.29201759E+03</pdfrwt>
<pdfrwt beam="2">  1       21 0.97990620E-02 0.29201759E+03</pdfrwt>
<totfact> 0.11390263E+02</totfact>
</mgrwt>
</event>
