<event>
 5    0  0.1911311E+001  0.2791587E+03  0.7546771E-02  0.1096149E+00
         21   -1    0    0  504  501  0.00000000000E+00  0.00000000000E+00  0.83256626380E+03  0.83256626380E+03  0.00000000000E+00 0.  1.
         21   -1    0    0  501  502 -0.00000000000E+00 -0.00000000000E+00 -0.26811670699E+03  0.26811670699E+03  0.00000000000E+00 0. -1.
         25    1    1    2    0    0 -0.18726299015E+02 -0.25148799217E+03  0.73093258375E+03  0.78325240279E+03  0.12500000000E+03 0.  0.
         21    1    1    2  503  502 -0.67340609927E+01  0.26100566485E+02  0.11310686841E+02  0.29232153276E+02  0.00000000000E+00 0.  1.
         21    1    1    2  504  503  0.25460360008E+02  0.22538742569E+03 -0.17779371378E+03  0.28819841472E+03  0.00000000000E+00 0. -1.
<mgrwt>
<rscale>  4 0.27915869E+03</rscale>
<asrwt>0</asrwt>
<pdfrwt beam="1">  1       21 0.12808712E+00 0.27915869E+03</pdfrwt>
<pdfrwt beam="2">  1       21 0.41248724E-01 0.27915869E+03</pdfrwt>
<totfact> 0.23766585E+03</totfact>
</mgrwt>
</event>
<event>
 5    0  0.1911311E+001  0.2774312E+03  0.7546771E-02  0.1097100E+00
         21   -1    0    0  504  501  0.00000000000E+00  0.00000000000E+00  0.13651701806E+04  0.13651701806E+04  0.00000000000E+00 0.  1.
         21   -1    0    0  503  502 -0.00000000000E+00 -0.00000000000E+00 -0.14524943640E+03  0.14524943640E+03  0.00000000000E+00 0.  1.
         25    1    1    2    0    0  0.27889232972E+03 -0.63374379573E+02  0.11235317463E+03  0.33173103475E+03  0.12500000000E+03 0.  0.
         21    1    1    2  503  501 -0.13092602543E+03  0.15869739179E+03  0.40311070528E+03  0.45257565888E+03  0.00000000000E+00 0.  1.
         21    1    1    2  504  502 -0.14796630429E+03 -0.95323012220E+02  0.70445686433E+03  0.72611292343E+03  0.00000000000E+00 0.  1.
<mgrwt>
<rscale>  4 0.27743124E+03</rscale>
<asrwt>0</asrwt>
<pdfrwt beam="1">  1       21 0.21002617E+00 0.27743124E+03</pdfrwt>
<pdfrwt beam="2">  1       21 0.22346068E-01 0.27743124E+03</pdfrwt>
<totfact> 0.20163286E+03</totfact>
</mgrwt>
</event>
<event>
 5    0  0.1911311E+001  0.2055886E+03  0.7546771E-02  0.1145108E+00
         21   -1    0    0  504  501  0.00000000000E+00  0.00000000000E+00  0.79141159441E+03  0.79141159441E+03  0.00000000000E+00 0.  1.
         21   -1    0    0  503  502 -0.00000000000E+00 -0.00000000000E+00 -0.23221329144E+03  0.23221329144E+03  0.00000000000E+00 0.  1.
         25    1    1    2    0    0 -0.18328899848E+03 -0.11108342183E+03  0.36388789881E+03  0.44042455252E+03  0.12500000000E+03 0.  0.
         21    1    1    2  503  501  0.14689909354E+03  0.61338753531E+02 -0.15815668288E+03  0.22439991690E+03  0.00000000000E+00 0.  1.
         21    1    1    2  504  502  0.36389904943E+02  0.49744668298E+02  0.35346708704E+03  0.35880041642E+03  0.00000000000E+00 0.  1.
<mgrwt>
<rscale>  4 0.20558861E+03</rscale>
<asrwt>0</asrwt>
<pdfrwt beam="1">  1       21 0.12175563E+00 0.20558861E+03</pdfrwt>
<pdfrwt beam="2">  1       21 0.35725122E-01 0.20558861E+03</pdfrwt>
<totfact> 0.38070487E+03</totfact>
</mgrwt>
</event>
<event>
 5    0  0.1911311E+001  0.2678768E+03  0.7546771E-02  0.1102501E+00
         21   -1    0    0  502  501  0.00000000000E+00  0.00000000000E+00  0.34821284847E+03  0.34821284847E+03  0.00000000000E+00 0. -1.
         21   -1    0    0  504  502 -0.00000000000E+00 -0.00000000000E+00 -0.30076943320E+03  0.30076943320E+03  0.00000000000E+00 0.  1.
         25    1    1    2    0    0  0.88166548012E+02  0.20457056998E+03  0.71955332208E+02  0.26537714319E+03  0.12500000000E+03 0.  0.
         21    1    1    2  503  501 -0.11319576329E+03 -0.22295415050E+03  0.89392948188E+02  0.26554271452E+03  0.00000000000E+00 0. -1.
         21    1    1    2  504  503  0.25029215276E+02  0.18383580514E+02 -0.11390486514E+03  0.11806242396E+03  0.00000000000E+00 0. -1.
<mgrwt>
<rscale>  4 0.26787683E+03</rscale>
<asrwt>0</asrwt>
<pdfrwt beam="1">  1       21 0.53571207E-01 0.26787683E+03</pdfrwt>
<pdfrwt beam="2">  1       21 0.46272221E-01 0.26787683E+03</pdfrwt>
<totfact> 0.14143520E+04</totfact>
</mgrwt>
</event>
<event>
 5    0  0.1911311E+001  0.3173602E+03  0.7546771E-02  0.1076871E+00
         21   -1    0    0  502  501  0.00000000000E+00  0.00000000000E+00  0.37819926987E+03  0.37819926987E+03  0.00000000000E+00 0.  1.
         21   -1    0    0  504  502 -0.00000000000E+00 -0.00000000000E+00 -0.33981562054E+03  0.33981562054E+03  0.00000000000E+00 0.  1.
         25    1    1    2    0    0  0.22075123999E+03 -0.21298530653E+03  0.16181859420E+03  0.36865174377E+03  0.12500000000E+03 0.  0.
         21    1    1    2  503  501 -0.25615778381E+02  0.28900386798E+01  0.16187620837E+02  0.30439439777E+02  0.00000000000E+00 0.  1.
         21    1    1    2  504  503 -0.19513546161E+03  0.21009526785E+03 -0.13962256570E+03  0.31892370687E+03  0.00000000000E+00 0.  1.
<mgrwt>
<rscale>  4 0.31736020E+03</rscale>
<asrwt>0</asrwt>
<pdfrwt beam="1">  1       21 0.58184503E-01 0.31736020E+03</pdfrwt>
<pdfrwt beam="2">  1       21 0.52279326E-01 0.31736020E+03</pdfrwt>
<totfact> 0.89642408E+03</totfact>
</mgrwt>
</event>
