<event>
 5    0  0.3120399E-003  0.3462117E+03  0.7546771E-02  0.1064181E+00
         21   -1    0    0  503  501  0.00000000000E+00  0.00000000000E+00  0.73459343806E+03  0.73459343806E+03  0.00000000000E+00 0. -1.
         21   -1    0    0  501  502 -0.00000000000E+00 -0.00000000000E+00 -0.17797664797E+03  0.17797664797E+03  0.00000000000E+00 0. -1.
         25    1    1    2    0    0  0.59477615194E+02 -0.19756352540E+03  0.36364569028E+03  0.43638529001E+03  0.12500000000E+03 0.  0.
         21    1    1    2  503  504 -0.23362490743E+02  0.26398635828E+03  0.26282783529E+03  0.37324666687E+03  0.00000000000E+00 0. -1.
         21    1    1    2  504  502 -0.36115124451E+02 -0.66422832882E+02 -0.69856735475E+02  0.10293812915E+03  0.00000000000E+00 0. -1.
<mgrwt>
<rscale>  4 0.34621174E+03</rscale>
<asrwt>0</asrwt>
<pdfrwt beam="1">  1       21 0.11301437E+00 0.34621174E+03</pdfrwt>
<pdfrwt beam="2">  1       21 0.27381023E-01 0.34621174E+03</pdfrwt>
<totfact> 0.71314564E+03</totfact>
</mgrwt>
</event>
<event>
 5    0  0.3120399E-003  0.4549572E+03  0.7546771E-02  0.1026254E+00
         21   -1    0    0  503  501  0.00000000000E+00  0.00000000000E+00  0.12623952710E+04  0.12623952710E+04  0.00000000000E+00 0.  1.
         21   -1    0    0  501  502 -0.00000000000E+00 -0.00000000000E+00 -0.20473220692E+03  0.20473220692E+03  0.00000000000E+00 0.  1.
         25    1    1    2    0    0 -0.16889971580E+03 -0.22555853596E+03  0.36156444186E+03  0.47513957187E+03  0.12500000000E+03 0.  0.
         21    1    1    2  503  504 -0.10309424750E+03  0.31132632677E+03  0.61253213755E+03  0.69480078090E+03  0.00000000000E+00 0.  1.
         21    1    1    2  504  502  0.27199396329E+03 -0.85767790801E+02  0.83566484711E+02  0.29718712518E+03  0.00000000000E+00 0.  1.
<mgrwt>
<rscale>  4 0.45495717E+03</rscale>
<asrwt>0</asrwt>
<pdfrwt beam="1">  1       21 0.19421465E+00 0.45495717E+03</pdfrwt>
<pdfrwt beam="2">  1       21 0.31497263E-01 0.45495717E+03</pdfrwt>
<totfact> 0.11865431E+03</totfact>
</mgrwt>
</event>
<event>
 5    0  0.3120399E-003  0.5391665E+03  0.7546771E-02  0.1004033E+00
         21   -1    0    0  502  501  0.00000000000E+00  0.00000000000E+00  0.60808259478E+03  0.60808259478E+03  0.00000000000E+00 0. -1.
         21   -1    0    0  504  502 -0.00000000000E+00 -0.00000000000E+00 -0.48713465967E+03  0.48713465967E+03  0.00000000000E+00 0. -1.
         25    1    1    2    0    0 -0.83312728666E+02 -0.36653321790E+03 -0.57128682541E+02  0.40022031052E+03  0.12500000000E+03 0.  0.
         21    1    1    2  503  501  0.26717988169E+03  0.38674896326E+03  0.56040798641E+02  0.47339245967E+03  0.00000000000E+00 0. -1.
         21    1    1    2  504  503 -0.18386715302E+03 -0.20215745366E+02  0.12203581901E+03  0.22160448426E+03  0.00000000000E+00 0.  1.
<mgrwt>
<rscale>  4 0.53916650E+03</rscale>
<asrwt>0</asrwt>
<pdfrwt beam="1">  1       21 0.93551168E-01 0.53916650E+03</pdfrwt>
<pdfrwt beam="2">  1       21 0.74943794E-01 0.53916650E+03</pdfrwt>
<totfact> 0.12665509E+03</totfact>
</mgrwt>
</event>
<event>
 5    0  0.3120399E-003  0.3275738E+03  0.7546771E-02  0.1072215E+00
         21   -1    0    0  502  501  0.00000000000E+00  0.00000000000E+00  0.10300813653E+04  0.10300813653E+04  0.00000000000E+00 0.  1.
         21   -1    0    0  503  502 -0.00000000000E+00 -0.00000000000E+00 -0.18601700827E+03  0.18601700827E+03  0.00000000000E+00 0.  1.
         25    1    1    2    0    0 -0.30247102970E+02 -0.26695872777E+03  0.50045466324E+03  0.58160271623E+03  0.12500000000E+03 0.  0.
         21    1    1    2  503  504 -0.12855685858E+03  0.18472070590E+03 -0.23367979852E+02  0.22626238653E+03  0.00000000000E+00 0.  1.
         21    1    1    2  504  501  0.15880396155E+03  0.82238021872E+02  0.36697767363E+03  0.40823327080E+03  0.00000000000E+00 0.  1.
<mgrwt>
<rscale>  4 0.32757378E+03</rscale>
<asrwt>0</asrwt>
<pdfrwt beam="1">  1       21 0.15847405E+00 0.32757378E+03</pdfrwt>
<pdfrwt beam="2">  1       21 0.28618002E-01 0.32757378E+03</pdfrwt>
<totfact> 0.27401229E+03</totfact>
</mgrwt>
</event>
<event>
 5    0  0.3120399E-003  0.2516032E+03  0.7546771E-02  0.1112296E+00
         21   -1    0    0  503  501  0.00000000000E+00  0.00000000000E+00  0.47775290164E+02  0.47775290164E+02  0.00000000000E+00 0. -1.
         21   -1    0    0  501  502 -0.00000000000E+00 -0.00000000000E+00 -0.15527391837E+04  0.15527391837E+04  0.00000000000E+00 0. -1.
         25    1    1    2    0    0  0.23737708311E+03  0.67529512246E+01 -0.72207434701E+03  0.77033099674E+03  0.12500000000E+03 0.  0.
         21    1    1    2  503  504 -0.18026994701E+03  0.82982213426E+01 -0.35497361108E+03  0.39821147502E+03  0.00000000000E+00 0. -1.
         21    1    1    2  504  502 -0.57107136099E+02 -0.15051172567E+02 -0.42791593541E+03  0.43197200206E+03  0.00000000000E+00 0. -1.
<mgrwt>
<rscale>  4 0.25160321E+03</rscale>
<asrwt>0</asrwt>
<pdfrwt beam="1">  1       21 0.73500442E-02 0.25160321E+03</pdfrwt>
<pdfrwt beam="2">  1       21 0.23888296E+00 0.25160321E+03</pdfrwt>
<totfact> 0.10245719E+04</totfact>
</mgrwt>
</event>
<event>
 5    0  0.3120399E-003  0.7023227E+03  0.7546771E-02  0.9713268E-01
         21   -1    0    0  504  501  0.00000000000E+00  0.00000000000E+00  0.15226643422E+04  0.15226643422E+04  0.00000000000E+00 0.  1.
         21   -1    0    0  501  502 -0.00000000000E+00 -0.00000000000E+00 -0.37508115637E+03  0.37508115637E+03  0.00000000000E+00 0.  1.
         25    1    1    2    0    0 -0.17214234779E+03 -0.15358740417E+03  0.18352863266E+03  0.32020280703E+03  0.12500000000E+03 0.  0.
         21    1    1    2  503  502  0.15247566603E+03  0.62496739890E+03  0.18952729157E+03  0.67063676656E+03  0.00000000000E+00 0.  1.
         21    1    1    2  504  503  0.19666681760E+02 -0.47137999472E+03  0.77452726162E+03  0.90690592499E+03  0.00000000000E+00 0.  1.
<mgrwt>
<rscale>  4 0.70232275E+03</rscale>
<asrwt>0</asrwt>
<pdfrwt beam="1">  1       21 0.23425605E+00 0.70232275E+03</pdfrwt>
<pdfrwt beam="2">  1       21 0.57704794E-01 0.70232275E+03</pdfrwt>
<totfact> 0.16605617E+02</totfact>
</mgrwt>
</event>
<event>
 5    0  0.3120399E-003  0.1847311E+03  0.7546771E-02  0.1163301E+00
         21   -1    0    0  502  501  0.00000000000E+00  0.00000000000E+00  0.11792860726E+03  0.11792860726E+03  0.00000000000E+00 0.  1.
         21   -1    0    0  504  502 -0.00000000000E+00 -0.00000000000E+00 -0.91075726929E+03  0.91075726929E+03  0.00000000000E+00 0.  1.
         25    1    1    2    0    0 -0.19036433118E+03  0.10689126904E+03 -0.10683780305E+03  0.27331966293E+03  0.12500000000E+03 0.  0.
         21    1    1    2  503  501  0.75143449188E+02  0.19331613585E+02 -0.48663303166E+03  0.49277982583E+03  0.00000000000E+00 0.  1.
         21    1    1    2  504  503  0.11522088199E+03 -0.12622288262E+03 -0.19935782731E+03  0.26258638779E+03  0.00000000000E+00 0.  1.
<mgrwt>
<rscale>  4 0.18473106E+03</rscale>
<asrwt>0</asrwt>
<pdfrwt beam="1">  1       21 0.18142863E-01 0.18473106E+03</pdfrwt>
<pdfrwt beam="2">  1       21 0.14011650E+00 0.18473106E+03</pdfrwt>
<totfact> 0.99379573E+03</totfact>
</mgrwt>
</event>
<event>
 5    0  0.3120399E-003  0.2391995E+03  0.7546771E-02  0.1120327E+00
         21   -1    0    0  504  501  0.00000000000E+00  0.00000000000E+00  0.15552398534E+04  0.15552398534E+04  0.00000000000E+00 0.  1.
         21   -1    0    0  501  502 -0.00000000000E+00 -0.00000000000E+00 -0.65090587625E+02  0.65090587625E+02  0.00000000000E+00 0.  1.
         25    1    1    2    0    0 -0.18447171650E+03 -0.95809511892E+02  0.46329538331E+03  0.52295017827E+03  0.12500000000E+03 0.  0.
         21    1    1    2  503  502 -0.57191234874E+02  0.10335622912E+03  0.55221593259E+03  0.56470858295E+03  0.00000000000E+00 0.  1.
         21    1    1    2  504  503  0.24166295138E+03 -0.75467172314E+01  0.47463794987E+03  0.53267167981E+03  0.00000000000E+00 0.  1.
<mgrwt>
<rscale>  4 0.23919946E+03</rscale>
<asrwt>0</asrwt>
<pdfrwt beam="1">  1       21 0.23926764E+00 0.23919946E+03</pdfrwt>
<pdfrwt beam="2">  1       21 0.10013938E-01 0.23919946E+03</pdfrwt>
<totfact> 0.59720162E+03</totfact>
</mgrwt>
</event>
<event>
 5    0  0.3120399E-003  0.2884745E+03  0.7546771E-02  0.1091148E+00
         21   -1    0    0  504  501  0.00000000000E+00  0.00000000000E+00  0.14464815580E+04  0.14464815580E+04  0.00000000000E+00 0. -1.
         21   -1    0    0  501  502 -0.00000000000E+00 -0.00000000000E+00 -0.63158884239E+02  0.63158884239E+02  0.00000000000E+00 0. -1.
         25    1    1    2    0    0  0.14424982830E+03 -0.17579900497E+03  0.81184426767E+03  0.85230828815E+03  0.12500000000E+03 0.  0.
         21    1    1    2  503  502 -0.19805043877E+03  0.84805691066E+02  0.42745030450E+03  0.47867498822E+03  0.00000000000E+00 0. -1.
         21    1    1    2  504  503  0.53800610472E+02  0.90993313901E+02  0.14402810156E+03  0.17865716582E+03  0.00000000000E+00 0. -1.
<mgrwt>
<rscale>  4 0.28847453E+03</rscale>
<asrwt>0</asrwt>
<pdfrwt beam="1">  1       21 0.22253560E+00 0.28847453E+03</pdfrwt>
<pdfrwt beam="2">  1       21 0.97167525E-02 0.28847453E+03</pdfrwt>
<totfact> 0.77035998E+03</totfact>
</mgrwt>
</event>
<event>
 5    0  0.3120399E-003  0.3076888E+03  0.7546771E-02  0.1081459E+00
         21   -1    0    0  502  501  0.00000000000E+00  0.00000000000E+00  0.98828504090E+03  0.98828504090E+03  0.00000000000E+00 0. -1.
         21   -1    0    0  504  502 -0.00000000000E+00 -0.00000000000E+00 -0.10671912016E+03  0.10671912016E+03  0.00000000000E+00 0. -1.
         25    1    1    2    0    0  0.13706887058E+03  0.22685694950E+03  0.29856641978E+03  0.41835255209E+03  0.12500000000E+03 0.  0.
         21    1    1    2  503  501 -0.19067656363E+03 -0.16741810664E+03  0.50356850830E+03  0.56388617371E+03  0.00000000000E+00 0. -1.
         21    1    1    2  504  503  0.53607693047E+02 -0.59438842856E+02  0.79430992663E+02  0.11276543526E+03  0.00000000000E+00 0. -1.
<mgrwt>
<rscale>  4 0.30768876E+03</rscale>
<asrwt>0</asrwt>
<pdfrwt beam="1">  1       21 0.15204385E+00 0.30768876E+03</pdfrwt>
<pdfrwt beam="2">  1       21 0.16418327E-01 0.30768876E+03</pdfrwt>
<totfact> 0.89310038E+03</totfact>
</mgrwt>
</event>
<event>
 5    0  0.3120399E-003  0.2589201E+03  0.7546771E-02  0.1107794E+00
         21   -1    0    0  503  501  0.00000000000E+00  0.00000000000E+00  0.43345264427E+02  0.43345264427E+02  0.00000000000E+00 0. -1.
         21   -1    0    0  501  502 -0.00000000000E+00 -0.00000000000E+00 -0.18072146736E+04  0.18072146736E+04  0.00000000000E+00 0. -1.
         25    1    1    2    0    0 -0.20402539689E+03 -0.71318950492E+02 -0.78438561899E+03  0.82316374711E+03  0.12500000000E+03 0.  0.
         21    1    1    2  503  504  0.32770063781E+02  0.11962446618E+03 -0.29183620130E+03  0.31709976093E+03  0.00000000000E+00 0. -1.
         21    1    1    2  504  502  0.17125533311E+03 -0.48305515684E+02 -0.68764758884E+03  0.71029642995E+03  0.00000000000E+00 0. -1.
<mgrwt>
<rscale>  4 0.25892015E+03</rscale>
<asrwt>0</asrwt>
<pdfrwt beam="1">  1       21 0.66685039E-02 0.25892015E+03</pdfrwt>
<pdfrwt beam="2">  1       21 0.27803296E+00 0.25892015E+03</pdfrwt>
<totfact> 0.70664334E+03</totfact>
</mgrwt>
</event>
<event>
 5    0  0.3120399E-003  0.2158324E+03  0.7546771E-02  0.1137029E+00
         21   -1    0    0  503  501  0.00000000000E+00  0.00000000000E+00  0.21018209408E+03  0.21018209408E+03  0.00000000000E+00 0. -1.
         21   -1    0    0  501  502 -0.00000000000E+00 -0.00000000000E+00 -0.40066421644E+03  0.40066421644E+03  0.00000000000E+00 0. -1.
         25    1    1    2    0    0  0.11908939748E+03 -0.16237192995E+03 -0.40530247274E+02  0.24044672835E+03  0.12500000000E+03 0.  0.
         21    1    1    2  503  504 -0.10345283149E+03 -0.30821101742E+02 -0.13937146429E+03  0.17628622667E+03  0.00000000000E+00 0. -1.
         21    1    1    2  504  502 -0.15636565998E+02  0.19319303170E+03 -0.10580410799E+02  0.19411335550E+03  0.00000000000E+00 0. -1.
<mgrwt>
<rscale>  4 0.21583239E+03</rscale>
<asrwt>0</asrwt>
<pdfrwt beam="1">  1       21 0.32335707E-01 0.21583239E+03</pdfrwt>
<pdfrwt beam="2">  1       21 0.61640649E-01 0.21583239E+03</pdfrwt>
<totfact> 0.22199648E+04</totfact>
</mgrwt>
</event>
<event>
 5    0  0.3120399E-003  0.2280648E+03  0.7546771E-02  0.1128009E+00
         21   -1    0    0  502  501  0.00000000000E+00  0.00000000000E+00  0.28185848743E+04  0.28185848743E+04  0.00000000000E+00 0.  1.
         21   -1    0    0  503  502 -0.00000000000E+00 -0.00000000000E+00 -0.89621407001E+02  0.89621407001E+02  0.00000000000E+00 0.  1.
         25    1    1    2    0    0  0.40907186812E+02 -0.23653341934E+03  0.12968805042E+04  0.13248190438E+04  0.12500000000E+03 0.  0.
         21    1    1    2  503  504 -0.31159398036E+02  0.11804515403E+03 -0.22338118774E+02  0.12411509992E+03  0.00000000000E+00 0.  1.
         21    1    1    2  504  501 -0.97477887753E+01  0.11848826531E+03  0.14544210818E+04  0.14592721376E+04  0.00000000000E+00 0.  1.
<mgrwt>
<rscale>  4 0.22806479E+03</rscale>
<asrwt>0</asrwt>
<pdfrwt beam="1">  1       21 0.43362837E+00 0.22806479E+03</pdfrwt>
<pdfrwt beam="2">  1       21 0.13787911E-01 0.22806479E+03</pdfrwt>
<totfact> 0.22992235E+02</totfact>
</mgrwt>
</event>
<event>
 5    0  0.3120399E-003  0.4935316E+03  0.7546771E-02  0.1015481E+00
         21   -1    0    0  503  501  0.00000000000E+00  0.00000000000E+00  0.13450653802E+04  0.13450653802E+04  0.00000000000E+00 0. -1.
         21   -1    0    0  501  502 -0.00000000000E+00 -0.00000000000E+00 -0.18960310709E+03  0.18960310709E+03  0.00000000000E+00 0. -1.
         25    1    1    2    0    0  0.29364328905E+03  0.24920490875E+03  0.74832629550E+03  0.85085058165E+03  0.12500000000E+03 0.  0.
         21    1    1    2  503  504 -0.38036035094E+03 -0.24833089214E+03  0.38201887723E+03  0.59353235053E+03  0.00000000000E+00 0. -1.
         21    1    1    2  504  502  0.86717061885E+02 -0.87401661246E+00  0.25117100334E+02  0.90285555081E+02  0.00000000000E+00 0.  1.
<mgrwt>
<rscale>  4 0.49353164E+03</rscale>
<asrwt>0</asrwt>
<pdfrwt beam="1">  1       21 0.20693313E+00 0.49353164E+03</pdfrwt>
<pdfrwt beam="2">  1       21 0.29169710E-01 0.49353164E+03</pdfrwt>
<totfact> 0.11181509E+03</totfact>
</mgrwt>
</event>
<event>
 5    0  0.3120399E-003  0.6101365E+03  0.7546771E-02  0.9884596E-01
         21   -1    0    0  504  501  0.00000000000E+00  0.00000000000E+00  0.29059985038E+04  0.29059985038E+04  0.00000000000E+00 0. -1.
         21   -1    0    0  501  502 -0.00000000000E+00 -0.00000000000E+00 -0.13809005759E+03  0.13809005759E+03  0.00000000000E+00 0. -1.
         25    1    1    2    0    0 -0.15722470031E+03 -0.40703648105E+03  0.96310021700E+03  0.10646996437E+04  0.12500000000E+03 0.  0.
         21    1    1    2  503  502 -0.17144449895E+03 -0.44686190203E+02  0.14773883151E+03  0.23068774166E+03  0.00000000000E+00 0. -1.
         21    1    1    2  504  503  0.32866919927E+03  0.45172267126E+03  0.16570693977E+04  0.17487011760E+04  0.00000000000E+00 0. -1.
<mgrwt>
<rscale>  4 0.61013654E+03</rscale>
<asrwt>0</asrwt>
<pdfrwt beam="1">  1       21 0.44707665E+00 0.61013654E+03</pdfrwt>
<pdfrwt beam="2">  1       21 0.21244626E-01 0.61013654E+03</pdfrwt>
<totfact> 0.60420809E+01</totfact>
</mgrwt>
</event>
<event>
 5    0  0.3120399E-003  0.4233333E+03  0.7546771E-02  0.1035987E+00
         21   -1    0    0  504  501  0.00000000000E+00  0.00000000000E+00  0.11380868858E+04  0.11380868858E+04  0.00000000000E+00 0.  1.
         21   -1    0    0  501  502 -0.00000000000E+00 -0.00000000000E+00 -0.18034171185E+03  0.18034171185E+03  0.00000000000E+00 0.  1.
         25    1    1    2    0    0  0.33623429655E+03 -0.18932759304E+03  0.38386840899E+03  0.55846073728E+03  0.12500000000E+03 0.  0.
         21    1    1    2  503  502 -0.42082356113E+02 -0.92961218240E+01 -0.34781740312E+02  0.55381513487E+02  0.00000000000E+00 0.  1.
         21    1    1    2  504  503 -0.29415194043E+03  0.19862371487E+03  0.60865850531E+03  0.70458634691E+03  0.00000000000E+00 0.  1.
<mgrwt>
<rscale>  4 0.42333330E+03</rscale>
<asrwt>0</asrwt>
<pdfrwt beam="1">  1       21 0.17509029E+00 0.42333330E+03</pdfrwt>
<pdfrwt beam="2">  1       21 0.27744880E-01 0.42333330E+03</pdfrwt>
<totfact> 0.21007680E+03</totfact>
</mgrwt>
</event>
<event>
 5    0  0.3120399E-003  0.6374034E+03  0.7546771E-02  0.9830707E-01
         21   -1    0    0  502  501  0.00000000000E+00  0.00000000000E+00  0.46046631308E+03  0.46046631308E+03  0.00000000000E+00 0.  1.
         21   -1    0    0  503  502 -0.00000000000E+00 -0.00000000000E+00 -0.92298056082E+03  0.92298056082E+03  0.00000000000E+00 0.  1.
         25    1    1    2    0    0 -0.35996079385E+03  0.40537292523E+03 -0.26814199776E+03  0.61759542792E+03  0.12500000000E+03 0.  0.
         21    1    1    2  503  504 -0.11743386409E+03 -0.16917615975E+03 -0.80952810359E+02  0.22127955841E+03  0.00000000000E+00 0.  1.
         21    1    1    2  504  501  0.47739465794E+03 -0.23619676548E+03 -0.11341943962E+03  0.54457188757E+03  0.00000000000E+00 0.  1.
<mgrwt>
<rscale>  4 0.63740345E+03</rscale>
<asrwt>0</asrwt>
<pdfrwt beam="1">  1       21 0.70840972E-01 0.63740345E+03</pdfrwt>
<pdfrwt beam="2">  1       21 0.14199701E+00 0.63740345E+03</pdfrwt>
<totfact> 0.48403040E+02</totfact>
</mgrwt>
</event>
<event>
 5    0  0.3120399E-003  0.4022376E+03  0.7546771E-02  0.1043008E+00
         21   -1    0    0  503  501  0.00000000000E+00  0.00000000000E+00  0.27907133611E+03  0.27907133611E+03  0.00000000000E+00 0. -1.
         21   -1    0    0  501  502 -0.00000000000E+00 -0.00000000000E+00 -0.74169077814E+03  0.74169077814E+03  0.00000000000E+00 0. -1.
         25    1    1    2    0    0  0.13891754887E+03  0.24111112003E+03 -0.13117162970E+03  0.33205971455E+03  0.12500000000E+03 0.  0.
         21    1    1    2  503  504  0.14624263656E+03 -0.18630778860E+03  0.14193415290E+02  0.23727400591E+03  0.00000000000E+00 0. -1.
         21    1    1    2  504  502 -0.28516018544E+03 -0.54803331429E+02 -0.34564122763E+03  0.45142839380E+03  0.00000000000E+00 0. -1.
<mgrwt>
<rscale>  4 0.40223760E+03</rscale>
<asrwt>0</asrwt>
<pdfrwt beam="1">  1       21 0.42934052E-01 0.40223760E+03</pdfrwt>
<pdfrwt beam="2">  1       21 0.11410627E+00 0.40223760E+03</pdfrwt>
<totfact> 0.27510562E+03</totfact>
</mgrwt>
</event>
<event>
 5    0  0.3120399E-003  0.4412088E+03  0.7546771E-02  0.1030377E+00
         21   -1    0    0  502  501  0.00000000000E+00  0.00000000000E+00  0.73497528391E+03  0.73497528391E+03  0.00000000000E+00 0. -1.
         21   -1    0    0  503  502 -0.00000000000E+00 -0.00000000000E+00 -0.27266952201E+03  0.27266952201E+03  0.00000000000E+00 0. -1.
         25    1    1    2    0    0 -0.30326022453E+03 -0.10498055097E+03  0.27959534428E+03  0.44360594721E+03  0.12500000000E+03 0.  0.
         21    1    1    2  503  504 -0.73681808551E+02  0.84883736804E+02 -0.47361643218E+02  0.12197287786E+03  0.00000000000E+00 0. -1.
         21    1    1    2  504  501  0.37694203308E+03  0.20096814166E+02  0.23007206084E+03  0.44206598084E+03  0.00000000000E+00 0. -1.
<mgrwt>
<rscale>  4 0.44120884E+03</rscale>
<asrwt>0</asrwt>
<pdfrwt beam="1">  1       21 0.11307312E+00 0.44120884E+03</pdfrwt>
<pdfrwt beam="2">  1       21 0.41949157E-01 0.44120884E+03</pdfrwt>
<totfact> 0.29083619E+03</totfact>
</mgrwt>
</event>
<event>
 5    0  0.3120399E-003  0.3361604E+03  0.7546771E-02  0.1068443E+00
         21   -1    0    0  504  501  0.00000000000E+00  0.00000000000E+00  0.14892399604E+03  0.14892399604E+03  0.00000000000E+00 0. -1.
         21   -1    0    0  501  502 -0.00000000000E+00 -0.00000000000E+00 -0.12021379301E+04  0.12021379301E+04  0.00000000000E+00 0. -1.
         25    1    1    2    0    0  0.22203274700E+03 -0.29668086634E+02 -0.90361440584E+03  0.93932035566E+03  0.12500000000E+03 0.  0.
         21    1    1    2  503  502  0.76194018942E+02 -0.62351067958E+00 -0.65307911121E+02  0.10035457410E+03  0.00000000000E+00 0.  1.
         21    1    1    2  504  503 -0.29822676595E+03  0.30291597313E+02 -0.84291617077E+02  0.31138699636E+03  0.00000000000E+00 0. -1.
<mgrwt>
<rscale>  4 0.33616040E+03</rscale>
<asrwt>0</asrwt>
<pdfrwt beam="1">  1       21 0.22911384E-01 0.33616040E+03</pdfrwt>
<pdfrwt beam="2">  1       21 0.18494430E+00 0.33616040E+03</pdfrwt>
<totfact> 0.27116895E+03</totfact>
</mgrwt>
</event>
<event>
 5    0  0.3120399E-003  0.3289621E+03  0.7546771E-02  0.1071597E+00
         21   -1    0    0  502  501  0.00000000000E+00  0.00000000000E+00  0.93626617517E+02  0.93626617517E+02  0.00000000000E+00 0.  1.
         21   -1    0    0  504  502 -0.00000000000E+00 -0.00000000000E+00 -0.12958408525E+04  0.12958408525E+04  0.00000000000E+00 0.  1.
         25    1    1    2    0    0 -0.21097485912E+03 -0.10716526528E+02 -0.71126973845E+03  0.75243263882E+03  0.12500000000E+03 0.  0.
         21    1    1    2  503  501 -0.73310375548E+02  0.82491402621E+02 -0.16626122610E+03  0.19955459898E+03  0.00000000000E+00 0.  1.
         21    1    1    2  504  503  0.28428523467E+03 -0.71774876093E+02 -0.32468327043E+03  0.43748023222E+03  0.00000000000E+00 0.  1.
<mgrwt>
<rscale>  4 0.32896212E+03</rscale>
<asrwt>0</asrwt>
<pdfrwt beam="1">  1       21 0.14404096E-01 0.32896212E+03</pdfrwt>
<pdfrwt beam="2">  1       21 0.19936012E+00 0.32896212E+03</pdfrwt>
<totfact> 0.52002844E+03</totfact>
</mgrwt>
</event>
<event>
 5    0  0.3120399E-003  0.3220816E+03  0.7546771E-02  0.1074695E+00
         21   -1    0    0  502  501  0.00000000000E+00  0.00000000000E+00  0.54398350234E+03  0.54398350234E+03  0.00000000000E+00 0.  1.
         21   -1    0    0  503  502 -0.00000000000E+00 -0.00000000000E+00 -0.23994446889E+03  0.23994446889E+03  0.00000000000E+00 0.  1.
         25    1    1    2    0    0 -0.26037766150E+02 -0.23223901982E+03  0.18931375552E+03  0.32569560271E+03  0.12500000000E+03 0.  0.
         21    1    1    2  503  504  0.73088232885E+02  0.91158104011E+01 -0.11369839695E+03  0.13547070995E+03  0.00000000000E+00 0.  1.
         21    1    1    2  504  501 -0.47050466735E+02  0.22312320942E+03  0.22842367488E+03  0.32276165858E+03  0.00000000000E+00 0.  1.
<mgrwt>
<rscale>  4 0.32208161E+03</rscale>
<asrwt>0</asrwt>
<pdfrwt beam="1">  1       21 0.83689770E-01 0.32208161E+03</pdfrwt>
<pdfrwt beam="2">  1       21 0.36914534E-01 0.32208161E+03</pdfrwt>
<totfact> 0.81682944E+03</totfact>
</mgrwt>
</event>
<event>
 5    0  0.3120399E-003  0.4093620E+03  0.7546771E-02  0.1040585E+00
         21   -1    0    0  503  501  0.00000000000E+00  0.00000000000E+00  0.34135488953E+03  0.34135488953E+03  0.00000000000E+00 0.  1.
         21   -1    0    0  501  502 -0.00000000000E+00 -0.00000000000E+00 -0.54446894019E+03  0.54446894019E+03  0.00000000000E+00 0.  1.
         25    1    1    2    0    0  0.55398153458E+02 -0.33904035806E+03 -0.43131082792E+02  0.36810679171E+03  0.12500000000E+03 0.  0.
         21    1    1    2  503  504 -0.11568968484E+03  0.25672425807E+01  0.39090251118E+02  0.12214230080E+03  0.00000000000E+00 0.  1.
         21    1    1    2  504  502  0.60291531383E+02  0.33647311548E+03 -0.19907321899E+03  0.39557473721E+03  0.00000000000E+00 0.  1.
<mgrwt>
<rscale>  4 0.40936196E+03</rscale>
<asrwt>0</asrwt>
<pdfrwt beam="1">  1       21 0.52516138E-01 0.40936196E+03</pdfrwt>
<pdfrwt beam="2">  1       21 0.83764451E-01 0.40936196E+03</pdfrwt>
<totfact> 0.37797393E+03</totfact>
</mgrwt>
</event>
<event>
 5    0  0.3120399E-003  0.5284666E+03  0.7546771E-02  0.1006605E+00
         21   -1    0    0  502  501  0.00000000000E+00  0.00000000000E+00  0.87189073142E+03  0.87189073142E+03  0.00000000000E+00 0.  1.
         21   -1    0    0  503  502 -0.00000000000E+00 -0.00000000000E+00 -0.10901142293E+04  0.10901142293E+04  0.00000000000E+00 0.  1.
         25    1    1    2    0    0  0.12662354665E+03  0.48101795245E+03  0.60045776834E+03  0.78967482213E+03  0.12500000000E+03 0.  0.
         21    1    1    2  503  504 -0.16317316254E+03 -0.46838405466E+03 -0.93026752783E+03  0.10542327907E+04  0.00000000000E+00 0.  1.
         21    1    1    2  504  501  0.36549615882E+02 -0.12633897789E+02  0.11158626162E+03  0.11809734789E+03  0.00000000000E+00 0.  1.
<mgrwt>
<rscale>  4 0.52846660E+03</rscale>
<asrwt>0</asrwt>
<pdfrwt beam="1">  1       21 0.13413704E+00 0.52846660E+03</pdfrwt>
<pdfrwt beam="2">  1       21 0.16770988E+00 0.52846660E+03</pdfrwt>
<totfact> 0.67241794E+01</totfact>
</mgrwt>
</event>
<event>
 5    0  0.3120399E-003  0.4372192E+03  0.7546771E-02  0.1031603E+00
         21   -1    0    0  502  501  0.00000000000E+00  0.00000000000E+00  0.22197400822E+03  0.22197400822E+03  0.00000000000E+00 0. -1.
         21   -1    0    0  504  502 -0.00000000000E+00 -0.00000000000E+00 -0.89220972626E+03  0.89220972626E+03  0.00000000000E+00 0. -1.
         25    1    1    2    0    0 -0.36335595429E+03 -0.13418015962E+02 -0.14070566536E+03  0.40942725475E+03  0.12500000000E+03 0.  0.
         21    1    1    2  503  501  0.36015804805E+03  0.61007089961E+02 -0.30697275920E+03  0.47714563761E+03  0.00000000000E+00 0. -1.
         21    1    1    2  504  503  0.31979062420E+01 -0.47589073999E+02 -0.22255729348E+03  0.22761084212E+03  0.00000000000E+00 0.  1.
<mgrwt>
<rscale>  4 0.43721915E+03</rscale>
<asrwt>0</asrwt>
<pdfrwt beam="1">  1       21 0.34149847E-01 0.43721915E+03</pdfrwt>
<pdfrwt beam="2">  1       21 0.13726304E+00 0.43721915E+03</pdfrwt>
<totfact> 0.26982976E+03</totfact>
</mgrwt>
</event>
<event>
 5    0  0.3120399E-003  0.6595156E+03  0.7546771E-02  0.9789086E-01
         21   -1    0    0  504  501  0.00000000000E+00  0.00000000000E+00  0.86489815393E+03  0.86489815393E+03  0.00000000000E+00 0.  1.
         21   -1    0    0  501  502 -0.00000000000E+00 -0.00000000000E+00 -0.53883547904E+03  0.53883547904E+03  0.00000000000E+00 0.  1.
         25    1    1    2    0    0  0.19894193262E+03 -0.35128550570E+03  0.34120349608E+03  0.54316132484E+03  0.12500000000E+03 0.  0.
         21    1    1    2  503  502  0.76135010497E+00 -0.23792238545E+03  0.73127960796E+01  0.23803595976E+03  0.00000000000E+00 0. -1.
         21    1    1    2  504  503 -0.19970328272E+03  0.58920789115E+03 -0.22453617270E+02  0.62253634838E+03  0.00000000000E+00 0.  1.
<mgrwt>
<rscale>  4 0.65951559E+03</rscale>
<asrwt>0</asrwt>
<pdfrwt beam="1">  1       21 0.13306126E+00 0.65951559E+03</pdfrwt>
<pdfrwt beam="2">  1       21 0.82897766E-01 0.65951559E+03</pdfrwt>
<totfact> 0.39772013E+02</totfact>
</mgrwt>
</event>
<event>
 5    0  0.3120399E-003  0.4098567E+03  0.7546771E-02  0.1040419E+00
         21   -1    0    0  504  501  0.00000000000E+00  0.00000000000E+00  0.62637042563E+03  0.62637042563E+03  0.00000000000E+00 0. -1.
         21   -1    0    0  501  502 -0.00000000000E+00 -0.00000000000E+00 -0.31107324575E+03  0.31107324575E+03  0.00000000000E+00 0. -1.
         25    1    1    2    0    0 -0.27620018313E+03 -0.16428478827E+03  0.71205360592E+02  0.35209549301E+03  0.12500000000E+03 0.  0.
         21    1    1    2  503  502  0.41884777795E+02 -0.10147570902E+03 -0.53983380475E+02  0.12233502973E+03  0.00000000000E+00 0. -1.
         21    1    1    2  504  503  0.23431540534E+03  0.26576049730E+03  0.29807519976E+03  0.46301314864E+03  0.00000000000E+00 0. -1.
<mgrwt>
<rscale>  4 0.40985672E+03</rscale>
<asrwt>0</asrwt>
<pdfrwt beam="1">  1       21 0.96364681E-01 0.40985672E+03</pdfrwt>
<pdfrwt beam="2">  1       21 0.47857422E-01 0.40985672E+03</pdfrwt>
<totfact> 0.33059140E+03</totfact>
</mgrwt>
</event>
<event>
 5    0  0.3120399E-003  0.3252281E+03  0.7546771E-02  0.1073268E+00
         21   -1    0    0  503  501  0.00000000000E+00  0.00000000000E+00  0.50609218926E+03  0.50609218926E+03  0.00000000000E+00 0.  1.
         21   -1    0    0  501  502 -0.00000000000E+00 -0.00000000000E+00 -0.22926422948E+03  0.22926422948E+03  0.00000000000E+00 0.  1.
         25    1    1    2    0    0  0.64326825625E+02  0.19656585946E+03  0.87706679529E+02  0.25708663760E+03  0.12500000000E+03 0.  0.
         21    1    1    2  503  504  0.13225186799E+03 -0.13371491953E+02  0.15996472766E+03  0.20798573864E+03  0.00000000000E+00 0. -1.
         21    1    1    2  504  502 -0.19657869362E+03 -0.18319436751E+03  0.29156552593E+02  0.27028404250E+03  0.00000000000E+00 0.  1.
<mgrwt>
<rscale>  4 0.32522811E+03</rscale>
<asrwt>0</asrwt>
<pdfrwt beam="1">  1       21 0.77860337E-01 0.32522811E+03</pdfrwt>
<pdfrwt beam="2">  1       21 0.35271420E-01 0.32522811E+03</pdfrwt>
<totfact> 0.10553921E+04</totfact>
</mgrwt>
</event>
<event>
 5    0  0.3120399E-003  0.3607667E+03  0.7546771E-02  0.1058281E+00
         21   -1    0    0  503  501  0.00000000000E+00  0.00000000000E+00  0.39836487397E+03  0.39836487397E+03  0.00000000000E+00 0.  1.
         21   -1    0    0  501  502 -0.00000000000E+00 -0.00000000000E+00 -0.41644858247E+03  0.41644858247E+03  0.00000000000E+00 0.  1.
         25    1    1    2    0    0 -0.13879368603E+03 -0.15326740433E+03 -0.13435421925E+03  0.27646092083E+03  0.12500000000E+03 0.  0.
         21    1    1    2  503  504  0.29885026149E+03  0.75749059490E+02  0.17065657325E+03  0.35238198706E+03  0.00000000000E+00 0.  1.
         21    1    1    2  504  502 -0.16005657546E+03  0.77518344841E+02 -0.54386062499E+02  0.18597054856E+03  0.00000000000E+00 0.  1.
<mgrwt>
<rscale>  4 0.36076669E+03</rscale>
<asrwt>0</asrwt>
<pdfrwt beam="1">  1       21 0.61286904E-01 0.36076669E+03</pdfrwt>
<pdfrwt beam="2">  1       21 0.64069013E-01 0.36076669E+03</pdfrwt>
<totfact> 0.50617644E+03</totfact>
</mgrwt>
</event>
<event>
 5    0  0.3120399E-003  0.4338168E+03  0.7546771E-02  0.1032661E+00
         21   -1    0    0  504  501  0.00000000000E+00  0.00000000000E+00  0.87028293949E+03  0.87028293949E+03  0.00000000000E+00 0. -1.
         21   -1    0    0  501  502 -0.00000000000E+00 -0.00000000000E+00 -0.25669186046E+03  0.25669186046E+03  0.00000000000E+00 0. -1.
         25    1    1    2    0    0 -0.38576161655E+03  0.40445640249E+02  0.33711581391E+02  0.40891239323E+03  0.12500000000E+03 0.  0.
         21    1    1    2  503  502  0.22870380311E+02 -0.50656626076E+02  0.11927641501E+03  0.13159031590E+03  0.00000000000E+00 0.  1.
         21    1    1    2  504  503  0.36289123624E+03  0.10210985827E+02  0.46060308263E+03  0.58647209081E+03  0.00000000000E+00 0. -1.
<mgrwt>
<rscale>  4 0.43381681E+03</rscale>
<asrwt>0</asrwt>
<pdfrwt beam="1">  1       21 0.13388968E+00 0.43381681E+03</pdfrwt>
<pdfrwt beam="2">  1       21 0.39491056E-01 0.43381681E+03</pdfrwt>
<totfact> 0.21457488E+03</totfact>
</mgrwt>
</event>
<event>
 5    0  0.3120399E-003  0.5754985E+03  0.7546771E-02  0.9957585E-01
         21   -1    0    0  502  501  0.00000000000E+00  0.00000000000E+00  0.44179644078E+03  0.44179644078E+03  0.00000000000E+00 0. -1.
         21   -1    0    0  504  502 -0.00000000000E+00 -0.00000000000E+00 -0.85421255107E+03  0.85421255107E+03  0.00000000000E+00 0. -1.
         25    1    1    2    0    0 -0.37902554158E+03 -0.28154004649E+02 -0.54908124471E+02  0.40384763375E+03  0.12500000000E+03 0.  0.
         21    1    1    2  503  501  0.49116836365E+03  0.27830520133E+02  0.25951315555E+02  0.49264020348E+03  0.00000000000E+00 0. -1.
         21    1    1    2  504  503 -0.11214282207E+03  0.32348451583E+00 -0.38345930137E+03  0.39952115463E+03  0.00000000000E+00 0. -1.
<mgrwt>
<rscale>  4 0.57549847E+03</rscale>
<asrwt>0</asrwt>
<pdfrwt beam="1">  1       21 0.67968684E-01 0.57549847E+03</pdfrwt>
<pdfrwt beam="2">  1       21 0.13141731E+00 0.57549847E+03</pdfrwt>
<totfact> 0.66643013E+02</totfact>
</mgrwt>
</event>
<event>
 5    0  0.3120399E-003  0.6716224E+03  0.7546771E-02  0.9767031E-01
         21   -1    0    0  503  501  0.00000000000E+00  0.00000000000E+00  0.52435068496E+03  0.52435068496E+03  0.00000000000E+00 0.  1.
         21   -1    0    0  501  502 -0.00000000000E+00 -0.00000000000E+00 -0.92475399904E+03  0.92475399904E+03  0.00000000000E+00 0.  1.
         25    1    1    2    0    0  0.62777925923E+02  0.21393173405E+03 -0.14343779333E+03  0.29309939504E+03  0.12500000000E+03 0.  0.
         21    1    1    2  503  504  0.44972973319E+03  0.87926516548E+02  0.90585210718E+02  0.46711196263E+03  0.00000000000E+00 0.  1.
         21    1    1    2  504  502 -0.51250765912E+03 -0.30185825060E+03 -0.34755073147E+03  0.68889332633E+03  0.00000000000E+00 0.  1.
<mgrwt>
<rscale>  4 0.67162244E+03</rscale>
<asrwt>0</asrwt>
<pdfrwt beam="1">  1       21 0.80669337E-01 0.67162244E+03</pdfrwt>
<pdfrwt beam="2">  1       21 0.14226984E+00 0.67162244E+03</pdfrwt>
<totfact> 0.35313798E+02</totfact>
</mgrwt>
</event>
<event>
 5    0  0.3120399E-003  0.4899336E+03  0.7546771E-02  0.1016440E+00
         21   -1    0    0  502  501  0.00000000000E+00  0.00000000000E+00  0.12916869590E+04  0.12916869590E+04  0.00000000000E+00 0.  1.
         21   -1    0    0  504  502 -0.00000000000E+00 -0.00000000000E+00 -0.21738877396E+03  0.21738877396E+03  0.00000000000E+00 0.  1.
         25    1    1    2    0    0  0.37351443372E+03  0.80161789464E+02  0.69742445744E+03  0.80496261934E+03  0.12500000000E+03 0.  0.
         21    1    1    2  503  501  0.94336653211E+02 -0.53249096129E+02  0.14573578442E+03  0.18158686416E+03  0.00000000000E+00 0. -1.
         21    1    1    2  504  503 -0.46785108693E+03 -0.26912693335E+02  0.23113794319E+03  0.52252624947E+03  0.00000000000E+00 0.  1.
<mgrwt>
<rscale>  4 0.48993356E+03</rscale>
<asrwt>0</asrwt>
<pdfrwt beam="1">  1       21 0.19872107E+00 0.48993356E+03</pdfrwt>
<pdfrwt beam="2">  1       21 0.33444428E-01 0.48993356E+03</pdfrwt>
<totfact> 0.96599909E+02</totfact>
</mgrwt>
</event>
<event>
 5    0  0.3120399E-003  0.3448080E+03  0.7546771E-02  0.1064766E+00
         21   -1    0    0  502  501  0.00000000000E+00  0.00000000000E+00  0.17909399828E+04  0.17909399828E+04  0.00000000000E+00 0.  1.
         21   -1    0    0  503  502 -0.00000000000E+00 -0.00000000000E+00 -0.92692392053E+02  0.92692392053E+02  0.00000000000E+00 0.  1.
         25    1    1    2    0    0 -0.19101978515E+03  0.73976218841E+02  0.77222654537E+03  0.80865312504E+03  0.12500000000E+03 0.  0.
         21    1    1    2  503  504  0.97193103168E+02 -0.25151292413E+03  0.24275091602E+03  0.36281297874E+03  0.00000000000E+00 0.  1.
         21    1    1    2  504  501  0.93826681984E+02  0.17753670529E+03  0.68327012934E+03  0.71216627105E+03  0.00000000000E+00 0.  1.
<mgrwt>
<rscale>  4 0.34480795E+03</rscale>
<asrwt>0</asrwt>
<pdfrwt beam="1">  1       21 0.27552920E+00 0.34480795E+03</pdfrwt>
<pdfrwt beam="2">  1       21 0.14260369E-01 0.34480795E+03</pdfrwt>
<totfact> 0.17724862E+03</totfact>
</mgrwt>
</event>
<event>
 5    0  0.3120399E-003  0.1573626E+03  0.7546771E-02  0.1191707E+00
         21   -1    0    0  502  501  0.00000000000E+00  0.00000000000E+00  0.15136404761E+04  0.15136404761E+04  0.00000000000E+00 0. -1.
         21   -1    0    0  503  502 -0.00000000000E+00 -0.00000000000E+00 -0.21074927524E+03  0.21074927524E+03  0.00000000000E+00 0. -1.
         25    1    1    2    0    0 -0.24102454500E+03 -0.11141017053E+03  0.76863485188E+03  0.82275731107E+03  0.12500000000E+03 0.  0.
         21    1    1    2  503  504  0.16034705073E+02  0.43957409530E+02 -0.16105774825E+03  0.16771691594E+03  0.00000000000E+00 0.  1.
         21    1    1    2  504  501  0.22498983993E+03  0.67452760997E+02  0.69531409728E+03  0.73391552437E+03  0.00000000000E+00 0. -1.
<mgrwt>
<rscale>  4 0.15736262E+03</rscale>
<asrwt>0</asrwt>
<pdfrwt beam="1">  1       21 0.23286776E+00 0.15736262E+03</pdfrwt>
<pdfrwt beam="2">  1       21 0.32422966E-01 0.15736262E+03</pdfrwt>
<totfact> 0.80650290E+02</totfact>
</mgrwt>
</event>
<event>
 5    0  0.4177868E-003  0.3520225E+03  0.7546771E-02  0.1061788E+00
         21   -1    0    0  502  501  0.00000000000E+00  0.00000000000E+00  0.11636548934E+04  0.11636548934E+04  0.00000000000E+00 0. -1.
         21   -1    0    0  504  502 -0.00000000000E+00 -0.00000000000E+00 -0.12405987959E+03  0.12405987959E+03  0.00000000000E+00 0. -1.
         25    1    1    2    0    0  0.19682952051E+03 -0.18652123663E+03  0.48391941576E+03  0.56862556468E+03  0.12500000000E+03 0.  0.
         21    1    1    2  503  501  0.76445593573E+02  0.91917689124E+02  0.33388712261E+03  0.35464545816E+03  0.00000000000E+00 0.  1.
         21    1    1    2  504  503 -0.27327511409E+03  0.94603547509E+02  0.22178847544E+03  0.36444375014E+03  0.00000000000E+00 0.  1.
<mgrwt>
<rscale>  4 0.35202254E+03</rscale>
<asrwt>0</asrwt>
<pdfrwt beam="1">  1       21 0.17902382E+00 0.35202254E+03</pdfrwt>
<pdfrwt beam="2">  1       21 0.19086136E-01 0.35202254E+03</pdfrwt>
<totfact> 0.41832351E+03</totfact>
</mgrwt>
</event>
<event>
 5    0  0.3120399E-003  0.3336082E+03  0.7546771E-02  0.1069551E+00
         21   -1    0    0  502  501  0.00000000000E+00  0.00000000000E+00  0.14889365300E+03  0.14889365300E+03  0.00000000000E+00 0.  1.
         21   -1    0    0  504  502 -0.00000000000E+00 -0.00000000000E+00 -0.80667832984E+03  0.80667832984E+03  0.00000000000E+00 0.  1.
         25    1    1    2    0    0 -0.87343567444E+01 -0.21020244590E+03 -0.15532132724E+03  0.28984663521E+03  0.12500000000E+03 0.  0.
         21    1    1    2  503  501  0.18574352308E+03  0.17239360234E+03 -0.25904966583E+03  0.36239059019E+03  0.00000000000E+00 0.  1.
         21    1    1    2  504  503 -0.17700916634E+03  0.37808843557E+02 -0.24341368377E+03  0.30333475743E+03  0.00000000000E+00 0.  1.
<mgrwt>
<rscale>  4 0.33360816E+03</rscale>
<asrwt>0</asrwt>
<pdfrwt beam="1">  1       21 0.22906716E-01 0.33360816E+03</pdfrwt>
<pdfrwt beam="2">  1       21 0.12410436E+00 0.33360816E+03</pdfrwt>
<totfact> 0.80076424E+03</totfact>
</mgrwt>
</event>
<event>
 5    0  0.3120399E-003  0.3202348E+03  0.7546771E-02  0.1075541E+00
         21   -1    0    0  502  501  0.00000000000E+00  0.00000000000E+00  0.12755745534E+03  0.12755745534E+03  0.00000000000E+00 0. -1.
         21   -1    0    0  504  502 -0.00000000000E+00 -0.00000000000E+00 -0.89788669898E+03  0.89788669898E+03  0.00000000000E+00 0. -1.
         25    1    1    2    0    0 -0.10557168434E+03  0.17807976684E+03 -0.37982083515E+03  0.45027397294E+03  0.12500000000E+03 0.  0.
         21    1    1    2  503  501 -0.12327024996E+03 -0.16785737489E+02 -0.20339991735E+03  0.23842995174E+03  0.00000000000E+00 0. -1.
         21    1    1    2  504  503  0.22884193430E+03 -0.16129402936E+03 -0.18710849115E+03  0.33674022964E+03  0.00000000000E+00 0. -1.
<mgrwt>
<rscale>  4 0.32023482E+03</rscale>
<asrwt>0</asrwt>
<pdfrwt beam="1">  1       21 0.19624223E-01 0.32023482E+03</pdfrwt>
<pdfrwt beam="2">  1       21 0.13813642E+00 0.32023482E+03</pdfrwt>
<totfact> 0.82050903E+03</totfact>
</mgrwt>
</event>
<event>
 5    0  0.3120399E-003  0.3404389E+03  0.7546771E-02  0.1066609E+00
         21   -1    0    0  504  501  0.00000000000E+00  0.00000000000E+00  0.59721742786E+03  0.59721742786E+03  0.00000000000E+00 0. -1.
         21   -1    0    0  501  502 -0.00000000000E+00 -0.00000000000E+00 -0.25082221329E+03  0.25082221329E+03  0.00000000000E+00 0. -1.
         25    1    1    2    0    0 -0.16977255898E+03  0.13957990739E+03  0.17210352381E+03  0.30585927359E+03  0.12500000000E+03 0.  0.
         21    1    1    2  503  502  0.63873924410E+02 -0.26439740916E+03 -0.37424099157E+02  0.27456589626E+03  0.00000000000E+00 0. -1.
         21    1    1    2  504  503  0.10589863457E+03  0.12481750177E+03  0.21171578992E+03  0.26761447131E+03  0.00000000000E+00 0. -1.
<mgrwt>
<rscale>  4 0.34043889E+03</rscale>
<asrwt>0</asrwt>
<pdfrwt beam="1">  1       21 0.91879603E-01 0.34043889E+03</pdfrwt>
<pdfrwt beam="2">  1       21 0.38588033E-01 0.34043889E+03</pdfrwt>
<totfact> 0.59537399E+03</totfact>
</mgrwt>
</event>
<event>
 5    0  0.3120399E-003  0.4153029E+03  0.7546771E-02  0.1038606E+00
         21   -1    0    0  503  501  0.00000000000E+00  0.00000000000E+00  0.18649873776E+04  0.18649873776E+04  0.00000000000E+00 0. -1.
         21   -1    0    0  501  502 -0.00000000000E+00 -0.00000000000E+00 -0.98207482584E+02  0.98207482584E+02  0.00000000000E+00 0. -1.
         25    1    1    2    0    0  0.27579005931E+03  0.14690535229E+02  0.55981684923E+03  0.63662852067E+03  0.12500000000E+03 0.  0.
         21    1    1    2  503  504  0.62782161480E+02  0.14161756590E+03  0.20141221090E+03  0.25409449713E+03  0.00000000000E+00 0.  1.
         21    1    1    2  504  502 -0.33857222079E+03 -0.15630810113E+03  0.10055508349E+04  0.10724718424E+04  0.00000000000E+00 0. -1.
<mgrwt>
<rscale>  4 0.41530286E+03</rscale>
<asrwt>0</asrwt>
<pdfrwt beam="1">  1       21 0.28692111E+00 0.41530286E+03</pdfrwt>
<pdfrwt beam="2">  1       21 0.15108845E-01 0.41530286E+03</pdfrwt>
<totfact> 0.13046235E+03</totfact>
</mgrwt>
</event>
<event>
 5    0  0.3120399E-003  0.2663613E+03  0.7546771E-02  0.1103380E+00
         21   -1    0    0  502  501  0.00000000000E+00  0.00000000000E+00  0.27000847139E+03  0.27000847139E+03  0.00000000000E+00 0.  1.
         21   -1    0    0  503  502 -0.00000000000E+00 -0.00000000000E+00 -0.35244699932E+03  0.35244699932E+03  0.00000000000E+00 0.  1.
         25    1    1    2    0    0 -0.84738594579E+02 -0.19969755899E+03 -0.11679427681E+03  0.27627096766E+03  0.12500000000E+03 0.  0.
         21    1    1    2  503  504  0.15755671841E+03  0.46834730855E+02 -0.26028836632E+02  0.16641848415E+03  0.00000000000E+00 0.  1.
         21    1    1    2  504  501 -0.72818123830E+02  0.15286282814E+03  0.60384585511E+02  0.17976601890E+03  0.00000000000E+00 0.  1.
<mgrwt>
<rscale>  4 0.26636129E+03</rscale>
<asrwt>0</asrwt>
<pdfrwt beam="1">  1       21 0.41539765E-01 0.26636129E+03</pdfrwt>
<pdfrwt beam="2">  1       21 0.54222615E-01 0.26636129E+03</pdfrwt>
<totfact> 0.17232788E+04</totfact>
</mgrwt>
</event>
<event>
 5    0  0.3120399E-003  0.2825802E+03  0.7546771E-02  0.1094288E+00
         21   -1    0    0  502  501  0.00000000000E+00  0.00000000000E+00  0.41146555011E+03  0.41146555011E+03  0.00000000000E+00 0.  1.
         21   -1    0    0  504  502 -0.00000000000E+00 -0.00000000000E+00 -0.27162271355E+03  0.27162271355E+03  0.00000000000E+00 0.  1.
         25    1    1    2    0    0 -0.10615438288E+03 -0.24372293767E+03 -0.10223902592E+03  0.31104250798E+03  0.12500000000E+03 0.  0.
         21    1    1    2  503  501  0.11099514338E+03  0.13993665357E+03  0.15394372828E+03  0.23579834678E+03  0.00000000000E+00 0.  1.
         21    1    1    2  504  503 -0.48407605015E+01  0.10378628410E+03  0.88138134205E+02  0.13624740890E+03  0.00000000000E+00 0. -1.
<mgrwt>
<rscale>  4 0.28258019E+03</rscale>
<asrwt>0</asrwt>
<pdfrwt beam="1">  1       21 0.63302392E-01 0.28258019E+03</pdfrwt>
<pdfrwt beam="2">  1       21 0.41788110E-01 0.28258019E+03</pdfrwt>
<totfact> 0.12097192E+04</totfact>
</mgrwt>
</event>
<event>
 5    0  0.3120399E-003  0.5533319E+03  0.7546771E-02  0.1000726E+00
         21   -1    0    0  503  501  0.00000000000E+00  0.00000000000E+00  0.75515903349E+03  0.75515903349E+03  0.00000000000E+00 0. -1.
         21   -1    0    0  501  502 -0.00000000000E+00 -0.00000000000E+00 -0.47736623340E+03  0.47736623340E+03  0.00000000000E+00 0. -1.
         25    1    1    2    0    0 -0.17235328993E+03 -0.50206616485E+03 -0.10696435456E+03  0.55573596571E+03  0.12500000000E+03 0.  0.
         21    1    1    2  503  504  0.33503138920E+02 -0.17626873373E+01  0.15952818212E+02  0.37149156020E+02  0.00000000000E+00 0.  1.
         21    1    1    2  504  502  0.13885015101E+03  0.50382885219E+03  0.36880433644E+03  0.63964014517E+03  0.00000000000E+00 0. -1.
<mgrwt>
<rscale>  4 0.55333192E+03</rscale>
<asrwt>0</asrwt>
<pdfrwt beam="1">  1       21 0.11617831E+00 0.55333192E+03</pdfrwt>
<pdfrwt beam="2">  1       21 0.73440959E-01 0.55333192E+03</pdfrwt>
<totfact> 0.77410487E+02</totfact>
</mgrwt>
</event>
