<event>
 5    0  0.1911311E+001  0.3123599E+03  0.7546771E-02  0.1079220E+00
         21   -1    0    0  502  501  0.00000000000E+00  0.00000000000E+00  0.70096024034E+03  0.70096024034E+03  0.00000000000E+00 0.  1.
         21   -1    0    0  504  502 -0.00000000000E+00 -0.00000000000E+00 -0.97830735225E+03  0.97830735225E+03  0.00000000000E+00 0. -1.
         25    1    1    2    0    0  0.94262139242E+02  0.31743175219E+03  0.42678409205E+03  0.55445281984E+03  0.12500000000E+03 0.  0.
         21    1    1    2  503  501 -0.65354639536E+02 -0.34436851949E+02  0.18078717365E+03  0.19529753669E+03  0.00000000000E+00 0.  1.
         21    1    1    2  504  503 -0.28907499706E+02 -0.28299490024E+03 -0.88491837762E+03  0.92951723607E+03  0.00000000000E+00 0. -1.
<mgrwt>
<rscale>  4 0.31235993E+03</rscale>
<asrwt>0</asrwt>
<pdfrwt beam="1">  1       21 0.10784004E+00 0.31235993E+03</pdfrwt>
<pdfrwt beam="2">  1       21 0.15050882E+00 0.31235993E+03</pdfrwt>
<totfact> 0.18001685E+02</totfact>
</mgrwt>
</event>
<event>
 5    0  0.1911311E+001  0.2849828E+03  0.7546771E-02  0.1092998E+00
         21   -1    0    0  502  501  0.00000000000E+00  0.00000000000E+00  0.10435910464E+04  0.10435910464E+04  0.00000000000E+00 0. -1.
         21   -1    0    0  504  502 -0.00000000000E+00 -0.00000000000E+00 -0.33503071980E+03  0.33503071980E+03  0.00000000000E+00 0. -1.
         25    1    1    2    0    0 -0.39172920769E+03 -0.12250894371E+02  0.10845558667E+03  0.42542857314E+03  0.12500000000E+03 0.  0.
         21    1    1    2  503  501  0.19098390608E+03 -0.85685872854E+02  0.68345107802E+03  0.71478828840E+03  0.00000000000E+00 0. -1.
         21    1    1    2  504  503  0.20074530161E+03  0.97936767225E+02 -0.83346338088E+02  0.23840490466E+03  0.00000000000E+00 0. -1.
<mgrwt>
<rscale>  4 0.28498278E+03</rscale>
<asrwt>0</asrwt>
<pdfrwt beam="1">  1       21 0.16055247E+00 0.28498278E+03</pdfrwt>
<pdfrwt beam="2">  1       21 0.51543188E-01 0.28498278E+03</pdfrwt>
<totfact> 0.82073261E+02</totfact>
</mgrwt>
</event>
<event>
 5    0  0.1911311E+001  0.2309144E+03  0.7546771E-02  0.1125998E+00
         21   -1    0    0  504  501  0.00000000000E+00  0.00000000000E+00  0.58717972957E+02  0.58717972957E+02  0.00000000000E+00 0.  1.
         21   -1    0    0  503  502 -0.00000000000E+00 -0.00000000000E+00 -0.12623738198E+04  0.12623738198E+04  0.00000000000E+00 0.  1.
         25    1    1    2    0    0 -0.92520130958E+02 -0.19111834271E+03 -0.46639266506E+03  0.52747825886E+03  0.12500000000E+03 0.  0.
         21    1    1    2  503  501  0.14566092135E+02  0.25445910230E+02 -0.46252927005E+03  0.46345764752E+03  0.00000000000E+00 0.  1.
         21    1    1    2  504  502  0.77954038823E+02  0.16567243248E+03 -0.27473391175E+03  0.33015588639E+03  0.00000000000E+00 0.  1.
<mgrwt>
<rscale>  4 0.23091442E+03</rscale>
<asrwt>0</asrwt>
<pdfrwt beam="1">  1       21 0.90335340E-02 0.23091442E+03</pdfrwt>
<pdfrwt beam="2">  1       21 0.19421136E+00 0.23091442E+03</pdfrwt>
<totfact> 0.13803645E+04</totfact>
</mgrwt>
</event>
<event>
 5    0  0.1911311E+001  0.2837782E+03  0.7546771E-02  0.1093643E+00
         21   -1    0    0  502  501  0.00000000000E+00  0.00000000000E+00  0.17056731750E+03  0.17056731750E+03  0.00000000000E+00 0. -1.
         21   -1    0    0  504  502 -0.00000000000E+00 -0.00000000000E+00 -0.76827926484E+03  0.76827926484E+03  0.00000000000E+00 0. -1.
         25    1    1    2    0    0 -0.13131231720E+03 -0.21145696164E+03 -0.28064003079E+02  0.27994563676E+03  0.12500000000E+03 0.  0.
         21    1    1    2  503  501 -0.31734701526E+02  0.13519831029E+02 -0.33447425576E+00  0.34496216967E+02  0.00000000000E+00 0. -1.
         21    1    1    2  504  503  0.16304701872E+03  0.19793713061E+03 -0.56931347000E+03  0.62440472861E+03  0.00000000000E+00 0. -1.
<mgrwt>
<rscale>  4 0.28377824E+03</rscale>
<asrwt>0</asrwt>
<pdfrwt beam="1">  1       21 0.26241126E-01 0.28377824E+03</pdfrwt>
<pdfrwt beam="2">  1       21 0.11819681E+00 0.28377824E+03</pdfrwt>
<totfact> 0.71396124E+03</totfact>
</mgrwt>
</event>
