<event>
 5    0  0.1856407E+000  0.3168453E+03  0.7546771E-02  0.1077110E+00
         21   -1    0    0  502  501  0.00000000000E+00  0.00000000000E+00  0.42645560216E+03  0.42645560216E+03  0.00000000000E+00 0.  1.
         21   -1    0    0  503  502 -0.00000000000E+00 -0.00000000000E+00 -0.37937808718E+03  0.37937808718E+03  0.00000000000E+00 0.  1.
         25    1    1    2    0    0 -0.89771000407E+02 -0.28318300115E+03  0.26763466507E+03  0.41893288078E+03  0.12500000000E+03 0.  0.
         21    1    1    2  503  504  0.55923699761E+02  0.26410629647E+03 -0.21965979497E+03  0.34803738528E+03  0.00000000000E+00 0.  1.
         21    1    1    2  504  501  0.33847300646E+02  0.19076704680E+02 -0.89735511393E+00  0.38863423276E+02  0.00000000000E+00 0. -1.
<mgrwt>
<rscale>  4 0.31684528E+03</rscale>
<asrwt>0</asrwt>
<pdfrwt beam="1">  1       21 0.65608554E-01 0.31684528E+03</pdfrwt>
<pdfrwt beam="2">  1       21 0.58365860E-01 0.31684528E+03</pdfrwt>
<totfact> 0.54467400E+03</totfact>
</mgrwt>
</event>
<event>
 5    0  0.1856407E+000  0.3673127E+03  0.7546771E-02  0.1056991E+00
         21   -1    0    0  502  501  0.00000000000E+00  0.00000000000E+00  0.28069615073E+03  0.28069615073E+03  0.00000000000E+00 0.  1.
         21   -1    0    0  503  502 -0.00000000000E+00 -0.00000000000E+00 -0.60837889973E+03  0.60837889973E+03  0.00000000000E+00 0.  1.
         25    1    1    2    0    0 -0.32961693507E+03 -0.36795838723E+02  0.54950772412E+02  0.35867233657E+03  0.12500000000E+03 0.  0.
         21    1    1    2  503  504  0.23254250150E+03 -0.92862062535E+01 -0.34577436885E+03  0.41679990738E+03  0.00000000000E+00 0.  1.
         21    1    1    2  504  501  0.97074433567E+02  0.46082044976E+02 -0.36859152561E+02  0.11360280652E+03  0.00000000000E+00 0.  1.
<mgrwt>
<rscale>  4 0.36405083E+03</rscale>
<asrwt>0</asrwt>
<pdfrwt beam="1">  1       21 0.43184024E-01 0.36731271E+03</pdfrwt>
<pdfrwt beam="2">  1       21 0.93596752E-01 0.36731271E+03</pdfrwt>
<totfact> 0.44703128E+03</totfact>
</mgrwt>
</event>
<event>
 5    0  0.1856407E+000  0.2974850E+03  0.7546771E-02  0.1086505E+00
         21   -1    0    0  502  501  0.00000000000E+00  0.00000000000E+00  0.15026465297E+03  0.15026465297E+03  0.00000000000E+00 0. -1.
         21   -1    0    0  503  502 -0.00000000000E+00 -0.00000000000E+00 -0.98742325511E+03  0.98742325511E+03  0.00000000000E+00 0. -1.
         25    1    1    2    0    0 -0.27318890817E+03  0.28222698480E+02 -0.40934754806E+03  0.50854607988E+03  0.12500000000E+03 0.  0.
         21    1    1    2  503  504  0.25356153858E+03 -0.93054995030E+02 -0.47511421820E+03  0.54652191747E+03  0.00000000000E+00 0. -1.
         21    1    1    2  504  501  0.19627369590E+02  0.64832296550E+02  0.47303164115E+02  0.82619910725E+02  0.00000000000E+00 0. -1.
<mgrwt>
<rscale>  4 0.29748504E+03</rscale>
<asrwt>0</asrwt>
<pdfrwt beam="1">  1       21 0.23117639E-01 0.29748504E+03</pdfrwt>
<pdfrwt beam="2">  1       21 0.15191127E+00 0.29748504E+03</pdfrwt>
<totfact> 0.47251562E+03</totfact>
</mgrwt>
</event>
<event>
 5    0  0.1856407E+000  0.2787030E+03  0.7546771E-02  0.1096399E+00
         21   -1    0    0  502  501  0.00000000000E+00  0.00000000000E+00  0.73933775660E+03  0.73933775660E+03  0.00000000000E+00 0.  1.
         21   -1    0    0  503  502 -0.00000000000E+00 -0.00000000000E+00 -0.81988439206E+03  0.81988439206E+03  0.00000000000E+00 0. -1.
         25    1    1    2    0    0 -0.82882776921E+01  0.24566062616E+03  0.59956604700E+03  0.65994112124E+03  0.12500000000E+03 0.  0.
         21    1    1    2  503  504 -0.21727026750E+03  0.37378162753E+02 -0.32110813813E+03  0.38950472727E+03  0.00000000000E+00 0. -1.
         21    1    1    2  504  501  0.22555854519E+03 -0.28303878891E+03 -0.35900454433E+03  0.50977630014E+03  0.00000000000E+00 0. -1.
<mgrwt>
<rscale>  4 0.27870304E+03</rscale>
<asrwt>0</asrwt>
<pdfrwt beam="1">  1       21 0.11374427E+00 0.27870304E+03</pdfrwt>
<pdfrwt beam="2">  1       21 0.12613606E+00 0.27870304E+03</pdfrwt>
<totfact> 0.25722540E+02</totfact>
</mgrwt>
</event>
<event>
 5    0  0.1856407E+000  0.2704435E+03  0.7546771E-02  0.1101026E+00
         21   -1    0    0  502  501  0.00000000000E+00  0.00000000000E+00  0.26889265027E+02  0.26889265027E+02  0.00000000000E+00 0.  1.
         21   -1    0    0  503  502 -0.00000000000E+00 -0.00000000000E+00 -0.25361373917E+04  0.25361373917E+04  0.00000000000E+00 0.  1.
         25    1    1    2    0    0  0.73893460657E+02  0.22815445958E+03 -0.14090958475E+04  0.14348138585E+04  0.12500000000E+03 0.  0.
         21    1    1    2  503  504 -0.14500674302E+02 -0.13990734563E+03 -0.53787077225E+03  0.55595800431E+03  0.00000000000E+00 0.  1.
         21    1    1    2  504  501 -0.59392786355E+02 -0.88247113952E+02 -0.56228150686E+03  0.57225479391E+03  0.00000000000E+00 0.  1.
<mgrwt>
<rscale>  4 0.27044353E+03</rscale>
<asrwt>0</asrwt>
<pdfrwt beam="1">  1       21 0.41368093E-02 0.27044353E+03</pdfrwt>
<pdfrwt beam="2">  1       21 0.39017505E+00 0.27044353E+03</pdfrwt>
<totfact> 0.33900538E+03</totfact>
</mgrwt>
</event>
<event>
 5    0  0.1856407E+000  0.2516466E+03  0.7546771E-02  0.1112269E+00
         21   -1    0    0  502  501  0.00000000000E+00  0.00000000000E+00  0.16860449952E+03  0.16860449952E+03  0.00000000000E+00 0.  1.
         21   -1    0    0  503  502 -0.00000000000E+00 -0.00000000000E+00 -0.56094824757E+03  0.56094824757E+03  0.00000000000E+00 0.  1.
         25    1    1    2    0    0  0.21280121263E+03  0.63043420754E+02 -0.11401318255E+03  0.27907496268E+03  0.12500000000E+03 0.  0.
         21    1    1    2  503  504 -0.16528991085E+03 -0.15145314155E+03 -0.26826526812E+03  0.34960701194E+03  0.00000000000E+00 0.  1.
         21    1    1    2  504  501 -0.47511301782E+02  0.88409720800E+02 -0.10065297382E+02  0.10087077248E+03  0.00000000000E+00 0.  1.
<mgrwt>
<rscale>  4 0.25164663E+03</rscale>
<asrwt>0</asrwt>
<pdfrwt beam="1">  1       21 0.25939154E-01 0.25164663E+03</pdfrwt>
<pdfrwt beam="2">  1       21 0.86299730E-01 0.25164663E+03</pdfrwt>
<totfact> 0.15787148E+04</totfact>
</mgrwt>
</event>
<event>
 5    0  0.1856407E+000  0.2826009E+03  0.7546771E-02  0.1094277E+00
         21   -1    0    0  502  501  0.00000000000E+00  0.00000000000E+00  0.12696336142E+04  0.12696336142E+04  0.00000000000E+00 0. -1.
         21   -1    0    0  503  502 -0.00000000000E+00 -0.00000000000E+00 -0.81893225950E+02  0.81893225950E+02  0.00000000000E+00 0. -1.
         25    1    1    2    0    0 -0.52287607307E+01 -0.25339870687E+03  0.96908697448E+03  0.10094517367E+04  0.12500000000E+03 0.  0.
         21    1    1    2  503  504  0.37295461899E+02  0.15587968966E+03  0.12790913589E+03  0.20506139610E+03  0.00000000000E+00 0. -1.
         21    1    1    2  504  501 -0.32066701169E+02  0.97519017218E+02  0.90744277915E+02  0.13701370741E+03  0.00000000000E+00 0. -1.
<mgrwt>
<rscale>  4 0.28260086E+03</rscale>
<asrwt>0</asrwt>
<pdfrwt beam="1">  1       21 0.19532823E+00 0.28260086E+03</pdfrwt>
<pdfrwt beam="2">  1       21 0.12598959E-01 0.28260086E+03</pdfrwt>
<totfact> 0.72473007E+03</totfact>
</mgrwt>
</event>
<event>
 5    0  0.1856407E+000  0.2969810E+03  0.7546771E-02  0.1086760E+00
         21   -1    0    0  502  501  0.00000000000E+00  0.00000000000E+00  0.87628792473E+03  0.87628792473E+03  0.00000000000E+00 0.  1.
         21   -1    0    0  503  502 -0.00000000000E+00 -0.00000000000E+00 -0.17989487170E+03  0.17989487170E+03  0.00000000000E+00 0.  1.
         25    1    1    2    0    0  0.21830016188E+03  0.23324321905E+03  0.54310721057E+03  0.64237668239E+03  0.12500000000E+03 0.  0.
         21    1    1    2  503  504 -0.16851348654E+03 -0.14317783680E+03  0.20240554422E+03  0.29977440256E+03  0.00000000000E+00 0.  1.
         21    1    1    2  504  501 -0.49786675346E+02 -0.90065382250E+02 -0.49119701757E+02  0.11403171148E+03  0.00000000000E+00 0. -1.
<mgrwt>
<rscale>  4 0.29698104E+03</rscale>
<asrwt>0</asrwt>
<pdfrwt beam="1">  1       21 0.13481352E+00 0.29698104E+03</pdfrwt>
<pdfrwt beam="2">  1       21 0.27676135E-01 0.29698104E+03</pdfrwt>
<totfact> 0.45756688E+03</totfact>
</mgrwt>
</event>
