<event>
 5    0  0.2396052E+000  0.4616692E+03  0.7546771E-02  0.1024298E+00
         21   -1    0    0  501  502  0.00000000000E+00  0.00000000000E+00  0.18758205169E+03  0.18758205169E+03  0.00000000000E+00 0. -1.
          2   -1    0    0  503    0 -0.00000000000E+00 -0.00000000000E+00 -0.15874595762E+04  0.15874595762E+04  0.00000000000E+00 0.  1.
         25    1    1    2    0    0 -0.79513198764E+02  0.27290831567E+03 -0.14943326037E+03  0.34461079037E+03  0.12500000000E+03 0.  0.
         21    1    1    2  503  502  0.81239073488E+02 -0.95065753516E+02  0.37276080799E+02  0.13048674551E+03  0.00000000000E+00 0. -1.
          2    1    1    2  501    0 -0.17258747240E+01 -0.17784256215E+03 -0.12877203449E+04  0.12999440920E+04  0.00000000000E+00 0.  1.
<mgrwt>
<rscale>  4 0.46166918E+03</rscale>
<asrwt>0</asrwt>
<pdfrwt beam="1">  1       21 0.28858778E-01 0.46166918E+03</pdfrwt>
<pdfrwt beam="2">  1        2 0.24422454E+00 0.46166918E+03</pdfrwt>
<totfact> 0.16392759E+03</totfact>
</mgrwt>
</event>
<event>
 5    0  0.2396052E+000  0.6040268E+03  0.7546771E-02  0.9897087E-01
         21   -1    0    0  501  502  0.00000000000E+00  0.00000000000E+00  0.34017274247E+03  0.34017274247E+03  0.00000000000E+00 0. -1.
         -4   -1    0    0    0  501 -0.00000000000E+00 -0.00000000000E+00 -0.51329260982E+03  0.51329260982E+03  0.00000000000E+00 0. -1.
         25    1    1    2    0    0  0.32204345976E+03 -0.20275427479E+02  0.37528097540E+02  0.34807533817E+03  0.12500000000E+03 0.  0.
         21    1    1    2  503  502 -0.25456671524E+03 -0.41238393448E+02  0.18672342478E+02  0.25856038748E+03  0.00000000000E+00 0.  1.
         -4    1    1    2    0  503 -0.67476744525E+02  0.61513820927E+02 -0.22932030736E+03  0.24682962664E+03  0.00000000000E+00 0. -1.
<mgrwt>
<rscale>  4 0.60402683E+03</rscale>
<asrwt>0</asrwt>
<pdfrwt beam="1">  1       21 0.52334268E-01 0.60402683E+03</pdfrwt>
<pdfrwt beam="2">  1       -4 0.78968093E-01 0.60402683E+03</pdfrwt>
<totfact> 0.20314856E+02</totfact>
</mgrwt>
</event>
<event>
 5    0  0.2396052E+000  0.5210601E+03  0.7546771E-02  0.1008424E+00
         21   -1    0    0  501  502  0.00000000000E+00  0.00000000000E+00  0.63528800542E+02  0.63528800542E+02  0.00000000000E+00 0. -1.
          1   -1    0    0  503    0 -0.00000000000E+00 -0.00000000000E+00 -0.14398189991E+04  0.14398189991E+04  0.00000000000E+00 0. -1.
         25    1    1    2    0    0  0.20007790852E+03 -0.10158561104E+03 -0.63685955242E+03  0.68670655695E+03  0.12500000000E+03 0.  0.
         21    1    1    2  503  502 -0.22978488263E+03  0.10284739846E+03 -0.37904841639E+03  0.45503448399E+03  0.00000000000E+00 0. -1.
          1    1    1    2  501    0  0.29706974111E+02 -0.12617874239E+01 -0.36038222971E+03  0.36160675866E+03  0.00000000000E+00 0. -1.
<mgrwt>
<rscale>  4 0.52106008E+03</rscale>
<asrwt>0</asrwt>
<pdfrwt beam="1">  1       21 0.97736618E-02 0.52106008E+03</pdfrwt>
<pdfrwt beam="2">  1        1 0.22151061E+00 0.52106008E+03</pdfrwt>
<totfact> 0.69742299E+03</totfact>
</mgrwt>
</event>
<event>
 5    0  0.2396052E+000  0.6660074E+03  0.7546771E-02  0.9777198E-01
         21   -1    0    0  501  502  0.00000000000E+00  0.00000000000E+00  0.19113537034E+03  0.19113537034E+03  0.00000000000E+00 0. -1.
          2   -1    0    0  503    0 -0.00000000000E+00 -0.00000000000E+00 -0.11424192307E+04  0.11424192307E+04  0.00000000000E+00 0. -1.
         25    1    1    2    0    0 -0.18743015783E+03 -0.17409494204E+03 -0.36030876576E+03  0.45922382298E+03  0.12500000000E+03 0.  0.
         21    1    1    2  503  502  0.36693360329E+02  0.35003511190E+03 -0.16342834198E+03  0.38804613801E+03  0.00000000000E+00 0.  1.
          2    1    1    2  501    0  0.15073679750E+03 -0.17594016986E+03 -0.42754675262E+03  0.48628464007E+03  0.00000000000E+00 0. -1.
<mgrwt>
<rscale>  4 0.66600738E+03</rscale>
<asrwt>0</asrwt>
<pdfrwt beam="1">  1       21 0.29405442E-01 0.66600738E+03</pdfrwt>
<pdfrwt beam="2">  1        2 0.17575680E+00 0.66600738E+03</pdfrwt>
<totfact> 0.27148724E+03</totfact>
</mgrwt>
</event>
<event>
 5    0  0.2396052E+000  0.6035955E+03  0.7546771E-02  0.9897975E-01
         21   -1    0    0  501  502  0.00000000000E+00  0.00000000000E+00  0.21761342640E+03  0.21761342640E+03  0.00000000000E+00 0. -1.
          2   -1    0    0  503    0 -0.00000000000E+00 -0.00000000000E+00 -0.56197598315E+03  0.56197598315E+03  0.00000000000E+00 0. -1.
         25    1    1    2    0    0  0.20418209796E+03 -0.82179611613E+02 -0.31693194252E+03  0.40560408514E+03  0.12500000000E+03 0.  0.
         21    1    1    2  503  502 -0.19218195968E+03  0.61987019662E+02  0.11313914649E+03  0.23146654769E+03  0.00000000000E+00 0. -1.
          2    1    1    2  501    0 -0.12000138283E+02  0.20192591950E+02 -0.14056976072E+03  0.14251877672E+03  0.00000000000E+00 0. -1.
<mgrwt>
<rscale>  4 0.60359547E+03</rscale>
<asrwt>0</asrwt>
<pdfrwt beam="1">  1       21 0.33478989E-01 0.60359547E+03</pdfrwt>
<pdfrwt beam="2">  1        2 0.86457843E-01 0.60359547E+03</pdfrwt>
<totfact> 0.54491103E+03</totfact>
</mgrwt>
</event>
<event>
 5    0  0.2396052E+000  0.3151732E+03  0.7546771E-02  0.1077892E+00
         21   -1    0    0  501  502  0.00000000000E+00  0.00000000000E+00  0.11605244827E+03  0.11605244827E+03  0.00000000000E+00 0.  1.
         -3   -1    0    0    0  501 -0.00000000000E+00 -0.00000000000E+00 -0.53360550658E+03  0.53360550658E+03  0.00000000000E+00 0. -1.
         25    1    1    2    0    0 -0.16668798040E+03 -0.12980106200E+03 -0.11561205757E+03  0.27133806656E+03  0.12500000000E+03 0.  0.
         21    1    1    2  503  502  0.47869213343E+02  0.50281369474E+02 -0.40593267013E+02  0.80420712687E+02  0.00000000000E+00 0. -1.
         -3    1    1    2    0  503  0.11881876706E+03  0.79519692523E+02 -0.26134773373E+03  0.29789917561E+03  0.00000000000E+00 0. -1.
<mgrwt>
<rscale>  4 0.31517318E+03</rscale>
<asrwt>0</asrwt>
<pdfrwt beam="1">  1       21 0.17854223E-01 0.31517318E+03</pdfrwt>
<pdfrwt beam="2">  1       -3 0.82093155E-01 0.31517318E+03</pdfrwt>
<totfact> 0.19778287E+03</totfact>
</mgrwt>
</event>
<event>
 5    0  0.2396052E+000  0.4928925E+03  0.7546771E-02  0.1015651E+00
          2   -1    0    0  503    0 -0.00000000000E+00  0.00000000000E+00  0.13971762263E+04  0.13971762263E+04  0.00000000000E+00 0.  1.
         21   -1    0    0  501  502  0.00000000000E+00 -0.00000000000E+00 -0.27107965192E+03  0.27107965192E+03  0.00000000000E+00 0.  1.
         25    1    1    2    0    0 -0.16553882206E+03  0.14338546164E+03 -0.52530926678E+02  0.25757909557E+03  0.12500000000E+03 0.  0.
         21    1    1    2  503  502  0.17084034802E+03 -0.16493453158E+03  0.56943105438E+01  0.23753368054E+03  0.00000000000E+00 0.  1.
          2    1    1    2  501    0 -0.53015259601E+01  0.21549069944E+02  0.11729331905E+04  0.11731431021E+04  0.00000000000E+00 0.  1.
<mgrwt>
<rscale>  4 0.49289248E+03</rscale>
<asrwt>0</asrwt>
<pdfrwt beam="1">  1       21 0.41704563E-01 0.49289248E+03</pdfrwt>
<pdfrwt beam="2">  1        2 0.21495018E+00 0.49289248E+03</pdfrwt>
<totfact> 0.98156265E+02</totfact>
</mgrwt>
</event>
<event>
 5    0  0.2396052E+000  0.4417301E+03  0.7546771E-02  0.1030217E+00
          4   -1    0    0  503    0 -0.00000000000E+00  0.00000000000E+00  0.38114777765E+03  0.38114777765E+03  0.00000000000E+00 0. -1.
         21   -1    0    0  501  502  0.00000000000E+00 -0.00000000000E+00 -0.37992589194E+03  0.37992589194E+03  0.00000000000E+00 0. -1.
         25    1    1    2    0    0 -0.22561740899E+03  0.58326309862E+02 -0.26163279070E+03  0.37199716509E+03  0.12500000000E+03 0.  0.
         21    1    1    2  503  502  0.10517361255E+03  0.39520009056E+02  0.43718369708E+02  0.12055959415E+03  0.00000000000E+00 0.  1.
          4    1    1    2  501    0  0.12044379644E+03 -0.97846318918E+02  0.21913630670E+03  0.26851691035E+03  0.00000000000E+00 0. -1.
<mgrwt>
<rscale>  4 0.44173008E+03</rscale>
<asrwt>0</asrwt>
<pdfrwt beam="1">  1       21 0.58450137E-01 0.44173008E+03</pdfrwt>
<pdfrwt beam="2">  1        4 0.58638120E-01 0.44173008E+03</pdfrwt>
<totfact> 0.31241864E+02</totfact>
</mgrwt>
</event>
<event>
 5    0  0.2396052E+000  0.5975332E+03  0.7546771E-02  0.9910537E-01
          2   -1    0    0  503    0 -0.00000000000E+00  0.00000000000E+00  0.33302686090E+04  0.33302686090E+04  0.00000000000E+00 0.  1.
         21   -1    0    0  501  502  0.00000000000E+00 -0.00000000000E+00 -0.26052643468E+04  0.26052643468E+04  0.00000000000E+00 0.  1.
         25    1    1    2    0    0 -0.21964862558E+03 -0.66305200024E+02 -0.77590840868E+03  0.81871897311E+03  0.12500000000E+03 0.  0.
         21    1    1    2  503  502  0.26856290143E+03  0.14449629612E+03 -0.17944402690E+04  0.18201706213E+04  0.00000000000E+00 0.  1.
          2    1    1    2  501    0 -0.48914275858E+02 -0.78191096096E+02  0.32953529399E+04  0.32966433614E+04  0.00000000000E+00 0.  1.
<mgrwt>
<rscale>  4 0.59753323E+03</rscale>
<asrwt>0</asrwt>
<pdfrwt beam="1">  1       21 0.40080990E+00 0.59753323E+03</pdfrwt>
<pdfrwt beam="2">  1        2 0.51234902E+00 0.59753323E+03</pdfrwt>
<totfact> 0.89397860E-02</totfact>
</mgrwt>
</event>
<event>
 5    0  0.2396052E+000  0.4036290E+03  0.7546771E-02  0.1042530E+00
         21   -1    0    0  501  502  0.00000000000E+00  0.00000000000E+00  0.56273082739E+02  0.56273082739E+02  0.00000000000E+00 0. -1.
          2   -1    0    0  503    0 -0.00000000000E+00 -0.00000000000E+00 -0.20917351372E+04  0.20917351372E+04  0.00000000000E+00 0. -1.
         25    1    1    2    0    0  0.21933719227E+03  0.13163064680E+03 -0.68064915261E+03  0.73779651669E+03  0.12500000000E+03 0.  0.
         21    1    1    2  503  502 -0.64628844112E+02 -0.64070135819E+02 -0.71206927530E+02  0.11555213682E+03  0.00000000000E+00 0. -1.
          2    1    1    2  501    0 -0.15470834816E+03 -0.67560510985E+02 -0.12836059743E+04  0.12946595664E+04  0.00000000000E+00 0. -1.
<mgrwt>
<rscale>  4 0.40362899E+03</rscale>
<asrwt>0</asrwt>
<pdfrwt beam="1">  1       21 0.86573972E-02 0.40362899E+03</pdfrwt>
<pdfrwt beam="2">  1        2 0.32180541E+00 0.40362899E+03</pdfrwt>
<totfact> 0.84419677E+03</totfact>
</mgrwt>
</event>
<event>
 5    0  0.2396052E+000  0.6116419E+03  0.7546771E-02  0.9881543E-01
         21   -1    0    0  501  502  0.00000000000E+00  0.00000000000E+00  0.38156698145E+03  0.38156698145E+03  0.00000000000E+00 0.  1.
          3   -1    0    0  503    0 -0.00000000000E+00 -0.00000000000E+00 -0.59772987961E+03  0.59772987961E+03  0.00000000000E+00 0. -1.
         25    1    1    2    0    0  0.39357371144E+03 -0.10227886481E+03  0.11036919621E+03  0.43950835259E+03  0.12500000000E+03 0.  0.
         21    1    1    2  503  502 -0.13163310248E+03 -0.31951275903E+02 -0.10623838114E+03  0.17214746971E+03  0.00000000000E+00 0. -1.
          3    1    1    2  501    0 -0.26194060896E+03  0.13423014071E+03 -0.22029371323E+03  0.36764103877E+03  0.00000000000E+00 0. -1.
<mgrwt>
<rscale>  4 0.61164187E+03</rscale>
<asrwt>0</asrwt>
<pdfrwt beam="1">  1       21 0.58702613E-01 0.61164187E+03</pdfrwt>
<pdfrwt beam="2">  1        3 0.91958442E-01 0.61164187E+03</pdfrwt>
<totfact> 0.13573351E+02</totfact>
</mgrwt>
</event>
<event>
 5    0  0.2396052E+000  0.3608033E+03  0.7546771E-02  0.1058266E+00
         21   -1    0    0  501  502  0.00000000000E+00  0.00000000000E+00  0.91099945128E+02  0.91099945128E+02  0.00000000000E+00 0.  1.
          2   -1    0    0  503    0 -0.00000000000E+00 -0.00000000000E+00 -0.62242098326E+03  0.62242098326E+03  0.00000000000E+00 0. -1.
         25    1    1    2    0    0  0.73374780204E+02 -0.19707229768E+03 -0.19591563280E+03  0.31341551343E+03  0.12500000000E+03 0.  0.
         21    1    1    2  503  502 -0.49675537343E+02  0.10234894273E+03 -0.13052261985E+03  0.17314479311E+03  0.00000000000E+00 0. -1.
          2    1    1    2  501    0 -0.23699242861E+02  0.94723354951E+02 -0.20488278548E+03  0.22696062185E+03  0.00000000000E+00 0. -1.
<mgrwt>
<rscale>  4 0.36080327E+03</rscale>
<asrwt>0</asrwt>
<pdfrwt beam="1">  1       21 0.14015376E-01 0.36080327E+03</pdfrwt>
<pdfrwt beam="2">  1        2 0.95757077E-01 0.36080327E+03</pdfrwt>
<totfact> 0.26440383E+04</totfact>
</mgrwt>
</event>
<event>
 5    0  0.2396052E+000  0.4709311E+03  0.7546771E-02  0.1021658E+00
          2   -1    0    0  503    0 -0.00000000000E+00  0.00000000000E+00  0.17437763228E+04  0.17437763228E+04  0.00000000000E+00 0.  1.
         21   -1    0    0  501  502  0.00000000000E+00 -0.00000000000E+00 -0.30747528071E+03  0.30747528071E+03  0.00000000000E+00 0. -1.
         25    1    1    2    0    0  0.33922870242E+03  0.13282925958E+03  0.25503024836E+01  0.38516389860E+03  0.12500000000E+03 0.  0.
         21    1    1    2  503  502  0.29323333340E+02  0.68550969453E+01 -0.88582267902E+02  0.93561041139E+02  0.00000000000E+00 0.  1.
          2    1    1    2  501    0 -0.36855203576E+03 -0.13968435652E+03  0.15223330075E+04  0.15725266638E+04  0.00000000000E+00 0.  1.
<mgrwt>
<rscale>  4 0.47093107E+03</rscale>
<asrwt>0</asrwt>
<pdfrwt beam="1">  1       21 0.47303891E-01 0.47093107E+03</pdfrwt>
<pdfrwt beam="2">  1        2 0.26827327E+00 0.47093107E+03</pdfrwt>
<totfact> 0.49091324E+02</totfact>
</mgrwt>
</event>
<event>
 5    0  0.2396052E+000  0.4116970E+03  0.7546771E-02  0.1039803E+00
          2   -1    0    0  503    0 -0.00000000000E+00  0.00000000000E+00  0.13783989432E+04  0.13783989432E+04  0.00000000000E+00 0. -1.
         21   -1    0    0  501  502  0.00000000000E+00 -0.00000000000E+00 -0.15778304072E+03  0.15778304072E+03  0.00000000000E+00 0. -1.
         25    1    1    2    0    0  0.23947354913E+03  0.92437861237E+02  0.10096741110E+03  0.30283949054E+03  0.12500000000E+03 0.  0.
         21    1    1    2  503  502 -0.85637757024E+02 -0.91319897167E+02  0.24657584660E+02  0.12759759217E+03  0.00000000000E+00 0. -1.
          2    1    1    2  501    0 -0.15383579211E+03 -0.11179640698E+01  0.10949909068E+04  0.11057449013E+04  0.00000000000E+00 0. -1.
<mgrwt>
<rscale>  4 0.41169703E+03</rscale>
<asrwt>0</asrwt>
<pdfrwt beam="1">  1       21 0.24274315E-01 0.41169703E+03</pdfrwt>
<pdfrwt beam="2">  1        2 0.21206137E+00 0.41169703E+03</pdfrwt>
<totfact> 0.30304161E+03</totfact>
</mgrwt>
</event>
<event>
 5    0  0.2396052E+000  0.5429795E+03  0.7546771E-02  0.1003132E+00
         21   -1    0    0  501  502  0.00000000000E+00  0.00000000000E+00  0.29373256407E+03  0.29373256407E+03  0.00000000000E+00 0.  1.
         -1   -1    0    0    0  501 -0.00000000000E+00 -0.00000000000E+00 -0.28757745688E+03  0.28757745688E+03  0.00000000000E+00 0.  1.
         25    1    1    2    0    0  0.24019854666E+03 -0.23589905805E+02 -0.97361532306E+02  0.28871455358E+03  0.12500000000E+03 0.  0.
         21    1    1    2  503  502 -0.21722299105E+03  0.41621059595E+02  0.12706740094E+03  0.25507697824E+03  0.00000000000E+00 0.  1.
         -1    1    1    2    0  503 -0.22975555605E+02 -0.18031153790E+02 -0.23550761449E+02  0.37518489138E+02  0.00000000000E+00 0.  1.
<mgrwt>
<rscale>  4 0.54297955E+03</rscale>
<asrwt>0</asrwt>
<pdfrwt beam="1">  1       21 0.45189625E-01 0.54297955E+03</pdfrwt>
<pdfrwt beam="2">  1       -1 0.44242686E-01 0.54297955E+03</pdfrwt>
<totfact> 0.20833900E+03</totfact>
</mgrwt>
</event>
<event>
 5    0  0.2396052E+000  0.3289226E+03  0.7546771E-02  0.1071615E+00
         21   -1    0    0  501  502  0.00000000000E+00  0.00000000000E+00  0.41088685877E+02  0.41088685877E+02  0.00000000000E+00 0. -1.
          1   -1    0    0  503    0 -0.00000000000E+00 -0.00000000000E+00 -0.27731431905E+04  0.27731431905E+04  0.00000000000E+00 0. -1.
         25    1    1    2    0    0  0.21462520966E+03 -0.60715948232E+02 -0.43173171654E+03  0.50176456836E+03  0.12500000000E+03 0.  0.
         21    1    1    2  503  502 -0.24754664569E+02 -0.18512345244E+02 -0.28695996024E+03  0.28862002551E+03  0.00000000000E+00 0.  1.
          1    1    1    2  501    0 -0.18987054509E+03  0.79228293476E+02 -0.20133628278E+04  0.20238472825E+04  0.00000000000E+00 0. -1.
<mgrwt>
<rscale>  4 0.32892260E+03</rscale>
<asrwt>0</asrwt>
<pdfrwt beam="1">  1       21 0.63213341E-02 0.32892260E+03</pdfrwt>
<pdfrwt beam="2">  1        1 0.42663756E+00 0.32892260E+03</pdfrwt>
<totfact> 0.20338637E+03</totfact>
</mgrwt>
</event>
<event>
 5    0  0.2396052E+000  0.4866549E+03  0.7546771E-02  0.1017322E+00
         -4   -1    0    0    0  501 -0.00000000000E+00  0.00000000000E+00  0.12386491996E+04  0.12386491996E+04  0.00000000000E+00 0.  1.
         21   -1    0    0  501  502  0.00000000000E+00 -0.00000000000E+00 -0.15310241025E+03  0.15310241025E+03  0.00000000000E+00 0. -1.
         25    1    1    2    0    0 -0.25036605135E+03  0.11579426301E+01  0.12992117278E+03  0.30852716515E+03  0.12500000000E+03 0.  0.
         21    1    1    2  503  502  0.20416747887E+03  0.32114989169E+02  0.10707807997E+03  0.23276908551E+03  0.00000000000E+00 0. -1.
         -4    1    1    2    0  503  0.46198572483E+02 -0.33272931800E+02  0.84854753662E+03  0.85045535920E+03  0.00000000000E+00 0.  1.
<mgrwt>
<rscale>  4 0.48665489E+03</rscale>
<asrwt>0</asrwt>
<pdfrwt beam="1">  1       21 0.23554218E-01 0.48665489E+03</pdfrwt>
<pdfrwt beam="2">  1       -4 0.19056141E+00 0.48665489E+03</pdfrwt>
<totfact> 0.11278795E+02</totfact>
</mgrwt>
</event>
<event>
 5    0  0.2396052E+000  0.5814797E+03  0.7546771E-02  0.9944593E-01
         21   -1    0    0  501  502  0.00000000000E+00  0.00000000000E+00  0.47172369844E+02  0.47172369844E+02  0.00000000000E+00 0.  1.
          1   -1    0    0  503    0 -0.00000000000E+00 -0.00000000000E+00 -0.23491085348E+04  0.23491085348E+04  0.00000000000E+00 0.  1.
         25    1    1    2    0    0  0.15766354528E+03 -0.24665446522E+03 -0.85929284785E+03  0.91635441675E+03  0.12500000000E+03 0.  0.
         21    1    1    2  503  502 -0.15881818260E+03  0.20352011904E+03 -0.92083595534E+03  0.95633807340E+03  0.00000000000E+00 0.  1.
          1    1    1    2  501    0  0.11546373200E+01  0.43134346178E+02 -0.52180736177E+03  0.52358841450E+03  0.00000000000E+00 0.  1.
<mgrwt>
<rscale>  4 0.58147967E+03</rscale>
<asrwt>0</asrwt>
<pdfrwt beam="1">  1       21 0.72572878E-02 0.58147967E+03</pdfrwt>
<pdfrwt beam="2">  1        1 0.36140131E+00 0.58147967E+03</pdfrwt>
<totfact> 0.29023846E+03</totfact>
</mgrwt>
</event>
<event>
 5    0  0.2396052E+000  0.5728910E+03  0.7546771E-02  0.9963302E-01
          2   -1    0    0  503    0 -0.00000000000E+00  0.00000000000E+00  0.24629219734E+04  0.24629219734E+04  0.00000000000E+00 0. -1.
         21   -1    0    0  501  502  0.00000000000E+00 -0.00000000000E+00 -0.83867690653E+02  0.83867690653E+02  0.00000000000E+00 0.  1.
         25    1    1    2    0    0 -0.14336631559E+03  0.14000851805E+03  0.21215269344E+03  0.31747448859E+03  0.12500000000E+03 0.  0.
         21    1    1    2  503  502 -0.91042806660E+02 -0.24119094445E+03  0.86434902420E+03  0.90197621918E+03  0.00000000000E+00 0. -1.
          2    1    1    2  501    0  0.23440912225E+03  0.10118242640E+03  0.13025525651E+04  0.13273389562E+04  0.00000000000E+00 0. -1.
<mgrwt>
<rscale>  4 0.57289098E+03</rscale>
<asrwt>0</asrwt>
<pdfrwt beam="1">  1       21 0.12902724E-01 0.57289098E+03</pdfrwt>
<pdfrwt beam="2">  1        2 0.37891102E+00 0.57289098E+03</pdfrwt>
<totfact> 0.24769800E+03</totfact>
</mgrwt>
</event>
<event>
 5    0  0.2396052E+000  0.5327830E+03  0.7546771E-02  0.1005559E+00
          1   -1    0    0  503    0 -0.00000000000E+00  0.00000000000E+00  0.14898686689E+04  0.14898686689E+04  0.00000000000E+00 0. -1.
         21   -1    0    0  501  502  0.00000000000E+00 -0.00000000000E+00 -0.42355588148E+03  0.42355588148E+03  0.00000000000E+00 0. -1.
         25    1    1    2    0    0  0.22390099281E+03 -0.61463556786E+02 -0.61399505265E+02  0.27074771032E+03  0.12500000000E+03 0.  0.
         21    1    1    2  503  502 -0.24459040089E+03  0.70302569469E+02 -0.19447836074E+03  0.32029478340E+03  0.00000000000E+00 0. -1.
          1    1    1    2  501    0  0.20689408075E+02 -0.88390126822E+01  0.13221906534E+04  0.13223820566E+04  0.00000000000E+00 0. -1.
<mgrwt>
<rscale>  4 0.53278302E+03</rscale>
<asrwt>0</asrwt>
<pdfrwt beam="1">  1       21 0.65162444E-01 0.53278302E+03</pdfrwt>
<pdfrwt beam="2">  1        1 0.22921056E+00 0.53278302E+03</pdfrwt>
<totfact> 0.15180420E+02</totfact>
</mgrwt>
</event>
<event>
 5    0  0.2396052E+000  0.9167195E+03  0.7546771E-02  0.9404919E-01
         21   -1    0    0  501  502  0.00000000000E+00  0.00000000000E+00  0.16849840114E+03  0.16849840114E+03  0.00000000000E+00 0. -1.
          2   -1    0    0  503    0 -0.00000000000E+00 -0.00000000000E+00 -0.21043463193E+04  0.21043463193E+04  0.00000000000E+00 0.  1.
         25    1    1    2    0    0 -0.23133757336E+01 -0.22552879363E+03  0.49113285563E+02  0.26249895863E+03  0.12500000000E+03 0.  0.
         21    1    1    2  503  502  0.37836007733E+02  0.23412421788E+03 -0.11307623356E+04  0.11553653849E+04  0.00000000000E+00 0.  1.
          2    1    1    2  501    0 -0.35522632000E+02 -0.85954242507E+01 -0.85419886814E+03  0.85498037699E+03  0.00000000000E+00 0.  1.
<mgrwt>
<rscale>  4 0.91671949E+03</rscale>
<asrwt>0</asrwt>
<pdfrwt beam="1">  1       21 0.25922829E-01 0.91671949E+03</pdfrwt>
<pdfrwt beam="2">  1        2 0.32374561E+00 0.91671949E+03</pdfrwt>
<totfact> 0.97644163E+02</totfact>
</mgrwt>
</event>
<event>
 5    0  0.2396052E+000  0.9623316E+03  0.7546771E-02  0.9350852E-01
         -3   -1    0    0    0  501 -0.00000000000E+00  0.00000000000E+00  0.44414474912E+03  0.44414474912E+03  0.00000000000E+00 0. -1.
         21   -1    0    0  501  502  0.00000000000E+00 -0.00000000000E+00 -0.18883498563E+04  0.18883498563E+04  0.00000000000E+00 0.  1.
         25    1    1    2    0    0 -0.41937170722E+03  0.94998273033E+02 -0.50440118813E+03  0.67449452131E+03  0.12500000000E+03 0.  0.
         21    1    1    2  503  502  0.44226245714E+03 -0.20548077178E+02 -0.12563151551E+04  0.13320458226E+04  0.00000000000E+00 0.  1.
         -3    1    1    2    0  503 -0.22890749927E+02 -0.74450195855E+02  0.31651123603E+03  0.32595426156E+03  0.00000000000E+00 0. -1.
<mgrwt>
<rscale>  4 0.96233160E+03</rscale>
<asrwt>0</asrwt>
<pdfrwt beam="1">  1       21 0.29051535E+00 0.96233160E+03</pdfrwt>
<pdfrwt beam="2">  1       -3 0.68329963E-01 0.96233160E+03</pdfrwt>
<totfact> 0.28507221E+00</totfact>
</mgrwt>
</event>
<event>
 5    0  0.2396052E+000  0.5637586E+03  0.7546771E-02  0.9983586E-01
          2   -1    0    0  503    0 -0.00000000000E+00  0.00000000000E+00  0.79351014670E+03  0.79351014670E+03  0.00000000000E+00 0. -1.
         21   -1    0    0  501  502  0.00000000000E+00 -0.00000000000E+00 -0.14965674740E+03  0.14965674740E+03  0.00000000000E+00 0.  1.
         25    1    1    2    0    0  0.20454152951E+03 -0.38324082624E+02  0.34454712566E+03  0.42147798804E+03  0.12500000000E+03 0.  0.
         21    1    1    2  503  502 -0.25612733630E+03  0.55025548796E+02  0.50184867609E+02  0.26673497026E+03  0.00000000000E+00 0.  1.
          2    1    1    2  501    0  0.51585806792E+02 -0.16701466172E+02  0.24912140604E+03  0.25495393580E+03  0.00000000000E+00 0. -1.
<mgrwt>
<rscale>  4 0.56375857E+03</rscale>
<asrwt>0</asrwt>
<pdfrwt beam="1">  1       21 0.23024116E-01 0.56375857E+03</pdfrwt>
<pdfrwt beam="2">  1        2 0.12207848E+00 0.56375857E+03</pdfrwt>
<totfact> 0.74950763E+03</totfact>
</mgrwt>
</event>
<event>
 5    0  0.2396052E+000  0.4836238E+03  0.7546771E-02  0.1018144E+00
         21   -1    0    0  501  502  0.00000000000E+00  0.00000000000E+00  0.16552536601E+04  0.16552536601E+04  0.00000000000E+00 0.  1.
         -1   -1    0    0    0  501 -0.00000000000E+00 -0.00000000000E+00 -0.67790855714E+02  0.67790855714E+02  0.00000000000E+00 0. -1.
         25    1    1    2    0    0  0.14260034020E+02  0.21997898111E+03  0.93853332893E+03  0.97214397607E+03  0.12500000000E+03 0.  0.
         21    1    1    2  503  502  0.10635651155E+03 -0.19443204216E+03  0.54951018052E+03  0.59251748080E+03  0.00000000000E+00 0. -1.
         -1    1    1    2    0  503 -0.12061654557E+03 -0.25546938958E+02  0.99419294977E+02  0.15838305897E+03  0.00000000000E+00 0. -1.
<mgrwt>
<rscale>  4 0.48362381E+03</rscale>
<asrwt>0</asrwt>
<pdfrwt beam="1">  1       21 0.25465438E+00 0.48362381E+03</pdfrwt>
<pdfrwt beam="2">  1       -1 0.10429364E-01 0.48362381E+03</pdfrwt>
<totfact> 0.27489558E+02</totfact>
</mgrwt>
</event>
<event>
 5    0  0.2396052E+000  0.5421708E+03  0.7546771E-02  0.1003322E+00
         -4   -1    0    0    0  501 -0.00000000000E+00  0.00000000000E+00  0.18555175728E+03  0.18555175728E+03  0.00000000000E+00 0. -1.
         21   -1    0    0  501  502  0.00000000000E+00 -0.00000000000E+00 -0.59696425924E+03  0.59696425924E+03  0.00000000000E+00 0. -1.
         25    1    1    2    0    0  0.22715569420E+03 -0.84139769669E+02 -0.18361466821E+03  0.32866176630E+03  0.12500000000E+03 0.  0.
         21    1    1    2  503  502 -0.25954531909E+03  0.48166124184E+02 -0.27851971339E+03  0.38374077047E+03  0.00000000000E+00 0.  1.
         -4    1    1    2    0  503  0.32389624889E+02  0.35973645485E+02  0.50721879626E+02  0.70113479751E+02  0.00000000000E+00 0. -1.
<mgrwt>
<rscale>  4 0.54217081E+03</rscale>
<asrwt>0</asrwt>
<pdfrwt beam="1">  1       21 0.91840654E-01 0.54217081E+03</pdfrwt>
<pdfrwt beam="2">  1       -4 0.28546425E-01 0.54217081E+03</pdfrwt>
<totfact> 0.47569408E+02</totfact>
</mgrwt>
</event>
<event>
 5    0  0.2396052E+000  0.6408347E+03  0.7546771E-02  0.9824131E-01
          4   -1    0    0  503    0 -0.00000000000E+00  0.00000000000E+00  0.35240029374E+03  0.35240029374E+03  0.00000000000E+00 0. -1.
         21   -1    0    0  501  502  0.00000000000E+00 -0.00000000000E+00 -0.72935823802E+03  0.72935823802E+03  0.00000000000E+00 0. -1.
         25    1    1    2    0    0  0.18671891206E+03 -0.15771119207E+03 -0.28236573149E+03  0.39381744317E+03  0.12500000000E+03 0.  0.
         21    1    1    2  503  502 -0.25805227886E+03  0.25632992282E+03 -0.28491278620E+03  0.46202954851E+03  0.00000000000E+00 0. -1.
          4    1    1    2  501    0  0.71333366802E+02 -0.98618730747E+02  0.19032057341E+03  0.22591154007E+03  0.00000000000E+00 0. -1.
<mgrwt>
<rscale>  4 0.64083473E+03</rscale>
<asrwt>0</asrwt>
<pdfrwt beam="1">  1       21 0.11220896E+00 0.64083473E+03</pdfrwt>
<pdfrwt beam="2">  1        4 0.54215430E-01 0.64083473E+03</pdfrwt>
<totfact> 0.78852687E+01</totfact>
</mgrwt>
</event>
<event>
 5    0  0.2396052E+000  0.6230825E+03  0.7546771E-02  0.9858642E-01
          2   -1    0    0  503    0 -0.00000000000E+00  0.00000000000E+00  0.99250009713E+03  0.99250009713E+03  0.00000000000E+00 0.  1.
         21   -1    0    0  501  502  0.00000000000E+00 -0.00000000000E+00 -0.26480519233E+03  0.26480519233E+03  0.00000000000E+00 0.  1.
         25    1    1    2    0    0  0.54889226177E+01 -0.22999953579E+03  0.27711248932E+03  0.38124302809E+03  0.12500000000E+03 0.  0.
         21    1    1    2  503  502 -0.19949979419E+02  0.18024382431E+03 -0.17282330532E+03  0.25050695149E+03  0.00000000000E+00 0.  1.
          2    1    1    2  501    0  0.14461056801E+02  0.49755711475E+02  0.62340572081E+03  0.62555530988E+03  0.00000000000E+00 0.  1.
<mgrwt>
<rscale>  4 0.62308250E+03</rscale>
<asrwt>0</asrwt>
<pdfrwt beam="1">  1       21 0.40739261E-01 0.62308250E+03</pdfrwt>
<pdfrwt beam="2">  1        2 0.15269232E+00 0.62308250E+03</pdfrwt>
<totfact> 0.17403585E+03</totfact>
</mgrwt>
</event>
<event>
 5    0  0.2396052E+000  0.6013665E+03  0.7546771E-02  0.9902575E-01
          2   -1    0    0  503    0 -0.00000000000E+00  0.00000000000E+00  0.16179596058E+04  0.16179596058E+04  0.00000000000E+00 0. -1.
         21   -1    0    0  501  502  0.00000000000E+00 -0.00000000000E+00 -0.27928050609E+03  0.27928050609E+03  0.00000000000E+00 0. -1.
         25    1    1    2    0    0  0.25369339067E+03  0.12846969773E+03  0.11788681892E+03  0.33224554441E+03  0.12500000000E+03 0.  0.
         21    1    1    2  503  502 -0.22663490760E+03 -0.12888616312E+03 -0.73135581480E+02  0.27078374705E+03  0.00000000000E+00 0. -1.
          2    1    1    2  501    0 -0.27058483062E+02  0.41646539086E+00  0.12939278623E+04  0.12942108205E+04  0.00000000000E+00 0. -1.
<mgrwt>
<rscale>  4 0.60136649E+03</rscale>
<asrwt>0</asrwt>
<pdfrwt beam="1">  1       21 0.42966233E-01 0.60136649E+03</pdfrwt>
<pdfrwt beam="2">  1        2 0.24891686E+00 0.60136649E+03</pdfrwt>
<totfact> 0.67996329E+02</totfact>
</mgrwt>
</event>
<event>
 5    0  0.2396052E+000  0.4926929E+03  0.7546771E-02  0.1015704E+00
          1   -1    0    0  503    0 -0.00000000000E+00  0.00000000000E+00  0.77229522476E+03  0.77229522476E+03  0.00000000000E+00 0.  1.
         21   -1    0    0  501  502  0.00000000000E+00 -0.00000000000E+00 -0.67445976028E+03  0.67445976028E+03  0.00000000000E+00 0. -1.
         25    1    1    2    0    0  0.20570923370E+03 -0.40288386498E+02 -0.17975409534E+03  0.30311050412E+03  0.12500000000E+03 0.  0.
         21    1    1    2  503  502 -0.20391125914E+03  0.86787487151E+02 -0.40382809993E+03  0.46063977664E+03  0.00000000000E+00 0. -1.
          1    1    1    2  501    0 -0.17979745632E+01 -0.46499100653E+02  0.68141765975E+03  0.68300470429E+03  0.00000000000E+00 0.  1.
<mgrwt>
<rscale>  4 0.49269292E+03</rscale>
<asrwt>0</asrwt>
<pdfrwt beam="1">  1       21 0.10376304E+00 0.49269292E+03</pdfrwt>
<pdfrwt beam="2">  1        1 0.11881465E+00 0.49269292E+03</pdfrwt>
<totfact> 0.17738124E+02</totfact>
</mgrwt>
</event>
<event>
 5    0  0.2396052E+000  0.4207678E+03  0.7546771E-02  0.1036817E+00
         21   -1    0    0  501  502  0.00000000000E+00  0.00000000000E+00  0.18639029829E+03  0.18639029829E+03  0.00000000000E+00 0. -1.
          2   -1    0    0  503    0 -0.00000000000E+00 -0.00000000000E+00 -0.42986072147E+03  0.42986072147E+03  0.00000000000E+00 0. -1.
         25    1    1    2    0    0 -0.10739968010E+03 -0.17272926265E+03 -0.10304940885E+03  0.26002744110E+03  0.12500000000E+03 0.  0.
         21    1    1    2  503  502  0.65437093501E+02  0.14469369335E+03  0.44192074903E+02  0.16483694241E+03  0.00000000000E+00 0. -1.
          2    1    1    2  501    0  0.41962586594E+02  0.28035569301E+02 -0.18461308923E+03  0.19138663625E+03  0.00000000000E+00 0. -1.
<mgrwt>
<rscale>  4 0.42076782E+03</rscale>
<asrwt>0</asrwt>
<pdfrwt beam="1">  1       21 0.28675430E-01 0.42076782E+03</pdfrwt>
<pdfrwt beam="2">  1        2 0.66132419E-01 0.42076782E+03</pdfrwt>
<totfact> 0.10311726E+04</totfact>
</mgrwt>
</event>
<event>
 5    0  0.2396052E+000  0.7878403E+03  0.7546771E-02  0.9577786E-01
          1   -1    0    0  503    0 -0.00000000000E+00  0.00000000000E+00  0.13441739692E+04  0.13441739692E+04  0.00000000000E+00 0. -1.
         21   -1    0    0  501  502  0.00000000000E+00 -0.00000000000E+00 -0.18690138295E+03  0.18690138295E+03  0.00000000000E+00 0. -1.
         25    1    1    2    0    0 -0.35119926112E+03  0.14684999578E+03  0.53246213619E+03  0.66636834314E+03  0.12500000000E+03 0.  0.
         21    1    1    2  503  502  0.27914480404E+03 -0.19280697764E+03  0.13118619413E+03  0.36373915074E+03  0.00000000000E+00 0. -1.
          1    1    1    2  501    0  0.72054457079E+02  0.45956981866E+02  0.49362425589E+03  0.50096785822E+03  0.00000000000E+00 0. -1.
<mgrwt>
<rscale>  4 0.78784030E+03</rscale>
<asrwt>0</asrwt>
<pdfrwt beam="1">  1       21 0.28754060E-01 0.78784030E+03</pdfrwt>
<pdfrwt beam="2">  1        1 0.20679599E+00 0.78784030E+03</pdfrwt>
<totfact> 0.10159922E+03</totfact>
</mgrwt>
</event>
<event>
 5    0  0.2396052E+000  0.6193624E+03  0.7546771E-02  0.9866030E-01
         21   -1    0    0  501  502  0.00000000000E+00  0.00000000000E+00  0.75781478325E+03  0.75781478325E+03  0.00000000000E+00 0. -1.
          2   -1    0    0  503    0 -0.00000000000E+00 -0.00000000000E+00 -0.46919498652E+03  0.46919498652E+03  0.00000000000E+00 0. -1.
         25    1    1    2    0    0  0.16807198564E+03  0.15947637901E+03  0.51768750100E+02  0.26830190328E+03  0.12500000000E+03 0.  0.
         21    1    1    2  503  502 -0.17969096579E+03 -0.10978153633E+03  0.57727416432E+03  0.61448050392E+03  0.00000000000E+00 0. -1.
          2    1    1    2  501    0  0.11618980155E+02 -0.49694842678E+02 -0.34042311769E+03  0.34422736257E+03  0.00000000000E+00 0. -1.
<mgrwt>
<rscale>  4 0.61936241E+03</rscale>
<asrwt>0</asrwt>
<pdfrwt beam="1">  1       21 0.11658689E+00 0.61936241E+03</pdfrwt>
<pdfrwt beam="2">  1        2 0.72183844E-01 0.61936241E+03</pdfrwt>
<totfact> 0.40882867E+02</totfact>
</mgrwt>
</event>
<event>
 5    0  0.2396052E+000  0.5490955E+03  0.7546771E-02  0.1001703E+00
         21   -1    0    0  501  502  0.00000000000E+00  0.00000000000E+00  0.33333444573E+03  0.33333444573E+03  0.00000000000E+00 0.  1.
          4   -1    0    0  503    0 -0.00000000000E+00 -0.00000000000E+00 -0.54799150143E+03  0.54799150143E+03  0.00000000000E+00 0.  1.
         25    1    1    2    0    0  0.11558886247E+02  0.22934111277E+03 -0.27416134358E+03  0.37884085864E+03  0.12500000000E+03 0.  0.
         21    1    1    2  503  502  0.33265690520E+02  0.71238767426E+02  0.16338445707E+03  0.18131753628E+03  0.00000000000E+00 0.  1.
          4    1    1    2  501    0 -0.44824576766E+02 -0.30057988020E+03 -0.10388016919E+03  0.32116755224E+03  0.00000000000E+00 0.  1.
<mgrwt>
<rscale>  4 0.54909554E+03</rscale>
<asrwt>0</asrwt>
<pdfrwt beam="1">  1       21 0.51282222E-01 0.54909554E+03</pdfrwt>
<pdfrwt beam="2">  1        4 0.84306385E-01 0.54909554E+03</pdfrwt>
<totfact> 0.18362400E+02</totfact>
</mgrwt>
</event>
<event>
 5    0  0.2396052E+000  0.5146955E+03  0.7546771E-02  0.1010013E+00
         21   -1    0    0  501  502  0.00000000000E+00  0.00000000000E+00  0.26183107191E+03  0.26183107191E+03  0.00000000000E+00 0.  1.
          2   -1    0    0  503    0 -0.00000000000E+00 -0.00000000000E+00 -0.53563545881E+03  0.53563545881E+03  0.00000000000E+00 0.  1.
         25    1    1    2    0    0  0.51085595953E+02  0.23506496776E+03 -0.77667189347E+02  0.28199728630E+03  0.12500000000E+03 0.  0.
         21    1    1    2  503  502 -0.51801492630E+02 -0.21020489433E+03  0.85478472124E+02  0.23275751639E+03  0.00000000000E+00 0.  1.
          2    1    1    2  501    0  0.71589667637E+00 -0.24860073430E+02 -0.28161566968E+03  0.28271172803E+03  0.00000000000E+00 0.  1.
<mgrwt>
<rscale>  4 0.51469553E+03</rscale>
<asrwt>0</asrwt>
<pdfrwt beam="1">  1       21 0.40281704E-01 0.51469553E+03</pdfrwt>
<pdfrwt beam="2">  1        2 0.82405454E-01 0.51469553E+03</pdfrwt>
<totfact> 0.39924280E+03</totfact>
</mgrwt>
</event>
<event>
 5    0  0.2396052E+000  0.5194426E+03  0.7546771E-02  0.1008825E+00
          2   -1    0    0  503    0 -0.00000000000E+00  0.00000000000E+00  0.14435342288E+04  0.14435342288E+04  0.00000000000E+00 0.  1.
         21   -1    0    0  501  502  0.00000000000E+00 -0.00000000000E+00 -0.63033384832E+02  0.63033384832E+02  0.00000000000E+00 0.  1.
         25    1    1    2    0    0 -0.24204589120E+03 -0.84062955559E+00  0.43560368422E+03  0.51377279979E+03  0.12500000000E+03 0.  0.
         21    1    1    2  503  502  0.23475506943E+03 -0.34671886917E+02  0.58826399608E+03  0.63432374341E+03  0.00000000000E+00 0.  1.
          2    1    1    2  501    0  0.72908217697E+01  0.35512516473E+02  0.35663316366E+03  0.35847107042E+03  0.00000000000E+00 0.  1.
<mgrwt>
<rscale>  4 0.51944263E+03</rscale>
<asrwt>0</asrwt>
<pdfrwt beam="1">  1       21 0.96974449E-02 0.51944263E+03</pdfrwt>
<pdfrwt beam="2">  1        2 0.22208216E+00 0.51944263E+03</pdfrwt>
<totfact> 0.15112947E+04</totfact>
</mgrwt>
</event>
<event>
 5    0  0.2396052E+000  0.6180184E+03  0.7546771E-02  0.9868713E-01
          1   -1    0    0  503    0 -0.00000000000E+00  0.00000000000E+00  0.14022176186E+04  0.14022176186E+04  0.00000000000E+00 0. -1.
         21   -1    0    0  501  502  0.00000000000E+00 -0.00000000000E+00 -0.51215702620E+03  0.51215702620E+03  0.00000000000E+00 0.  1.
         25    1    1    2    0    0  0.20798696263E+03  0.74601176221E+02 -0.42005684833E+03  0.49081225326E+03  0.12500000000E+03 0.  0.
         21    1    1    2  503  502 -0.15291062749E+03 -0.10239036922E+03  0.95408161197E+02  0.20728763815E+03  0.00000000000E+00 0. -1.
          1    1    1    2  501    0 -0.55076335145E+02  0.27789192996E+02  0.12147092796E+04  0.12162747534E+04  0.00000000000E+00 0. -1.
<mgrwt>
<rscale>  4 0.61801836E+03</rscale>
<asrwt>0</asrwt>
<pdfrwt beam="1">  1       21 0.78793389E-01 0.61801836E+03</pdfrwt>
<pdfrwt beam="2">  1        1 0.21572579E+00 0.61801836E+03</pdfrwt>
<totfact> 0.11051560E+02</totfact>
</mgrwt>
</event>
<event>
 5    0  0.2396052E+000  0.4296966E+03  0.7546771E-02  0.1033956E+00
          2   -1    0    0  503    0 -0.00000000000E+00  0.00000000000E+00  0.70994623026E+03  0.70994623026E+03  0.00000000000E+00 0. -1.
         21   -1    0    0  501  502  0.00000000000E+00 -0.00000000000E+00 -0.20103558628E+03  0.20103558628E+03  0.00000000000E+00 0. -1.
         25    1    1    2    0    0 -0.16076532514E+03  0.12823252013E+03  0.33849995419E+02  0.24302240879E+03  0.12500000000E+03 0.  0.
         21    1    1    2  503  502  0.18577693322E+03 -0.31520524107E+02  0.61562353504E+01  0.18853252131E+03  0.00000000000E+00 0. -1.
          2    1    1    2  501    0 -0.25011608083E+02 -0.96711996021E+02  0.46890441321E+03  0.47942688644E+03  0.00000000000E+00 0. -1.
<mgrwt>
<rscale>  4 0.42969659E+03</rscale>
<asrwt>0</asrwt>
<pdfrwt beam="1">  1       21 0.30928552E-01 0.42969659E+03</pdfrwt>
<pdfrwt beam="2">  1        2 0.10922250E+00 0.42969659E+03</pdfrwt>
<totfact> 0.49292338E+03</totfact>
</mgrwt>
</event>
<event>
 5    0  0.2396052E+000  0.4895391E+03  0.7546771E-02  0.1016546E+00
         21   -1    0    0  501  502  0.00000000000E+00  0.00000000000E+00  0.12237562815E+03  0.12237562815E+03  0.00000000000E+00 0. -1.
         -1   -1    0    0    0  501 -0.00000000000E+00 -0.00000000000E+00 -0.59337933382E+03  0.59337933382E+03  0.00000000000E+00 0. -1.
         25    1    1    2    0    0  0.10635105872E+03 -0.21568797419E+03 -0.19607622265E+03  0.33451866164E+03  0.12500000000E+03 0.  0.
         21    1    1    2  503  502 -0.10336390669E+03  0.19213426072E+03 -0.17838462421E+03  0.28181686519E+03  0.00000000000E+00 0. -1.
         -1    1    1    2    0  503 -0.29871520266E+01  0.23553713472E+02 -0.96542858820E+02  0.99419435146E+02  0.00000000000E+00 0. -1.
<mgrwt>
<rscale>  4 0.48953913E+03</rscale>
<asrwt>0</asrwt>
<pdfrwt beam="1">  1       21 0.18827020E-01 0.48953913E+03</pdfrwt>
<pdfrwt beam="2">  1       -1 0.91289128E-01 0.48953913E+03</pdfrwt>
<totfact> 0.28264959E+03</totfact>
</mgrwt>
</event>
<event>
 5    0  0.2396052E+000  0.4542397E+03  0.7546771E-02  0.1026465E+00
          2   -1    0    0  503    0 -0.00000000000E+00  0.00000000000E+00  0.22565726590E+04  0.22565726590E+04  0.00000000000E+00 0. -1.
         21   -1    0    0  501  502  0.00000000000E+00 -0.00000000000E+00 -0.16773251641E+03  0.16773251641E+03  0.00000000000E+00 0. -1.
         25    1    1    2    0    0  0.20054576077E+03 -0.11012857337E+02  0.18723788804E+02  0.23730879768E+03  0.12500000000E+03 0.  0.
         21    1    1    2  503  502 -0.16850614831E+03  0.11455105368E+03  0.12537806533E+03  0.23924030844E+03  0.00000000000E+00 0. -1.
          2    1    1    2  501    0 -0.32039612466E+02 -0.10353819635E+03  0.19447382884E+04  0.19477560693E+04  0.00000000000E+00 0. -1.
<mgrwt>
<rscale>  4 0.45423970E+03</rscale>
<asrwt>0</asrwt>
<pdfrwt beam="1">  1       21 0.25805004E-01 0.45423970E+03</pdfrwt>
<pdfrwt beam="2">  1        2 0.34716500E+00 0.45423970E+03</pdfrwt>
<totfact> 0.89290915E+02</totfact>
</mgrwt>
</event>
<event>
 5    0  0.2396052E+000  0.5162716E+03  0.7546771E-02  0.1009617E+00
          2   -1    0    0  503    0 -0.00000000000E+00  0.00000000000E+00  0.18128722805E+04  0.18128722805E+04  0.00000000000E+00 0. -1.
         21   -1    0    0  501  502  0.00000000000E+00 -0.00000000000E+00 -0.35898685147E+03  0.35898685147E+03  0.00000000000E+00 0. -1.
         25    1    1    2    0    0  0.11200680003E+02  0.20818621375E+03 -0.12350547875E+03  0.27266381884E+03  0.12500000000E+03 0.  0.
         21    1    1    2  503  502 -0.16420259262E+02 -0.26671325951E+03 -0.49059013129E+02  0.27168432874E+03  0.00000000000E+00 0. -1.
          2    1    1    2  501    0  0.52195792595E+01  0.58527045765E+02  0.16264499209E+04  0.16275109844E+04  0.00000000000E+00 0. -1.
<mgrwt>
<rscale>  4 0.51627164E+03</rscale>
<asrwt>0</asrwt>
<pdfrwt beam="1">  1       21 0.55228747E-01 0.51627164E+03</pdfrwt>
<pdfrwt beam="2">  1        2 0.27890342E+00 0.51627164E+03</pdfrwt>
<totfact> 0.31922559E+02</totfact>
</mgrwt>
</event>
<event>
 5    0  0.2396052E+000  0.6175458E+03  0.7546771E-02  0.9869658E-01
         21   -1    0    0  501  502  0.00000000000E+00  0.00000000000E+00  0.88618123017E+02  0.88618123017E+02  0.00000000000E+00 0.  1.
          2   -1    0    0  503    0 -0.00000000000E+00 -0.00000000000E+00 -0.15860112740E+04  0.15860112740E+04  0.00000000000E+00 0.  1.
         25    1    1    2    0    0  0.15618535751E+03 -0.16829386624E+03 -0.51109378405E+03  0.57407190090E+03  0.12500000000E+03 0.  0.
         21    1    1    2  503  502 -0.22100002776E+03  0.27774412714E+03 -0.79732760569E+03  0.87276235209E+03  0.00000000000E+00 0.  1.
          2    1    1    2  501    0  0.64814670254E+02 -0.10945026090E+03 -0.18897176123E+03  0.22779514400E+03  0.00000000000E+00 0.  1.
<mgrwt>
<rscale>  4 0.61754581E+03</rscale>
<asrwt>0</asrwt>
<pdfrwt beam="1">  1       21 0.13633558E-01 0.61754581E+03</pdfrwt>
<pdfrwt beam="2">  1        2 0.24400173E+00 0.61754581E+03</pdfrwt>
<totfact> 0.66856585E+03</totfact>
</mgrwt>
</event>
<event>
 5    0  0.2396052E+000  0.4556754E+03  0.7546771E-02  0.1026043E+00
          2   -1    0    0  503    0 -0.00000000000E+00  0.00000000000E+00  0.21532960327E+04  0.21532960327E+04  0.00000000000E+00 0. -1.
         21   -1    0    0  501  502  0.00000000000E+00 -0.00000000000E+00 -0.16251809238E+03  0.16251809238E+03  0.00000000000E+00 0. -1.
         25    1    1    2    0    0 -0.12124518410E+03 -0.16134310232E+03  0.19807099121E+03  0.30917488399E+03  0.12500000000E+03 0.  0.
         21    1    1    2  503  502  0.92743052036E+02  0.14016504099E+03 -0.40668199419E+02  0.17292025579E+03  0.00000000000E+00 0. -1.
          2    1    1    2  501    0  0.28502132066E+02  0.21178061324E+02  0.18333751486E+04  0.18337189853E+04  0.00000000000E+00 0. -1.
<mgrwt>
<rscale>  4 0.45567542E+03</rscale>
<asrwt>0</asrwt>
<pdfrwt beam="1">  1       21 0.25002785E-01 0.45567542E+03</pdfrwt>
<pdfrwt beam="2">  1        2 0.33127629E+00 0.45567542E+03</pdfrwt>
<totfact> 0.10798803E+03</totfact>
</mgrwt>
</event>
<event>
 5    0  0.2396052E+000  0.1216664E+04  0.7546771E-02  0.9098395E-01
         21   -1    0    0  501  502  0.00000000000E+00  0.00000000000E+00  0.39717770494E+03  0.39717770494E+03  0.00000000000E+00 0. -1.
          2   -1    0    0  503    0 -0.00000000000E+00 -0.00000000000E+00 -0.21157240664E+04  0.21157240664E+04  0.00000000000E+00 0. -1.
         25    1    1    2    0    0  0.29192316324E+03 -0.13746823820E+03 -0.84565800978E+03  0.91371719873E+03  0.12500000000E+03 0.  0.
         21    1    1    2  503  502 -0.23623119680E+03  0.14828126168E+03  0.30881279097E+03  0.41612239879E+03  0.00000000000E+00 0. -1.
          2    1    1    2  501    0 -0.55691966432E+02 -0.10813023479E+02 -0.11817011426E+04  0.11830621738E+04  0.00000000000E+00 0. -1.
<mgrwt>
<rscale>  4 0.12166637E+04</rscale>
<asrwt>0</asrwt>
<pdfrwt beam="1">  1       21 0.61104263E-01 0.12166637E+04</pdfrwt>
<pdfrwt beam="2">  1        2 0.32549601E+00 0.12166637E+04</pdfrwt>
<totfact> 0.15263543E+02</totfact>
</mgrwt>
</event>
<event>
 5    0  0.2396052E+000  0.5534755E+03  0.7546771E-02  0.1000693E+00
         21   -1    0    0  501  502  0.00000000000E+00  0.00000000000E+00  0.15923918274E+04  0.15923918274E+04  0.00000000000E+00 0. -1.
          4   -1    0    0  503    0 -0.00000000000E+00 -0.00000000000E+00 -0.26579784611E+03  0.26579784611E+03  0.00000000000E+00 0. -1.
         25    1    1    2    0    0 -0.20277351255E+03 -0.10026058398E+03  0.33617446306E+03  0.42403720557E+03  0.12500000000E+03 0.  0.
         21    1    1    2  503  502  0.13727350298E+03  0.48721460578E+02  0.11998954829E+04  0.12087046642E+04  0.00000000000E+00 0. -1.
          4    1    1    2  501    0  0.65500009568E+02  0.51539123404E+02 -0.20947596461E+03  0.22544780381E+03  0.00000000000E+00 0. -1.
<mgrwt>
<rscale>  4 0.55347550E+03</rscale>
<asrwt>0</asrwt>
<pdfrwt beam="1">  1       21 0.24498335E+00 0.55347550E+03</pdfrwt>
<pdfrwt beam="2">  1        4 0.40891977E-01 0.55347550E+03</pdfrwt>
<totfact> 0.14908501E+01</totfact>
</mgrwt>
</event>
<event>
 5    0  0.2396052E+000  0.3228347E+03  0.7546771E-02  0.1074352E+00
         21   -1    0    0  501  502  0.00000000000E+00  0.00000000000E+00  0.39819334084E+02  0.39819334084E+02  0.00000000000E+00 0.  1.
          1   -1    0    0  503    0 -0.00000000000E+00 -0.00000000000E+00 -0.21393574250E+04  0.21393574250E+04  0.00000000000E+00 0.  1.
         25    1    1    2    0    0  0.13280946702E+02  0.20214629659E+03 -0.55782108920E+03  0.60648897461E+03  0.12500000000E+03 0.  0.
         21    1    1    2  503  502 -0.73228070374E+02 -0.40990189592E+02 -0.16342991765E+03  0.18371685801E+03  0.00000000000E+00 0. -1.
          1    1    1    2  501    0  0.59947123672E+02 -0.16115610700E+03 -0.13782870840E+04  0.13889709264E+04  0.00000000000E+00 0.  1.
<mgrwt>
<rscale>  4 0.32283470E+03</rscale>
<asrwt>0</asrwt>
<pdfrwt beam="1">  1       21 0.61260500E-02 0.32283470E+03</pdfrwt>
<pdfrwt beam="2">  1        1 0.32913199E+00 0.32283470E+03</pdfrwt>
<totfact> 0.57024312E+03</totfact>
</mgrwt>
</event>
<event>
 5    0  0.2396052E+000  0.3957369E+03  0.7546771E-02  0.1045266E+00
         21   -1    0    0  501  502  0.00000000000E+00  0.00000000000E+00  0.36148902425E+03  0.36148902425E+03  0.00000000000E+00 0. -1.
         -1   -1    0    0    0  501 -0.00000000000E+00 -0.00000000000E+00 -0.28803417127E+03  0.28803417127E+03  0.00000000000E+00 0. -1.
         25    1    1    2    0    0  0.28077374780E+03 -0.69609061871E+02 -0.32255605115E+02  0.31677238359E+03  0.12500000000E+03 0.  0.
         21    1    1    2  503  502 -0.38663898085E+02  0.94959298413E+01  0.70297713509E+02  0.80788849622E+02  0.00000000000E+00 0.  1.
         -1    1    1    2    0  503 -0.24210984971E+03  0.60113132030E+02  0.35412744587E+02  0.25196196231E+03  0.00000000000E+00 0. -1.
<mgrwt>
<rscale>  4 0.39573695E+03</rscale>
<asrwt>0</asrwt>
<pdfrwt beam="1">  1       21 0.55613696E-01 0.39573695E+03</pdfrwt>
<pdfrwt beam="2">  1       -1 0.44312949E-01 0.39573695E+03</pdfrwt>
<totfact> 0.13656887E+03</totfact>
</mgrwt>
</event>
