<event>
 5    0  0.1911311E+001  0.2828010E+03  0.7546771E-02  0.1094169E+00
         21   -1    0    0  504  501  0.00000000000E+00  0.00000000000E+00  0.32213174284E+03  0.32213174284E+03  0.00000000000E+00 0.  1.
         21   -1    0    0  503  502 -0.00000000000E+00 -0.00000000000E+00 -0.12190462386E+04  0.12190462386E+04  0.00000000000E+00 0.  1.
         25    1    1    2    0    0  0.48906143612E+02 -0.24449854766E+03  0.17307942330E+03  0.32825727328E+03  0.12500000000E+03 0.  0.
         21    1    1    2  503  501 -0.83642297153E+01  0.25396535100E+03 -0.11196493752E+04  0.11481215455E+04  0.00000000000E+00 0.  1.
         21    1    1    2  504  502 -0.40541913897E+02 -0.94668033396E+01  0.49655456183E+02  0.64799162623E+02  0.00000000000E+00 0. -1.
<mgrwt>
<rscale>  4 0.28280099E+03</rscale>
<asrwt>0</asrwt>
<pdfrwt beam="1">  1       21 0.49558730E-01 0.28280099E+03</pdfrwt>
<pdfrwt beam="2">  1       21 0.18754557E+00 0.28280099E+03</pdfrwt>
<totfact> 0.57567263E+02</totfact>
</mgrwt>
</event>
<event>
 5    0  0.1911311E+001  0.2514773E+03  0.7546771E-02  0.1112375E+00
         21   -1    0    0  502  501  0.00000000000E+00  0.00000000000E+00  0.21193370527E+03  0.21193370527E+03  0.00000000000E+00 0.  1.
         21   -1    0    0  504  502 -0.00000000000E+00 -0.00000000000E+00 -0.57185830136E+03  0.57185830136E+03  0.00000000000E+00 0.  1.
         25    1    1    2    0    0 -0.11219763532E+03  0.16845097977E+03 -0.29397510529E+03  0.37816716473E+03  0.12500000000E+03 0.  0.
         21    1    1    2  503  501  0.41630381286E+02  0.74149029472E+02  0.77528257770E+02  0.11507301148E+03  0.00000000000E+00 0. -1.
         21    1    1    2  504  503  0.70567254031E+02 -0.24260000924E+03 -0.14347774857E+03  0.29055183042E+03  0.00000000000E+00 0.  1.
<mgrwt>
<rscale>  4 0.25147735E+03</rscale>
<asrwt>0</asrwt>
<pdfrwt beam="1">  1       21 0.32605186E-01 0.25147735E+03</pdfrwt>
<pdfrwt beam="2">  1       21 0.87978199E-01 0.25147735E+03</pdfrwt>
<totfact> 0.96565597E+03</totfact>
</mgrwt>
</event>
<event>
 5    0  0.1911311E+001  0.2051560E+03  0.7546771E-02  0.1145460E+00
         21   -1    0    0  502  501  0.00000000000E+00  0.00000000000E+00  0.78458636021E+03  0.78458636021E+03  0.00000000000E+00 0. -1.
         21   -1    0    0  504  502 -0.00000000000E+00 -0.00000000000E+00 -0.45073304088E+03  0.45073304088E+03  0.00000000000E+00 0. -1.
         25    1    1    2    0    0 -0.60057519045E+02  0.20354463119E+03 -0.33982074970E+03  0.41969091533E+03  0.12500000000E+03 0.  0.
         21    1    1    2  503  501  0.26275457448E+02 -0.15940072556E+03  0.72329413548E+03  0.74111631840E+03  0.00000000000E+00 0. -1.
         21    1    1    2  504  503  0.33782061597E+02 -0.44143905637E+02 -0.49620066444E+02  0.74512167359E+02  0.00000000000E+00 0. -1.
<mgrwt>
<rscale>  4 0.20515598E+03</rscale>
<asrwt>0</asrwt>
<pdfrwt beam="1">  1       21 0.12070559E+00 0.20515598E+03</pdfrwt>
<pdfrwt beam="2">  1       21 0.69343545E-01 0.20515598E+03</pdfrwt>
<totfact> 0.97228440E+02</totfact>
</mgrwt>
</event>
