<LesHouchesEvents version="3.0">
  <!--
  <scalesfunctionalform>
    muR  H_T/2 := sum_i mT(i)/2, i=final state
    muF1 H_T/2 := sum_i mT(i)/2, i=final state
    muF2 H_T/2 := sum_i mT(i)/2, i=final state
    QES  H_T/2 := sum_i mT(i)/2, i=final state
  </scalesfunctionalform>
HERWIG6   
  -->
  <header>
      130
  </header>
  <init>
   2212   2212 0.65000000D+04 0.65000000D+04 -1 -1   247000   247000 -3   1
 0.25674230D-01 0.61623109D-03 0.43206592D-03     66
  </init>
  <event>
  5     66 0.43206592E-03 0.48627842E+02 0.75467711E-02 0.12166356E+00
        2 -1    0    0  502    0 0.00000000E+00 0.00000000E+00 0.10041707E+03 0.10041758E+03 0.32000000E+00 0.0000E+00 0.9000E+01
       -2 -1    0    0    0  501 -.00000000E+00 -.00000000E+00 -.38754492E+03 0.38754505E+03 0.32000000E+00 0.0000E+00 0.9000E+01
       25  1    1    2    0    0 0.21380484E+02 -.11493062E+02 -.36191080E+02 0.13237828E+03 0.12500000E+03 0.0000E+00 0.9000E+01
       23  1    1    2    0    0 -.42167050E+01 -.34004449E+02 0.25776319E+01 0.97447312E+02 0.91188000E+02 0.0000E+00 0.9000E+01
       21  1    1    2  502  501 -.17163779E+02 0.45497511E+02 -.25351440E+03 0.25813704E+03 0.75000000E+00 0.0000E+00 0.9000E+01
#aMCatNLO 1  0  0  5  1 0.57031595D+01 0.00000000D+00  -5  6  0 0.00000000D+00 0.00000000D+00 0.00000000D+00 0.00000000D+00 0.00000000D+00
  <mgrwgt>
 0.7689550138D-01   25    2    0
 0.197272104724968D+03 0.000000000000000D+00 0.000000000000000D+00 0.197272104724968D+03
 0.197272104724968D+03 -.000000000000000D+00 -.000000000000000D+00 -.197272104724968D+03
 0.137384612114902D+03 0.213805763899667D+02 -.114933075904963D+02 0.515781589417954D+02
 0.122396737965794D+03 -.421662258796828D+01 -.340046674856250D+02 0.741054168317676D+02
 0.134762859369239D+03 -.171639538019984D+02 0.454979750761214D+02 -.125683575773563D+03
 0.000000000000000D+00 -.000000000000000D+00 0.000000000000000D+00 0.000000000000000D+00
 0.197272104724968D+03 0.000000000000000D+00 0.000000000000000D+00 0.197272104724968D+03
 0.197272104724968D+03 -.000000000000000D+00 -.000000000000000D+00 -.197272104724968D+03
 0.137244650289551D+03 0.213356879410633D+02 -.113743179012341D+02 0.512494619041440D+02
 0.122191662628633D+03 -.425660082563425D+01 -.338986937174655D+02 0.738126749658230D+02
 0.116002585795667D+03 -.910952124544108D+01 0.396748971394345D+02 -.108625591233996D+03
 0.191053107360857D+02 -.796956586998798D+01 0.559811447926515D+01 -.164365456359709D+02
0.364382974916D-04 0.000000000000D+00 0.000000000000D+00 0.105788740640D-04 0.000000000000D+00  6 2 -2 25 23 21 21 2 0.15448830D-01 0.59622345D-01 0.18683639D+05 0.18683639D+05 0.18683639D+05 0.12370946D+01  1  2  2  3  6  5       21 0.551382808228D-02 0.100000000000D+01
0.863642525955D-06 0.192290178737D-05 -.139932656792D-06 0.105788740640D-04 0.000000000000D+00  6 2 -2 25 23 21 21 4 0.15448830D-01 0.59622345D-01 0.18683639D+05 0.18683639D+05 0.18683639D+05 0.12370946D+01  1  2  3  3  6  5       21 0.200002304712D-03 0.100000000000D+01
0.188490861022D-05 0.000000000000D+00 0.000000000000D+00 0.105788740640D-04 0.000000000000D+00  6 2 -2 25 23 21 21 4 0.15448830D-01 0.59622345D-01 0.18683639D+05 0.18683639D+05 0.18683639D+05 0.12370946D+01  1  2 15  3  6  5       21 0.436507067319D-03 0.100000000000D+01
0.435221629951D-03 0.000000000000D+00 0.000000000000D+00 0.105682720943D-04 0.000000000000D+00  6 2 -2 25 23 21 21 4 0.15448830D-01 0.59622345D-01 0.18925706D+05 0.18925706D+05 0.18925706D+05 0.12364746D+01  1  2 12  3  6  5       21 0.100607588182D+00 0.100000000000D+01
0.331626226654D-03 0.000000000000D+00 0.000000000000D+00 0.105682720943D-04 0.000000000000D+00  6 2 -2 25 23 21 21 4 0.15448830D-01 0.59622345D-01 0.18925706D+05 0.18925706D+05 0.18925706D+05 0.12364746D+01  1  2 12  3  6  5       21 0.766600567288D-01 0.100000000000D+01
-.891424823790D-03 0.000000000000D+00 0.000000000000D+00 0.105788740640D-04 0.000000000000D+00  6 2 -2 25 23 21 21 4 0.15448830D-01 0.59622345D-01 0.18683639D+05 0.18683639D+05 0.18683639D+05 0.12370946D+01  1  2  4  3  6  5       21 -.206436128233D+00 0.100000000000D+01
-.123781213085D-02 0.000000000000D+00 0.000000000000D+00 0.105788740640D-04 0.000000000000D+00  6 2 -2 25 23 21 21 4 0.15448830D-01 0.59622345D-01 0.18683639D+05 0.18683639D+05 0.18683639D+05 0.12370946D+01  1  2  5  3  6  5       21 -.286652488188D+00 0.100000000000D+01
0.142394308658D-02 0.000000000000D+00 -.000000000000D+00 0.105788740640D-04 0.000000000000D+00  6 2 -2 25 23 21 21 4 0.15448830D-01 0.59622345D-01 0.18683639D+05 0.18683639D+05 0.18683639D+05 0.12370946D+01  1  2  6  3  6  5       21 0.329756688139D+00 0.100000000000D+01
0.254493175823D-03 0.000000000000D+00 0.000000000000D+00 0.105788740640D-04 0.167859127517D-05  6 2 -2 25 23 21 21 4 0.15448830D-01 0.59622345D-01 0.18925706D+05 0.18925706D+05 0.18925706D+05 0.12364746D+01  1  2 11  3  6  5       21 0.588296694521D-01 0.100000000000D+01
0.441438340595D-05 0.000000000000D+00 0.000000000000D+00 0.105682720943D-04 0.000000000000D+00  6 2 -2 25 23 1 -1 4 0.15448830D-01 0.59622345D-01 0.18925706D+05 0.18925706D+05 0.18925706D+05 0.12364746D+01  1  2 12  6  6  5       21 0.102044668100D-02 0.100000000000D+01
0.441438340595D-05 0.000000000000D+00 0.000000000000D+00 0.105682720943D-04 0.000000000000D+00  6 2 -2 25 23 3 -3 4 0.15448830D-01 0.59622345D-01 0.18925706D+05 0.18925706D+05 0.18925706D+05 0.12364746D+01  1  2 12  6  6  5       21 0.102044668100D-02 0.100000000000D+01
0.387595348120D-05 0.000000000000D+00 0.000000000000D+00 0.105682720943D-04 0.000000000000D+00  6 2 -2 25 23 1 -1 4 0.15448830D-01 0.59622345D-01 0.18925706D+05 0.18925706D+05 0.18925706D+05 0.12364746D+01  1  2 12  6  6  5       21 0.895981046931D-03 0.100000000000D+01
0.387595348120D-05 0.000000000000D+00 0.000000000000D+00 0.105682720943D-04 0.000000000000D+00  6 2 -2 25 23 3 -3 4 0.15448830D-01 0.59622345D-01 0.18925706D+05 0.18925706D+05 0.18925706D+05 0.12364746D+01  1  2 12  6  6  5       21 0.895981046931D-03 0.100000000000D+01
-.147813836744D-04 0.000000000000D+00 0.000000000000D+00 0.105788740640D-04 0.000000000000D+00  6 2 -2 25 23 1 -1 4 0.15448830D-01 0.59622345D-01 0.18683639D+05 0.18683639D+05 0.18683639D+05 0.12370946D+01  1  2  5  6  6  5       21 -.342307229307D-02 0.100000000000D+01
-.147813836744D-04 0.000000000000D+00 0.000000000000D+00 0.105788740640D-04 0.000000000000D+00  6 2 -2 25 23 3 -3 4 0.15448830D-01 0.59622345D-01 0.18683639D+05 0.18683639D+05 0.18683639D+05 0.12370946D+01  1  2  5  6  6  5       21 -.342307229307D-02 0.100000000000D+01
0.432363662590D-05 0.000000000000D+00 0.000000000000D+00 0.105788740640D-04 0.478947020690D-07  6 2 -2 25 23 1 -1 4 0.15448830D-01 0.59622345D-01 0.18925706D+05 0.18925706D+05 0.18925706D+05 0.12364746D+01  1  2 11  6  6  5       21 0.999469289147D-03 0.100000000000D+01
0.432363662590D-05 0.000000000000D+00 0.000000000000D+00 0.105788740640D-04 0.478947020690D-07  6 2 -2 25 23 3 -3 4 0.15448830D-01 0.59622345D-01 0.18925706D+05 0.18925706D+05 0.18925706D+05 0.12364746D+01  1  2 11  6  6  5       21 0.999469289147D-03 0.100000000000D+01
0.441438340595D-05 0.000000000000D+00 0.000000000000D+00 0.105682720943D-04 0.000000000000D+00  6 2 -2 25 23 2 -2 4 0.15448830D-01 0.59622345D-01 0.18925706D+05 0.18925706D+05 0.18925706D+05 0.12364746D+01  1  2 12  7  6  5       21 0.102044668100D-02 0.100000000000D+01
0.387595348120D-05 0.000000000000D+00 0.000000000000D+00 0.105682720943D-04 0.000000000000D+00  6 2 -2 25 23 2 -2 4 0.15448830D-01 0.59622345D-01 0.18925706D+05 0.18925706D+05 0.18925706D+05 0.12364746D+01  1  2 12  7  6  5       21 0.895981046931D-03 0.100000000000D+01
-.147813836744D-04 0.000000000000D+00 0.000000000000D+00 0.105788740640D-04 0.000000000000D+00  6 2 -2 25 23 2 -2 4 0.15448830D-01 0.59622345D-01 0.18683639D+05 0.18683639D+05 0.18683639D+05 0.12370946D+01  1  2  5  7  6  5       21 -.342307229307D-02 0.100000000000D+01
0.436382344292D-05 0.000000000000D+00 0.000000000000D+00 0.105788740640D-04 0.547040968018D-07  6 2 -2 25 23 2 -2 4 0.15448830D-01 0.59622345D-01 0.18925706D+05 0.18925706D+05 0.18925706D+05 0.12364746D+01  1  2 11  7  6  5       21 0.100875903593D-02 0.100000000000D+01
0.441438340595D-05 0.000000000000D+00 0.000000000000D+00 0.105682720943D-04 0.000000000000D+00  6 2 -2 25 23 4 -4 4 0.15448830D-01 0.59622345D-01 0.18925706D+05 0.18925706D+05 0.18925706D+05 0.12364746D+01  1  2 12  8  6  5       21 0.102044668100D-02 0.100000000000D+01
0.387595348120D-05 0.000000000000D+00 0.000000000000D+00 0.105682720943D-04 0.000000000000D+00  6 2 -2 25 23 4 -4 4 0.15448830D-01 0.59622345D-01 0.18925706D+05 0.18925706D+05 0.18925706D+05 0.12364746D+01  1  2 12  8  6  5       21 0.895981046931D-03 0.100000000000D+01
-.147813836744D-04 0.000000000000D+00 0.000000000000D+00 0.105788740640D-04 0.000000000000D+00  6 2 -2 25 23 4 -4 4 0.15448830D-01 0.59622345D-01 0.18683639D+05 0.18683639D+05 0.18683639D+05 0.12370946D+01  1  2  5  8  6  5       21 -.342307229307D-02 0.100000000000D+01
0.432012914929D-05 0.000000000000D+00 0.000000000000D+00 0.105788740640D-04 0.478558483073D-07  6 2 -2 25 23 4 -4 4 0.15448830D-01 0.59622345D-01 0.18925706D+05 0.18925706D+05 0.18925706D+05 0.12364746D+01  1  2 11  8  6  5       21 0.998658486701D-03 0.100000000000D+01
  </mgrwgt>
  </event>
  <event>
  5     66 -.43206592E-03 0.24364270E+02 0.75467711E-02 0.12285532E+00
        2 -1    0    0  502    0 0.00000000E+00 0.00000000E+00 0.21087071E+04 0.21087071E+04 0.32000000E+00 0.0000E+00 0.9000E+01
       -2 -1    0    0    0  501 0.00000000E+00 0.00000000E+00 -.11478636E+02 0.11483096E+02 0.32000000E+00 0.0000E+00 0.9000E+01
       25  1    1    2    0    0 -.19884274E+02 -.25123095E+02 0.16227017E+04 0.16278244E+04 0.12500000E+03 0.0000E+00 0.9000E+01
       23  1    1    2    0    0 0.17126412E+02 0.49326215E+02 0.41374544E+03 0.42688046E+03 0.91188000E+02 0.0000E+00 0.9000E+01
       21  1    1    2  502  501 0.27578621E+01 -.24203120E+02 0.60781330E+02 0.65485337E+02 0.75000000E+00 0.0000E+00 0.9000E+01
#aMCatNLO 1  0  0  2  2 0.41987458D-01 0.00000000D+00  -5  6  0 0.00000000D+00 0.00000000D+00 0.00000000D+00 0.00000000D+00 0.00000000D+00
  <mgrwgt>
 -.1995219148D+00    9    4    0
 0.155595099666656D+03 0.000000000000000D+00 0.000000000000000D+00 0.155595099666656D+03
 0.155595099666656D+03 0.000000000000000D+00 0.000000000000000D+00 -.155595099666656D+03
 0.154637281340060D+03 -.198845625284008D+02 -.251205597390197D+02 0.852129710296337D+02
 0.120019778322127D+03 0.171261873727248D+02 0.493281824909808D+02 -.579906885862156D+02
 0.365331396711252D+02 0.275837515567598D+01 -.242076227519611D+02 -.272222824434182D+02
 0.000000000000000D+00 -.000000000000000D+00 -.000000000000000D+00 -.000000000000000D+00
 0.155608147099809D+03 0.000000000000000D+00 0.000000000000000D+00 0.155608147099809D+03
 0.155628884318699D+03 0.000000000000000D+00 0.000000000000000D+00 -.155628884318699D+03
 0.154633482746974D+03 -.198653806656967D+02 -.251123516574705D+02 0.852129710296337D+02
 0.120024522196704D+03 0.171410756109618D+02 0.493345532942473D+02 -.579906885862156D+02
 0.365321972222214D+02 0.276290687811296D+01 -.242056835895400D+02 -.272222824434182D+02
 0.468292526087793D-01 -.386018233780318D-01 -.165180472367072D-01 -.207372188895718D-01
 0.155595099666656D+03 0.000000000000000D+00 0.000000000000000D+00 0.155595099666656D+03
 0.155595099666656D+03 0.000000000000000D+00 0.000000000000000D+00 -.155595099666656D+03
 0.154637281340060D+03 -.198845625284008D+02 -.251205597390197D+02 0.852129710296337D+02
 0.120019778322127D+03 0.171261873727248D+02 0.493281824909808D+02 -.579906885862156D+02
 0.000000000000000D+00 -.000000000000000D+00 -.000000000000000D+00 -.000000000000000D+00
 0.365331396711252D+02 0.275837515567598D+01 -.242076227519611D+02 -.272222824434182D+02
 0.155608147099809D+03 0.000000000000000D+00 0.000000000000000D+00 0.155608147099809D+03
 0.155628884318699D+03 0.000000000000000D+00 0.000000000000000D+00 -.155628884318699D+03
 0.154633482746974D+03 -.198653806656967D+02 -.251123516574705D+02 0.852129710296337D+02
 0.120024522196704D+03 0.171410756109618D+02 0.493345532942473D+02 -.579906885862156D+02
 0.468292526087793D-01 -.386018233780318D-01 -.165180472367072D-01 -.207372188895718D-01
 0.365321972222214D+02 0.276290687811296D+01 -.242056835895400D+02 -.272222824434182D+02
0.175864126457D-04 0.000000000000D+00 0.000000000000D+00 0.165576402790D-04 0.000000000000D+00  6 2 -2 25 23 21 21 2 0.32441682D+00 0.17662890D-02 0.16703601D+05 0.16703601D+05 0.16703601D+05 0.12425315D+01  1  2  2  2  6  2       -2 0.162701710810D-01 0.100000000000D+01
0.203191555123D-05 0.928060492339D-06 -.675364551685D-07 0.165576402790D-04 0.000000000000D+00  6 2 -2 25 23 21 21 4 0.32441682D+00 0.17662890D-02 0.16703601D+05 0.16703601D+05 0.16703601D+05 0.12425315D+01  1  2  3  2  6  2       -2 0.290225320114D-02 0.100000000000D+01
0.445635971393D-06 0.000000000000D+00 0.000000000000D+00 0.165576402790D-04 0.000000000000D+00  6 2 -2 25 23 21 21 4 0.32441682D+00 0.17662890D-02 0.16703601D+05 0.16703601D+05 0.16703601D+05 0.12425315D+01  1  2 15  2  6  2       -2 0.636516819674D-03 0.100000000000D+01
-.330054004127D-02 0.000000000000D+00 0.000000000000D+00 0.165576402790D-04 0.000000000000D+00  6 2 -2 25 23 21 21 4 0.32441682D+00 0.17662890D-02 0.16703601D+05 0.16703601D+05 0.16703601D+05 0.12425315D+01  1  2  4  2  6  2       -2 -.471427215291D+01 0.100000000000D+01
-.187486156307D+00 0.000000000000D+00 -.111203627269D-01 0.165576402790D-04 0.000000000000D+00  6 2 -2 25 23 21 21 4 0.32441682D+00 0.17668444D-02 0.16703601D+05 0.16703601D+05 0.16703601D+05 0.12425315D+01  1  2  5  2  6  2       -2 -.267671084724D+03 0.100000000000D+01
0.187489644338D+00 0.000000000000D+00 0.111203621772D-01 0.165576402790D-04 0.000000000000D+00  6 2 -2 25 23 21 21 4 0.32441682D+00 0.17662890D-02 0.16703601D+05 0.16703601D+05 0.16703601D+05 0.12425315D+01  1  2  6  2  6  2       -2 0.267797753764D+03 0.100000000000D+01
0.329356502771D-02 0.000000000000D+00 0.000000000000D+00 0.165576402790D-04 0.535144542562D-01  6 2 -2 25 23 21 21 4 0.32444402D+00 0.17666725D-02 0.16708957D+05 0.16708957D+05 0.16708957D+05 0.12425158D+01  1  2 11  2  6  2       -2 0.470162532807D+01 0.100000000000D+01
-.110482914563D-04 0.000000000000D+00 -.655331542064D-06 0.165576402790D-04 0.000000000000D+00  6 2 21 25 23 2 21 4 0.32441682D+00 0.17668444D-02 0.16703601D+05 0.16703601D+05 0.16703601D+05 0.12425315D+01  3  4  5  5  5  2       -2 -.337892955030D+00 0.100000000000D+01
0.148458945510D-06 0.000000000000D+00 0.000000000000D+00 0.165576402790D-04 0.472476970664D-05  6 2 21 25 23 2 21 4 0.32444402D+00 0.17666725D-02 0.16708957D+05 0.16708957D+05 0.16708957D+05 0.12425158D+01  3  4 11  5  5  2       -2 0.453988354329D-02 0.100000000000D+01
  </mgrwgt>
  </event>
  <event>
  5     66 -.43206592E-03 0.43345158E+02 0.75467711E-02 0.11950130E+00
        4 -1    0    0  502    0 0.00000000E+00 0.00000000E+00 0.17989508E+04 0.17989514E+04 0.15500000E+01 0.0000E+00 0.9000E+01
       -4 -1    0    0    0  501 0.00000000E+00 0.00000000E+00 -.12387193E+02 0.12483791E+02 0.15500000E+01 0.0000E+00 0.9000E+01
       25  1    1    2    0    0 -.20052103E+02 0.24527468E+02 0.78772918E+03 0.79821422E+03 0.12500000E+03 0.0000E+00 0.9000E+01
       23  1    1    2    0    0 0.57715531E+02 -.30797362E+01 0.88238099E+03 0.88896121E+03 0.91188000E+02 0.0000E+00 0.9000E+01
       21  1    1    2  502  501 -.37663427E+02 -.21447731E+02 0.11645341E+03 0.12425980E+03 0.75000000E+00 0.0000E+00 0.9000E+01
#aMCatNLO 1  0  0  2  2 0.28393393D+02 0.00000000D+00  -5  6  0 0.00000000D+00 0.00000000D+00 0.00000000D+00 0.00000000D+00 0.00000000D+00
  <mgrwgt>
 -.1570074854D-02    7    4    0
 0.149572869516748D+03 0.000000000000000D+00 0.000000000000000D+00 0.149572869516748D+03
 0.149572869516748D+03 0.000000000000000D+00 0.000000000000000D+00 -.149572869516748D+03
 0.128984253975631D+03 -.200506948591970D+02 0.245282696211000D+02 0.287600394783573D+01
 0.113209715714992D+03 0.577167666896281D+02 -.307903231917160D+01 0.340658596125490D+02
 0.569517693428722D+02 -.376660718304312D+02 -.214492373019284D+02 -.369418635603847D+02
 0.000000000000000D+00 -.000000000000000D+00 -.000000000000000D+00 -.000000000000000D+00
 0.153915476732849D+03 0.000000000000000D+00 0.000000000000000D+00 0.153915476732849D+03
 0.205156650249041D+03 0.000000000000000D+00 0.000000000000000D+00 -.205156650249041D+03
 0.130889086504211D+03 -.149306182304749D+02 0.357177575787557D+02 0.287600394783573D+01
 0.115732175353275D+03 0.622274257038605D+02 0.677862575526256D+01 0.340658596125490D+02
 0.538689342316707D+02 -.354826601218547D+02 -.166775784398973D+02 -.369418635603847D+02
 0.585819308927323D+02 -.118141473515309D+02 -.258188048941209D+02 -.512411735161920D+02
 0.149572869516748D+03 0.000000000000000D+00 0.000000000000000D+00 0.149572869516748D+03
 0.149572869516748D+03 0.000000000000000D+00 0.000000000000000D+00 -.149572869516748D+03
 0.128984253975631D+03 -.200506948591970D+02 0.245282696211000D+02 0.287600394783573D+01
 0.113209715714992D+03 0.577167666896281D+02 -.307903231917160D+01 0.340658596125490D+02
 0.000000000000000D+00 -.000000000000000D+00 -.000000000000000D+00 -.000000000000000D+00
 0.569517693428722D+02 -.376660718304312D+02 -.214492373019284D+02 -.369418635603847D+02
 0.153915476732849D+03 0.000000000000000D+00 0.000000000000000D+00 0.153915476732849D+03
 0.205156650249041D+03 0.000000000000000D+00 0.000000000000000D+00 -.205156650249041D+03
 0.130889086504211D+03 -.149306182304749D+02 0.357177575787557D+02 0.287600394783573D+01
 0.115732175353275D+03 0.622274257038605D+02 0.677862575526256D+01 0.340658596125490D+02
 0.585819308927323D+02 -.118141473515309D+02 -.258188048941209D+02 -.512411735161920D+02
 0.538689342316707D+02 -.354826601218547D+02 -.166775784398973D+02 -.369418635603847D+02
0.238257227391D-04 0.000000000000D+00 0.000000000000D+00 0.787406342304D-05 0.000000000000D+00  6 4 -4 25 23 21 21 2 0.27676914D+00 0.19132040D-02 0.19636431D+05 0.19636431D+05 0.19636431D+05 0.12347042D+01  1  2  2  2  6  2       -4 0.343518722962D-03 0.100000000000D+01
0.589509863704D-06 0.125731793180D-05 -.914970487751D-07 0.787406342304D-05 0.000000000000D+00  6 4 -4 25 23 21 21 4 0.27676914D+00 0.19132040D-02 0.19636431D+05 0.19636431D+05 0.19636431D+05 0.12347042D+01  1  2  3  2  6  2       -4 0.129575002190D-04 0.100000000000D+01
0.962946021669D-06 0.000000000000D+00 0.000000000000D+00 0.787406342304D-05 0.000000000000D+00  6 4 -4 25 23 21 21 4 0.27676914D+00 0.19132040D-02 0.19636431D+05 0.19636431D+05 0.19636431D+05 0.12347042D+01  1  2 15  2  6  2       -4 0.211656734770D-04 0.100000000000D+01
-.572528101538D-04 0.000000000000D+00 0.000000000000D+00 0.787406342304D-05 0.000000000000D+00  6 4 -4 25 23 21 21 4 0.27676914D+00 0.19132040D-02 0.19636431D+05 0.19636431D+05 0.19636431D+05 0.12347042D+01  1  2  4  2  6  2       -4 -.125842389717D-02 0.100000000000D+01
-.125779361070D-03 0.000000000000D+00 -.171392019163D-04 0.787406342304D-05 0.000000000000D+00  6 4 -4 25 23 21 21 4 0.27676914D+00 0.27065107D-02 0.19636431D+05 0.19636431D+05 0.19636431D+05 0.12347042D+01  1  2  5  2  6  2       -4 -.161521717406D-02 0.100000000000D+01
0.125104052996D-03 0.000000000000D+00 0.161573384452D-04 0.787406342304D-05 0.000000000000D+00  6 4 -4 25 23 21 21 4 0.27676914D+00 0.19132040D-02 0.19636431D+05 0.19636431D+05 0.19636431D+05 0.12347042D+01  1  2  6  2  6  2       -4 0.274980266470D-02 0.100000000000D+01
-.492012227840D-05 0.000000000000D+00 -.735625666271D-06 0.787406342304D-05 0.000000000000D+00  6 4 21 25 23 4 21 4 0.27676914D+00 0.27065107D-02 0.19636431D+05 0.19636431D+05 0.19636431D+05 0.12347042D+01  3  4  5  5  5  2       -4 -.182387834446D-02 0.100000000000D+01
  </mgrwgt>
  </event>
  <event>
  6     66 0.43206592E-03 0.14061741E+02 0.75467711E-02 0.12167776E+00
        2 -1    0    0  502    0 0.00000000E+00 0.00000000E+00 0.27009290E+04 0.27009290E+04 0.32000000E+00 0.0000E+00 0.9000E+01
       21 -1    0    0  503  501 0.00000000E+00 0.00000000E+00 -.18305027E+02 0.18320386E+02 0.75000000E+00 0.0000E+00 0.9000E+01
       25  1    1    2    0    0 -.60717464E+02 0.12376988E+02 0.11070967E+04 0.11158530E+04 0.12500000E+03 0.0000E+00 0.9000E+01
       23  1    1    2    0    0 0.26424512E+02 -.18720269E+02 0.14272333E+04 0.14305100E+04 0.91188000E+02 0.0000E+00 0.9000E+01
        2  1    1    2  503    0 0.18859298E+02 0.11820823E+02 -.13937836E+01 0.22303588E+02 0.32000000E+00 0.0000E+00 0.9000E+01
       21  1    1    2  502  501 0.15433654E+02 -.54775420E+01 0.14968777E+03 0.15058284E+03 0.75000000E+00 0.0000E+00 0.9000E+01
#aMCatNLO 2  0  0  2  1 0.18516443D+03 0.00000000D+00  -5  6  0 0.00000000D+00 0.00000000D+00 0.00000000D+00 0.00000000D+00 0.00000000D+00
  <mgrwgt>
 0.5046976872D+00    1    2    0
 0.131405877527548D+03 0.000000000000000D+00 0.000000000000000D+00 0.131405877527548D+03
 0.131405877527548D+03 0.000000000000000D+00 0.000000000000000D+00 -.131405877527548D+03
 0.140518398976069D+03 -.505427346658578D+02 0.187619363810369D+02 -.348402377507453D+02
 0.104884814819623D+03 0.338805154756092D+02 -.140413002935231D+02 0.366131887838333D+02
 0.000000000000000D+00 0.000000000000000D+00 0.000000000000000D+00 -.000000000000000D+00
 0.174085412594034D+02 0.166622191902486D+02 -.472063608751377D+01 -.177295103308799D+01
 0.132388640906647D+03 0.000000000000000D+00 0.000000000000000D+00 0.132388640906647D+03
 0.373607637629765D+03 0.000000000000000D+00 0.000000000000000D+00 -.373607637629765D+03
 0.143804485706974D+03 -.607259728773378D+02 0.123791825667034D+02 -.348402377507453D+02
 0.103460583464424D+03 0.264184681509372D+02 -.187184383546355D+02 0.366131887838333D+02
 0.242243698300269D+03 0.188592981740387D+02 0.118208230875218D+02 -.241218996723119D+03
 0.164875110647453D+02 0.154482065523619D+02 -.548156729958975D+01 -.177295103308799D+01
0.739133782105D-04 0.000000000000D+00 0.000000000000D+00 0.417639501566D-04 0.145737797905D-06  6 2 21 25 23 2 21 4 0.41552839D+00 0.28173387D-02 0.18897360D+05 0.18897360D+05 0.18897360D+05 0.12365467D+01  1  2  1  5  5  2       -2 0.504697687195D+00 0.100000000000D+01
  </mgrwgt>
  </event>
  <event>
  5     66 0.43206592E-03 0.10028689E+03 0.75467711E-02 0.11096961E+00
        2 -1    0    0  502    0 0.00000000E+00 0.00000000E+00 0.21173273E+04 0.21173274E+04 0.32000000E+00 0.0000E+00 0.9000E+01
       -2 -1    0    0    0  501 0.00000000E+00 0.00000000E+00 -.34445666E+02 0.34447153E+02 0.32000000E+00 0.0000E+00 0.9000E+01
       25  1    1    2    0    0 -.19193455E+02 -.21406454E+03 0.10335839E+04 0.10630676E+04 0.12500000E+03 0.0000E+00 0.9000E+01
       23  1    1    2    0    0 0.44106243E+02 0.11692294E+03 0.35553256E+03 0.38773056E+03 0.91188000E+02 0.0000E+00 0.9000E+01
       21  1    1    2  502  501 -.24912788E+02 0.97141605E+02 0.69376523E+03 0.70097638E+03 0.75000000E+00 0.0000E+00 0.9000E+01
#aMCatNLO 1  0  0  5  1 0.18362324D+02 0.00000000D+00  -5  6  0 0.00000000D+00 0.00000000D+00 0.00000000D+00 0.00000000D+00 0.00000000D+00
  <mgrwgt>
 0.7795050706D-01    4    2    0
 0.270063651845261D+03 0.000000000000000D+00 0.000000000000000D+00 0.270063651845261D+03
 0.270063651845261D+03 -.000000000000000D+00 -.000000000000000D+00 -.270063651845261D+03
 0.249291550315881D+03 -.191932197656350D+02 -.214065458020295D+03 0.181349677828453D+02
 0.173619013660627D+03 0.441064065819818D+02 0.116922296332564D+03 -.788169529938449D+02
 0.117216739714014D+03 -.249131868163468D+02 0.971431616877317D+02 0.606819852109997D+02
 0.000000000000000D+00 0.000000000000000D+00 0.000000000000000D+00 -.000000000000000D+00
 0.270063651845261D+03 0.000000000000000D+00 0.000000000000000D+00 0.270063651845261D+03
 0.270063651845261D+03 -.000000000000000D+00 -.000000000000000D+00 -.270063651845261D+03
 0.238258048676904D+03 -.228747833134820D+02 -.199710059586985D+03 0.271022904465688D+02
 0.177381969503034D+03 0.414559430649502D+02 0.127257160670894D+03 -.723611194174967D+02
 0.224611830314136D+02 0.203809930985934D+02 -.927152442611266D+01 -.177727271451102D+01
 0.102026102479170D+03 -.389621528500616D+02 0.817244233422031D+02 0.470361016854390D+02
0.560750911347D-03 0.000000000000D+00 0.000000000000D+00 0.865819622156D-06 0.000000000000D+00  6 2 -2 25 23 21 21 2 0.32574278D+00 0.52994495D-02 0.63407237D+05 0.63407237D+05 0.63407237D+05 0.11821975D+01  1  2  2  3  6  5       21 0.906408137692D-01 0.100000000000D+01
-.107689767138D-04 0.295916385762D-04 -.215343114868D-05 0.865819622156D-06 0.000000000000D+00  6 2 -2 25 23 21 21 4 0.32574278D+00 0.52994495D-02 0.63407237D+05 0.63407237D+05 0.63407237D+05 0.11821975D+01  1  2  3  3  6  5       21 -.243281072813D-02 0.100000000000D+01
0.198531711998D-04 0.000000000000D+00 0.000000000000D+00 0.865819622156D-06 0.000000000000D+00  6 2 -2 25 23 21 21 4 0.32574278D+00 0.52994495D-02 0.63407237D+05 0.63407237D+05 0.63407237D+05 0.11821975D+01  1  2 15  3  6  5       21 0.448501368013D-02 0.100000000000D+01
-.652585675394D-04 0.000000000000D+00 0.000000000000D+00 0.865819622156D-06 0.000000000000D+00  6 2 -2 25 23 21 21 4 0.32574278D+00 0.52994495D-02 0.63407237D+05 0.63407237D+05 0.63407237D+05 0.11821975D+01  1  2  4  3  6  5       21 -.147425096583D-01 0.100000000000D+01
  </mgrwgt>
  </event>
  <event>
  6     66 -.43206592E-03 0.38023030E+02 0.75467711E-02 0.11901662E+00
        2 -1    0    0  503    0 0.00000000E+00 0.00000000E+00 0.20284689E+04 0.20284689E+04 0.32000000E+00 0.0000E+00 0.9000E+01
       -2 -1    0    0    0  501 0.00000000E+00 0.00000000E+00 -.19118609E+03 0.19118636E+03 0.32000000E+00 0.0000E+00 0.9000E+01
       25  1    1    2    0    0 -.26102827E+01 0.12968067E+02 0.49302081E+03 0.50879220E+03 0.12500000E+03 0.0000E+00 0.9000E+01
       23  1    1    2    0    0 0.12555949E+02 -.53173694E+02 0.14386849E+04 0.14426069E+04 0.91188000E+02 0.0000E+00 0.9000E+01
       21  1    1    2  502  501 0.20115273E+02 0.49918007E+02 -.17426526E+03 0.18238798E+03 0.75000000E+00 0.0000E+00 0.9000E+01
       21  1    1    2  503  502 -.30060940E+02 -.97123807E+01 0.79842290E+02 0.85868179E+02 0.75000000E+00 0.0000E+00 0.9000E+01
#aMCatNLO 2  0  0  1  5 0.31590987D+02 0.00000000D+00  -5  6  0 0.00000000D+00 0.00000000D+00 0.00000000D+00 0.00000000D+00 0.00000000D+00
  <mgrwgt>
 -.1430848623D+01    3    2    0
 0.604866149571906D+03 0.000000000000000D+00 0.000000000000000D+00 0.604866149571906D+03
 0.604866149571906D+03 0.000000000000000D+00 0.000000000000000D+00 -.604866149571906D+03
 0.181157494023544D+03 -.711086324872792D+01 0.115139703727215D+02 0.130422014058227D+03
 0.454606392785552D+03 0.126460071277572D+01 -.568218265387798D+02 0.441725482433746D+03
 0.573968412334717D+03 0.584626253595220D+01 0.453078561660583D+02 -.572147496491973D+03
 0.000000000000000D+00 -.000000000000000D+00 -.000000000000000D+00 0.000000000000000D+00
 0.630835716807826D+03 0.000000000000000D+00 0.000000000000000D+00 0.630835716807826D+03
 0.614756559427280D+03 0.000000000000000D+00 0.000000000000000D+00 -.614756559427280D+03
 0.181134993727076D+03 -.261028216480245D+01 0.129680618645848D+02 0.130422014058227D+03
 0.454336602337276D+03 0.125559517303331D+02 -.531737070759588D+02 0.441725482433746D+03
 0.574673116785984D+03 0.201152703485852D+02 0.499180259354215D+02 -.572147496491973D+03
 0.354475633847703D+02 -.300609399141159D+02 -.971238072404751D+01 0.160791573805461D+02
-.522187404627D-01 0.000000000000D+00 0.000000000000D+00 0.398389956970D-04 0.000000000000D+00  6 2 -2 25 23 21 21 4 0.31457875D+00 0.28939872D-01 0.25187370D+05 0.25187370D+05 0.25187370D+05 0.12229501D+01  1  2 13  1  6  1        2 -.950104231200D+00 0.100000000000D+01
-.250784668480D-01 0.000000000000D+00 0.000000000000D+00 0.406399787754D-04 0.000000000000D+00  6 2 -2 25 23 21 21 4 0.29922319D+00 0.28939872D-01 0.19441312D+05 0.19441312D+05 0.19441312D+05 0.12351830D+01  1  2  8  1  6  1        2 -.540269245735D+00 0.100000000000D+01
0.330360642344D-02 0.000000000000D+00 0.000000000000D+00 0.406399787754D-04 0.119930715937D-06  6 2 -2 25 23 21 21 4 0.31207016D+00 0.29413079D-01 0.25187370D+05 0.25187370D+05 0.25187370D+05 0.12229501D+01  1  2  1  1  6  1        2 0.595248540907D-01 0.100000000000D+01
  </mgrwgt>
  </event>
  <event>
  6     66 0.43206592E-03 0.22139418E+02 0.75467711E-02 0.11819189E+00
        2 -1    0    0  503    0 0.00000000E+00 0.00000000E+00 0.12872721E+04 0.12872721E+04 0.32000000E+00 0.0000E+00 0.9000E+01
       -2 -1    0    0    0  501 0.00000000E+00 0.00000000E+00 -.76977407E+02 0.76978072E+02 0.32000000E+00 0.0000E+00 0.9000E+01
       25  1    1    2    0    0 0.31925745E+02 -.86196819E+02 0.14098831E+03 0.20964696E+03 0.12500000E+03 0.0000E+00 0.9000E+01
       23  1    1    2    0    0 -.24964574E+02 0.11073157E+03 0.10010495E+03 0.17669455E+03 0.91188000E+02 0.0000E+00 0.9000E+01
       21  1    1    2  502  501 0.56686662E+01 -.26411104E+01 -.18214492E+01 0.65566316E+01 0.75000000E+00 0.0000E+00 0.9000E+01
       21  1    1    2  503  502 -.12629837E+02 -.21893644E+02 0.97102288E+03 0.97135207E+03 0.75000000E+00 0.0000E+00 0.9000E+01
#aMCatNLO 2  0  0  1  5 0.45302255D+02 0.00000000D+00  -5  6  0 0.00000000D+00 0.00000000D+00 0.00000000D+00 0.00000000D+00 0.00000000D+00
  <mgrwgt>
 0.6372539445D+00    1    2    0
 0.155305429503969D+03 0.000000000000000D+00 0.000000000000000D+00 0.155305429503969D+03
 0.155305429503969D+03 0.000000000000000D+00 0.000000000000000D+00 -.155305429503969D+03
 0.161353997477156D+03 0.254747033810970D+02 -.973599669278179D+02 0.167984769939823D+02
 0.139605370975418D+03 -.307667913537847D+02 0.100690504851903D+03 -.944643020646576D+01
 0.965149055536341D+01 0.529208797268764D+01 -.333053792408542D+01 -.735204678751657D+01
 0.000000000000000D+00 -.000000000000000D+00 -.000000000000000D+00 0.000000000000000D+00
 0.634578805488250D+03 0.000000000000000D+00 0.000000000000000D+00 0.634578805488250D+03
 0.156152358260242D+03 0.000000000000000D+00 0.000000000000000D+00 -.156152358260242D+03
 0.156060668012559D+03 0.319173000963166D+02 -.861918164663579D+02 0.167984769939823D+02
 0.145913042568476D+03 -.249715960045257D+02 0.110736394184256D+03 -.944643020646576D+01
 0.966381949501400D+01 0.568413272239074D+01 -.265093388462004D+01 -.735204678751657D+01
 0.479093633672444D+03 -.126298368141816D+02 -.218936438332784D+02 0.478426447228008D+03
0.317315572100D-02 0.000000000000D+00 0.000000000000D+00 0.244984897356D-03 0.360633542103D-05  6 2 -2 25 23 21 21 4 0.19804154D+00 0.11842710D-01 0.27607177D+05 0.27607177D+05 0.27607177D+05 0.12187055D+01  1  2  1  1  6  1        2 0.637253944456D+00 0.100000000000D+01
  </mgrwgt>
  </event>
  <event>
  6     66 0.43206592E-03 0.17889073E+02 0.75467711E-02 0.12110808E+00
        2 -1    0    0  502    0 0.00000000E+00 0.00000000E+00 0.86142585E+02 0.86143180E+02 0.32000000E+00 0.0000E+00 0.9000E+01
       -2 -1    0    0    0  501 -.00000000E+00 -.00000000E+00 -.36563906E+03 0.36563920E+03 0.32000000E+00 0.0000E+00 0.9000E+01
       25  1    1    2    0    0 -.58636997E+02 -.34834097E+02 -.10246940E+02 0.14276453E+03 0.12500000E+03 0.0000E+00 0.9000E+01
       23  1    1    2    0    0 0.46953194E+02 0.49661525E+02 -.16001820E+03 0.19644833E+03 0.91188000E+02 0.0000E+00 0.9000E+01
       21  1    1    2  502  503 0.17060267E+02 -.12152867E+02 -.78631717E+02 0.81377234E+02 0.75000000E+00 0.0000E+00 0.9000E+01
       21  1    1    2  503  501 -.53764634E+01 -.26745610E+01 -.30599611E+02 0.31192280E+02 0.75000000E+00 0.0000E+00 0.9000E+01
#aMCatNLO 2  0  0  5  1 0.22537352D+02 0.00000000D+00  -5  6  0 0.00000000D+00 0.00000000D+00 0.00000000D+00 0.00000000D+00 0.00000000D+00
  <mgrwgt>
 0.1035795180D+00    1    2    0
 0.177474672645625D+03 0.000000000000000D+00 0.000000000000000D+00 0.177474672645625D+03
 0.177474672645625D+03 -.000000000000000D+00 -.000000000000000D+00 -.177474672645625D+03
 0.174593035458152D+03 -.590070592927079D+02 -.343644665501547D+02 0.100970185811662D+03
 0.123629546236795D+03 0.466900026276188D+02 0.499955298300817D+02 -.478487618477021D+02
 0.567267635963030D+02 0.123170566650891D+02 -.156310632799270D+02 -.531214239639597D+02
 0.000000000000000D+00 0.000000000000000D+00 0.000000000000000D+00 -.000000000000000D+00
 0.177474672645625D+03 0.000000000000000D+00 0.000000000000000D+00 0.177474672645625D+03
 0.177474672645625D+03 -.000000000000000D+00 -.000000000000000D+00 -.177474672645625D+03
 0.173636723742962D+03 -.586344853391546D+02 -.348372846269726D+02 0.993633361005023D+02
 0.124041283043718D+03 0.469549877347405D+02 0.496592482743268D+02 -.489915986960089D+02
 0.413222327730211D+02 0.171037032280145D+02 -.120656650977882D+02 -.356287802623632D+02
 0.159491057315489D+02 -.542420562360044D+01 -.275629854956602D+01 -.147429571421302D+02
0.334870260172D-03 0.000000000000D+00 0.000000000000D+00 0.217021473372D-04 0.144543564852D-05  6 2 -2 25 23 21 21 4 0.13252762D-01 0.56252219D-01 0.20074364D+05 0.20074364D+05 0.20074364D+05 0.12336486D+01  1  2  1  3  6  5       21 0.103579517976D+00 0.100000000000D+01
  </mgrwgt>
  </event>
  <event>
  5     66 0.43206592E-03 0.30285195E+02 0.75467711E-02 0.11727186E+00
        2 -1    0    0  502    0 0.00000000E+00 0.00000000E+00 0.13980572E+04 0.13980572E+04 0.32000000E+00 0.0000E+00 0.9000E+01
       -2 -1    0    0    0  501 0.00000000E+00 0.00000000E+00 -.27795475E+02 0.27797317E+02 0.32000000E+00 0.0000E+00 0.9000E+01
       25  1    1    2    0    0 -.59215446E+02 0.19015252E+02 0.17781743E+03 0.22607983E+03 0.12500000E+03 0.0000E+00 0.9000E+01
       23  1    1    2    0    0 0.32250540E+02 -.32794191E+02 0.91724654E+03 0.92291496E+03 0.91188000E+02 0.0000E+00 0.9000E+01
       21  1    1    2  502  501 0.26964906E+02 0.13778940E+02 0.27519771E+03 0.27685972E+03 0.75000000E+00 0.0000E+00 0.9000E+01
#aMCatNLO 1  0  0  2  1 0.15050090D+02 0.00000000D+00  -5  6  0 0.00000000D+00 0.00000000D+00 0.00000000D+00 0.00000000D+00 0.00000000D+00
  <mgrwgt>
 0.9617061844D-01    7    4    0
 0.197131941368183D+03 0.000000000000000D+00 0.000000000000000D+00 0.197131941368183D+03
 0.197131941368183D+03 0.000000000000000D+00 0.000000000000000D+00 -.197131941368183D+03
 0.199615985468815D+03 -.592173582004193D+02 0.190142744774670D+02 -.142665004498458D+03
 0.149833927803235D+03 0.322491048393508D+02 -.327949247410553D+02 0.109633219077222D+03
 0.448139694643165D+02 0.269682533610685D+02 0.137806502635883D+02 0.330317854212359D+02
 0.000000000000000D+00 -.000000000000000D+00 -.000000000000000D+00 -.000000000000000D+00
 0.223865905167507D+03 0.000000000000000D+00 0.000000000000000D+00 0.223865905167507D+03
 0.251220136411750D+03 0.000000000000000D+00 0.000000000000000D+00 -.251220136411750D+03
 0.204302914300886D+03 -.534494843234677D+02 0.538936908074176D+02 -.142665004498458D+03
 0.147367864161071D+03 0.364930816699262D+02 -.713079998274155D+01 0.109633219077222D+03
 0.486803883522949D+02 0.283033324187711D+02 0.218541240045949D+02 0.330317854212359D+02
 0.747348747650047D+02 -.113469297652296D+02 -.686170148292710D+02 -.273542312442425D+02
 0.197131941368183D+03 0.000000000000000D+00 0.000000000000000D+00 0.197131941368183D+03
 0.197131941368183D+03 0.000000000000000D+00 0.000000000000000D+00 -.197131941368183D+03
 0.199615985468815D+03 -.592173582004193D+02 0.190142744774670D+02 -.142665004498458D+03
 0.149833927803235D+03 0.322491048393508D+02 -.327949247410553D+02 0.109633219077222D+03
 0.000000000000000D+00 -.000000000000000D+00 -.000000000000000D+00 -.000000000000000D+00
 0.448139694643165D+02 0.269682533610685D+02 0.137806502635883D+02 0.330317854212359D+02
 0.223865905167507D+03 0.000000000000000D+00 0.000000000000000D+00 0.223865905167507D+03
 0.251220136411750D+03 0.000000000000000D+00 0.000000000000000D+00 -.251220136411750D+03
 0.204302914300886D+03 -.534494843234677D+02 0.538936908074176D+02 -.142665004498458D+03
 0.147367864161071D+03 0.364930816699262D+02 -.713079998274155D+01 0.109633219077222D+03
 0.747348747650047D+02 -.113469297652296D+02 -.686170148292710D+02 -.273542312442425D+02
 0.486803883522949D+02 0.283033324187711D+02 0.218541240045949D+02 0.330317854212359D+02
0.120766106953D-03 0.000000000000D+00 0.000000000000D+00 0.620555285642D-05 0.000000000000D+00  6 2 -2 25 23 21 21 2 0.21508586D+00 0.42763715D-02 0.18500691D+05 0.18500691D+05 0.18500691D+05 0.12375692D+01  1  2  2  2  6  2       -2 0.704096516534D-01 0.100000000000D+01
0.769802871791D-05 0.637300255227D-05 -.463773649146D-06 0.620555285642D-05 0.000000000000D+00  6 2 -2 25 23 21 21 4 0.21508586D+00 0.42763715D-02 0.18500691D+05 0.18500691D+05 0.18500691D+05 0.12375692D+01  1  2  3  2  6  2       -2 0.687393899880D-02 0.100000000000D+01
0.559590310346D-05 0.000000000000D+00 0.000000000000D+00 0.620555285642D-05 0.000000000000D+00  6 2 -2 25 23 21 21 4 0.21508586D+00 0.42763715D-02 0.18500691D+05 0.18500691D+05 0.18500691D+05 0.12375692D+01  1  2 15  2  6  2       -2 0.499685023088D-02 0.100000000000D+01
-.315007817334D-04 0.000000000000D+00 0.000000000000D+00 0.620555285642D-05 0.000000000000D+00  6 2 -2 25 23 21 21 4 0.21508586D+00 0.42763715D-02 0.18500691D+05 0.18500691D+05 0.18500691D+05 0.12375692D+01  1  2  4  2  6  2       -2 -.281285586200D-01 0.100000000000D+01
-.153429937634D-03 0.000000000000D+00 -.814127300075D-04 0.620555285642D-05 0.000000000000D+00  6 2 -2 25 23 21 21 4 0.21508586D+00 0.62479272D-02 0.18500691D+05 0.18500691D+05 0.18500691D+05 0.12375692D+01  1  2  5  2  6  2       -2 -.774488230705D-01 0.100000000000D+01
0.176946422424D-03 0.000000000000D+00 0.758922817379D-04 0.620555285642D-05 0.000000000000D+00  6 2 -2 25 23 21 21 4 0.21508586D+00 0.42763715D-02 0.18500691D+05 0.18500691D+05 0.18500691D+05 0.12375692D+01  1  2  6  2  6  2       -2 0.158003945993D+00 0.100000000000D+01
-.444197328099D-05 0.000000000000D+00 -.372659483298D-05 0.620555285642D-05 0.000000000000D+00  6 2 21 25 23 2 21 4 0.21508586D+00 0.62479272D-02 0.18500691D+05 0.18500691D+05 0.18500691D+05 0.12375692D+01  3  4  5  5  5  2       -2 -.385363867485D-01 0.100000000000D+01
  </mgrwgt>
  </event>
  <event>
  6     66 -.43206592E-03 0.26656863E+02 0.75467711E-02 0.11925543E+00
        2 -1    0    0  502    0 0.00000000E+00 0.00000000E+00 0.24025646E+03 0.24025667E+03 0.32000000E+00 0.0000E+00 0.9000E+01
       -2 -1    0    0    0  501 0.00000000E+00 0.00000000E+00 -.20553216E+03 0.20553241E+03 0.32000000E+00 0.0000E+00 0.9000E+01
       25  1    1    2    0    0 -.58148782E+02 0.44349265E+02 0.50168956E+02 0.15326468E+03 0.12500000E+03 0.0000E+00 0.9000E+01
       23  1    1    2    0    0 0.30850722E+02 -.62755608E+02 0.98747749E+02 0.15151370E+03 0.91188000E+02 0.0000E+00 0.9000E+01
       21  1    1    2  502  503 0.35489129E+02 0.26175387E+01 -.11761414E+03 0.12288197E+03 0.75000000E+00 0.0000E+00 0.9000E+01
       21  1    1    2  503  501 -.81910690E+01 0.15788804E+02 0.34217362E+01 0.18128726E+02 0.75000000E+00 0.0000E+00 0.9000E+01
#aMCatNLO 2  0  0  5  1 0.17970798D+02 0.00000000D+00  -5  6  0 0.00000000D+00 0.00000000D+00 0.00000000D+00 0.00000000D+00 0.00000000D+00
  <mgrwgt>
 -.1124151563D+00    3    2    0
 0.222217310120803D+03 0.000000000000000D+00 0.000000000000000D+00 0.222217310120803D+03
 0.222217310120803D+03 -.000000000000000D+00 -.000000000000000D+00 -.222217310120803D+03
 0.152019093174489D+03 -.596517721252693D+02 0.433358400015464D+02 0.452600899609052D+02
 0.148533362782216D+03 0.293927352080946D+02 -.637386889875942D+02 0.939167458897664D+02
 0.143882164284901D+03 0.302590369171747D+02 0.204028489860477D+02 -.139176835850672D+03
 0.000000000000000D+00 0.000000000000000D+00 0.000000000000000D+00 0.000000000000000D+00
 0.222217310120803D+03 0.000000000000000D+00 0.000000000000000D+00 0.222217310120803D+03
 0.222217310120803D+03 -.000000000000000D+00 -.000000000000000D+00 -.222217310120803D+03
 0.149799210869075D+03 -.581394131308154D+02 0.443555827072048D+02 0.383039749961579D+02
 0.144234362835546D+03 0.308597433291791D+02 -.627495251474588D+02 0.871692228599146D+02
 0.132373244525398D+03 0.355268334208630D+02 0.249083888453956D+01 -.127492414264215D+03
 0.180278020115872D+02 -.824716361922669D+01 0.159031035557145D+02 0.201921640814284D+01
-.468850435935D-03 0.000000000000D+00 0.000000000000D+00 0.137632170453D-04 0.000000000000D+00  6 2 -2 25 23 21 21 4 0.36962568D-01 0.31620368D-01 0.24533111D+05 0.24533111D+05 0.24533111D+05 0.12241764D+01  1  2 13  3  6  5       21 -.134476320214D+00 0.100000000000D+01
-.144897559926D-04 0.000000000000D+00 0.000000000000D+00 0.138782250834D-04 0.000000000000D+00  6 2 -2 25 23 21 21 4 0.36962568D-01 0.31620368D-01 0.22006724D+05 0.22006724D+05 0.22006724D+05 0.12292805D+01  1  2  8  3  6  5       21 -.421943392036D-02 0.100000000000D+01
0.916270590338D-04 0.000000000000D+00 0.000000000000D+00 0.138782250834D-04 0.161751361082D-06  6 2 -2 25 23 21 21 4 0.36962568D-01 0.31620368D-01 0.24533111D+05 0.24533111D+05 0.24533111D+05 0.12241764D+01  1  2  1  3  6  5       21 0.262805977909D-01 0.100000000000D+01
  </mgrwgt>
  </event>
  <event>
  6     66 0.43206592E-03 0.24722609E+02 0.75467711E-02 0.11929687E+00
        2 -1    0    0  502    0 0.00000000E+00 0.00000000E+00 0.93472129E+03 0.93472135E+03 0.32000000E+00 0.0000E+00 0.9000E+01
       21 -1    0    0  503  501 0.00000000E+00 0.00000000E+00 -.60164126E+02 0.60168800E+02 0.75000000E+00 0.0000E+00 0.9000E+01
       25  1    1    2    0    0 -.70327147E+02 0.50530276E+02 0.33750303E+03 0.37017903E+03 0.12500000E+03 0.0000E+00 0.9000E+01
       23  1    1    2    0    0 0.70100591E+02 -.73374897E+01 0.33175437E+03 0.35120385E+03 0.91188000E+02 0.0000E+00 0.9000E+01
        2  1    1    2  503    0 0.61639020E+01 -.12202037E+02 -.31643127E+02 0.34471340E+02 0.32000000E+00 0.0000E+00 0.9000E+01
       21  1    1    2  502  501 -.59373455E+01 -.30990749E+02 0.23694289E+03 0.23903593E+03 0.75000000E+00 0.0000E+00 0.9000E+01
#aMCatNLO 2  0  0  2  5 0.13670530D+02 0.00000000D+00  -5  6  0 0.00000000D+00 0.00000000D+00 0.00000000D+00 0.00000000D+00 0.00000000D+00
  <mgrwgt>
 0.1341206154D-01    2    2    0
 0.158916983566326D+03 0.000000000000000D+00 0.000000000000000D+00 0.158916983566326D+03
 0.158916983566326D+03 0.000000000000000D+00 0.000000000000000D+00 -.158916983566326D+03
 0.153010019120289D+03 -.673302222321655D+02 0.446001060734640D+02 -.355603383503879D+02
 0.117006040632567D+03 0.723519830005933D+02 -.117924013476190D+02 0.113667358922053D+01
 0.000000000000000D+00 0.000000000000000D+00 -.000000000000000D+00 -.000000000000000D+00
 0.478179073797964D+02 -.502176076842780D+01 -.328077047258450D+02 0.344236647611673D+02
 0.159304787784200D+03 0.000000000000000D+00 0.000000000000000D+00 0.159304787784200D+03
 0.353027362834059D+03 0.000000000000000D+00 0.000000000000000D+00 -.353027362834059D+03
 0.156169506680430D+03 -.703268681439982D+02 0.505322547515093D+02 -.355603383503879D+02
 0.115258340338971D+03 0.701008180636520D+02 -.733600392942322D+01 0.113667358922053D+01
 0.194204324028525D+03 0.616390203815869D+01 -.122020366780342D+02 -.193722575049859D+03
 0.466999795703326D+02 -.593785195781247D+01 -.309942141440519D+02 0.344236647611673D+02
-.204534744806D-04 0.000000000000D+00 0.000000000000D+00 0.112569483914D-04 0.000000000000D+00  6 2 21 25 23 2 21 4 0.14345345D+00 0.92748569D-02 0.24421587D+05 0.24421587D+05 0.24421587D+05 0.12243891D+01  1  2 13  5  5  2       -2 -.157323082947D+00 0.100000000000D+01
0.221920823493D-04 0.000000000000D+00 0.000000000000D+00 0.113335072684D-04 0.618167110532D-07  6 2 21 25 23 2 21 4 0.14380352D+00 0.92563755D-02 0.24421587D+05 0.24421587D+05 0.24421587D+05 0.12243891D+01  1  2  1  5  5  2       -2 0.170735144491D+00 0.100000000000D+01
  </mgrwgt>
  </event>
  <event>
  5     66 0.43206592E-03 0.24530725E+02 0.75467711E-02 0.10662533E+00
        2 -1    0    0  502    0 0.00000000E+00 0.00000000E+00 0.94871267E+03 0.94871273E+03 0.32000000E+00 0.0000E+00 0.9000E+01
       -2 -1    0    0    0  501 0.00000000E+00 0.00000000E+00 -.45647033E+02 0.45648155E+02 0.32000000E+00 0.0000E+00 0.9000E+01
       25  1    1    2    0    0 0.15487670E+03 0.77093958E+01 0.30164820E+03 0.36147319E+03 0.12500000E+03 0.0000E+00 0.9000E+01
       23  1    1    2    0    0 -.14136363E+03 -.28169740E+02 0.55140571E+03 0.57718343E+03 0.91188000E+02 0.0000E+00 0.9000E+01
       21  1    1    2  502  501 -.13513074E+02 0.20460344E+02 0.50011734E+02 0.55704263E+02 0.75000000E+00 0.0000E+00 0.9000E+01
#aMCatNLO 1  0  0  2  2 0.22914024D+03 0.00000000D+00  -5  6  0 0.00000000D+00 0.00000000D+00 0.00000000D+00 0.00000000D+00 0.00000000D+00
  <mgrwgt>
 0.2827475576D+00    5    4    0
 0.208102146101110D+03 0.000000000000000D+00 0.000000000000000D+00 0.208102146101110D+03
 0.208102146101110D+03 0.000000000000000D+00 0.000000000000000D+00 -.208102146101110D+03
 0.209098115595534D+03 0.154879868837060D+03 0.770460358248976D+01 -.636387245178221D+02
 0.182536559426527D+03 -.141360866797923D+03 -.281739237632152D+02 0.650206085883420D+02
 0.245696171801593D+02 -.135190020391362D+02 0.204693201807255D+02 -.138188407051993D+01
 0.000000000000000D+00 -.000000000000000D+00 0.000000000000000D+00 -.000000000000000D+00
 0.290981373503078D+03 0.000000000000000D+00 0.000000000000000D+00 0.290981373503078D+03
 0.483249909270845D+03 0.000000000000000D+00 0.000000000000000D+00 -.483249909270845D+03
 0.311164079056381D+03 0.271787694911047D+03 -.572681912730834D+02 -.636387245178221D+02
 0.147880755304306D+03 -.671129772540162D+02 -.694379952783465D+02 0.650206085883420D+02
 0.160670079244605D+02 -.438756879489818D+01 0.153944269178933D+02 -.138188407051993D+01
 0.299119440488774D+03 -.200287148862132D+03 0.111311759633537D+03 -.192268535767767D+03
 0.208102146101110D+03 0.000000000000000D+00 0.000000000000000D+00 0.208102146101110D+03
 0.208102146101110D+03 0.000000000000000D+00 0.000000000000000D+00 -.208102146101110D+03
 0.209098115595534D+03 0.154879868837060D+03 0.770460358248976D+01 -.636387245178221D+02
 0.182536559426527D+03 -.141360866797923D+03 -.281739237632152D+02 0.650206085883420D+02
 0.000000000000000D+00 -.000000000000000D+00 0.000000000000000D+00 -.000000000000000D+00
 0.245696171801593D+02 -.135190020391362D+02 0.204693201807255D+02 -.138188407051993D+01
 0.290981373503078D+03 0.000000000000000D+00 0.000000000000000D+00 0.290981373503078D+03
 0.483249909270845D+03 0.000000000000000D+00 0.000000000000000D+00 -.483249909270845D+03
 0.311164079056381D+03 0.271787694911047D+03 -.572681912730834D+02 -.636387245178221D+02
 0.147880755304306D+03 -.671129772540162D+02 -.694379952783465D+02 0.650206085883420D+02
 0.299119440488774D+03 -.200287148862132D+03 0.111311759633537D+03 -.192268535767767D+03
 0.160670079244605D+02 -.438756879489818D+01 0.153944269178933D+02 -.138188407051993D+01
0.411302663259D-03 0.000000000000D+00 0.000000000000D+00 0.133784305929D-04 0.000000000000D+00  6 2 -2 25 23 21 21 2 0.14595589D+00 0.70227109D-02 0.38862780D+05 0.38862780D+05 0.38862780D+05 0.12032744D+01  1  2  2  2  6  2       -2 0.193599614450D+00 0.100000000000D+01
0.128811698032D-03 0.217050378524D-04 -.157951052539D-05 0.133784305929D-04 0.000000000000D+00  6 2 -2 25 23 21 21 4 0.14595589D+00 0.70227109D-02 0.38862780D+05 0.38862780D+05 0.38862780D+05 0.12032744D+01  1  2  3  2  6  2       -2 0.877864729965D-01 0.100000000000D+01
0.229498902836D-05 0.000000000000D+00 0.000000000000D+00 0.133784305929D-04 0.000000000000D+00  6 2 -2 25 23 21 21 4 0.14595589D+00 0.70227109D-02 0.38862780D+05 0.38862780D+05 0.38862780D+05 0.12032744D+01  1  2 15  2  6  2       -2 0.156405819847D-02 0.100000000000D+01
-.417948743681D-04 0.000000000000D+00 -.209064973537D-03 0.133784305929D-04 0.000000000000D+00  6 2 -2 25 23 21 21 4 0.14595589D+00 0.22845002D-01 0.38862780D+05 0.38862780D+05 0.38862780D+05 0.12032744D+01  1  2  5  2  6  2       -2 -.418203786850D-02 0.100000000000D+01
0.294595413889D-05 0.000000000000D+00 -.284856809759D-04 0.133784305929D-04 0.000000000000D+00  6 2 21 25 23 2 21 4 0.14595589D+00 0.22845002D-01 0.38862780D+05 0.38862780D+05 0.38862780D+05 0.12032744D+01  3  4  5  5  5  2       -2 0.397944985039D-02 0.100000000000D+01
  </mgrwgt>
  </event>
  <event>
  5     66 -.43206592E-03 0.26564576E+02 0.75467711E-02 0.12219211E+00
        2 -1    0    0  502    0 0.00000000E+00 0.00000000E+00 0.16125368E+04 0.16125369E+04 0.32000000E+00 0.0000E+00 0.9000E+01
       -2 -1    0    0    0  501 0.00000000E+00 0.00000000E+00 -.11958749E+02 0.11963030E+02 0.32000000E+00 0.0000E+00 0.9000E+01
       25  1    1    2    0    0 0.23371665E+02 -.46112376E+02 0.10376823E+04 0.10464617E+04 0.12500000E+03 0.0000E+00 0.9000E+01
       23  1    1    2    0    0 0.31867096E+01 0.46199724E+02 0.48708638E+03 0.49770771E+03 0.91188000E+02 0.0000E+00 0.9000E+01
       21  1    1    2  502  501 -.26558374E+02 -.87347781E-01 0.75809409E+02 0.80330467E+02 0.75000000E+00 0.0000E+00 0.9000E+01
#aMCatNLO 1  0  0  2  1 0.34133586D+01 0.00000000D+00  -5  6  0 0.00000000D+00 0.00000000D+00 0.00000000D+00 0.00000000D+00 0.00000000D+00
  <mgrwgt>
 -.2444548460D+00    9    4    0
 0.138879177432543D+03 0.000000000000000D+00 0.000000000000000D+00 0.138879177432543D+03
 0.138879177432543D+03 0.000000000000000D+00 0.000000000000000D+00 -.138879177432543D+03
 0.140718609451972D+03 0.233751470216227D+02 -.461123643433471D+02 0.387811732994326D+02
 0.104069811709728D+03 0.318928511945395D+01 0.461997320485248D+02 -.192532486705365D+02
 0.329699337033853D+02 -.265644321410767D+02 -.873677051776357D-01 -.195279246288961D+02
 0.000000000000000D+00 0.000000000000000D+00 0.000000000000000D+00 -.000000000000000D+00
 0.140385727843808D+03 0.000000000000000D+00 0.000000000000000D+00 0.140385727843808D+03
 0.140836608411317D+03 0.000000000000000D+00 0.000000000000000D+00 -.140836608411317D+03
 0.140822136759654D+03 0.219631670700222D+02 -.471117192567662D+02 0.387811732994326D+02
 0.103717685870744D+03 0.214719162242121D+01 0.454621711112599D+02 -.192532486705365D+02
 0.332395047398256D+02 -.268964849645009D+02 -.322384229475702D+00 -.195279246288961D+02
 0.344300888490124D+01 0.278612627205759D+01 0.197193237498202D+01 -.450880567508884D+00
 0.138879177432543D+03 0.000000000000000D+00 0.000000000000000D+00 0.138879177432543D+03
 0.138879177432543D+03 0.000000000000000D+00 0.000000000000000D+00 -.138879177432543D+03
 0.140718609451972D+03 0.233751470216227D+02 -.461123643433471D+02 0.387811732994326D+02
 0.104069811709728D+03 0.318928511945395D+01 0.461997320485248D+02 -.192532486705365D+02
 0.000000000000000D+00 0.000000000000000D+00 0.000000000000000D+00 -.000000000000000D+00
 0.329699337033853D+02 -.265644321410767D+02 -.873677051776357D-01 -.195279246288961D+02
 0.140385727843808D+03 0.000000000000000D+00 0.000000000000000D+00 0.140385727843808D+03
 0.140836608411317D+03 0.000000000000000D+00 0.000000000000000D+00 -.140836608411317D+03
 0.140822136759654D+03 0.219631670700222D+02 -.471117192567662D+02 0.387811732994326D+02
 0.103717685870744D+03 0.214719162242121D+01 0.454621711112599D+02 -.192532486705365D+02
 0.344300888490124D+01 0.278612627205759D+01 0.197193237498202D+01 -.450880567508884D+00
 0.332395047398256D+02 -.268964849645009D+02 -.322384229475702D+00 -.195279246288961D+02
0.433469776713D-04 0.000000000000D+00 0.000000000000D+00 0.189168712504D-04 0.000000000000D+00  6 2 -2 25 23 21 21 2 0.24808292D+00 0.18401393D-02 0.17438139D+05 0.17438139D+05 0.17438139D+05 0.12404341D+01  1  2  2  2  6  2       -2 0.675808256191D-01 0.100000000000D+01
0.549609634090D-05 0.228748285676D-05 -.166463807779D-06 0.189168712504D-04 0.000000000000D+00  6 2 -2 25 23 21 21 4 0.24808292D+00 0.18401393D-02 0.17438139D+05 0.17438139D+05 0.17438139D+05 0.12404341D+01  1  2  3  2  6  2       -2 0.131845829772D-01 0.100000000000D+01
0.124362286159D-05 0.000000000000D+00 0.000000000000D+00 0.189168712504D-04 0.000000000000D+00  6 2 -2 25 23 21 21 4 0.24808292D+00 0.18401393D-02 0.17438139D+05 0.17438139D+05 0.17438139D+05 0.12404341D+01  1  2 15  2  6  2       -2 0.298332630906D-02 0.100000000000D+01
-.674025571022D-04 0.000000000000D+00 0.000000000000D+00 0.189168712504D-04 0.000000000000D+00  6 2 -2 25 23 21 21 4 0.24808292D+00 0.18401393D-02 0.17438139D+05 0.17438139D+05 0.17438139D+05 0.12404341D+01  1  2  4  2  6  2       -2 -.161691963144D+00 0.100000000000D+01
-.256801873682D-02 0.000000000000D+00 -.335599286889D-03 0.189168712504D-04 0.000000000000D+00  6 2 -2 25 23 21 21 4 0.24808292D+00 0.18886483D-02 0.17438139D+05 0.17438139D+05 0.17438139D+05 0.12404341D+01  1  2  5  2  6  2       -2 -.593261224667D+01 0.100000000000D+01
0.257599257022D-02 0.000000000000D+00 0.335485710545D-03 0.189168712504D-04 0.000000000000D+00  6 2 -2 25 23 21 21 4 0.24808292D+00 0.18401393D-02 0.17438139D+05 0.17438139D+05 0.17438139D+05 0.12404341D+01  1  2  6  2  6  2       -2 0.617954738855D+01 0.100000000000D+01
0.647665962689D-04 0.000000000000D+00 0.000000000000D+00 0.189168712504D-04 0.349031278248D-05  6 2 -2 25 23 21 21 4 0.25077410D+00 0.18660751D-02 0.17902929D+05 0.17902929D+05 0.17902929D+05 0.12391575D+01  1  2 11  2  6  2       -2 0.148595540135D+00 0.100000000000D+01
-.119713802862D-04 0.000000000000D+00 -.157524576317D-05 0.189168712504D-04 0.000000000000D+00  6 2 21 25 23 2 21 4 0.24808292D+00 0.18886483D-02 0.17438139D+05 0.17438139D+05 0.17438139D+05 0.12404341D+01  3  4  5  5  5  2       -2 -.585735837204D+00 0.100000000000D+01
0.486841938124D-06 0.000000000000D+00 0.000000000000D+00 0.189168712504D-04 0.458198302649D-07  6 2 21 25 23 2 21 4 0.25077410D+00 0.18660751D-02 0.17902929D+05 0.17902929D+05 0.17902929D+05 0.12391575D+01  3  4 11  5  5  2       -2 0.236935374495D-01 0.100000000000D+01
  </mgrwgt>
  </event>
  <event>
  6     66 0.43206592E-03 0.13300116E+03 0.75467711E-02 0.11134675E+00
        2 -1    0    0  503    0 0.00000000E+00 0.00000000E+00 0.67236520E+03 0.67236527E+03 0.32000000E+00 0.0000E+00 0.9000E+01
       -2 -1    0    0    0  501 0.00000000E+00 0.00000000E+00 -.12322510E+03 0.12322551E+03 0.32000000E+00 0.0000E+00 0.9000E+01
       25  1    1    2    0    0 0.52959927E+02 0.84473647E+02 0.24015103E+02 0.16168573E+03 0.12500000E+03 0.0000E+00 0.9000E+01
       23  1    1    2    0    0 0.22635925E+02 0.75248473E+02 0.21655958E+03 0.24776606E+03 0.91188000E+02 0.0000E+00 0.9000E+01
       21  1    1    2  502  501 0.37203525E+02 -.43808164E+02 0.32094603E+02 0.65832238E+02 0.75000000E+00 0.0000E+00 0.9000E+01
       21  1    1    2  503  502 -.11279938E+03 -.11591396E+03 0.27647081E+03 0.32030675E+03 0.75000000E+00 0.0000E+00 0.9000E+01
#aMCatNLO 2  0  0  1  1 0.16173974D+03 0.00000000D+00  -5  6  0 0.00000000D+00 0.00000000D+00 0.00000000D+00 0.00000000D+00 0.00000000D+00
  <mgrwgt>
 0.3165509881D-02    1    2    0
 0.177049870767733D+03 0.000000000000000D+00 0.000000000000000D+00 0.177049870767733D+03
 0.177049870767733D+03 0.000000000000000D+00 0.000000000000000D+00 -.177049870767733D+03
 0.154004732582205D+03 0.219048135183141D+01 0.323046667277871D+02 -.839289458814446D+02
 0.133958386944507D+03 -.205747561179867D+02 0.308466682660289D+02 0.908557128437456D+02
 0.661366220087531D+02 0.183842747661553D+02 -.631513349938160D+02 -.692676696230100D+01
 0.000000000000000D+00 -.000000000000000D+00 -.000000000000000D+00 0.000000000000000D+00
 0.349947159823536D+03 0.000000000000000D+00 0.000000000000000D+00 0.349947159823536D+03
 0.236755773443247D+03 0.000000000000000D+00 0.000000000000000D+00 -.236755773443247D+03
 0.180582123559550D+03 0.529595578035573D+02 0.844755623228262D+02 -.839289458814446D+02
 0.150814408207088D+03 0.226357034175119D+02 0.752502408853517D+02 0.908557128437456D+02
 0.578930413783177D+02 0.372041158543306D+02 -.438118466054459D+02 -.692676696230100D+01
 0.197413360121827D+03 -.112799377075400D+03 -.115913956602732D+03 0.113191386380290D+03
0.158960225783D-04 0.000000000000D+00 0.000000000000D+00 0.197076930222D-05 0.507476669141D-09  6 2 -2 25 23 21 21 4 0.10344055D+00 0.18957693D-01 0.62371430D+05 0.62371430D+05 0.62371430D+05 0.11828882D+01  1  2  1  1  6  1        2 0.316550988053D-02 0.100000000000D+01
  </mgrwgt>
  </event>
  <event>
  5     66 0.43206592E-03 0.20273732E+02 0.75467711E-02 0.11824070E+00
        2 -1    0    0  502    0 0.00000000E+00 0.00000000E+00 0.73975037E+03 0.73975044E+03 0.32000000E+00 0.0000E+00 0.9000E+01
       -2 -1    0    0    0  501 0.00000000E+00 0.00000000E+00 -.35361910E+02 0.35363358E+02 0.32000000E+00 0.0000E+00 0.9000E+01
       25  1    1    2    0    0 -.27201817E+02 -.74133646E+02 0.47592393E+03 0.49836164E+03 0.12500000E+03 0.0000E+00 0.9000E+01
       23  1    1    2    0    0 0.23075464E+02 0.93970032E+02 0.17652646E+03 0.22099703E+03 0.91188000E+02 0.0000E+00 0.9000E+01
       21  1    1    2  502  501 0.41263533E+01 -.19836386E+02 0.51938073E+02 0.55755134E+02 0.75000000E+00 0.0000E+00 0.9000E+01
#aMCatNLO 1  0  0  2  1 0.36635029D+02 0.00000000D+00  -5  6  0 0.00000000D+00 0.00000000D+00 0.00000000D+00 0.00000000D+00 0.00000000D+00
  <mgrwgt>
 0.1493724164D+00    4    2    0
 0.161739217424641D+03 0.000000000000000D+00 0.000000000000000D+00 0.161739217424641D+03
 0.161739217424641D+03 0.000000000000000D+00 0.000000000000000D+00 -.161739217424641D+03
 0.157817743897961D+03 -.272031653408199D+02 -.741271643435978D+02 0.551959381735632D+02
 0.145159439292650D+03 0.230742233983594D+02 0.939759941148604D+02 -.582417738092081D+02
 0.205012516586704D+02 0.412894194246047D+01 -.198488297712626D+02 0.304583563564489D+01
 0.000000000000000D+00 0.000000000000000D+00 0.000000000000000D+00 0.000000000000000D+00
 0.194204171152930D+03 0.000000000000000D+00 0.000000000000000D+00 0.194204171152930D+03
 0.169047654638297D+03 0.000000000000000D+00 0.000000000000000D+00 -.169047654638297D+03
 0.163527477188617D+03 -.402325271619586D+02 -.803180425743558D+02 0.551959381735632D+02
 0.140242431299495D+03 0.115022316824067D+02 0.884775827126555D+02 -.582417738092081D+02
 0.210148822229788D+02 0.244561605409102D+01 -.206486590906596D+02 0.304583563564489D+01
 0.384670350801367D+02 0.262846794254609D+02 0.124891189523598D+02 0.251565165146336D+02
0.109263949444D-03 0.000000000000D+00 0.000000000000D+00 0.232237709652D-04 0.000000000000D+00  6 2 -2 25 23 21 21 2 0.11380787D+00 0.54404106D-02 0.22663420D+05 0.22663420D+05 0.22663420D+05 0.12278930D+01  1  2  2  2  6  2       -2 0.107796047944D+00 0.100000000000D+01
0.307709964604D-04 0.576601702455D-05 -.419602335725D-06 0.232237709652D-04 0.000000000000D+00  6 2 -2 25 23 21 21 4 0.11380787D+00 0.54404106D-02 0.22663420D+05 0.22663420D+05 0.22663420D+05 0.12278930D+01  1  2  3  2  6  2       -2 0.457708050464D-01 0.100000000000D+01
0.257029954823D-05 0.000000000000D+00 0.000000000000D+00 0.232237709652D-04 0.000000000000D+00  6 2 -2 25 23 21 21 4 0.11380787D+00 0.54404106D-02 0.22663420D+05 0.22663420D+05 0.22663420D+05 0.12278930D+01  1  2 15  2  6  2       -2 0.382323268874D-02 0.100000000000D+01
-.539015370086D-05 0.000000000000D+00 0.000000000000D+00 0.232237709652D-04 0.000000000000D+00  6 2 -2 25 23 21 21 4 0.11380787D+00 0.54404106D-02 0.22663420D+05 0.22663420D+05 0.22663420D+05 0.12278930D+01  1  2  4  2  6  2       -2 -.801766931823D-02 0.100000000000D+01
  </mgrwgt>
  </event>
  <event>
  5     66 0.43206592E-03 0.32239765E+02 0.75467711E-02 0.12281054E+00
        4 -1    0    0  502    0 0.00000000E+00 0.00000000E+00 0.88273795E+03 0.88273931E+03 0.15500000E+01 0.0000E+00 0.9000E+01
       -4 -1    0    0    0  501 0.00000000E+00 0.00000000E+00 -.24161637E+02 0.24211303E+02 0.15500000E+01 0.0000E+00 0.9000E+01
       25  1    1    2    0    0 -.10746324E+01 0.22336189E+01 0.48211091E+03 0.49805830E+03 0.12500000E+03 0.0000E+00 0.9000E+01
       23  1    1    2    0    0 -.15234432E+01 -.34419631E+02 0.35935317E+03 0.37233988E+03 0.91188000E+02 0.0000E+00 0.9000E+01
       21  1    1    2  502  501 0.25980756E+01 0.32186012E+02 0.17112234E+02 0.36552434E+02 0.75000000E+00 0.0000E+00 0.9000E+01
#aMCatNLO 1  0  0  5  1 0.11833177D+02 0.00000000D+00  -5  6  0 0.00000000D+00 0.00000000D+00 0.00000000D+00 0.00000000D+00 0.00000000D+00
  <mgrwgt>
 0.5027162444D-02   15    2    0
 0.146121635619084D+03 0.000000000000000D+00 0.000000000000000D+00 0.146121635619084D+03
 0.146121635619084D+03 -.000000000000000D+00 -.000000000000000D+00 -.146121635619084D+03
 0.129294327337754D+03 -.107471342149638D+01 0.223261499970441D+01 0.329527465175057D+02
 0.997864551271757D+02 -.152350575946004D+01 -.344204061169584D+02 0.213307256274227D+02
 0.631624887732385D+02 0.259821918095642D+01 0.321877911172540D+02 -.542834721449284D+02
 0.000000000000000D+00 0.000000000000000D+00 0.000000000000000D+00 -.000000000000000D+00
 0.146121635619084D+03 0.000000000000000D+00 0.000000000000000D+00 0.146121635619084D+03
 0.146121635619084D+03 -.000000000000000D+00 -.000000000000000D+00 -.146121635619084D+03
 0.128673794538650D+03 -.946442213774522D+00 0.382169065227862D+01 0.302728315271149D+02
 0.989467298959910D+02 -.142468833398936D+01 -.331962158434403D+02 0.192661757994914D+02
 0.154131698459892D+02 0.114329288186456D+02 0.847409842968535D+01 -.591976343556875D+01
 0.492095769575375D+02 -.906179827088169D+01 0.209004267614763D+02 -.436192438910376D+02
0.772835565211D-04 0.000000000000D+00 0.000000000000D+00 0.169402421882D-04 0.000000000000D+00  6 4 -4 25 23 21 21 2 0.13580976D+00 0.37211000D-02 0.16230374D+05 0.16230374D+05 0.16230374D+05 0.12439382D+01  1  2  2  3  6  5       21 0.310268519165D-02 0.100000000000D+01
0.442344555929D-05 0.407836532438D-05 -.296789206269D-06 0.169402421882D-04 0.000000000000D+00  6 4 -4 25 23 21 21 4 0.13580976D+00 0.37211000D-02 0.16230374D+05 0.16230374D+05 0.16230374D+05 0.12439382D+01  1  2  3  3  6  5       21 0.274795070030D-03 0.100000000000D+01
-.219062151279D-06 0.000000000000D+00 0.000000000000D+00 0.169402421882D-04 0.000000000000D+00  6 4 -4 25 23 21 21 4 0.13580976D+00 0.37211000D-02 0.16230374D+05 0.16230374D+05 0.16230374D+05 0.12439382D+01  1  2 15  3  6  5       21 -.136086673601D-04 0.100000000000D+01
0.959246270122D-05 0.000000000000D+00 0.000000000000D+00 0.168953608941D-04 0.000000000000D+00  6 4 -4 25 23 21 21 4 0.13580976D+00 0.37211000D-02 0.16786608D+05 0.16786608D+05 0.16786608D+05 0.12422893D+01  1  2 12  3  6  5       21 0.594579381247D-03 0.100000000000D+01
-.297674804201D-04 0.000000000000D+00 0.000000000000D+00 0.169402421882D-04 0.000000000000D+00  6 4 -4 25 23 21 21 4 0.13580976D+00 0.37211000D-02 0.16230374D+05 0.16230374D+05 0.16230374D+05 0.12439382D+01  1  2  4  3  6  5       21 -.184922743075D-02 0.100000000000D+01
-.127071168435D-04 0.000000000000D+00 0.000000000000D+00 0.169402421882D-04 0.000000000000D+00  6 4 -4 25 23 21 21 4 0.13580976D+00 0.37211000D-02 0.16230374D+05 0.16230374D+05 0.16230374D+05 0.12439382D+01  1  2  5  3  6  5       21 -.789396640265D-03 0.100000000000D+01
0.668145283888D-04 0.000000000000D+00 -.000000000000D+00 0.169402421882D-04 0.000000000000D+00  6 4 -4 25 23 21 21 4 0.13580976D+00 0.37211000D-02 0.16230374D+05 0.16230374D+05 0.16230374D+05 0.12439382D+01  1  2  6  3  6  5       21 0.415067909429D-02 0.100000000000D+01
0.152473058599D-05 0.000000000000D+00 0.000000000000D+00 0.168953608941D-04 0.000000000000D+00  6 4 -4 25 23 1 -1 4 0.13580976D+00 0.37211000D-02 0.16786608D+05 0.16786608D+05 0.16786608D+05 0.12422893D+01  1  2 12  6  6  5       21 0.945089281685D-04 0.100000000000D+01
0.152473058599D-05 0.000000000000D+00 0.000000000000D+00 0.168953608941D-04 0.000000000000D+00  6 4 -4 25 23 3 -3 4 0.13580976D+00 0.37211000D-02 0.16786608D+05 0.16786608D+05 0.16786608D+05 0.12422893D+01  1  2 12  6  6  5       21 0.945089281685D-04 0.100000000000D+01
-.330548731604D-05 0.000000000000D+00 0.000000000000D+00 0.169402421882D-04 0.000000000000D+00  6 4 -4 25 23 1 -1 4 0.13580976D+00 0.37211000D-02 0.16230374D+05 0.16230374D+05 0.16230374D+05 0.12439382D+01  1  2  5  6  6  5       21 -.205344816913D-03 0.100000000000D+01
-.330548731604D-05 0.000000000000D+00 0.000000000000D+00 0.169402421882D-04 0.000000000000D+00  6 4 -4 25 23 3 -3 4 0.13580976D+00 0.37211000D-02 0.16230374D+05 0.16230374D+05 0.16230374D+05 0.12439382D+01  1  2  5  6  6  5       21 -.205344816913D-03 0.100000000000D+01
0.152473058599D-05 0.000000000000D+00 0.000000000000D+00 0.168953608941D-04 0.000000000000D+00  6 4 -4 25 23 4 -4 4 0.13580976D+00 0.37211000D-02 0.16786608D+05 0.16786608D+05 0.16786608D+05 0.12422893D+01  1  2 12  7  6  5       21 0.945089281685D-04 0.100000000000D+01
-.330548731604D-05 0.000000000000D+00 0.000000000000D+00 0.169402421882D-04 0.000000000000D+00  6 4 -4 25 23 4 -4 4 0.13580976D+00 0.37211000D-02 0.16230374D+05 0.16230374D+05 0.16230374D+05 0.12439382D+01  1  2  5  7  6  5       21 -.205344816913D-03 0.100000000000D+01
0.152473058599D-05 0.000000000000D+00 0.000000000000D+00 0.168953608941D-04 0.000000000000D+00  6 4 -4 25 23 2 -2 4 0.13580976D+00 0.37211000D-02 0.16786608D+05 0.16786608D+05 0.16786608D+05 0.12422893D+01  1  2 12  8  6  5       21 0.945089281685D-04 0.100000000000D+01
-.330548731604D-05 0.000000000000D+00 0.000000000000D+00 0.169402421882D-04 0.000000000000D+00  6 4 -4 25 23 2 -2 4 0.13580976D+00 0.37211000D-02 0.16230374D+05 0.16230374D+05 0.16230374D+05 0.12439382D+01  1  2  5  8  6  5       21 -.205344816913D-03 0.100000000000D+01
  </mgrwgt>
  </event>
  <event>
  5     66 0.43206592E-03 0.56813665E+02 0.75467711E-02 0.11334037E+00
        2 -1    0    0  502    0 0.00000000E+00 0.00000000E+00 0.21056623E+03 0.21056647E+03 0.32000000E+00 0.0000E+00 0.9000E+01
       -2 -1    0    0    0  501 -.00000000E+00 -.00000000E+00 -.24706739E+03 0.24706759E+03 0.32000000E+00 0.0000E+00 0.9000E+01
       25  1    1    2    0    0 0.28686185E+02 0.13546506E+03 0.35332738E+02 0.18986069E+03 0.12500000E+03 0.0000E+00 0.9000E+01
       23  1    1    2    0    0 -.80690556E+02 -.15833087E+03 -.67333540E+02 0.21078114E+03 0.91188000E+02 0.0000E+00 0.9000E+01
       21  1    1    2  502  501 0.52004371E+02 0.22865814E+02 -.45003544E+01 0.56992243E+02 0.75000000E+00 0.0000E+00 0.9000E+01
#aMCatNLO 1  0  0  5  1 0.58523513D+01 0.00000000D+00  -5  6  0 0.00000000D+00 0.00000000D+00 0.00000000D+00 0.00000000D+00 0.00000000D+00
  <mgrwgt>
 0.8994468106D-01   19    2    0
 0.228088033462788D+03 0.000000000000000D+00 0.000000000000000D+00 0.228088033462788D+03
 0.228088033462788D+03 -.000000000000000D+00 -.000000000000000D+00 -.228088033462788D+03
 0.193293797396000D+03 0.286842651964011D+02 0.135464210881314D+03 0.506374625372488D+02
 0.206068586609568D+03 -.806926035459405D+02 -.158331769479430D+03 -.506829907341227D+02
 0.568136829200076D+02 0.520083383495394D+02 0.228675585981163D+02 0.455281968739314D-01
 0.000000000000000D+00 0.000000000000000D+00 0.000000000000000D+00 -.000000000000000D+00
 0.228088033462788D+03 0.000000000000000D+00 0.000000000000000D+00 0.228088033462788D+03
 0.228088033462788D+03 -.000000000000000D+00 -.000000000000000D+00 -.228088033462788D+03
 0.195267945931414D+03 0.329077596482507D+02 0.137321240156454D+03 0.506411597922083D+02
 0.202857679501107D+03 -.762477557301361D+02 -.156377413291304D+03 -.506790997060135D+02
 0.683658200928160D+01 -.479800324149781D+01 0.212351670722254D+01 0.438277255380157D+01
 0.512138594837732D+02 0.481379993233831D+02 0.169326564276267D+02 -.434483263999640D+01
0.589226429312D-03 0.000000000000D+00 0.000000000000D+00 0.257217258136D-05 0.000000000000D+00  6 2 -2 25 23 21 21 2 0.32394839D-01 0.38010402D-01 0.49083376D+05 0.49083376D+05 0.49083376D+05 0.11930784D+01  1  2  2  3  6  5       21 0.884936947187D-01 0.100000000000D+01
0.513759841215D-04 0.310943329434D-04 -.226278463544D-05 0.257217258136D-05 0.000000000000D+00  6 2 -2 25 23 21 21 4 0.32394839D-01 0.38010402D-01 0.49083376D+05 0.49083376D+05 0.49083376D+05 0.11930784D+01  1  2  3  3  6  5       21 0.109831830465D-01 0.100000000000D+01
0.121264199358D-05 0.000000000000D+00 0.000000000000D+00 0.257217258136D-05 0.000000000000D+00  6 2 -2 25 23 21 21 4 0.32394839D-01 0.38010402D-01 0.49083376D+05 0.49083376D+05 0.49083376D+05 0.11930784D+01  1  2 15  3  6  5       21 0.259239199269D-03 0.100000000000D+01
0.175722417774D-04 0.000000000000D+00 0.000000000000D+00 0.257369236609D-05 0.000000000000D+00  6 2 -2 25 23 21 21 4 0.32394839D-01 0.38010402D-01 0.48683847D+05 0.48683847D+05 0.48683847D+05 0.11934308D+01  1  2 12  3  6  5       21 0.376074682258D-02 0.100000000000D+01
0.175856095169D-04 0.000000000000D+00 0.000000000000D+00 0.257369236609D-05 0.000000000000D+00  6 2 -2 25 23 21 21 4 0.32394839D-01 0.38010402D-01 0.48683847D+05 0.48683847D+05 0.48683847D+05 0.11934308D+01  1  2 12  3  6  5       21 0.376360773723D-02 0.100000000000D+01
-.135263531636D-03 0.000000000000D+00 0.000000000000D+00 0.257217258136D-05 0.000000000000D+00  6 2 -2 25 23 21 21 4 0.32394839D-01 0.38010402D-01 0.49083376D+05 0.49083376D+05 0.49083376D+05 0.11930784D+01  1  2  4  3  6  5       21 -.289167040374D-01 0.100000000000D+01
0.397279806588D-05 0.000000000000D+00 0.000000000000D+00 0.257217258136D-05 0.273291494578D-06  6 2 -2 25 23 21 21 4 0.32394839D-01 0.38010402D-01 0.48683847D+05 0.48683847D+05 0.48683847D+05 0.11934308D+01  1  2 11  3  6  5       21 0.850243690716D-03 0.100000000000D+01
0.480701250896D-05 0.000000000000D+00 0.000000000000D+00 0.257369236609D-05 0.000000000000D+00  6 2 -2 25 23 1 -1 4 0.32394839D-01 0.38010402D-01 0.48683847D+05 0.48683847D+05 0.48683847D+05 0.11934308D+01  1  2 12  6  6  5       21 0.102877921031D-02 0.100000000000D+01
0.480701250896D-05 0.000000000000D+00 0.000000000000D+00 0.257369236609D-05 0.000000000000D+00  6 2 -2 25 23 3 -3 4 0.32394839D-01 0.38010402D-01 0.48683847D+05 0.48683847D+05 0.48683847D+05 0.11934308D+01  1  2 12  6  6  5       21 0.102877921031D-02 0.100000000000D+01
0.480770704159D-05 0.000000000000D+00 0.000000000000D+00 0.257369236609D-05 0.000000000000D+00  6 2 -2 25 23 1 -1 4 0.32394839D-01 0.38010402D-01 0.48683847D+05 0.48683847D+05 0.48683847D+05 0.11934308D+01  1  2 12  6  6  5       21 0.102892785164D-02 0.100000000000D+01
0.480770704159D-05 0.000000000000D+00 0.000000000000D+00 0.257369236609D-05 0.000000000000D+00  6 2 -2 25 23 3 -3 4 0.32394839D-01 0.38010402D-01 0.48683847D+05 0.48683847D+05 0.48683847D+05 0.11934308D+01  1  2 12  6  6  5       21 0.102892785164D-02 0.100000000000D+01
0.326705737054D-05 0.000000000000D+00 0.000000000000D+00 0.257369236609D-05 0.316257454332D-08  6 2 -2 25 23 1 -1 4 0.32394839D-01 0.38010402D-01 0.48683847D+05 0.48683847D+05 0.48683847D+05 0.11934308D+01  1  2 11  6  6  5       21 0.699203652048D-03 0.100000000000D+01
0.326705737054D-05 0.000000000000D+00 0.000000000000D+00 0.257369236609D-05 0.316257454332D-08  6 2 -2 25 23 3 -3 4 0.32394839D-01 0.38010402D-01 0.48683847D+05 0.48683847D+05 0.48683847D+05 0.11934308D+01  1  2 11  6  6  5       21 0.699203652048D-03 0.100000000000D+01
0.480701250896D-05 0.000000000000D+00 0.000000000000D+00 0.257369236609D-05 0.000000000000D+00  6 2 -2 25 23 2 -2 4 0.32394839D-01 0.38010402D-01 0.48683847D+05 0.48683847D+05 0.48683847D+05 0.11934308D+01  1  2 12  7  6  5       21 0.102877921031D-02 0.100000000000D+01
0.480770704159D-05 0.000000000000D+00 0.000000000000D+00 0.257369236609D-05 0.000000000000D+00  6 2 -2 25 23 2 -2 4 0.32394839D-01 0.38010402D-01 0.48683847D+05 0.48683847D+05 0.48683847D+05 0.11934308D+01  1  2 12  7  6  5       21 0.102892785164D-02 0.100000000000D+01
0.196508736323D-05 0.000000000000D+00 0.000000000000D+00 0.257369236609D-05 0.385051024038D-08  6 2 -2 25 23 2 -2 4 0.32394839D-01 0.38010402D-01 0.48683847D+05 0.48683847D+05 0.48683847D+05 0.11934308D+01  1  2 11  7  6  5       21 0.420560799865D-03 0.100000000000D+01
0.480701250896D-05 0.000000000000D+00 0.000000000000D+00 0.257369236609D-05 0.000000000000D+00  6 2 -2 25 23 4 -4 4 0.32394839D-01 0.38010402D-01 0.48683847D+05 0.48683847D+05 0.48683847D+05 0.11934308D+01  1  2 12  8  6  5       21 0.102877921031D-02 0.100000000000D+01
0.480770704159D-05 0.000000000000D+00 0.000000000000D+00 0.257369236609D-05 0.000000000000D+00  6 2 -2 25 23 4 -4 4 0.32394839D-01 0.38010402D-01 0.48683847D+05 0.48683847D+05 0.48683847D+05 0.11934308D+01  1  2 12  8  6  5       21 0.102892785164D-02 0.100000000000D+01
0.327485992480D-05 0.000000000000D+00 0.000000000000D+00 0.257369236609D-05 0.317012756632D-08  6 2 -2 25 23 4 -4 4 0.32394839D-01 0.38010402D-01 0.48683847D+05 0.48683847D+05 0.48683847D+05 0.11934308D+01  1  2 11  8  6  5       21 0.700873526132D-03 0.100000000000D+01
  </mgrwgt>
  </event>
  <event>
  6     66 -.43206592E-03 0.31414720E+02 0.75467711E-02 0.11861586E+00
        2 -1    0    0  502    0 0.00000000E+00 0.00000000E+00 0.20266897E+04 0.20266897E+04 0.32000000E+00 0.0000E+00 0.9000E+01
       -2 -1    0    0    0  501 0.00000000E+00 0.00000000E+00 -.43023315E+02 0.43024505E+02 0.32000000E+00 0.0000E+00 0.9000E+01
       25  1    1    2    0    0 -.49601386E+02 -.34977769E+02 0.12146678E+03 0.18456143E+03 0.12500000E+03 0.0000E+00 0.9000E+01
       23  1    1    2    0    0 0.79503339E+02 0.55756620E+02 0.44588378E+03 0.46535705E+03 0.91188000E+02 0.0000E+00 0.9000E+01
       21  1    1    2  503  501 -.37316802E+02 -.90091498E+01 0.13848718E+04 0.13854039E+04 0.75000000E+00 0.0000E+00 0.9000E+01
       21  1    1    2  502  503 0.74148492E+01 -.11769702E+02 0.31444065E+02 0.34391824E+02 0.75000000E+00 0.0000E+00 0.9000E+01
#aMCatNLO 2  0  0  5  2 0.14049088D+02 0.00000000D+00  -5  6  0 0.00000000D+00 0.00000000D+00 0.00000000D+00 0.00000000D+00 0.00000000D+00
  <mgrwgt>
 -.4525905385D+00    3    2    0
 0.295289970795686D+03 0.000000000000000D+00 0.000000000000000D+00 0.295289970795686D+03
 0.295289970795686D+03 -.000000000000000D+00 -.000000000000000D+00 -.295289970795686D+03
 0.245319369538513D+03 -.483098076274229D+02 -.340802517588018D+02 -.202635860591929D+03
 0.133940159321162D+03 0.802160446619397D+02 0.562518794771829D+02 -.508204378732658D+01
 0.211320412731697D+03 -.319062370345168D+02 -.221716277183812D+02 0.207717904379256D+03
 0.000000000000000D+00 0.000000000000000D+00 0.000000000000000D+00 -.000000000000000D+00
 0.295289970795686D+03 0.000000000000000D+00 0.000000000000000D+00 0.295289970795686D+03
 0.295289970795686D+03 -.000000000000000D+00 -.000000000000000D+00 -.295289970795686D+03
 0.238790935435105D+03 -.496063816584719D+02 -.349812403866566D+02 -.194194826310428D+03
 0.133207934152167D+03 0.795005521866027D+02 0.557546841237693D+02 -.424001617848385D+00
 0.203620772084206D+03 -.373423688706670D+02 -.895263352509288D+01 0.199967038944574D+03
 0.149602999198946D+02 0.744819834253626D+01 -.118208102120198D+02 -.534821101629757D+01
-.188936678115D-02 0.000000000000D+00 0.000000000000D+00 0.105785788015D-04 0.000000000000D+00  6 2 -2 25 23 21 21 4 0.31179851D+00 0.66190650D-02 0.26331232D+05 0.26331232D+05 0.26331232D+05 0.12208894D+01  1  2 13  3  6  5       21 -.390571156173D+00 0.100000000000D+01
-.783410860733D-03 0.000000000000D+00 0.000000000000D+00 0.106475174858D-04 0.000000000000D+00  6 2 -2 25 23 21 21 4 0.31179851D+00 0.66190650D-02 0.24176101D+05 0.24176101D+05 0.24176101D+05 0.12248611D+01  1  2  8  3  6  5       21 -.164282889216D+00 0.100000000000D+01
0.494694167243D-03 0.000000000000D+00 0.000000000000D+00 0.106475174858D-04 0.207342939519D-06  6 2 -2 25 23 21 21 4 0.31179851D+00 0.66190650D-02 0.26331232D+05 0.26331232D+05 0.26331232D+05 0.12208894D+01  1  2  1  3  6  5       21 0.102263506895D+00 0.100000000000D+01
  </mgrwgt>
  </event>
  <event>
  5     66 -.43206592E-03 0.95182893E+02 0.75467711E-02 0.10533086E+00
        2 -1    0    0  502    0 0.00000000E+00 0.00000000E+00 0.84623915E+03 0.84623921E+03 0.32000000E+00 0.0000E+00 0.9000E+01
       -2 -1    0    0    0  501 0.00000000E+00 0.00000000E+00 -.18930665E+03 0.18930692E+03 0.32000000E+00 0.0000E+00 0.9000E+01
       25  1    1    2    0    0 0.14442536E+03 -.31152557E+03 0.37299962E+03 0.52216911E+03 0.12500000E+03 0.0000E+00 0.9000E+01
       23  1    1    2    0    0 -.12465642E+03 0.21841917E+03 0.31498814E+03 0.41325408E+03 0.91188000E+02 0.0000E+00 0.9000E+01
       21  1    1    2  502  501 -.19768933E+02 0.93106398E+02 -.31055264E+02 0.10012294E+03 0.75000000E+00 0.0000E+00 0.9000E+01
#aMCatNLO 1  0  0  2  5 0.20568293D+02 0.00000000D+00  -5  6  0 0.00000000D+00 0.00000000D+00 0.00000000D+00 0.00000000D+00 0.00000000D+00
  <mgrwgt>
 -.7623097171D-01    9    4    0
 0.400248515402528D+03 0.000000000000000D+00 0.000000000000000D+00 0.400248515402528D+03
 0.400248515402528D+03 0.000000000000000D+00 0.000000000000000D+00 -.400248515402528D+03
 0.369389355708128D+03 0.144425462680320D+03 -.311526069458919D+03 0.540026840769814D+02
 0.276100404792626D+03 -.124656343364626D+03 0.218418792228288D+03 0.683389306555822D+02
 0.155007270304301D+03 -.197691193156941D+02 0.931072772306309D+02 -.122341614732564D+03
 0.000000000000000D+00 -.000000000000000D+00 0.000000000000000D+00 -.000000000000000D+00
 0.402053461837534D+03 0.000000000000000D+00 0.000000000000000D+00 0.402053461837534D+03
 0.463604422405809D+03 0.000000000000000D+00 0.000000000000000D+00 -.463604422405809D+03
 0.378268443368390D+03 0.147373646715448D+03 -.320666078054129D+03 0.540026840769814D+02
 0.269867114560955D+03 -.122503469782294D+03 0.211744418168710D+03 0.683389306555822D+02
 0.152625674289604D+03 -.185560529408750D+02 0.893465089202741D+02 -.122341614732564D+03
 0.648966520243944D+02 -.631412399227855D+01 0.195751509651448D+02 -.615509605682743D+02
 0.400248515402528D+03 0.000000000000000D+00 0.000000000000000D+00 0.400248515402528D+03
 0.400248515402528D+03 0.000000000000000D+00 0.000000000000000D+00 -.400248515402528D+03
 0.369389355708128D+03 0.144425462680320D+03 -.311526069458919D+03 0.540026840769814D+02
 0.276100404792626D+03 -.124656343364626D+03 0.218418792228288D+03 0.683389306555822D+02
 0.000000000000000D+00 -.000000000000000D+00 0.000000000000000D+00 -.000000000000000D+00
 0.155007270304301D+03 -.197691193156941D+02 0.931072772306309D+02 -.122341614732564D+03
 0.402053461837534D+03 0.000000000000000D+00 0.000000000000000D+00 0.402053461837534D+03
 0.463604422405809D+03 0.000000000000000D+00 0.000000000000000D+00 -.463604422405809D+03
 0.378268443368390D+03 0.147373646715448D+03 -.320666078054129D+03 0.540026840769814D+02
 0.269867114560955D+03 -.122503469782294D+03 0.211744418168710D+03 0.683389306555822D+02
 0.648966520243944D+02 -.631412399227855D+01 0.195751509651448D+02 -.615509605682743D+02
 0.152625674289604D+03 -.185560529408750D+02 0.893465089202741D+02 -.122341614732564D+03
0.309776745558D-03 0.000000000000D+00 0.000000000000D+00 0.846128161461D-06 0.000000000000D+00  6 2 -2 25 23 21 21 2 0.13019066D+00 0.29124126D-01 0.13253705D+06 0.13253705D+06 0.13253705D+06 0.11524980D+01  1  2  2  2  6  2       -2 0.146375494741D-01 0.100000000000D+01
0.161199686569D-04 0.163473679817D-04 -.118962426903D-05 0.846128161461D-06 0.000000000000D+00  6 2 -2 25 23 21 21 4 0.13019066D+00 0.29124126D-01 0.13253705D+06 0.13253705D+06 0.13253705D+06 0.11524980D+01  1  2  3  2  6  2       -2 0.101172887252D-02 0.100000000000D+01
0.583790797573D-07 0.000000000000D+00 0.000000000000D+00 0.846128161461D-06 0.000000000000D+00  6 2 -2 25 23 21 21 4 0.13019066D+00 0.29124126D-01 0.13253705D+06 0.13253705D+06 0.13253705D+06 0.11524980D+01  1  2 15  2  6  2       -2 0.366401460196D-05 0.100000000000D+01
0.538013258249D-02 0.000000000000D+00 0.000000000000D+00 0.843181875467D-06 0.000000000000D+00  6 2 -2 25 23 21 21 4 0.13019066D+00 0.35370214D-01 0.13960915D+06 0.13960915D+06 0.13960915D+06 0.11504897D+01  1  2 12  2  6  2       -2 0.233671909744D+00 0.100000000000D+01
-.670941041635D-02 0.000000000000D+00 0.000000000000D+00 0.846128161461D-06 0.000000000000D+00  6 2 -2 25 23 21 21 4 0.13019066D+00 0.29124126D-01 0.13253705D+06 0.13253705D+06 0.13253705D+06 0.11524980D+01  1  2  4  2  6  2       -2 -.421099096426D+00 0.100000000000D+01
-.863127938231D-02 0.000000000000D+00 -.436077104447D-03 0.846128161461D-06 0.000000000000D+00  6 2 -2 25 23 21 21 4 0.13019066D+00 0.33821642D-01 0.13253705D+06 0.13253705D+06 0.13253705D+06 0.11524980D+01  1  2  5  2  6  2       -2 -.410974240652D+00 0.100000000000D+01
0.860493380894D-02 0.000000000000D+00 0.431246686397D-03 0.846128161461D-06 0.000000000000D+00  6 2 -2 25 23 21 21 4 0.13019066D+00 0.29124126D-01 0.13253705D+06 0.13253705D+06 0.13253705D+06 0.11524980D+01  1  2  6  2  6  2       -2 0.540066805710D+00 0.100000000000D+01
0.150578317546D-03 0.000000000000D+00 0.000000000000D+00 0.843181875467D-06 0.000000000000D+00  6 2 21 25 23 2 21 4 0.13019066D+00 0.35370214D-01 0.13960915D+06 0.13960915D+06 0.13960915D+06 0.11504897D+01  3  4 12  5  5  2       -2 0.802043060353D-01 0.100000000000D+01
-.193382640167D-03 0.000000000000D+00 -.992230835881D-05 0.846128161461D-06 0.000000000000D+00  6 2 21 25 23 2 21 4 0.13019066D+00 0.33821642D-01 0.13253705D+06 0.13253705D+06 0.13253705D+06 0.11524980D+01  3  4  5  5  5  2       -2 -.113753598480D+00 0.100000000000D+01
  </mgrwgt>
  </event>
  <event>
  5     66 0.43206592E-03 0.51958395E+02 0.75467711E-02 0.11726444E+00
        2 -1    0    0  502    0 0.00000000E+00 0.00000000E+00 0.48902787E+03 0.48902798E+03 0.32000000E+00 0.0000E+00 0.9000E+01
       -2 -1    0    0    0  501 0.00000000E+00 0.00000000E+00 -.75151439E+02 0.75152121E+02 0.32000000E+00 0.0000E+00 0.9000E+01
       25  1    1    2    0    0 -.24226610E+02 -.12769390E+03 0.16926722E+03 0.24732378E+03 0.12500000E+03 0.0000E+00 0.9000E+01
       23  1    1    2    0    0 0.14141382E+02 0.76726377E+02 0.23520331E+03 0.26405069E+03 0.91188000E+02 0.0000E+00 0.9000E+01
       21  1    1    2  502  501 0.10085228E+02 0.50967527E+02 0.94058967E+01 0.52805625E+02 0.75000000E+00 0.0000E+00 0.9000E+01
#aMCatNLO 1  0  0  5  1 0.12018033D+02 0.00000000D+00  -5  6  0 0.00000000D+00 0.00000000D+00 0.00000000D+00 0.00000000D+00 0.00000000D+00
  <mgrwgt>
 0.1678389148D-01   20    2    0
 0.191706468772907D+03 0.000000000000000D+00 0.000000000000000D+00 0.191706468772907D+03
 0.191706468772907D+03 -.000000000000000D+00 -.000000000000000D+00 -.191706468772907D+03
 0.181214050002557D+03 -.242269039754813D+02 -.127695389052773D+03 -.179018618236452D+02
 0.134651029745647D+03 0.141411632960944D+02 0.767252733887758D+02 0.610647884759611D+02
 0.675478577976110D+02 0.100857406793870D+02 0.509701156639970D+02 -.431629266523159D+02
 0.000000000000000D+00 0.000000000000000D+00 0.000000000000000D+00 -.000000000000000D+00
 0.191706468772907D+03 0.000000000000000D+00 0.000000000000000D+00 0.191706468772907D+03
 0.191706468772907D+03 -.000000000000000D+00 -.000000000000000D+00 -.191706468772907D+03
 0.180199161746516D+03 -.239139002820304D+02 -.126113568245992D+03 -.192413921458889D+02
 0.134903552383960D+03 0.143746123705896D+02 0.779050505322626D+02 0.600657200287539D+02
 0.306924337398828D+02 0.105523697898527D+02 0.271511474074022D+02 -.966892833548886D+01
 0.376177896754554D+02 -.101308187841188D+01 0.210573703063271D+02 -.311553995473762D+02
0.455395284480D-04 0.000000000000D+00 0.000000000000D+00 0.385025346950D-05 0.000000000000D+00  6 2 -2 25 23 21 21 2 0.75235118D-01 0.11561820D-01 0.31027823D+05 0.31027823D+05 0.31027823D+05 0.12133659D+01  1  2  2  3  6  5       21 0.220687232996D-01 0.100000000000D+01
0.148511401766D-05 0.240318694003D-05 -.174883780074D-06 0.385025346950D-05 0.000000000000D+00  6 2 -2 25 23 21 21 4 0.75235118D-01 0.11561820D-01 0.31027823D+05 0.31027823D+05 0.31027823D+05 0.12133659D+01  1  2  3  3  6  5       21 0.105957586853D-02 0.100000000000D+01
0.106266074331D-05 0.000000000000D+00 0.000000000000D+00 0.385025346950D-05 0.000000000000D+00  6 2 -2 25 23 21 21 4 0.75235118D-01 0.11561820D-01 0.31027823D+05 0.31027823D+05 0.31027823D+05 0.12133659D+01  1  2 15  3  6  5       21 0.758170528763D-03 0.100000000000D+01
0.298484643552D-04 0.000000000000D+00 0.000000000000D+00 0.385373590638D-05 0.000000000000D+00  6 2 -2 25 23 21 21 4 0.75235118D-01 0.11561820D-01 0.30655433D+05 0.30655433D+05 0.30655433D+05 0.12139145D+01  1  2 12  3  6  5       21 0.213296262937D-01 0.100000000000D+01
0.282581566940D-04 0.000000000000D+00 0.000000000000D+00 0.385373590638D-05 0.000000000000D+00  6 2 -2 25 23 21 21 4 0.75235118D-01 0.11561820D-01 0.30655433D+05 0.30655433D+05 0.30655433D+05 0.12139145D+01  1  2 12  3  6  5       21 0.201931970389D-01 0.100000000000D+01
-.148226328241D-03 0.000000000000D+00 0.000000000000D+00 0.385025346950D-05 0.000000000000D+00  6 2 -2 25 23 21 21 4 0.75235118D-01 0.11561820D-01 0.31027823D+05 0.31027823D+05 0.31027823D+05 0.12133659D+01  1  2  4  3  6  5       21 -.105754197063D+00 0.100000000000D+01
-.577305730378D-04 0.000000000000D+00 0.000000000000D+00 0.385025346950D-05 0.000000000000D+00  6 2 -2 25 23 21 21 4 0.75235118D-01 0.11561820D-01 0.31027823D+05 0.31027823D+05 0.31027823D+05 0.12133659D+01  1  2  5  3  6  5       21 -.411887042611D-01 0.100000000000D+01
0.131365829947D-03 0.000000000000D+00 -.000000000000D+00 0.385025346950D-05 0.000000000000D+00  6 2 -2 25 23 21 21 4 0.75235118D-01 0.11561820D-01 0.31027823D+05 0.31027823D+05 0.31027823D+05 0.12133659D+01  1  2  6  3  6  5       21 0.937248330474D-01 0.100000000000D+01
0.137934686960D-05 0.000000000000D+00 0.000000000000D+00 0.385373590638D-05 0.000000000000D+00  6 2 -2 25 23 1 -1 4 0.75235118D-01 0.11561820D-01 0.30655433D+05 0.30655433D+05 0.30655433D+05 0.12139145D+01  1  2 12  6  6  5       21 0.985677283357D-03 0.100000000000D+01
0.137934686960D-05 0.000000000000D+00 0.000000000000D+00 0.385373590638D-05 0.000000000000D+00  6 2 -2 25 23 3 -3 4 0.75235118D-01 0.11561820D-01 0.30655433D+05 0.30655433D+05 0.30655433D+05 0.12139145D+01  1  2 12  6  6  5       21 0.985677283357D-03 0.100000000000D+01
0.130688288828D-05 0.000000000000D+00 0.000000000000D+00 0.385373590638D-05 0.000000000000D+00  6 2 -2 25 23 1 -1 4 0.75235118D-01 0.11561820D-01 0.30655433D+05 0.30655433D+05 0.30655433D+05 0.12139145D+01  1  2 12  6  6  5       21 0.933894731901D-03 0.100000000000D+01
0.130688288828D-05 0.000000000000D+00 0.000000000000D+00 0.385373590638D-05 0.000000000000D+00  6 2 -2 25 23 3 -3 4 0.75235118D-01 0.11561820D-01 0.30655433D+05 0.30655433D+05 0.30655433D+05 0.12139145D+01  1  2 12  6  6  5       21 0.933894731901D-03 0.100000000000D+01
-.108121080160D-05 0.000000000000D+00 0.000000000000D+00 0.385025346950D-05 0.000000000000D+00  6 2 -2 25 23 1 -1 4 0.75235118D-01 0.11561820D-01 0.31027823D+05 0.31027823D+05 0.31027823D+05 0.12133659D+01  1  2  5  6  6  5       21 -.771405333563D-03 0.100000000000D+01
-.108121080160D-05 0.000000000000D+00 0.000000000000D+00 0.385025346950D-05 0.000000000000D+00  6 2 -2 25 23 3 -3 4 0.75235118D-01 0.11561820D-01 0.31027823D+05 0.31027823D+05 0.31027823D+05 0.12133659D+01  1  2  5  6  6  5       21 -.771405333563D-03 0.100000000000D+01
0.137934686960D-05 0.000000000000D+00 0.000000000000D+00 0.385373590638D-05 0.000000000000D+00  6 2 -2 25 23 2 -2 4 0.75235118D-01 0.11561820D-01 0.30655433D+05 0.30655433D+05 0.30655433D+05 0.12139145D+01  1  2 12  7  6  5       21 0.985677283357D-03 0.100000000000D+01
0.130688288828D-05 0.000000000000D+00 0.000000000000D+00 0.385373590638D-05 0.000000000000D+00  6 2 -2 25 23 2 -2 4 0.75235118D-01 0.11561820D-01 0.30655433D+05 0.30655433D+05 0.30655433D+05 0.12139145D+01  1  2 12  7  6  5       21 0.933894731901D-03 0.100000000000D+01
-.108121080160D-05 0.000000000000D+00 0.000000000000D+00 0.385025346950D-05 0.000000000000D+00  6 2 -2 25 23 2 -2 4 0.75235118D-01 0.11561820D-01 0.31027823D+05 0.31027823D+05 0.31027823D+05 0.12133659D+01  1  2  5  7  6  5       21 -.771405333563D-03 0.100000000000D+01
0.137934686960D-05 0.000000000000D+00 0.000000000000D+00 0.385373590638D-05 0.000000000000D+00  6 2 -2 25 23 4 -4 4 0.75235118D-01 0.11561820D-01 0.30655433D+05 0.30655433D+05 0.30655433D+05 0.12139145D+01  1  2 12  8  6  5       21 0.985677283357D-03 0.100000000000D+01
0.130688288828D-05 0.000000000000D+00 0.000000000000D+00 0.385373590638D-05 0.000000000000D+00  6 2 -2 25 23 4 -4 4 0.75235118D-01 0.11561820D-01 0.30655433D+05 0.30655433D+05 0.30655433D+05 0.12139145D+01  1  2 12  8  6  5       21 0.933894731901D-03 0.100000000000D+01
-.108121080160D-05 0.000000000000D+00 0.000000000000D+00 0.385025346950D-05 0.000000000000D+00  6 2 -2 25 23 4 -4 4 0.75235118D-01 0.11561820D-01 0.31027823D+05 0.31027823D+05 0.31027823D+05 0.12133659D+01  1  2  5  8  6  5       21 -.771405333563D-03 0.100000000000D+01
  </mgrwgt>
  </event>
  <event>
  6     66 0.43206592E-03 0.11933923E+03 0.75467711E-02 0.10965583E+00
        2 -1    0    0  502    0 0.00000000E+00 0.00000000E+00 0.32713991E+03 0.32714007E+03 0.32000000E+00 0.0000E+00 0.9000E+01
       -2 -1    0    0    0  501 0.00000000E+00 0.00000000E+00 -.26621532E+03 0.26621551E+03 0.32000000E+00 0.0000E+00 0.9000E+01
       25  1    1    2    0    0 0.16571436E+03 0.51515071E+02 -.27481577E+02 0.21562766E+03 0.12500000E+03 0.0000E+00 0.9000E+01
       23  1    1    2    0    0 -.18747935E+03 0.69134423E+02 -.85321671E+01 0.21980929E+03 0.91188000E+02 0.0000E+00 0.9000E+01
       21  1    1    2  503  501 0.16769427E+02 -.11253841E+03 0.82261252E+02 0.14040507E+03 0.75000000E+00 0.0000E+00 0.9000E+01
       21  1    1    2  502  503 0.49955649E+01 -.81110829E+01 0.14677084E+02 0.17513555E+02 0.75000000E+00 0.0000E+00 0.9000E+01
#aMCatNLO 2  0  0  5  1 0.68999634D+01 0.00000000D+00  -5  6  0 0.00000000D+00 0.00000000D+00 0.00000000D+00 0.00000000D+00 0.00000000D+00
  <mgrwgt>
 0.5525074523D-01    4    2    0
 0.295109743848767D+03 0.000000000000000D+00 0.000000000000000D+00 0.295109743848767D+03
 0.295109743848767D+03 -.000000000000000D+00 -.000000000000000D+00 -.295109743848767D+03
 0.219743871921207D+03 0.165618985976226D+03 0.520437705349587D+02 -.502410855738101D+02
 0.222157314526229D+03 -.187575742924291D+03 0.696687319773940D+02 -.316264051793505D+02
 0.148318301250097D+03 0.219567569480645D+02 -.121712502512353D+03 0.818674907531606D+02
 0.000000000000000D+00 0.000000000000000D+00 0.000000000000000D+00 0.000000000000000D+00
 0.295109743848767D+03 0.000000000000000D+00 0.000000000000000D+00 0.295109743848767D+03
 0.295109743848767D+03 -.000000000000000D+00 -.000000000000000D+00 -.295109743848767D+03
 0.219609894920126D+03 0.165714536407055D+03 0.515141075214349D+02 -.498848182966867D+02
 0.221857415709188D+03 -.187479178829544D+03 0.691334499386027D+02 -.312663583767911D+02
 0.132638256193322D+03 0.167448180325603D+02 -.112548948498930D+03 0.681560875259652D+02
 0.161139208748974D+02 0.501982438992908D+01 -.809860896110733D+01 0.129950891475126D+02
-.772176163771D-03 0.000000000000D+00 0.000000000000D+00 0.624643890599D-06 0.000000000000D+00  6 2 -2 25 23 21 21 4 0.50329244D-01 0.40956230D-01 0.77514429D+05 0.77514429D+05 0.77514429D+05 0.11738721D+01  1  2 13  3  6  5       21 -.833688877600D-01 0.100000000000D+01
-.808865080166D-03 0.000000000000D+00 0.000000000000D+00 0.624643890599D-06 0.000000000000D+00  6 2 -2 25 23 21 21 4 0.50329244D-01 0.40956230D-01 0.77514429D+05 0.77514429D+05 0.77514429D+05 0.11738721D+01  1  2 13  3  6  5       21 -.873300488221D-01 0.100000000000D+01
-.164116355270D-02 0.000000000000D+00 0.000000000000D+00 0.624539475634D-06 0.000000000000D+00  6 2 -2 25 23 21 21 4 0.50329244D-01 0.40956230D-01 0.77700198D+05 0.77700198D+05 0.77700198D+05 0.11737740D+01  1  2  8  3  6  5       21 -.177130975188D+00 0.100000000000D+01
0.373339843889D-02 0.000000000000D+00 0.000000000000D+00 0.624539475634D-06 0.139071863494D-06  6 2 -2 25 23 21 21 4 0.50329244D-01 0.40956230D-01 0.77514429D+05 0.77514429D+05 0.77514429D+05 0.11738721D+01  1  2  1  3  6  5       21 0.403080657003D+00 0.100000000000D+01
  </mgrwgt>
  </event>
  <event>
  5     66 0.43206592E-03 0.45213382E+02 0.75467711E-02 0.11906367E+00
        2 -1    0    0  502    0 0.00000000E+00 0.00000000E+00 0.17372628E+04 0.17372628E+04 0.32000000E+00 0.0000E+00 0.9000E+01
       -2 -1    0    0    0  501 0.00000000E+00 0.00000000E+00 -.14734096E+02 0.14737571E+02 0.32000000E+00 0.0000E+00 0.9000E+01
       25  1    1    2    0    0 0.38778299E+01 0.54093165E+01 0.97015711E+03 0.97819943E+03 0.12500000E+03 0.0000E+00 0.9000E+01
       23  1    1    2    0    0 -.38702732E+02 0.23423826E+02 0.68586845E+03 0.69338111E+03 0.91188000E+02 0.0000E+00 0.9000E+01
       21  1    1    2  502  501 0.34824902E+02 -.28833142E+02 0.66503122E+02 0.80419846E+02 0.75000000E+00 0.0000E+00 0.9000E+01
#aMCatNLO 1  0  0  2  2 0.46548508D+02 0.00000000D+00  -5  6  0 0.00000000D+00 0.00000000D+00 0.00000000D+00 0.00000000D+00 0.00000000D+00
  <mgrwgt>
 0.1068454899D+00    3    2    0
 0.160000207059159D+03 0.000000000000000D+00 0.000000000000000D+00 0.160000207059159D+03
 0.160000207059159D+03 0.000000000000000D+00 0.000000000000000D+00 -.160000207059159D+03
 0.133382477795898D+03 0.387722741910997D+01 0.540981537245763D+01 0.460606815858121D+02
 0.104299967605739D+03 -.387032031062058D+02 0.234242155998677D+02 0.227288383207069D+02
 0.823179687166817D+02 0.348259756870959D+02 -.288340309723253D+02 -.687895199065191D+02
 0.000000000000000D+00 0.000000000000000D+00 -.000000000000000D+00 0.000000000000000D+00
 0.326738088022059D+03 0.000000000000000D+00 0.000000000000000D+00 0.326738088022059D+03
 0.164966029681715D+03 0.000000000000000D+00 0.000000000000000D+00 -.164966029681715D+03
 0.134885065128860D+03 -.106626116604559D+02 0.182675427807220D+02 0.460606815858121D+02
 0.111872302730715D+03 -.504195292405158D+02 0.337850818265782D+02 0.227288383207069D+02
 0.766108876556766D+02 0.262121867376006D+02 -.212167698968171D+02 -.687895199065191D+02
 0.168335862188523D+03 0.348699541633712D+02 -.308358547104831D+02 0.161772058340344D+03
0.106812427023D-03 0.000000000000D+00 0.000000000000D+00 0.903405064145D-05 0.000000000000D+00  6 2 -2 25 23 21 21 2 0.26727147D+00 0.22670536D-02 0.18521004D+05 0.18521004D+05 0.18521004D+05 0.12375163D+01  1  2  2  2  6  2       -2 0.105763726354D+00 0.100000000000D+01
0.116574299841D-05 0.563664663211D-05 -.410187844125D-06 0.903405064145D-05 0.000000000000D+00  6 2 -2 25 23 21 21 4 0.26727147D+00 0.22670536D-02 0.18521004D+05 0.18521004D+05 0.18521004D+05 0.12375163D+01  1  2  3  2  6  2       -2 0.176774503211D-02 0.100000000000D+01
-.452371871698D-06 0.000000000000D+00 0.000000000000D+00 0.903405064145D-05 0.000000000000D+00  6 2 -2 25 23 21 21 4 0.26727147D+00 0.22670536D-02 0.18521004D+05 0.18521004D+05 0.18521004D+05 0.12375163D+01  1  2 15  2  6  2       -2 -.685981498451D-03 0.100000000000D+01
  </mgrwgt>
  </event>
  <event>
  6     66 0.43206592E-03 0.24895392E+02 0.75467711E-02 0.11825509E+00
       21 -1    0    0  502  503 0.00000000E+00 0.00000000E+00 0.21609159E+04 0.21609161E+04 0.75000000E+00 0.0000E+00 0.9000E+01
       -2 -1    0    0    0  501 0.00000000E+00 0.00000000E+00 -.46616205E+02 0.46617303E+02 0.32000000E+00 0.0000E+00 0.9000E+01
       25  1    1    2    0    0 -.19540424E+02 0.61579837E+02 0.27394417E+03 0.30796804E+03 0.12500000E+03 0.0000E+00 0.9000E+01
       23  1    1    2    0    0 0.91497712E+01 -.10855091E+03 0.17582950E+03 0.22604929E+03 0.91188000E+02 0.0000E+00 0.9000E+01
       -2  1    1    2    0  503 0.48453687E+01 0.32356105E+02 0.16547297E+04 0.16550532E+04 0.32000000E+00 0.0000E+00 0.9000E+01
       21  1    1    2  502  501 0.55452837E+01 0.14614963E+02 0.97963383E+01 0.18462883E+02 0.75000000E+00 0.0000E+00 0.9000E+01
#aMCatNLO 2  0  0  1  2 0.23955392D+02 0.00000000D+00  -5  6  0 0.00000000D+00 0.00000000D+00 0.00000000D+00 0.00000000D+00 0.00000000D+00
  <mgrwgt>
 0.1194545001D-01    1    2    0
 0.152446217367410D+03 0.000000000000000D+00 0.000000000000000D+00 0.152446217367410D+03
 0.152446217367410D+03 0.000000000000000D+00 0.000000000000000D+00 -.152446217367410D+03
 0.151354807053058D+03 -.171998000542127D+02 0.772174903968156D+02 0.320141167765270D+02
 0.133209982293871D+03 0.113424884959569D+02 -.939018405962233D+02 -.219872764592148D+02
 0.000000000000000D+00 0.000000000000000D+00 0.000000000000000D+00 0.000000000000000D+00
 0.203276453878906D+02 0.585731155825585D+01 0.166843501994076D+02 -.100268403173122D+02
 0.654739472112503D+03 0.000000000000000D+00 0.000000000000000D+00 0.654739472112503D+03
 0.153855071837102D+03 0.000000000000000D+00 0.000000000000000D+00 -.153855071837102D+03
 0.144302499025290D+03 -.195423776201518D+02 0.615743699026962D+02 0.320141167765270D+02
 0.143759611769501D+03 0.914797902786284D+01 -.108556201046875D+03 -.219872764592148D+02
 0.501951768200642D+03 0.484536872727076D+01 0.323561054887630D+02 0.500884400275401D+03
 0.185806649541727D+02 0.554902986501820D+01 0.146257256554155D+02 -.100268403173122D+02
0.269980957309D-03 0.000000000000D+00 0.000000000000D+00 0.349071151138D-04 0.123671161199D-06  6 21 -2 25 23 -2 21 4 0.33244859D+00 0.71718159D-02 0.27412531D+05 0.27412531D+05 0.27412531D+05 0.12190313D+01  1  2  1  4  5  1        2 0.119454500133D-01 0.100000000000D+01
  </mgrwgt>
  </event>
  <event>
  6     66 0.43206592E-03 0.40066131E+02 0.75467711E-02 0.11269961E+00
        2 -1    0    0  502    0 0.00000000E+00 0.00000000E+00 0.13637832E+04 0.13637832E+04 0.32000000E+00 0.0000E+00 0.9000E+01
       -2 -1    0    0    0  503 0.00000000E+00 0.00000000E+00 -.48212559E+02 0.48213621E+02 0.32000000E+00 0.0000E+00 0.9000E+01
       25  1    1    2    0    0 -.14759558E+03 0.23500995E+02 0.59201146E+03 0.62324900E+03 0.12500000E+03 0.0000E+00 0.9000E+01
       23  1    1    2    0    0 0.16242751E+03 0.19425894E+01 0.65385156E+03 0.67987027E+03 0.91188000E+02 0.0000E+00 0.9000E+01
       21  1    1    2  502  501 -.14459355E+02 -.50641343E+02 0.26764556E+02 0.59080645E+02 0.75000000E+00 0.0000E+00 0.9000E+01
       21  1    1    2  501  503 -.37257912E+00 0.25197759E+02 0.42943045E+02 0.49796922E+02 0.75000000E+00 0.0000E+00 0.9000E+01
#aMCatNLO 2  0  0  2  2 0.25200513D+02 0.00000000D+00  -5  6  0 0.00000000D+00 0.00000000D+00 0.00000000D+00 0.00000000D+00 0.00000000D+00
  <mgrwgt>
 0.2043708069D-01    1    2    0
 0.242576070603767D+03 0.000000000000000D+00 0.000000000000000D+00 0.242576070603767D+03
 0.242576070603767D+03 0.000000000000000D+00 0.000000000000000D+00 -.242576070603767D+03
 0.198343646740616D+03 -.147746986612981D+03 0.337546989965428D+02 0.273249052112332D+02
 0.193750274551789D+03 0.162279096661747D+03 0.119932005914171D+02 0.523982391986125D+02
 0.930582199151295D+02 -.145321100487659D+02 -.457478995879598D+02 -.797231444098457D+02
 0.000000000000000D+00 -.000000000000000D+00 0.000000000000000D+00 -.000000000000000D+00
 0.251447621866373D+03 0.000000000000000D+00 0.000000000000000D+00 0.251447621866373D+03
 0.261484186007094D+03 0.000000000000000D+00 0.000000000000000D+00 -.261484186007094D+03
 0.196744434197848D+03 -.147595382200304D+03 0.235015977366387D+02 0.273249052112332D+02
 0.193513203560871D+03 0.162427698593779D+03 0.194315897558265D+01 0.523982391986125D+02
 0.955485643298333D+02 -.144597372738535D+02 -.506425156254142D+02 -.797231444098457D+02
 0.271256057849143D+02 -.372579119621935D+00 0.251977589131928D+02 -.100365641407212D+02
0.590796832709D-04 0.000000000000D+00 0.000000000000D+00 0.422124948354D-05 0.131055321916D-07  6 2 -2 25 23 21 21 4 0.20980861D+00 0.74172504D-02 0.52667664D+05 0.52667664D+05 0.52667664D+05 0.11900526D+01  1  2  1  2  6  2       -2 0.204370806927D-01 0.100000000000D+01
  </mgrwgt>
  </event>
  <event>
  5     66 0.43206592E-03 0.38792247E+02 0.75467711E-02 0.11489650E+00
        2 -1    0    0  502    0 0.00000000E+00 0.00000000E+00 0.11476871E+04 0.11476871E+04 0.32000000E+00 0.0000E+00 0.9000E+01
       -2 -1    0    0    0  501 0.00000000E+00 0.00000000E+00 -.37134200E+02 0.37135578E+02 0.32000000E+00 0.0000E+00 0.9000E+01
       25  1    1    2    0    0 -.13438599E+03 0.56937941E+02 0.47104946E+03 0.50873777E+03 0.12500000E+03 0.0000E+00 0.9000E+01
       23  1    1    2    0    0 0.14324339E+03 -.19175422E+02 0.58312663E+03 0.60764981E+03 0.91188000E+02 0.0000E+00 0.9000E+01
       21  1    1    2  502  501 -.88574040E+01 -.37762519E+02 0.56376762E+02 0.68435102E+02 0.75000000E+00 0.0000E+00 0.9000E+01
#aMCatNLO 1  0  0  5  2 0.11217307D+02 0.00000000D+00  -5  6  0 0.00000000D+00 0.00000000D+00 0.00000000D+00 0.00000000D+00 0.00000000D+00
  <mgrwgt>
 0.3304831330D-01   20    2    0
 0.206444383978360D+03 0.000000000000000D+00 0.000000000000000D+00 0.206444383978360D+03
 0.206444383978360D+03 -.000000000000000D+00 -.000000000000000D+00 -.206444383978360D+03
 0.192881985579795D+03 -.134385408139153D+03 0.569404198926279D+02 -.166376387425821D+02
 0.175263966350003D+03 0.143243921855159D+03 -.191731695550992D+02 0.389329549032631D+02
 0.447428160269215D+02 -.885851371600564D+01 -.377672503375287D+02 -.222953161606810D+02
 0.000000000000000D+00 -.000000000000000D+00 0.000000000000000D+00 0.000000000000000D+00
 0.206444383978360D+03 0.000000000000000D+00 0.000000000000000D+00 0.206444383978360D+03
 0.206444383978360D+03 -.000000000000000D+00 -.000000000000000D+00 -.206444383978360D+03
 0.192692092728678D+03 -.135010987457574D+03 0.542733347040503D+02 -.182121115192703D+02
 0.174769943888687D+03 0.142676005111503D+03 -.215944170144541D+02 0.375036086541421D+02
 0.290985566493884D+02 0.157965750979010D+01 -.194213051904735D+02 -.216111912195491D+02
 0.163281746899665D+02 -.924467516371893D+01 -.132576124991226D+02 0.231969408467744D+01
0.887068533187D-04 0.000000000000D+00 0.000000000000D+00 0.606209436468D-05 0.000000000000D+00  6 2 -2 25 23 21 21 2 0.17656735D+00 0.57130633D-02 0.40368912D+05 0.40368912D+05 0.40368912D+05 0.12015956D+01  1  2  2  3  6  5       21 0.435314470163D-01 0.100000000000D+01
0.130932523604D-04 0.468118925804D-05 -.340657673795D-06 0.606209436468D-05 0.000000000000D+00  6 2 -2 25 23 21 21 4 0.17656735D+00 0.57130633D-02 0.40368912D+05 0.40368912D+05 0.40368912D+05 0.12015956D+01  1  2  3  3  6  5       21 0.927705471668D-02 0.100000000000D+01
0.234635393058D-05 0.000000000000D+00 0.000000000000D+00 0.606209436468D-05 0.000000000000D+00  6 2 -2 25 23 21 21 4 0.17656735D+00 0.57130633D-02 0.40368912D+05 0.40368912D+05 0.40368912D+05 0.12015956D+01  1  2 15  3  6  5       21 0.166247874856D-02 0.100000000000D+01
0.566353662265D-04 0.000000000000D+00 0.000000000000D+00 0.607024978896D-05 0.000000000000D+00  6 2 -2 25 23 21 21 4 0.17656735D+00 0.57130633D-02 0.39636054D+05 0.39636054D+05 0.39636054D+05 0.12024036D+01  1  2 12  3  6  5       21 0.402299838779D-01 0.100000000000D+01
0.533564742320D-04 0.000000000000D+00 0.000000000000D+00 0.607024978896D-05 0.000000000000D+00  6 2 -2 25 23 21 21 4 0.17656735D+00 0.57130633D-02 0.39636054D+05 0.39636054D+05 0.39636054D+05 0.12024036D+01  1  2 12  3  6  5       21 0.379008778640D-01 0.100000000000D+01
-.225428810526D-03 0.000000000000D+00 0.000000000000D+00 0.606209436468D-05 0.000000000000D+00  6 2 -2 25 23 21 21 4 0.17656735D+00 0.57130633D-02 0.40368912D+05 0.40368912D+05 0.40368912D+05 0.12015956D+01  1  2  4  3  6  5       21 -.159724669808D+00 0.100000000000D+01
-.101450271104D-03 0.000000000000D+00 0.000000000000D+00 0.606209436468D-05 0.000000000000D+00  6 2 -2 25 23 21 21 4 0.17656735D+00 0.57130633D-02 0.40368912D+05 0.40368912D+05 0.40368912D+05 0.12015956D+01  1  2  5  3  6  5       21 -.718812782458D-01 0.100000000000D+01
0.181675572647D-03 0.000000000000D+00 -.000000000000D+00 0.606209436468D-05 0.000000000000D+00  6 2 -2 25 23 21 21 4 0.17656735D+00 0.57130633D-02 0.40368912D+05 0.40368912D+05 0.40368912D+05 0.12015956D+01  1  2  6  3  6  5       21 0.128723878662D+00 0.100000000000D+01
0.135481433342D-05 0.000000000000D+00 0.000000000000D+00 0.607024978896D-05 0.000000000000D+00  6 2 -2 25 23 1 -1 4 0.17656735D+00 0.57130633D-02 0.39636054D+05 0.39636054D+05 0.39636054D+05 0.12024036D+01  1  2 12  6  6  5       21 0.962369671504D-03 0.100000000000D+01
0.135481433342D-05 0.000000000000D+00 0.000000000000D+00 0.607024978896D-05 0.000000000000D+00  6 2 -2 25 23 3 -3 4 0.17656735D+00 0.57130633D-02 0.39636054D+05 0.39636054D+05 0.39636054D+05 0.12024036D+01  1  2 12  6  6  5       21 0.962369671504D-03 0.100000000000D+01
0.128594988247D-05 0.000000000000D+00 0.000000000000D+00 0.607024978896D-05 0.000000000000D+00  6 2 -2 25 23 1 -1 4 0.17656735D+00 0.57130633D-02 0.39636054D+05 0.39636054D+05 0.39636054D+05 0.12024036D+01  1  2 12  6  6  5       21 0.913452962104D-03 0.100000000000D+01
0.128594988247D-05 0.000000000000D+00 0.000000000000D+00 0.607024978896D-05 0.000000000000D+00  6 2 -2 25 23 3 -3 4 0.17656735D+00 0.57130633D-02 0.39636054D+05 0.39636054D+05 0.39636054D+05 0.12024036D+01  1  2 12  6  6  5       21 0.913452962104D-03 0.100000000000D+01
-.147301751159D-05 0.000000000000D+00 0.000000000000D+00 0.606209436468D-05 0.000000000000D+00  6 2 -2 25 23 1 -1 4 0.17656735D+00 0.57130633D-02 0.40368912D+05 0.40368912D+05 0.40368912D+05 0.12015956D+01  1  2  5  6  6  5       21 -.104368751762D-02 0.100000000000D+01
-.147301751159D-05 0.000000000000D+00 0.000000000000D+00 0.606209436468D-05 0.000000000000D+00  6 2 -2 25 23 3 -3 4 0.17656735D+00 0.57130633D-02 0.40368912D+05 0.40368912D+05 0.40368912D+05 0.12015956D+01  1  2  5  6  6  5       21 -.104368751762D-02 0.100000000000D+01
0.135481433342D-05 0.000000000000D+00 0.000000000000D+00 0.607024978896D-05 0.000000000000D+00  6 2 -2 25 23 2 -2 4 0.17656735D+00 0.57130633D-02 0.39636054D+05 0.39636054D+05 0.39636054D+05 0.12024036D+01  1  2 12  7  6  5       21 0.962369671504D-03 0.100000000000D+01
0.128594988247D-05 0.000000000000D+00 0.000000000000D+00 0.607024978896D-05 0.000000000000D+00  6 2 -2 25 23 2 -2 4 0.17656735D+00 0.57130633D-02 0.39636054D+05 0.39636054D+05 0.39636054D+05 0.12024036D+01  1  2 12  7  6  5       21 0.913452962104D-03 0.100000000000D+01
-.147301751159D-05 0.000000000000D+00 0.000000000000D+00 0.606209436468D-05 0.000000000000D+00  6 2 -2 25 23 2 -2 4 0.17656735D+00 0.57130633D-02 0.40368912D+05 0.40368912D+05 0.40368912D+05 0.12015956D+01  1  2  5  7  6  5       21 -.104368751762D-02 0.100000000000D+01
0.135481433342D-05 0.000000000000D+00 0.000000000000D+00 0.607024978896D-05 0.000000000000D+00  6 2 -2 25 23 4 -4 4 0.17656735D+00 0.57130633D-02 0.39636054D+05 0.39636054D+05 0.39636054D+05 0.12024036D+01  1  2 12  8  6  5       21 0.962369671504D-03 0.100000000000D+01
0.128594988247D-05 0.000000000000D+00 0.000000000000D+00 0.607024978896D-05 0.000000000000D+00  6 2 -2 25 23 4 -4 4 0.17656735D+00 0.57130633D-02 0.39636054D+05 0.39636054D+05 0.39636054D+05 0.12024036D+01  1  2 12  8  6  5       21 0.913452962104D-03 0.100000000000D+01
-.147301751159D-05 0.000000000000D+00 0.000000000000D+00 0.606209436468D-05 0.000000000000D+00  6 2 -2 25 23 4 -4 4 0.17656735D+00 0.57130633D-02 0.40368912D+05 0.40368912D+05 0.40368912D+05 0.12015956D+01  1  2  5  8  6  5       21 -.104368751762D-02 0.100000000000D+01
  </mgrwgt>
  </event>
  <event>
  5     66 0.43206592E-03 0.57003020E+02 0.75467711E-02 0.11926896E+00
        2 -1    0    0  502    0 0.00000000E+00 0.00000000E+00 0.92251282E+03 0.92251288E+03 0.32000000E+00 0.0000E+00 0.9000E+01
       -2 -1    0    0    0  501 0.00000000E+00 0.00000000E+00 -.50533202E+02 0.50534215E+02 0.32000000E+00 0.0000E+00 0.9000E+01
       25  1    1    2    0    0 -.32049191E+02 0.19128922E+02 0.21137017E+03 0.24838562E+03 0.12500000E+03 0.0000E+00 0.9000E+01
       23  1    1    2    0    0 -.21045831E+02 0.16125997E+01 0.40580697E+02 0.10201751E+03 0.91188000E+02 0.0000E+00 0.9000E+01
       21  1    1    2  502  501 0.53095023E+02 -.20741522E+02 0.62002875E+03 0.62264397E+03 0.75000000E+00 0.0000E+00 0.9000E+01
#aMCatNLO 1  0  0  5  2 0.28431630D+02 0.00000000D+00  -5  6  0 0.00000000D+00 0.00000000D+00 0.00000000D+00 0.00000000D+00 0.00000000D+00
  <mgrwgt>
 0.1896159154D-01   13    2    0
 0.215912126669583D+03 0.000000000000000D+00 0.000000000000000D+00 0.215912126669583D+03
 0.215912126669583D+03 -.000000000000000D+00 -.000000000000000D+00 -.215912126669583D+03
 0.132879271304243D+03 -.320493926952575D+02 0.191290011576224D+02 -.252748587518001D+02
 0.147936364005884D+03 -.210460557866903D+02 0.161268735524468D+01 -.114561683064623D+03
 0.151008618029039D+03 0.530954484819478D+02 -.207416885128670D+02 0.139836541816423D+03
 0.000000000000000D+00 0.000000000000000D+00 0.000000000000000D+00 0.000000000000000D+00
 0.215912126669583D+03 0.000000000000000D+00 0.000000000000000D+00 0.215912126669583D+03
 0.215912126669583D+03 -.000000000000000D+00 -.000000000000000D+00 -.215912126669583D+03
 0.130964227604777D+03 -.294005190178985D+02 0.180942210720112D+02 -.182985670857380D+02
 0.141678995950754D+03 -.181384438624998D+02 0.476831409544144D+00 -.106903957062719D+03
 0.298263203231066D+02 -.155787289905369D+02 -.222341156078511D+02 0.123513841407627D+02
 0.129354709460528D+03 0.631176918709352D+02 0.366306312629575D+01 0.112851140007694D+03
0.432465451418D-04 0.000000000000D+00 0.000000000000D+00 0.666717760402D-05 0.000000000000D+00  6 2 -2 25 23 21 21 2 0.14192513D+00 0.77744209D-02 0.19748045D+05 0.19748045D+05 0.19748045D+05 0.12344327D+01  1  2  2  3  6  5       21 0.188630352643D-01 0.100000000000D+01
0.280621772874D-07 0.228218288657D-05 -.166078120421D-06 0.666717760402D-05 0.000000000000D+00  6 2 -2 25 23 21 21 4 0.14192513D+00 0.77744209D-02 0.19748045D+05 0.19748045D+05 0.19748045D+05 0.12344327D+01  1  2  3  3  6  5       21 0.186516100186D-04 0.100000000000D+01
0.135367626506D-05 0.000000000000D+00 0.000000000000D+00 0.666717760402D-05 0.000000000000D+00  6 2 -2 25 23 21 21 4 0.14192513D+00 0.77744209D-02 0.19748045D+05 0.19748045D+05 0.19748045D+05 0.12344327D+01  1  2 15  3  6  5       21 0.899724976031D-03 0.100000000000D+01
0.311806991794D-05 0.000000000000D+00 0.000000000000D+00 0.655759402127D-05 0.000000000000D+00  6 2 -2 25 23 21 21 4 0.14192513D+00 0.77744209D-02 0.24496615D+05 0.24496615D+05 0.24496615D+05 0.12242459D+01  1  2 12  3  6  5       21 0.201011164718D-02 0.100000000000D+01
-.242250886360D-05 0.000000000000D+00 0.000000000000D+00 0.666717760402D-05 0.000000000000D+00  6 2 -2 25 23 21 21 4 0.14192513D+00 0.77744209D-02 0.19748045D+05 0.19748045D+05 0.19748045D+05 0.12344327D+01  1  2  5  3  6  5       21 -.161012775764D-02 0.100000000000D+01
0.707984093817D-06 0.000000000000D+00 0.000000000000D+00 0.655759402127D-05 0.000000000000D+00  6 2 -2 25 23 1 -1 4 0.14192513D+00 0.77744209D-02 0.24496615D+05 0.24496615D+05 0.24496615D+05 0.12242459D+01  1  2 12  6  6  5       21 0.456412816405D-03 0.100000000000D+01
0.707984093817D-06 0.000000000000D+00 0.000000000000D+00 0.655759402127D-05 0.000000000000D+00  6 2 -2 25 23 3 -3 4 0.14192513D+00 0.77744209D-02 0.24496615D+05 0.24496615D+05 0.24496615D+05 0.12242459D+01  1  2 12  6  6  5       21 0.456412816405D-03 0.100000000000D+01
-.114550582000D-05 0.000000000000D+00 0.000000000000D+00 0.666717760402D-05 0.000000000000D+00  6 2 -2 25 23 1 -1 4 0.14192513D+00 0.77744209D-02 0.19748045D+05 0.19748045D+05 0.19748045D+05 0.12344327D+01  1  2  5  6  6  5       21 -.761363867451D-03 0.100000000000D+01
-.114550582000D-05 0.000000000000D+00 0.000000000000D+00 0.666717760402D-05 0.000000000000D+00  6 2 -2 25 23 3 -3 4 0.14192513D+00 0.77744209D-02 0.19748045D+05 0.19748045D+05 0.19748045D+05 0.12344327D+01  1  2  5  6  6  5       21 -.761363867451D-03 0.100000000000D+01
0.707984093817D-06 0.000000000000D+00 0.000000000000D+00 0.655759402127D-05 0.000000000000D+00  6 2 -2 25 23 2 -2 4 0.14192513D+00 0.77744209D-02 0.24496615D+05 0.24496615D+05 0.24496615D+05 0.12242459D+01  1  2 12  7  6  5       21 0.456412816405D-03 0.100000000000D+01
-.114550582000D-05 0.000000000000D+00 0.000000000000D+00 0.666717760402D-05 0.000000000000D+00  6 2 -2 25 23 2 -2 4 0.14192513D+00 0.77744209D-02 0.19748045D+05 0.19748045D+05 0.19748045D+05 0.12344327D+01  1  2  5  7  6  5       21 -.761363867451D-03 0.100000000000D+01
0.707984093817D-06 0.000000000000D+00 0.000000000000D+00 0.655759402127D-05 0.000000000000D+00  6 2 -2 25 23 4 -4 4 0.14192513D+00 0.77744209D-02 0.24496615D+05 0.24496615D+05 0.24496615D+05 0.12242459D+01  1  2 12  8  6  5       21 0.456412816405D-03 0.100000000000D+01
-.114550582000D-05 0.000000000000D+00 0.000000000000D+00 0.666717760402D-05 0.000000000000D+00  6 2 -2 25 23 4 -4 4 0.14192513D+00 0.77744209D-02 0.19748045D+05 0.19748045D+05 0.19748045D+05 0.12344327D+01  1  2  5  8  6  5       21 -.761363867451D-03 0.100000000000D+01
  </mgrwgt>
  </event>
  <event>
  5     66 0.43206592E-03 0.27662159E+02 0.75467711E-02 0.12182422E+00
        2 -1    0    0  502    0 0.00000000E+00 0.00000000E+00 0.14497537E+02 0.14501068E+02 0.32000000E+00 0.0000E+00 0.9000E+01
       -2 -1    0    0    0  501 0.00000000E+00 0.00000000E+00 -.14720205E+04 0.14720206E+04 0.32000000E+00 0.0000E+00 0.9000E+01
       25  1    1    2    0    0 0.47637127E+01 0.64849897E+02 -.71782294E+03 0.73152100E+03 0.12500000E+03 0.0000E+00 0.9000E+01
       23  1    1    2    0    0 0.12534349E+02 -.43268042E+02 -.35432386E+03 0.36863245E+03 0.91188000E+02 0.0000E+00 0.9000E+01
       21  1    1    2  502  501 -.17298062E+02 -.21581855E+02 -.38537620E+03 0.38636819E+03 0.75000000E+00 0.0000E+00 0.9000E+01
#aMCatNLO 1  0  0  1  1 0.25376097D+01 0.00000000D+00  -5  6  0 0.00000000D+00 0.00000000D+00 0.00000000D+00 0.00000000D+00 0.00000000D+00
  <mgrwgt>
 0.8733421338D-01    8    4    0
 0.146093539099073D+03 0.000000000000000D+00 0.000000000000000D+00 0.146093539099073D+03
 0.146093539099073D+03 0.000000000000000D+00 0.000000000000000D+00 -.146093539099073D+03
 0.140932176789268D+03 0.476496487927534D+01 0.648514597261101D+02 -.290890626411963D+01
 0.107961688967732D+03 0.125353086485696D+02 -.432668453820698D+02 0.362121674100650D+02
 0.432932124411464D+02 -.173002735278450D+02 -.215846143440403D+02 -.333032611459453D+02
 0.000000000000000D+00 0.000000000000000D+00 -.000000000000000D+00 -.000000000000000D+00
 0.146336760431793D+03 0.000000000000000D+00 0.000000000000000D+00 0.146336760431793D+03
 0.152871393104424D+03 0.000000000000000D+00 0.000000000000000D+00 -.152871393104424D+03
 0.141196389296771D+03 0.372026145167945D+01 0.654913602662449D+02 -.290890626411963D+01
 0.107676651704053D+03 0.117368141297544D+02 -.427777524391469D+02 0.362121674100650D+02
 0.433250564069577D+02 -.176210152507176D+02 -.213881539933910D+02 -.333032611459453D+02
 0.701005612843498D+01 0.216393966928380D+01 -.132545383370708D+01 -.653463267263126D+01
 0.146093539099073D+03 0.000000000000000D+00 0.000000000000000D+00 0.146093539099073D+03
 0.146093539099073D+03 0.000000000000000D+00 0.000000000000000D+00 -.146093539099073D+03
 0.140932176789268D+03 0.476496487927534D+01 0.648514597261101D+02 -.290890626411963D+01
 0.107961688967732D+03 0.125353086485696D+02 -.432668453820698D+02 0.362121674100650D+02
 0.000000000000000D+00 0.000000000000000D+00 -.000000000000000D+00 -.000000000000000D+00
 0.432932124411464D+02 -.173002735278450D+02 -.215846143440403D+02 -.333032611459453D+02
 0.146336760431793D+03 0.000000000000000D+00 0.000000000000000D+00 0.146336760431793D+03
 0.152871393104424D+03 0.000000000000000D+00 0.000000000000000D+00 -.152871393104424D+03
 0.141196389296771D+03 0.372026145167945D+01 0.654913602662449D+02 -.290890626411963D+01
 0.107676651704053D+03 0.117368141297544D+02 -.427777524391469D+02 0.362121674100650D+02
 0.701005612843498D+01 0.216393966928380D+01 -.132545383370708D+01 -.653463267263126D+01
 0.433250564069577D+02 -.176210152507176D+02 -.213881539933910D+02 -.333032611459453D+02
0.112735598560D-02 0.000000000000D+00 0.000000000000D+00 0.178895949340D-04 0.000000000000D+00  6 2 -2 25 23 21 21 2 0.22306646D-02 0.22646497D+00 0.18261706D+05 0.18261706D+05 0.18261706D+05 0.12381972D+01  1  2  2  1  6  1        2 0.790592870499D-01 0.100000000000D+01
0.117755200613D-03 0.594922098164D-04 -.432934382436D-05 0.178895949340D-04 0.000000000000D+00  6 2 -2 25 23 21 21 4 0.22306646D-02 0.22646497D+00 0.18261706D+05 0.18261706D+05 0.18261706D+05 0.12381972D+01  1  2  3  1  6  1        2 0.126605208466D-01 0.100000000000D+01
0.154613436529D-04 0.000000000000D+00 0.000000000000D+00 0.178895949340D-04 0.000000000000D+00  6 2 -2 25 23 21 21 4 0.22306646D-02 0.22646497D+00 0.18261706D+05 0.18261706D+05 0.18261706D+05 0.12381972D+01  1  2 15  1  6  1        2 0.166233561333D-02 0.100000000000D+01
-.336257704595D-03 0.000000000000D+00 0.000000000000D+00 0.178895949340D-04 0.000000000000D+00  6 2 -2 25 23 21 21 4 0.22306646D-02 0.22646497D+00 0.18261706D+05 0.18261706D+05 0.18261706D+05 0.12381972D+01  1  2  4  1  6  1        2 -.361529482918D-01 0.100000000000D+01
0.148944742394D-05 0.000000000000D+00 0.000000000000D+00 0.178895949340D-04 0.000000000000D+00  6 2 -2 25 23 21 21 4 0.23679700D-02 0.22646497D+00 0.18261706D+05 0.18261706D+05 0.18261706D+05 0.12381972D+01  1  2  5  1  6  1        2 0.147658908965D-03 0.100000000000D+01
-.148679412569D-05 0.000000000000D+00 0.000000000000D+00 0.178895949340D-04 0.000000000000D+00  6 2 -2 25 23 21 21 4 0.22306646D-02 0.22646497D+00 0.18261706D+05 0.18261706D+05 0.18261706D+05 0.12381972D+01  1  2  6  1  6  1        2 -.159853559970D-03 0.100000000000D+01
0.315360547621D-03 0.000000000000D+00 0.000000000000D+00 0.178895949340D-04 0.957789625957D-05  6 2 -2 25 23 21 21 4 0.22343783D-02 0.23697157D+00 0.18607802D+05 0.18607802D+05 0.18607802D+05 0.12372907D+01  1  2 11  1  6  1        2 0.292720994416D-01 0.100000000000D+01
0.489869990141D-06 0.000000000000D+00 0.000000000000D+00 0.178634101492D-04 0.120225075730D-07  6 21 -2 25 23 -2 21 4 0.22343783D-02 0.23697157D+00 0.18607802D+05 0.18607802D+05 0.18607802D+05 0.12372907D+01  3  4 11  4  5  1        2 0.845113370090D-03 0.100000000000D+01
  </mgrwgt>
  </event>
  <event>
  5     66 0.43206592E-03 0.51735058E+02 0.75467711E-02 0.11395824E+00
        2 -1    0    0  502    0 0.00000000E+00 0.00000000E+00 0.81163365E+03 0.81163372E+03 0.32000000E+00 0.0000E+00 0.9000E+01
       -2 -1    0    0    0  501 0.00000000E+00 0.00000000E+00 -.10520513E+03 0.10520562E+03 0.32000000E+00 0.0000E+00 0.9000E+01
       25  1    1    2    0    0 -.93280124E+02 0.68701766E+01 0.50949241E+03 0.53287512E+03 0.12500000E+03 0.0000E+00 0.9000E+01
       23  1    1    2    0    0 0.61016818E+02 -.47312451E+02 0.26952494E+03 0.29482276E+03 0.91188000E+02 0.0000E+00 0.9000E+01
       21  1    1    2  502  501 0.32263306E+02 0.40442274E+02 -.72588825E+02 0.89141452E+02 0.75000000E+00 0.0000E+00 0.9000E+01
#aMCatNLO 1  0  0  5  1 0.38086820D+02 0.00000000D+00  -5  6  0 0.00000000D+00 0.00000000D+00 0.00000000D+00 0.00000000D+00 0.00000000D+00
  <mgrwgt>
 0.4451162164D-01   10    2    0
 0.292212729784172D+03 0.000000000000000D+00 0.000000000000000D+00 0.292212729784172D+03
 0.292212729784172D+03 -.000000000000000D+00 -.000000000000000D+00 -.292212729784172D+03
 0.220115508495952D+03 -.932801897224108D+02 0.687009387279614D+01 0.155169085503401D+03
 0.136724170609813D+03 0.610167765908850D+02 -.473125020906611D+02 0.664584652645591D+02
 0.227585780462578D+03 0.322634131315258D+02 0.404424082178649D+02 -.221627550767960D+03
 0.000000000000000D+00 0.000000000000000D+00 0.000000000000000D+00 -.000000000000000D+00
 0.292212729784172D+03 0.000000000000000D+00 0.000000000000000D+00 0.292212729784172D+03
 0.292212729784172D+03 -.000000000000000D+00 -.000000000000000D+00 -.292212729784172D+03
 0.206699393295640D+03 -.906411871203290D+02 0.101781016178637D+02 0.137040945099118D+03
 0.131610371278534D+03 0.626758928759522D+02 -.452327885213602D+02 0.550614727269227D+02
 0.112599287489759D+03 0.800502825948111D+02 -.115491429052428D+02 -.783400861490884D+02
 0.133516407504410D+03 -.520849883504344D+02 0.466038298087392D+02 -.113762331676953D+03
0.224271209748D-03 0.000000000000D+00 0.000000000000D+00 0.973137180759D-05 0.000000000000D+00  6 2 -2 25 23 21 21 2 0.12486676D+00 0.16185448D-01 0.26787918D+05 0.26787918D+05 0.26787918D+05 0.12200944D+01  1  2  2  3  6  5       21 0.351116117525D-01 0.100000000000D+01
0.187200462486D-04 0.118351168899D-04 -.861260497398D-06 0.973137180759D-05 0.000000000000D+00  6 2 -2 25 23 21 21 4 0.12486676D+00 0.16185448D-01 0.26787918D+05 0.26787918D+05 0.26787918D+05 0.12200944D+01  1  2  3  3  6  5       21 0.436285742039D-02 0.100000000000D+01
0.343523867963D-05 0.000000000000D+00 0.000000000000D+00 0.973137180759D-05 0.000000000000D+00  6 2 -2 25 23 21 21 4 0.12486676D+00 0.16185448D-01 0.26787918D+05 0.26787918D+05 0.26787918D+05 0.12200944D+01  1  2 15  3  6  5       21 0.800610018010D-03 0.100000000000D+01
-.587246048314D-04 0.000000000000D+00 0.000000000000D+00 0.973137180759D-05 0.000000000000D+00  6 2 -2 25 23 21 21 4 0.12486676D+00 0.16185448D-01 0.26787918D+05 0.26787918D+05 0.26787918D+05 0.12200944D+01  1  2  4  3  6  5       21 -.136862417190D-01 0.100000000000D+01
-.793064401643D-04 0.000000000000D+00 0.000000000000D+00 0.973137180759D-05 0.000000000000D+00  6 2 -2 25 23 21 21 4 0.12486676D+00 0.16185448D-01 0.26787918D+05 0.26787918D+05 0.26787918D+05 0.12200944D+01  1  2  5  3  6  5       21 -.184830040675D-01 0.100000000000D+01
0.180633675613D-03 0.000000000000D+00 -.000000000000D+00 0.973137180759D-05 0.000000000000D+00  6 2 -2 25 23 21 21 4 0.12486676D+00 0.16185448D-01 0.26787918D+05 0.26787918D+05 0.26787918D+05 0.12200944D+01  1  2  6  3  6  5       21 0.420981316796D-01 0.100000000000D+01
-.610614342385D-05 0.000000000000D+00 0.000000000000D+00 0.973137180759D-05 0.000000000000D+00  6 2 -2 25 23 1 -1 4 0.12486676D+00 0.16185448D-01 0.26787918D+05 0.26787918D+05 0.26787918D+05 0.12200944D+01  1  2  5  6  6  5       21 -.142308586170D-02 0.100000000000D+01
-.610614342385D-05 0.000000000000D+00 0.000000000000D+00 0.973137180759D-05 0.000000000000D+00  6 2 -2 25 23 3 -3 4 0.12486676D+00 0.16185448D-01 0.26787918D+05 0.26787918D+05 0.26787918D+05 0.12200944D+01  1  2  5  6  6  5       21 -.142308586170D-02 0.100000000000D+01
-.610614342385D-05 0.000000000000D+00 0.000000000000D+00 0.973137180759D-05 0.000000000000D+00  6 2 -2 25 23 2 -2 4 0.12486676D+00 0.16185448D-01 0.26787918D+05 0.26787918D+05 0.26787918D+05 0.12200944D+01  1  2  5  7  6  5       21 -.142308586170D-02 0.100000000000D+01
-.610614342385D-05 0.000000000000D+00 0.000000000000D+00 0.973137180759D-05 0.000000000000D+00  6 2 -2 25 23 4 -4 4 0.12486676D+00 0.16185448D-01 0.26787918D+05 0.26787918D+05 0.26787918D+05 0.12200944D+01  1  2  5  8  6  5       21 -.142308586170D-02 0.100000000000D+01
  </mgrwgt>
  </event>
  <event>
  5     66 -.43206592E-03 0.79860676E+02 0.75467711E-02 0.11654900E+00
        2 -1    0    0  502    0 0.00000000E+00 0.00000000E+00 0.72537757E+03 0.72537764E+03 0.32000000E+00 0.0000E+00 0.9000E+01
       -2 -1    0    0    0  501 0.00000000E+00 0.00000000E+00 -.82727493E+02 0.82728112E+02 0.32000000E+00 0.0000E+00 0.9000E+01
       25  1    1    2    0    0 -.10888762E+02 -.40223729E+02 0.97596120E+02 0.16397108E+03 0.12500000E+03 0.0000E+00 0.9000E+01
       23  1    1    2    0    0 0.11503956E+01 0.12110575E+03 0.54178887E+03 0.56259964E+03 0.91188000E+02 0.0000E+00 0.9000E+01
       21  1    1    2  502  501 0.97383668E+01 -.80882026E+02 0.32650906E+01 0.81535030E+02 0.75000000E+00 0.0000E+00 0.9000E+01
#aMCatNLO 1  0  0  5  1 0.59158815D+01 0.00000000D+00  -5  6  0 0.00000000D+00 0.00000000D+00 0.00000000D+00 0.00000000D+00 0.00000000D+00
  <mgrwgt>
 -.1178524234D-01   25    2    0
 0.244967235763275D+03 0.000000000000000D+00 0.000000000000000D+00 0.244967235763275D+03
 0.244967235763275D+03 -.000000000000000D+00 -.000000000000000D+00 -.244967235763275D+03
 0.142438800029432D+03 -.108888093582004D+02 -.402233387152399D+02 -.541047928300659D+02
 0.217293902045968D+03 0.115032393464024D+01 0.121106349638497D+03 0.155670541061712D+03
 0.130201769451151D+03 0.973848542356018D+01 -.808830109232569D+02 -.101565748231646D+03
 0.000000000000000D+00 0.000000000000000D+00 0.000000000000000D+00 -.000000000000000D+00
 0.244967235763275D+03 0.000000000000000D+00 0.000000000000000D+00 0.244967235763275D+03
 0.244967235763275D+03 -.000000000000000D+00 -.000000000000000D+00 -.244967235763275D+03
 0.142516995652634D+03 -.108762712497089D+02 -.403274740013721D+02 -.542355567337906D+02
 0.217062766600693D+03 0.116943570958228D+01 0.120947616751999D+03 0.155471218308984D+03
 0.818304682691334D+02 0.100584060691753D+02 -.539508697961473D+02 -.606989098150238D+02
 0.485242410040904D+02 -.351570529048657D+00 -.266692729544794D+02 -.405367517601697D+02
0.304956276630D-05 0.000000000000D+00 0.000000000000D+00 0.119351454468D-05 0.000000000000D+00  6 2 -2 25 23 21 21 2 0.11159660D+00 0.12727360D-01 0.33275718D+05 0.33275718D+05 0.33275718D+05 0.12102030D+01  1  2  2  3  6  5       21 0.800483280459D-03 0.100000000000D+01
-.137665144484D-06 0.160929848476D-06 -.117111239909D-07 0.119351454468D-05 0.000000000000D+00  6 2 -2 25 23 21 21 4 0.11159660D+00 0.12727360D-01 0.33275718D+05 0.33275718D+05 0.33275718D+05 0.12102030D+01  1  2  3  3  6  5       21 -.529243033924D-04 0.100000000000D+01
0.141822295207D-06 0.000000000000D+00 0.000000000000D+00 0.119351454468D-05 0.000000000000D+00  6 2 -2 25 23 21 21 4 0.11159660D+00 0.12727360D-01 0.33275718D+05 0.33275718D+05 0.33275718D+05 0.12102030D+01  1  2 15  3  6  5       21 0.545224879362D-04 0.100000000000D+01
0.396054402442D-04 0.000000000000D+00 0.000000000000D+00 0.119351986548D-05 0.000000000000D+00  6 2 -2 25 23 21 21 4 0.11159660D+00 0.12727360D-01 0.33273725D+05 0.33273725D+05 0.33273725D+05 0.12102057D+01  1  2 12  3  6  5       21 0.152261347256D-01 0.100000000000D+01
0.391506213676D-04 0.000000000000D+00 0.000000000000D+00 0.119351986548D-05 0.000000000000D+00  6 2 -2 25 23 21 21 4 0.11159660D+00 0.12727360D-01 0.33273725D+05 0.33273725D+05 0.33273725D+05 0.12102057D+01  1  2 12  3  6  5       21 0.150512816386D-01 0.100000000000D+01
-.183530294156D-03 0.000000000000D+00 0.000000000000D+00 0.119351454468D-05 0.000000000000D+00  6 2 -2 25 23 21 21 4 0.11159660D+00 0.12727360D-01 0.33275718D+05 0.33275718D+05 0.33275718D+05 0.12102030D+01  1  2  4  3  6  5       21 -.705568065616D-01 0.100000000000D+01
-.105252400697D-03 0.000000000000D+00 0.000000000000D+00 0.119351454468D-05 0.000000000000D+00  6 2 -2 25 23 21 21 4 0.11159660D+00 0.12727360D-01 0.33275718D+05 0.33275718D+05 0.33275718D+05 0.12102030D+01  1  2  5  3  6  5       21 -.404634739473D-01 0.100000000000D+01
0.147590325929D-03 0.000000000000D+00 -.000000000000D+00 0.119351454468D-05 0.000000000000D+00  6 2 -2 25 23 21 21 4 0.11159660D+00 0.12727360D-01 0.33275718D+05 0.33275718D+05 0.33275718D+05 0.12102030D+01  1  2  6  3  6  5       21 0.567399628754D-01 0.100000000000D+01
0.288120060493D-04 0.000000000000D+00 0.000000000000D+00 0.119351454468D-05 0.203150030988D-06  6 2 -2 25 23 21 21 4 0.11159660D+00 0.12727360D-01 0.33273725D+05 0.33273725D+05 0.33273725D+05 0.12102057D+01  1  2 11  3  6  5       21 0.110766471252D-01 0.100000000000D+01
0.799215770300D-06 0.000000000000D+00 0.000000000000D+00 0.119351986548D-05 0.000000000000D+00  6 2 -2 25 23 1 -1 4 0.11159660D+00 0.12727360D-01 0.33273725D+05 0.33273725D+05 0.33273725D+05 0.12102057D+01  1  2 12  6  6  5       21 0.307254935645D-03 0.100000000000D+01
0.799215770300D-06 0.000000000000D+00 0.000000000000D+00 0.119351986548D-05 0.000000000000D+00  6 2 -2 25 23 3 -3 4 0.11159660D+00 0.12727360D-01 0.33273725D+05 0.33273725D+05 0.33273725D+05 0.12102057D+01  1  2 12  6  6  5       21 0.307254935645D-03 0.100000000000D+01
0.790450289232D-06 0.000000000000D+00 0.000000000000D+00 0.119351986548D-05 0.000000000000D+00  6 2 -2 25 23 1 -1 4 0.11159660D+00 0.12727360D-01 0.33273725D+05 0.33273725D+05 0.33273725D+05 0.12102057D+01  1  2 12  6  6  5       21 0.303885085573D-03 0.100000000000D+01
0.790450289232D-06 0.000000000000D+00 0.000000000000D+00 0.119351986548D-05 0.000000000000D+00  6 2 -2 25 23 3 -3 4 0.11159660D+00 0.12727360D-01 0.33273725D+05 0.33273725D+05 0.33273725D+05 0.12102057D+01  1  2 12  6  6  5       21 0.303885085573D-03 0.100000000000D+01
-.186376826827D-05 0.000000000000D+00 0.000000000000D+00 0.119351454468D-05 0.000000000000D+00  6 2 -2 25 23 1 -1 4 0.11159660D+00 0.12727360D-01 0.33275718D+05 0.33275718D+05 0.33275718D+05 0.12102030D+01  1  2  5  6  6  5       21 -.716511341002D-03 0.100000000000D+01
-.186376826827D-05 0.000000000000D+00 0.000000000000D+00 0.119351454468D-05 0.000000000000D+00  6 2 -2 25 23 3 -3 4 0.11159660D+00 0.12727360D-01 0.33275718D+05 0.33275718D+05 0.33275718D+05 0.12102030D+01  1  2  5  6  6  5       21 -.716511341002D-03 0.100000000000D+01
0.493257198516D-06 0.000000000000D+00 0.000000000000D+00 0.119351454468D-05 0.512708704806D-08  6 2 -2 25 23 1 -1 4 0.11159660D+00 0.12727360D-01 0.33273725D+05 0.33273725D+05 0.33273725D+05 0.12102057D+01  1  2 11  6  6  5       21 0.189630528349D-03 0.100000000000D+01
0.493257198516D-06 0.000000000000D+00 0.000000000000D+00 0.119351454468D-05 0.512708704806D-08  6 2 -2 25 23 3 -3 4 0.11159660D+00 0.12727360D-01 0.33273725D+05 0.33273725D+05 0.33273725D+05 0.12102057D+01  1  2 11  6  6  5       21 0.189630528349D-03 0.100000000000D+01
0.799215770300D-06 0.000000000000D+00 0.000000000000D+00 0.119351986548D-05 0.000000000000D+00  6 2 -2 25 23 2 -2 4 0.11159660D+00 0.12727360D-01 0.33273725D+05 0.33273725D+05 0.33273725D+05 0.12102057D+01  1  2 12  7  6  5       21 0.307254935645D-03 0.100000000000D+01
0.790450289232D-06 0.000000000000D+00 0.000000000000D+00 0.119351986548D-05 0.000000000000D+00  6 2 -2 25 23 2 -2 4 0.11159660D+00 0.12727360D-01 0.33273725D+05 0.33273725D+05 0.33273725D+05 0.12102057D+01  1  2 12  7  6  5       21 0.303885085573D-03 0.100000000000D+01
-.186376826827D-05 0.000000000000D+00 0.000000000000D+00 0.119351454468D-05 0.000000000000D+00  6 2 -2 25 23 2 -2 4 0.11159660D+00 0.12727360D-01 0.33275718D+05 0.33275718D+05 0.33275718D+05 0.12102030D+01  1  2  5  7  6  5       21 -.716511341002D-03 0.100000000000D+01
0.497086959639D-06 0.000000000000D+00 0.000000000000D+00 0.119351454468D-05 0.520612902630D-08  6 2 -2 25 23 2 -2 4 0.11159660D+00 0.12727360D-01 0.33273725D+05 0.33273725D+05 0.33273725D+05 0.12102057D+01  1  2 11  7  6  5       21 0.191102862918D-03 0.100000000000D+01
0.799215770300D-06 0.000000000000D+00 0.000000000000D+00 0.119351986548D-05 0.000000000000D+00  6 2 -2 25 23 4 -4 4 0.11159660D+00 0.12727360D-01 0.33273725D+05 0.33273725D+05 0.33273725D+05 0.12102057D+01  1  2 12  8  6  5       21 0.307254935645D-03 0.100000000000D+01
0.790450289232D-06 0.000000000000D+00 0.000000000000D+00 0.119351986548D-05 0.000000000000D+00  6 2 -2 25 23 4 -4 4 0.11159660D+00 0.12727360D-01 0.33273725D+05 0.33273725D+05 0.33273725D+05 0.12102057D+01  1  2 12  8  6  5       21 0.303885085573D-03 0.100000000000D+01
-.186376826827D-05 0.000000000000D+00 0.000000000000D+00 0.119351454468D-05 0.000000000000D+00  6 2 -2 25 23 4 -4 4 0.11159660D+00 0.12727360D-01 0.33275718D+05 0.33275718D+05 0.33275718D+05 0.12102030D+01  1  2  5  8  6  5       21 -.716511341002D-03 0.100000000000D+01
0.494352728669D-06 0.000000000000D+00 0.000000000000D+00 0.119351454468D-05 0.513847436988D-08  6 2 -2 25 23 4 -4 4 0.11159660D+00 0.12727360D-01 0.33273725D+05 0.33273725D+05 0.33273725D+05 0.12102057D+01  1  2 11  8  6  5       21 0.190051700026D-03 0.100000000000D+01
  </mgrwgt>
  </event>
  <event>
  6     66 -.43206592E-03 0.22217856E+02 0.75467711E-02 0.11775796E+00
        2 -1    0    0  503    0 0.00000000E+00 0.00000000E+00 0.99458149E+02 0.99458664E+02 0.32000000E+00 0.0000E+00 0.9000E+01
       -2 -1    0    0    0  501 0.00000000E+00 0.00000000E+00 -.38192957E+03 0.38192970E+03 0.32000000E+00 0.0000E+00 0.9000E+01
       25  1    1    2    0    0 -.72221318E+02 0.40173574E+02 -.11855452E+03 0.19107592E+03 0.12500000E+03 0.0000E+00 0.9000E+01
       23  1    1    2    0    0 0.57457641E+02 -.47997491E+02 -.87178905E+02 0.14669885E+03 0.91188000E+02 0.0000E+00 0.9000E+01
       21  1    1    2  502  501 0.33419955E+02 -.20171178E+02 -.96841416E+02 0.10441548E+03 0.75000000E+00 0.0000E+00 0.9000E+01
       21  1    1    2  503  502 -.18656278E+02 0.27995095E+02 0.20103422E+02 0.39198113E+02 0.75000000E+00 0.0000E+00 0.9000E+01
#aMCatNLO 2  0  0  1  5 0.33641968D+02 0.00000000D+00  -5  6  0 0.00000000D+00 0.00000000D+00 0.00000000D+00 0.00000000D+00 0.00000000D+00
  <mgrwgt>
 -.7422157335D-01    2    2    0
 0.160350321947685D+03 0.000000000000000D+00 0.000000000000000D+00 0.160350321947685D+03
 0.160350321947685D+03 0.000000000000000D+00 0.000000000000000D+00 -.160350321947685D+03
 0.159316174282058D+03 -.812180440406091D+02 0.536720605972274D+02 0.167207243065662D+02
 0.112487581471882D+03 0.507309645242350D+02 -.379048632835869D+02 0.181051158319079D+02
 0.488968881414303D+02 0.304870795163741D+02 -.157671973136404D+02 -.348258401384741D+02
 0.000000000000000D+00 -.000000000000000D+00 0.000000000000000D+00 0.000000000000000D+00
 0.229709940323027D+03 0.000000000000000D+00 0.000000000000000D+00 0.229709940323027D+03
 0.165361993164661D+03 0.000000000000000D+00 0.000000000000000D+00 -.165361993164661D+03
 0.150780397052451D+03 -.722230214974204D+02 0.401743783989459D+02 0.167207243065662D+02
 0.119364859905916D+03 0.574563466460415D+02 -.479967858003224D+02 0.181051158319079D+02
 0.523151049709496D+02 0.334229525438280D+02 -.201726872286253D+02 -.348258401384741D+02
 0.726115715583708D+02 -.186562776924491D+02 0.279950946300018D+02 0.643479471583661D+02
-.667490293716D-03 0.000000000000D+00 0.000000000000D+00 0.104275108713D-04 0.000000000000D+00  6 2 -2 25 23 21 21 4 0.15938598D-01 0.56976984D-01 0.28987618D+05 0.28987618D+05 0.28987618D+05 0.12164662D+01  1  2 13  1  6  1        2 -.153967170110D+00 0.100000000000D+01
0.350985821839D-03 0.000000000000D+00 0.000000000000D+00 0.106098351511D-04 0.286480388390D-07  6 2 -2 25 23 21 21 4 0.15301128D-01 0.58757772D-01 0.28987618D+05 0.28987618D+05 0.28987618D+05 0.12164662D+01  1  2  1  1  6  1        2 0.797455967566D-01 0.100000000000D+01
  </mgrwgt>
  </event>
  <event>
  5     66 0.43206592E-03 0.38323485E+02 0.75467711E-02 0.11566980E+00
        2 -1    0    0  502    0 0.00000000E+00 0.00000000E+00 0.44567835E+02 0.44568984E+02 0.32000000E+00 0.0000E+00 0.9000E+01
       -2 -1    0    0    0  501 0.00000000E+00 0.00000000E+00 -.79311161E+03 0.79311167E+03 0.32000000E+00 0.0000E+00 0.9000E+01
       25  1    1    2    0    0 0.45392055E+02 0.84500714E+02 -.32591288E+03 0.36200141E+03 0.12500000E+03 0.0000E+00 0.9000E+01
       23  1    1    2    0    0 -.16739819E+02 -.10994840E+03 -.41128606E+03 0.43570672E+03 0.91188000E+02 0.0000E+00 0.9000E+01
       21  1    1    2  502  501 -.28652236E+02 0.25447690E+02 -.11344829E+02 0.39972530E+02 0.75000000E+00 0.0000E+00 0.9000E+01
#aMCatNLO 1  0  0  2  5 0.44365279D+02 0.00000000D+00  -5  6  0 0.00000000D+00 0.00000000D+00 0.00000000D+00 0.00000000D+00 0.00000000D+00
  <mgrwgt>
 0.8444868272D-01    4    2    0
 0.188010041201900D+03 0.000000000000000D+00 0.000000000000000D+00 0.188010041201900D+03
 0.188010041201900D+03 0.000000000000000D+00 0.000000000000000D+00 -.188010041201900D+03
 0.157655088534552D+03 0.453928196035192D+02 0.845000343325912D+02 -.541876988537926D+01
 0.151900903534699D+03 -.167390820979047D+02 -.109949057792331D+03 -.488839541338087D+02
 0.664640903345493D+02 -.286537375056145D+02 0.254490234597394D+02 0.543027240191880D+02
 0.000000000000000D+00 -.000000000000000D+00 0.000000000000000D+00 0.000000000000000D+00
 0.273381451165038D+03 0.000000000000000D+00 0.000000000000000D+00 0.273381451165038D+03
 0.195167423937199D+03 0.000000000000000D+00 0.000000000000000D+00 -.195167423937199D+03
 0.153048808133651D+03 0.549408117992059D+02 0.689280915367932D+02 -.541876988537926D+01
 0.162981318417300D+03 -.706268913985690D+01 -.125730411036466D+03 -.488839541338087D+02
 0.625981612641848D+02 -.246876289880299D+02 0.189806462667151D+02 0.543027240191880D+02
 0.899205872871018D+02 -.231904936713190D+02 0.378216732329579D+02 0.782140272278391D+02
0.966580151072D-03 0.000000000000D+00 0.000000000000D+00 0.760387966367D-05 0.000000000000D+00  6 2 -2 25 23 21 21 2 0.68566834D-02 0.12201726D+00 0.28849973D+05 0.28849973D+05 0.28849973D+05 0.12166841D+01  1  2  2  2  6  2       -2 0.782063262761D-01 0.100000000000D+01
0.767995329773D-04 0.510078359332D-04 -.371192228651D-05 0.760387966367D-05 0.000000000000D+00  6 2 -2 25 23 21 21 4 0.68566834D-02 0.12201726D+00 0.28849973D+05 0.28849973D+05 0.28849973D+05 0.12166841D+01  1  2  3  2  6  2       -2 0.919852666963D-02 0.100000000000D+01
-.116002419488D-04 0.000000000000D+00 0.000000000000D+00 0.760387966367D-05 0.000000000000D+00  6 2 -2 25 23 21 21 4 0.68566834D-02 0.12201726D+00 0.28849973D+05 0.28849973D+05 0.28849973D+05 0.12166841D+01  1  2 15  2  6  2       -2 -.138939822684D-02 0.100000000000D+01
-.130811554664D-04 0.000000000000D+00 0.000000000000D+00 0.760387966367D-05 0.000000000000D+00  6 2 -2 25 23 21 21 4 0.68566834D-02 0.12201726D+00 0.28849973D+05 0.28849973D+05 0.28849973D+05 0.12166841D+01  1  2  4  2  6  2       -2 -.156677199408D-02 0.100000000000D+01
  </mgrwgt>
  </event>
  <event>
  5     66 0.43206592E-03 0.10534059E+03 0.75467711E-02 0.11055471E+00
        2 -1    0    0  502    0 0.00000000E+00 0.00000000E+00 0.10787006E+04 0.10787007E+04 0.32000000E+00 0.0000E+00 0.9000E+01
       -2 -1    0    0    0  501 0.00000000E+00 0.00000000E+00 -.84024860E+02 0.84025470E+02 0.32000000E+00 0.0000E+00 0.9000E+01
       25  1    1    2    0    0 -.83528689E+02 -.13060293E+03 0.67891992E+03 0.70752486E+03 0.12500000E+03 0.0000E+00 0.9000E+01
       23  1    1    2    0    0 -.78425861E+02 0.30533736E+02 0.19037121E+03 0.22724299E+03 0.91188000E+02 0.0000E+00 0.9000E+01
       21  1    1    2  502  501 0.16195455E+03 0.10006920E+03 0.12538465E+03 0.22795832E+03 0.75000000E+00 0.0000E+00 0.9000E+01
#aMCatNLO 1  0  0  1  5 0.11321917D+02 0.00000000D+00  -5  6  0 0.00000000D+00 0.00000000D+00 0.00000000D+00 0.00000000D+00 0.00000000D+00
  <mgrwgt>
 0.3106340536D-01    9    4    0
 0.301061543654558D+03 0.000000000000000D+00 0.000000000000000D+00 0.301061543654558D+03
 0.301061543654558D+03 0.000000000000000D+00 0.000000000000000D+00 -.301061543654558D+03
 0.244721885143346D+03 -.835290301002379D+02 -.130603145440788D+03 0.142230519227059D+03
 0.124333007036566D+03 -.784260337609649D+02 0.305336292059479D+02 -.777817528682542D+01
 0.233068195129203D+03 0.161955063861203D+03 0.100069516234841D+03 -.134452343940234D+03
 0.000000000000000D+00 -.000000000000000D+00 -.000000000000000D+00 0.000000000000000D+00
 0.310946082789510D+03 0.000000000000000D+00 0.000000000000000D+00 0.310946082789510D+03
 0.304374389353517D+03 0.000000000000000D+00 0.000000000000000D+00 -.304374389353517D+03
 0.242965307403717D+03 -.789656766646537D+02 -.130161599218345D+03 0.142230519227059D+03
 0.122942464240292D+03 -.761122445357576D+02 0.307575094962523D+02 -.777817528682542D+01
 0.236321751106285D+03 0.166347207547805D+03 0.100494496346643D+03 -.134452343940234D+03
 0.130909493927333D+02 -.112692863473939D+02 -.109040662455012D+01 0.657169343599364D+01
 0.301061543654558D+03 0.000000000000000D+00 0.000000000000000D+00 0.301061543654558D+03
 0.301061543654558D+03 0.000000000000000D+00 0.000000000000000D+00 -.301061543654558D+03
 0.244721885143346D+03 -.835290301002379D+02 -.130603145440788D+03 0.142230519227059D+03
 0.124333007036566D+03 -.784260337609649D+02 0.305336292059479D+02 -.777817528682542D+01
 0.000000000000000D+00 -.000000000000000D+00 -.000000000000000D+00 0.000000000000000D+00
 0.233068195129203D+03 0.161955063861203D+03 0.100069516234841D+03 -.134452343940234D+03
 0.310946082789510D+03 0.000000000000000D+00 0.000000000000000D+00 0.310946082789510D+03
 0.304374389353517D+03 0.000000000000000D+00 0.000000000000000D+00 -.304374389353517D+03
 0.242965307403717D+03 -.789656766646537D+02 -.130161599218345D+03 0.142230519227059D+03
 0.122942464240292D+03 -.761122445357576D+02 0.307575094962523D+02 -.777817528682542D+01
 0.130909493927333D+02 -.112692863473939D+02 -.109040662455012D+01 0.657169343599364D+01
 0.236321751106285D+03 0.166347207547805D+03 0.100494496346643D+03 -.134452343940234D+03
0.288030420870D-04 0.000000000000D+00 0.000000000000D+00 0.464930442737D-06 0.000000000000D+00  6 2 -2 25 23 21 21 2 0.16595400D+00 0.12926952D-01 0.65949505D+05 0.65949505D+05 0.65949505D+05 0.11805540D+01  1  2  2  1  6  1        2 0.414299366223D-02 0.100000000000D+01
-.278947461538D-05 0.151997828998D-05 -.110611265629D-06 0.464930442737D-06 0.000000000000D+00  6 2 -2 25 23 21 21 4 0.16595400D+00 0.12926952D-01 0.65949505D+05 0.65949505D+05 0.65949505D+05 0.11805540D+01  1  2  3  1  6  1        2 -.559203675779D-03 0.100000000000D+01
0.504154237475D-06 0.000000000000D+00 0.000000000000D+00 0.464930442737D-06 0.000000000000D+00  6 2 -2 25 23 21 21 4 0.16595400D+00 0.12926952D-01 0.65949505D+05 0.65949505D+05 0.65949505D+05 0.11805540D+01  1  2 15  1  6  1        2 0.101067384231D-03 0.100000000000D+01
0.143544470806D-03 0.000000000000D+00 0.000000000000D+00 0.463450547224D-06 0.000000000000D+00  6 2 -2 25 23 21 21 4 0.17287931D+00 0.12926952D-01 0.68997716D+05 0.68997716D+05 0.68997716D+05 0.11786736D+01  1  2 12  1  6  1        2 0.268951047633D-01 0.100000000000D+01
-.830875028310D-04 0.000000000000D+00 0.000000000000D+00 0.464930442737D-06 0.000000000000D+00  6 2 -2 25 23 21 21 4 0.16595400D+00 0.12926952D-01 0.65949505D+05 0.65949505D+05 0.65949505D+05 0.11805540D+01  1  2  4  1  6  1        2 -.166564831736D-01 0.100000000000D+01
-.149261751678D-02 0.000000000000D+00 -.199814738970D-03 0.464930442737D-06 0.000000000000D+00  6 2 -2 25 23 21 21 4 0.17249561D+00 0.12926952D-01 0.65949505D+05 0.65949505D+05 0.65949505D+05 0.11805540D+01  1  2  5  1  6  1        2 -.282479416034D+00 0.100000000000D+01
0.149937114239D-02 0.000000000000D+00 0.199665501712D-03 0.464930442737D-06 0.000000000000D+00  6 2 -2 25 23 21 21 4 0.16595400D+00 0.12926952D-01 0.65949505D+05 0.65949505D+05 0.65949505D+05 0.11805540D+01  1  2  6  1  6  1        2 0.300577696444D+00 0.100000000000D+01
0.295918674799D-05 0.000000000000D+00 0.000000000000D+00 0.463450547224D-06 0.000000000000D+00  6 21 -2 25 23 -2 21 4 0.17287931D+00 0.12926952D-01 0.68997716D+05 0.68997716D+05 0.68997716D+05 0.11786736D+01  3  4 12  4  5  1        2 0.388090776897D-03 0.100000000000D+01
-.101125223077D-04 0.000000000000D+00 -.136802866356D-05 0.464930442737D-06 0.000000000000D+00  6 21 -2 25 23 -2 21 4 0.17249561D+00 0.12926952D-01 0.65949505D+05 0.65949505D+05 0.65949505D+05 0.11805540D+01  3  4  5  4  5  1        2 -.134644478650D-02 0.100000000000D+01
  </mgrwgt>
  </event>
  <event>
  5     66 0.43206592E-03 0.21628168E+02 0.75467711E-02 0.10776644E+00
        2 -1    0    0  502    0 0.00000000E+00 0.00000000E+00 0.13049416E+04 0.13049417E+04 0.32000000E+00 0.0000E+00 0.9000E+01
       -2 -1    0    0    0  501 0.00000000E+00 0.00000000E+00 -.42089739E+02 0.42090955E+02 0.32000000E+00 0.0000E+00 0.9000E+01
       25  1    1    2    0    0 0.10022293E+03 -.10092790E+03 0.96681691E+03 0.98518578E+03 0.12500000E+03 0.0000E+00 0.9000E+01
       23  1    1    2    0    0 -.81213924E+02 0.11122728E+03 0.18199659E+03 0.24577474E+03 0.91188000E+02 0.0000E+00 0.9000E+01
       21  1    1    2  502  501 -.19009001E+02 -.10299377E+02 0.11403839E+03 0.11607212E+03 0.75000000E+00 0.0000E+00 0.9000E+01
#aMCatNLO 1  0  0  1  2 0.56445162D+02 0.00000000D+00  -5  6  0 0.00000000D+00 0.00000000D+00 0.00000000D+00 0.00000000D+00 0.00000000D+00
  <mgrwgt>
 0.2868634748D+00    3    2    0
 0.234361895532810D+03 0.000000000000000D+00 0.000000000000000D+00 0.234361895532810D+03
 0.234361895532810D+03 0.000000000000000D+00 0.000000000000000D+00 -.234361895532810D+03
 0.226424208284945D+03 0.100226654366834D+03 -.100925879916779D+03 0.124143089275720D+03
 0.215974804560782D+03 -.812103674706182D+02 0.111229204141839D+03 -.139150297241250D+03
 0.263247782198927D+02 -.190162868962155D+02 -.103033242250594D+02 0.150072079655299D+02
 0.000000000000000D+00 0.000000000000000D+00 0.000000000000000D+00 -.000000000000000D+00
 0.357609072822791D+03 0.000000000000000D+00 0.000000000000000D+00 0.357609072822791D+03
 0.359719103230478D+03 0.000000000000000D+00 0.000000000000000D+00 -.359719103230478D+03
 0.260484442154328D+03 0.447457576848921D+02 -.186583641187370D+03 0.124143089275720D+03
 0.214247096326847D+03 -.130232081937841D+03 0.355438679984667D+02 -.139150297241250D+03
 0.370685529932662D+02 -.262396518049891D+02 -.214555820999305D+02 0.150072079655299D+02
 0.205528084578826D+03 0.111725976057938D+03 0.172495355288833D+03 -.211003040768692D+01
0.599812615934D-03 0.000000000000D+00 0.000000000000D+00 0.123487794990D-04 0.000000000000D+00  6 2 -2 25 23 21 21 2 0.20076035D+00 0.64754410D-02 0.35374021D+05 0.35374021D+05 0.35374021D+05 0.12074586D+01  1  2  2  1  6  1        2 0.200296801694D+00 0.100000000000D+01
0.174399347975D-03 0.316529813594D-04 -.230343837948D-05 0.123487794990D-04 0.000000000000D+00  6 2 -2 25 23 21 21 4 0.20076035D+00 0.64754410D-02 0.35374021D+05 0.35374021D+05 0.35374021D+05 0.12074586D+01  1  2  3  1  6  1        2 0.849078312195D-01 0.100000000000D+01
0.340723511057D-05 0.000000000000D+00 0.000000000000D+00 0.123487794990D-04 0.000000000000D+00  6 2 -2 25 23 21 21 4 0.20076035D+00 0.64754410D-02 0.35374021D+05 0.35374021D+05 0.35374021D+05 0.12074586D+01  1  2 15  1  6  1        2 0.165884188819D-02 0.100000000000D+01
  </mgrwgt>
  </event>
  <event>
  5     66 -.43206592E-03 0.24337467E+02 0.75467711E-02 0.11489946E+00
        2 -1    0    0  502    0 0.00000000E+00 0.00000000E+00 0.97898749E+02 0.97899272E+02 0.32000000E+00 0.0000E+00 0.9000E+01
       -2 -1    0    0    0  501 0.00000000E+00 0.00000000E+00 -.58215821E+03 0.58215830E+03 0.32000000E+00 0.0000E+00 0.9000E+01
       25  1    1    2    0    0 0.10928674E+03 0.10211430E+03 -.53383158E+02 0.20210315E+03 0.12500000E+03 0.0000E+00 0.9000E+01
       23  1    1    2    0    0 -.13019723E+03 -.89677050E+02 -.37989564E+03 0.42146084E+03 0.91188000E+02 0.0000E+00 0.9000E+01
       21  1    1    2  502  501 0.20910485E+02 -.12437255E+02 -.50980661E+02 0.56493574E+02 0.75000000E+00 0.0000E+00 0.9000E+01
#aMCatNLO 1  0  0  2  5 0.67206547D+01 0.00000000D+00  -5  6  0 0.00000000D+00 0.00000000D+00 0.00000000D+00 0.00000000D+00 0.00000000D+00
  <mgrwgt>
 -.2391091249D-01    1    2    0
 0.238731581702036D+03 0.000000000000000D+00 0.000000000000000D+00 0.238731581702036D+03
 0.238731581702036D+03 0.000000000000000D+00 0.000000000000000D+00 -.238731581702036D+03
 0.233716053528543D+03 0.109283258011004D+03 0.102116375944477D+03 0.128948086296088D+03
 0.214989426558663D+03 -.130200429534029D+03 -.896751445402499D+02 -.113628424211824D+03
 0.287576833168666D+02 0.209171715230248D+02 -.124412314042270D+02 -.153196620842636D+02
 0.000000000000000D+00 0.000000000000000D+00 0.000000000000000D+00 0.000000000000000D+00
 0.312471625498943D+03 0.000000000000000D+00 0.000000000000000D+00 0.312471625498943D+03
 0.253402628805285D+03 0.000000000000000D+00 0.000000000000000D+00 -.253402628805285D+03
 0.217557589638439D+03 0.955269035127308D+02 0.771576733392967D+02 0.128948086296088D+03
 0.234639880205610D+03 -.143906659069738D+03 -.114542903426736D+03 -.113628424211824D+03
 0.290893121385726D+02 0.191537984827549D+02 -.156405894390620D+02 -.153196620842636D+02
 0.845874723216067D+02 0.292259570742526D+02 0.530258195265015D+02 0.590689966936583D+02
-.267955737137D-03 0.000000000000D+00 0.000000000000D+00 0.104490289490D-04 0.000000000000D+00  6 2 -2 25 23 21 21 4 0.15061393D-01 0.89562848D-01 0.40354715D+05 0.40354715D+05 0.40354715D+05 0.12016111D+01  1  2 14  2  6  2       -2 -.239109124904D-01 0.100000000000D+01
  </mgrwgt>
  </event>
  <event>
  5     66 0.43206592E-03 0.44869661E+02 0.75467711E-02 0.11904052E+00
        2 -1    0    0  502    0 0.00000000E+00 0.00000000E+00 0.11588484E+04 0.11588485E+04 0.32000000E+00 0.0000E+00 0.9000E+01
       -2 -1    0    0    0  501 0.00000000E+00 0.00000000E+00 -.27117242E+02 0.27119130E+02 0.32000000E+00 0.0000E+00 0.9000E+01
       25  1    1    2    0    0 0.62637156E+02 -.36691751E+02 0.58600837E+03 0.60357312E+03 0.12500000E+03 0.0000E+00 0.9000E+01
       23  1    1    2    0    0 -.46345427E+02 0.78497318E+02 0.50694967E+03 0.52308981E+03 0.91188000E+02 0.0000E+00 0.9000E+01
       21  1    1    2  502  501 -.16291729E+02 -.41805566E+02 0.38773157E+02 0.59304688E+02 0.75000000E+00 0.0000E+00 0.9000E+01
#aMCatNLO 1  0  0  5  1 0.73470687D+01 0.00000000D+00  -5  6  0 0.00000000D+00 0.00000000D+00 0.00000000D+00 0.00000000D+00 0.00000000D+00
  <mgrwgt>
 0.8598426573D-01   20    2    0
 0.177273571223729D+03 0.000000000000000D+00 0.000000000000000D+00 0.177273571223729D+03
 0.177273571223729D+03 -.000000000000000D+00 -.000000000000000D+00 -.177273571223729D+03
 0.148398572706588D+03 0.626375007623027D+02 -.366908671056312D+02 0.335776733953094D+02
 0.131539685398708D+03 -.463451218183635D+02 0.784981014584310D+02 0.260310438103066D+02
 0.746088843421608D+02 -.162923789439391D+02 -.418072343527998D+02 -.596087172056159D+02
 0.000000000000000D+00 0.000000000000000D+00 0.000000000000000D+00 -.000000000000000D+00
 0.177273571223729D+03 0.000000000000000D+00 0.000000000000000D+00 0.177273571223729D+03
 0.177273571223729D+03 -.000000000000000D+00 -.000000000000000D+00 -.177273571223729D+03
 0.148154522591901D+03 0.622214355517920D+02 -.377585157173975D+02 0.320554209631898D+02
 0.130848101897040D+03 -.467132529614452D+02 0.775534545763313D+02 0.246841671339144D+02
 0.860836926994246D+01 -.640462299834241D+01 -.574948535989210D+01 0.168059016956030D+00
 0.669361486885747D+02 -.910355959200440D+01 -.340454534990417D+02 -.569076471140602D+02
0.625930623851D-04 0.000000000000D+00 0.000000000000D+00 0.656432872549D-05 0.000000000000D+00  6 2 -2 25 23 21 21 2 0.17828452D+00 0.41720320D-02 0.25337926D+05 0.25337926D+05 0.25337926D+05 0.12226730D+01  1  2  2  3  6  5       21 0.500970824832D-01 0.100000000000D+01
0.236034023852D-05 0.330312665034D-05 -.240373840691D-06 0.656432872549D-05 0.000000000000D+00  6 2 -2 25 23 21 21 4 0.17828452D+00 0.41720320D-02 0.25337926D+05 0.25337926D+05 0.25337926D+05 0.12226730D+01  1  2  3  3  6  5       21 0.282410910144D-02 0.100000000000D+01
0.311805563924D-06 0.000000000000D+00 0.000000000000D+00 0.656432872549D-05 0.000000000000D+00  6 2 -2 25 23 21 21 4 0.17828452D+00 0.41720320D-02 0.25337926D+05 0.25337926D+05 0.25337926D+05 0.12226730D+01  1  2 15  3  6  5       21 0.373070338161D-03 0.100000000000D+01
0.283373338299D-05 0.000000000000D+00 0.000000000000D+00 0.656862356905D-05 0.000000000000D+00  6 2 -2 25 23 21 21 4 0.17828452D+00 0.41720320D-02 0.25121002D+05 0.25121002D+05 0.25121002D+05 0.12230729D+01  1  2 12  3  6  5       21 0.339447921816D-02 0.100000000000D+01
-.164236536380D-04 0.000000000000D+00 0.000000000000D+00 0.656432872549D-05 0.000000000000D+00  6 2 -2 25 23 21 21 4 0.17828452D+00 0.41720320D-02 0.25337926D+05 0.25337926D+05 0.25337926D+05 0.12226730D+01  1  2  4  3  6  5       21 -.196506372094D-01 0.100000000000D+01
-.359467837523D-05 0.000000000000D+00 0.000000000000D+00 0.656432872549D-05 0.000000000000D+00  6 2 -2 25 23 21 21 4 0.17828452D+00 0.41720320D-02 0.25337926D+05 0.25337926D+05 0.25337926D+05 0.12226730D+01  1  2  5  3  6  5       21 -.430097481312D-02 0.100000000000D+01
0.476238884838D-04 0.000000000000D+00 -.000000000000D+00 0.656432872549D-05 0.000000000000D+00  6 2 -2 25 23 21 21 4 0.17828452D+00 0.41720320D-02 0.25337926D+05 0.25337926D+05 0.25337926D+05 0.12226730D+01  1  2  6  3  6  5       21 0.569812159782D-01 0.100000000000D+01
0.980334076733D-07 0.000000000000D+00 0.000000000000D+00 0.656432872549D-05 0.881293521859D-06  6 2 -2 25 23 21 21 4 0.17828452D+00 0.41720320D-02 0.25121002D+05 0.25121002D+05 0.25121002D+05 0.12230729D+01  1  2 11  3  6  5       21 0.117432489249D-03 0.100000000000D+01
0.145078044616D-05 0.000000000000D+00 0.000000000000D+00 0.656862356905D-05 0.000000000000D+00  6 2 -2 25 23 1 -1 4 0.17828452D+00 0.41720320D-02 0.25121002D+05 0.25121002D+05 0.25121002D+05 0.12230729D+01  1  2 12  6  6  5       21 0.173786429739D-02 0.100000000000D+01
0.145078044616D-05 0.000000000000D+00 0.000000000000D+00 0.656862356905D-05 0.000000000000D+00  6 2 -2 25 23 3 -3 4 0.17828452D+00 0.41720320D-02 0.25121002D+05 0.25121002D+05 0.25121002D+05 0.12230729D+01  1  2 12  6  6  5       21 0.173786429739D-02 0.100000000000D+01
-.229049011131D-05 0.000000000000D+00 0.000000000000D+00 0.656432872549D-05 0.000000000000D+00  6 2 -2 25 23 1 -1 4 0.17828452D+00 0.41720320D-02 0.25337926D+05 0.25337926D+05 0.25337926D+05 0.12226730D+01  1  2  5  6  6  5       21 -.274053454860D-02 0.100000000000D+01
-.229049011131D-05 0.000000000000D+00 0.000000000000D+00 0.656432872549D-05 0.000000000000D+00  6 2 -2 25 23 3 -3 4 0.17828452D+00 0.41720320D-02 0.25337926D+05 0.25337926D+05 0.25337926D+05 0.12226730D+01  1  2  5  6  6  5       21 -.274053454860D-02 0.100000000000D+01
0.340065704343D-07 0.000000000000D+00 0.000000000000D+00 0.656432872549D-05 0.660482313847D-08  6 2 -2 25 23 1 -1 4 0.17828452D+00 0.41720320D-02 0.25121002D+05 0.25121002D+05 0.25121002D+05 0.12230729D+01  1  2 11  6  6  5       21 0.407358706761D-04 0.100000000000D+01
0.340065704343D-07 0.000000000000D+00 0.000000000000D+00 0.656432872549D-05 0.660482313847D-08  6 2 -2 25 23 3 -3 4 0.17828452D+00 0.41720320D-02 0.25121002D+05 0.25121002D+05 0.25121002D+05 0.12230729D+01  1  2 11  6  6  5       21 0.407358706761D-04 0.100000000000D+01
0.145078044616D-05 0.000000000000D+00 0.000000000000D+00 0.656862356905D-05 0.000000000000D+00  6 2 -2 25 23 2 -2 4 0.17828452D+00 0.41720320D-02 0.25121002D+05 0.25121002D+05 0.25121002D+05 0.12230729D+01  1  2 12  7  6  5       21 0.173786429739D-02 0.100000000000D+01
-.229049011131D-05 0.000000000000D+00 0.000000000000D+00 0.656432872549D-05 0.000000000000D+00  6 2 -2 25 23 2 -2 4 0.17828452D+00 0.41720320D-02 0.25337926D+05 0.25337926D+05 0.25337926D+05 0.12226730D+01  1  2  5  7  6  5       21 -.274053454860D-02 0.100000000000D+01
0.310032922875D-07 0.000000000000D+00 0.000000000000D+00 0.656432872549D-05 0.713546837405D-08  6 2 -2 25 23 2 -2 4 0.17828452D+00 0.41720320D-02 0.25121002D+05 0.25121002D+05 0.25121002D+05 0.12230729D+01  1  2 11  7  6  5       21 0.371382967771D-04 0.100000000000D+01
0.145078044616D-05 0.000000000000D+00 0.000000000000D+00 0.656862356905D-05 0.000000000000D+00  6 2 -2 25 23 4 -4 4 0.17828452D+00 0.41720320D-02 0.25121002D+05 0.25121002D+05 0.25121002D+05 0.12230729D+01  1  2 12  8  6  5       21 0.173786429739D-02 0.100000000000D+01
-.229049011131D-05 0.000000000000D+00 0.000000000000D+00 0.656432872549D-05 0.000000000000D+00  6 2 -2 25 23 4 -4 4 0.17828452D+00 0.41720320D-02 0.25337926D+05 0.25337926D+05 0.25337926D+05 0.12226730D+01  1  2  5  8  6  5       21 -.274053454860D-02 0.100000000000D+01
0.338590102474D-07 0.000000000000D+00 0.000000000000D+00 0.656432872549D-05 0.657616370813D-08  6 2 -2 25 23 4 -4 4 0.17828452D+00 0.41720320D-02 0.25121002D+05 0.25121002D+05 0.25121002D+05 0.12230729D+01  1  2 11  8  6  5       21 0.405591109319D-04 0.100000000000D+01
  </mgrwgt>
  </event>
  <event>
  6     66 0.43206592E-03 0.37906525E+02 0.75467711E-02 0.11498733E+00
        2 -1    0    0  503    0 0.00000000E+00 0.00000000E+00 0.14209969E+04 0.14209970E+04 0.32000000E+00 0.0000E+00 0.9000E+01
       -2 -1    0    0    0  501 0.00000000E+00 0.00000000E+00 -.57413304E+02 0.57414196E+02 0.32000000E+00 0.0000E+00 0.9000E+01
       25  1    1    2    0    0 -.12365840E+03 0.47528239E+01 0.19101686E+03 0.25966599E+03 0.12500000E+03 0.0000E+00 0.9000E+01
       23  1    1    2    0    0 0.60243698E+02 -.72362000E+02 0.32210145E+03 0.34775013E+03 0.91188000E+02 0.0000E+00 0.9000E+01
       21  1    1    2  502  501 0.25464483E+02 0.26192581E+02 0.26548191E+02 0.45164811E+02 0.75000000E+00 0.0000E+00 0.9000E+01
       21  1    1    2  503  502 0.37950220E+02 0.41416595E+02 0.82391712E+03 0.82583021E+03 0.75000000E+00 0.0000E+00 0.9000E+01
#aMCatNLO 2  0  0  1  5 0.56174314D+02 0.00000000D+00  -5  6  0 0.00000000D+00 0.00000000D+00 0.00000000D+00 0.00000000D+00 0.00000000D+00
  <mgrwgt>
 0.8425172254D-01    1    2    0
 0.181291480503710D+03 0.000000000000000D+00 0.000000000000000D+00 0.181291480503710D+03
 0.181291480503710D+03 0.000000000000000D+00 0.000000000000000D+00 -.181291480503710D+03
 0.170641946587832D+03 -.105372855494485D+03 0.247086658377043D+02 -.421866933136934D+02
 0.144510671095693D+03 0.752900239358213D+02 -.559412622307817D+02 0.614008973248587D+02
 0.474303433238944D+02 0.300828315586640D+02 0.312325963930774D+02 -.192142040111653D+02
 0.000000000000000D+00 0.000000000000000D+00 0.000000000000000D+00 0.000000000000000D+00
 0.437304129515329D+03 0.000000000000000D+00 0.000000000000000D+00 0.437304129515329D+03
 0.186562022217460D+03 0.000000000000000D+00 0.000000000000000D+00 -.186562022217460D+03
 0.180884342290859D+03 -.123660248793610D+03 0.475090113091139D+01 -.421866933136934D+02
 0.144744360479040D+03 0.602421578344519D+02 -.723636011654855D+02 0.614008973248587D+02
 0.412799468234955D+02 0.254678709798135D+02 0.261961050868925D+02 -.192142040111653D+02
 0.256957502139395D+03 0.379502199793445D+02 0.414165949476816D+02 0.250742107297869D+03
0.329635537428D-03 0.000000000000D+00 0.000000000000D+00 0.512417244061D-05 0.125398837655D-07  6 2 -2 25 23 21 21 4 0.21861435D+00 0.88328619D-02 0.39936374D+05 0.39936374D+05 0.39936374D+05 0.12020705D+01  1  2  1  1  6  1        2 0.842517225446D-01 0.100000000000D+01
  </mgrwgt>
  </event>
  <event>
  5     66 0.43206592E-03 0.61899749E+02 0.75467711E-02 0.10400373E+00
        2 -1    0    0  502    0 0.00000000E+00 0.00000000E+00 0.86323602E+03 0.86323608E+03 0.32000000E+00 0.0000E+00 0.9000E+01
       -2 -1    0    0    0  501 0.00000000E+00 0.00000000E+00 -.74585696E+02 0.74586383E+02 0.32000000E+00 0.0000E+00 0.9000E+01
       25  1    1    2    0    0 -.58454428E+02 0.16878835E+03 0.34167851E+03 0.40530930E+03 0.12500000E+03 0.0000E+00 0.9000E+01
       23  1    1    2    0    0 0.99624546E+02 -.12256715E+03 0.17211567E+03 0.25077243E+03 0.91188000E+02 0.0000E+00 0.9000E+01
       21  1    1    2  502  501 -.41170118E+02 -.46221200E+02 0.27485614E+03 0.28174073E+03 0.75000000E+00 0.0000E+00 0.9000E+01
#aMCatNLO 1  0  0  2  2 0.29778426D+03 0.00000000D+00  -5  6  0 0.00000000D+00 0.00000000D+00 0.00000000D+00 0.00000000D+00 0.00000000D+00
  <mgrwgt>
 0.1237964954D+00    5    4    0
 0.253742800987923D+03 0.000000000000000D+00 0.000000000000000D+00 0.253742800987923D+03
 0.253742800987923D+03 0.000000000000000D+00 0.000000000000000D+00 -.253742800987923D+03
 0.218022873692278D+03 -.584538589748494D+02 0.168788984063583D+03 0.154876814626226D+01
 0.195948510360403D+03 0.996250568852142D+02 -.122566571541553D+03 -.716439177434346D+02
 0.935142179231645D+02 -.411711979103648D+02 -.462224125220299D+02 0.700951495971723D+02
 0.000000000000000D+00 -.000000000000000D+00 -.000000000000000D+00 -.000000000000000D+00
 0.352945713241040D+03 0.000000000000000D+00 0.000000000000000D+00 0.352945713241040D+03
 0.671577972433798D+03 0.000000000000000D+00 0.000000000000000D+00 -.671577972433798D+03
 0.332811720512356D+03 -.451182126955456D+01 0.308408634925249D+03 0.154876814626226D+01
 0.181172208090497D+03 0.136555671316756D+03 -.269780525981436D+02 -.716439177434346D+02
 0.744182328020870D+02 -.247259370566160D+02 -.365669427323548D+01 0.700951495971723D+02
 0.436121524269898D+03 -.107317912990586D+03 -.277773888053870D+03 -.318632259192758D+03
 0.253742800987923D+03 0.000000000000000D+00 0.000000000000000D+00 0.253742800987923D+03
 0.253742800987923D+03 0.000000000000000D+00 0.000000000000000D+00 -.253742800987923D+03
 0.218022873692278D+03 -.584538589748494D+02 0.168788984063583D+03 0.154876814626226D+01
 0.195948510360403D+03 0.996250568852142D+02 -.122566571541553D+03 -.716439177434346D+02
 0.000000000000000D+00 -.000000000000000D+00 -.000000000000000D+00 -.000000000000000D+00
 0.935142179231645D+02 -.411711979103648D+02 -.462224125220299D+02 0.700951495971723D+02
 0.352945713241040D+03 0.000000000000000D+00 0.000000000000000D+00 0.352945713241040D+03
 0.671577972433798D+03 0.000000000000000D+00 0.000000000000000D+00 -.671577972433798D+03
 0.332811720512356D+03 -.451182126955456D+01 0.308408634925249D+03 0.154876814626226D+01
 0.181172208090497D+03 0.136555671316756D+03 -.269780525981436D+02 -.716439177434346D+02
 0.436121524269898D+03 -.107317912990586D+03 -.277773888053870D+03 -.318632259192758D+03
 0.744182328020870D+02 -.247259370566160D+02 -.365669427323548D+01 0.700951495971723D+02
0.461722863228D-03 0.000000000000D+00 0.000000000000D+00 0.234789823955D-05 0.000000000000D+00  6 2 -2 25 23 21 21 2 0.13280560D+00 0.11474780D-01 0.53429976D+05 0.53429976D+05 0.53429976D+05 0.11894385D+01  1  2  2  2  6  2       -2 0.111411643063D+00 0.100000000000D+01
0.220157063459D-04 0.243657849047D-04 -.177313736922D-05 0.234789823955D-05 0.000000000000D+00  6 2 -2 25 23 21 21 4 0.13280560D+00 0.11474780D-01 0.53429976D+05 0.53429976D+05 0.53429976D+05 0.11894385D+01  1  2  3  2  6  2       -2 0.751563771136D-02 0.100000000000D+01
0.190509318899D-04 0.000000000000D+00 0.000000000000D+00 0.234789823955D-05 0.000000000000D+00  6 2 -2 25 23 21 21 4 0.13280560D+00 0.11474780D-01 0.53429976D+05 0.53429976D+05 0.53429976D+05 0.11894385D+01  1  2 15  2  6  2       -2 0.650353433584D-02 0.100000000000D+01
-.443124273362D-04 0.000000000000D+00 -.244709364105D-03 0.234789823955D-05 0.000000000000D+00  6 2 -2 25 23 21 21 4 0.13280560D+00 0.41553012D-01 0.53429976D+05 0.53429976D+05 0.53429976D+05 0.11894385D+01  1  2  5  2  6  2       -2 -.160353199661D-02 0.100000000000D+01
-.689518182428D-07 0.000000000000D+00 -.370446468623D-04 0.234789823955D-05 0.000000000000D+00  6 2 21 25 23 2 21 4 0.13280560D+00 0.41553012D-01 0.53429976D+05 0.53429976D+05 0.53429976D+05 0.11894385D+01  3  4  5  5  5  2       -2 -.307877431078D-04 0.100000000000D+01
  </mgrwgt>
  </event>
  <event>
  6     66 -.43206592E-03 0.18721951E+02 0.75467711E-02 0.12117816E+00
        2 -1    0    0  502    0 0.00000000E+00 0.00000000E+00 0.40260568E+03 0.40260581E+03 0.32000000E+00 0.0000E+00 0.9000E+01
       -2 -1    0    0    0  501 0.00000000E+00 0.00000000E+00 -.53439404E+02 0.53440362E+02 0.32000000E+00 0.0000E+00 0.9000E+01
       25  1    1    2    0    0 0.15553615E+02 0.57698984E+02 0.21978813E+03 0.25981322E+03 0.12500000E+03 0.0000E+00 0.9000E+01
       23  1    1    2    0    0 -.28057855E+02 -.75132265E+02 0.12207933E+03 0.17219383E+03 0.91188000E+02 0.0000E+00 0.9000E+01
       21  1    1    2  503  501 0.55069429E+01 0.56360026E+01 -.10183172E+01 0.79806275E+01 0.75000000E+00 0.0000E+00 0.9000E+01
       21  1    1    2  502  503 0.69972972E+01 0.11797278E+02 0.83171278E+01 0.16058489E+02 0.75000000E+00 0.0000E+00 0.9000E+01
#aMCatNLO 2  0  0  5  2 0.38482353D+01 0.00000000D+00  -5  6  0 0.00000000D+00 0.00000000D+00 0.00000000D+00 0.00000000D+00 0.00000000D+00
  <mgrwgt>
 -.1916104336D-01    2    2    0
 0.146680793580207D+03 0.000000000000000D+00 0.000000000000000D+00 0.146680793580207D+03
 0.146680793580207D+03 -.000000000000000D+00 -.000000000000000D+00 -.146680793580207D+03
 0.142206354139563D+03 0.153011882873133D+02 0.573470538344196D+02 0.327846947702015D+02
 0.122582021443086D+03 -.282752013703184D+02 -.754352871989469D+02 -.148704764467537D+02
 0.285732115777652D+02 0.129740130830051D+02 0.180882333645273D+02 -.179142183234477D+02
 0.000000000000000D+00 0.000000000000000D+00 0.000000000000000D+00 0.000000000000000D+00
 0.146680793580207D+03 0.000000000000000D+00 0.000000000000000D+00 0.146680793580207D+03
 0.146680793580207D+03 -.000000000000000D+00 -.000000000000000D+00 -.146680793580207D+03
 0.142289433139554D+03 0.155349616438285D+02 0.576729782033872D+02 0.324619059060293D+02
 0.122397259218107D+03 -.280738991673418D+02 -.751546337726756D+02 -.151484298903060D+02
 0.131731000744172D+02 0.532607060144255D+01 0.542831667635216D+01 -.107562500705542D+02
 0.155017947283360D+02 0.721286692207073D+01 0.120533388929362D+02 -.655722594516899D+01
-.604870332087D-05 0.000000000000D+00 0.000000000000D+00 0.245738339555D-04 0.000000000000D+00  6 2 -2 25 23 21 21 4 0.61939419D-01 0.82215303D-02 0.19830941D+05 0.19830941D+05 0.19830941D+05 0.12342321D+01  1  2 13  3  6  5       21 -.965433178334D-02 0.100000000000D+01
-.595621521828D-05 0.000000000000D+00 0.000000000000D+00 0.245738339555D-04 0.000000000000D+00  6 2 -2 25 23 21 21 4 0.61939419D-01 0.82215303D-02 0.19830941D+05 0.19830941D+05 0.19830941D+05 0.12342321D+01  1  2 13  3  6  5       21 -.950671157765D-02 0.100000000000D+01
  </mgrwgt>
  </event>
  <event>
  5     66 0.43206592E-03 0.46443220E+02 0.75467711E-02 0.11774736E+00
        2 -1    0    0  502    0 0.00000000E+00 0.00000000E+00 0.19131528E+04 0.19131528E+04 0.32000000E+00 0.0000E+00 0.9000E+01
       -2 -1    0    0    0  501 0.00000000E+00 0.00000000E+00 -.13215989E+02 0.13219862E+02 0.32000000E+00 0.0000E+00 0.9000E+01
       25  1    1    2    0    0 -.25198820E+01 0.91369935E+01 0.75550302E+03 0.76583265E+03 0.12500000E+03 0.0000E+00 0.9000E+01
       23  1    1    2    0    0 0.55573791E+02 0.13382194E+02 0.98764952E+03 0.99349603E+03 0.91188000E+02 0.0000E+00 0.9000E+01
       21  1    1    2  502  501 -.53053909E+02 -.22519187E+02 0.15678423E+03 0.16704397E+03 0.75000000E+00 0.0000E+00 0.9000E+01
#aMCatNLO 1  0  0  1  5 0.45388574D+02 0.00000000D+00  -5  6  0 0.00000000D+00 0.00000000D+00 0.00000000D+00 0.00000000D+00 0.00000000D+00
  <mgrwgt>
 0.5902892925D-01    9    4    0
 0.159021892768773D+03 0.000000000000000D+00 0.000000000000000D+00 0.159021892768773D+03
 0.159021892768773D+03 0.000000000000000D+00 0.000000000000000D+00 -.159021892768773D+03
 0.125363583069288D+03 -.251884116191687D+01 0.913743530369304D+01 0.109118066434166D+01
 0.117506487306058D+03 0.555747671025362D+02 0.133826079399843D+02 0.471685730251858D+02
 0.751737151621990D+02 -.530559259406193D+02 -.225200432436774D+02 -.482597536895274D+02
 0.000000000000000D+00 0.000000000000000D+00 0.000000000000000D+00 0.000000000000000D+00
 0.215218802966800D+03 0.000000000000000D+00 0.000000000000000D+00 0.215218802966800D+03
 0.170068367589772D+03 0.000000000000000D+00 0.000000000000000D+00 -.170068367589772D+03
 0.125626468250184D+03 -.104577888573878D+02 -.681568059598357D+01 0.109118066434166D+01
 0.113453697110904D+03 0.482693746609501D+02 -.129739459734583D+01 0.471685730251858D+02
 0.821860360831373D+02 -.580332978640941D+02 -.325219470496804D+02 -.482597536895274D+02
 0.640209691123474D+02 0.202217120605317D+02 0.406350222430098D+02 0.451504353770280D+02
 0.159021892768773D+03 0.000000000000000D+00 0.000000000000000D+00 0.159021892768773D+03
 0.159021892768773D+03 0.000000000000000D+00 0.000000000000000D+00 -.159021892768773D+03
 0.125363583069288D+03 -.251884116191687D+01 0.913743530369304D+01 0.109118066434166D+01
 0.117506487306058D+03 0.555747671025362D+02 0.133826079399843D+02 0.471685730251858D+02
 0.000000000000000D+00 0.000000000000000D+00 0.000000000000000D+00 0.000000000000000D+00
 0.751737151621990D+02 -.530559259406193D+02 -.225200432436774D+02 -.482597536895274D+02
 0.215218802966800D+03 0.000000000000000D+00 0.000000000000000D+00 0.215218802966800D+03
 0.170068367589772D+03 0.000000000000000D+00 0.000000000000000D+00 -.170068367589772D+03
 0.125626468250184D+03 -.104577888573878D+02 -.681568059598357D+01 0.109118066434166D+01
 0.113453697110904D+03 0.482693746609501D+02 -.129739459734583D+01 0.471685730251858D+02
 0.640209691123474D+02 0.202217120605317D+02 0.406350222430098D+02 0.451504353770280D+02
 0.821860360831373D+02 -.580332978640941D+02 -.325219470496804D+02 -.482597536895274D+02
0.202911806370D-04 0.000000000000D+00 0.000000000000D+00 0.471039930562D-05 0.000000000000D+00  6 2 -2 25 23 21 21 2 0.29433149D+00 0.20335291D-02 0.21115031D+05 0.21115031D+05 0.21115031D+05 0.12312405D+01  1  2  2  1  6  1        2 0.189678730423D-01 0.100000000000D+01
-.404409155319D-06 0.107079502065D-05 -.779234764366D-07 0.471039930562D-05 0.000000000000D+00  6 2 -2 25 23 21 21 4 0.29433149D+00 0.20335291D-02 0.21115031D+05 0.21115031D+05 0.21115031D+05 0.12312405D+01  1  2  3  1  6  1        2 -.573083741910D-03 0.100000000000D+01
0.872970326912D-06 0.000000000000D+00 0.000000000000D+00 0.471039930562D-05 0.000000000000D+00  6 2 -2 25 23 21 21 4 0.29433149D+00 0.20335291D-02 0.21115031D+05 0.21115031D+05 0.21115031D+05 0.12312405D+01  1  2 15  1  6  1        2 0.123707659667D-02 0.100000000000D+01
0.393790105582D-04 0.000000000000D+00 0.000000000000D+00 0.459761898708D-05 0.000000000000D+00  6 2 -2 25 23 21 21 4 0.42275380D+00 0.20335291D-02 0.29022308D+05 0.29022308D+05 0.29022308D+05 0.12164115D+01  1  2 12  1  6  1        2 0.192007748381D-01 0.100000000000D+01
-.296521128427D-04 0.000000000000D+00 0.000000000000D+00 0.471039930562D-05 0.000000000000D+00  6 2 -2 25 23 21 21 4 0.29433149D+00 0.20335291D-02 0.21115031D+05 0.21115031D+05 0.21115031D+05 0.12312405D+01  1  2  4  1  6  1        2 -.420196812063D-01 0.100000000000D+01
-.706482659592D-04 0.000000000000D+00 -.171887567204D-04 0.471039930562D-05 0.000000000000D+00  6 2 -2 25 23 21 21 4 0.40677973D+00 0.20335291D-02 0.21115031D+05 0.21115031D+05 0.21115031D+05 0.12312405D+01  1  2  5  1  6  1        2 -.413923299294D-01 0.100000000000D+01
0.732063839626D-04 0.000000000000D+00 0.163266210885D-04 0.471039930562D-05 0.000000000000D+00  6 2 -2 25 23 21 21 4 0.29433149D+00 0.20335291D-02 0.21115031D+05 0.21115031D+05 0.21115031D+05 0.12312405D+01  1  2  6  1  6  1        2 0.103739957173D+00 0.100000000000D+01
0.174334702717D-05 0.000000000000D+00 0.000000000000D+00 0.459761898708D-05 0.000000000000D+00  6 21 -2 25 23 -2 21 4 0.42275380D+00 0.20335291D-02 0.29022308D+05 0.29022308D+05 0.29022308D+05 0.12164115D+01  3  4 12  4  5  1        2 0.142369136636D-03 0.100000000000D+01
-.245133147728D-05 0.000000000000D+00 -.701677529594D-06 0.471039930562D-05 0.000000000000D+00  6 21 -2 25 23 -2 21 4 0.40677973D+00 0.20335291D-02 0.21115031D+05 0.21115031D+05 0.21115031D+05 0.12312405D+01  3  4  5  4  5  1        2 -.274026655996D-03 0.100000000000D+01
  </mgrwgt>
  </event>
  <event>
  6     66 0.43206592E-03 0.18213490E+02 0.75467711E-02 0.12236138E+00
        2 -1    0    0  502    0 0.00000000E+00 0.00000000E+00 0.13855943E+04 0.13855943E+04 0.32000000E+00 0.0000E+00 0.9000E+01
       -2 -1    0    0    0  503 0.00000000E+00 0.00000000E+00 -.23452943E+02 0.23455126E+02 0.32000000E+00 0.0000E+00 0.9000E+01
       25  1    1    2    0    0 0.21399292E+01 -.20794688E+02 0.80236018E+03 0.81230774E+03 0.12500000E+03 0.0000E+00 0.9000E+01
       23  1    1    2    0    0 -.45947079E+01 0.30848013E+02 0.53198367E+03 0.54064275E+03 0.91188000E+02 0.0000E+00 0.9000E+01
       21  1    1    2  502  501 0.90597728E+01 -.24570571E+02 0.26786392E+01 0.26334959E+02 0.75000000E+00 0.0000E+00 0.9000E+01
       21  1    1    2  501  503 -.66049941E+01 0.14517246E+02 0.25118847E+02 0.29763994E+02 0.75000000E+00 0.0000E+00 0.9000E+01
#aMCatNLO 2  0  0  2  2 0.15949181D+02 0.00000000D+00  -5  6  0 0.00000000D+00 0.00000000D+00 0.00000000D+00 0.00000000D+00 0.00000000D+00
  <mgrwgt>
 0.4542231436D-01    1    2    0
 0.169222364613656D+03 0.000000000000000D+00 0.000000000000000D+00 0.169222364613656D+03
 0.169222364613656D+03 0.000000000000000D+00 0.000000000000000D+00 -.169222364613656D+03
 0.139800620534957D+03 -.594534820659794D+00 -.147844967552712D+02 0.608299160446528D+02
 0.103133073576404D+03 -.659149060827889D+01 0.352368248530511D+02 0.321884753778806D+02
 0.955110351159500D+02 0.718602542893868D+01 -.204523280977799D+02 -.930183914225334D+02
 0.000000000000000D+00 -.000000000000000D+00 0.000000000000000D+00 -.000000000000000D+00
 0.172826788026047D+03 0.000000000000000D+00 0.000000000000000D+00 0.172826788026047D+03
 0.188023284771883D+03 0.000000000000000D+00 0.000000000000000D+00 -.188023284771883D+03
 0.140578329452670D+03 0.213984707606707D+01 -.207944483022492D+02 0.608299160446528D+02
 0.101607441041875D+03 -.459476882612131D+01 0.308481909252419D+02 0.321884753778806D+02
 0.966345522653793D+02 0.905991580371412D+01 -.245709884686044D+02 -.930183914225334D+02
 0.220297500380061D+02 -.660499405365988D+01 0.145172458456117D+02 -.151964967458364D+02
0.386473119275D-04 0.000000000000D+00 0.000000000000D+00 0.438798703716D-04 0.375076502289D-06  6 2 -2 25 23 21 21 4 0.21316076D+00 0.36081844D-02 0.17589032D+05 0.17589032D+05 0.17589032D+05 0.12400155D+01  1  2  1  2  6  2       -2 0.454223143624D-01 0.100000000000D+01
  </mgrwgt>
  </event>
  <event>
  5     66 -.43206592E-03 0.22523408E+02 0.75467711E-02 0.11896110E+00
        4 -1    0    0  502    0 0.00000000E+00 0.00000000E+00 0.16726185E+03 0.16726903E+03 0.15500000E+01 0.0000E+00 0.9000E+01
       -4 -1    0    0    0  501 -.00000000E+00 -.00000000E+00 -.19609463E+03 0.19610075E+03 0.15500000E+01 0.0000E+00 0.9000E+01
       25  1    1    2    0    0 -.36090040E+02 0.84203973E+02 -.19362777E+02 0.15618168E+03 0.12500000E+03 0.0000E+00 0.9000E+01
       23  1    1    2    0    0 0.57688901E+02 -.90584664E+02 0.45278862E+02 0.14798317E+03 0.91188000E+02 0.0000E+00 0.9000E+01
       21  1    1    2  502  501 -.21598861E+02 0.63806911E+01 -.54748862E+02 0.59204936E+02 0.75000000E+00 0.0000E+00 0.9000E+01
#aMCatNLO 1  0  0  5  2 0.11001014D+00 0.00000000D+00  -5  6  0 0.00000000D+00 0.00000000D+00 0.00000000D+00 0.00000000D+00 0.00000000D+00
  <mgrwgt>
 -.2205622765D-01   15    2    0
 0.181112029495957D+03 0.000000000000000D+00 0.000000000000000D+00 0.181112029495957D+03
 0.181112029495957D+03 -.000000000000000D+00 -.000000000000000D+00 -.181112029495957D+03
 0.155133995193042D+03 -.360891807198886D+02 0.842037194131275D+02 -.699007414247473D+01
 0.152056608719459D+03 0.576897426088922D+02 -.905849130584152D+02 0.572033918153624D+02
 0.550334550794121D+02 -.216005618890036D+02 0.638119364528763D+01 -.502133176728876D+02
 0.000000000000000D+00 0.000000000000000D+00 0.000000000000000D+00 -.000000000000000D+00
 0.181112029495957D+03 0.000000000000000D+00 0.000000000000000D+00 0.181112029495957D+03
 0.181112029495957D+03 -.000000000000000D+00 -.000000000000000D+00 -.181112029495957D+03
 0.155134108669930D+03 -.360894087096903D+02 0.842037867654066D+02 -.699060413444415D+01
 0.152056289183254D+03 0.576895191420311D+02 -.905848470422938D+02 0.572028723375569D+02
 0.501356389108671D+02 -.197748344385625D+02 0.584016769073843D+01 -.456993506876449D+02
 0.489802222786216D+01 -.182527599377839D+01 0.540892586148777D+00 -.451291751546794D+01
0.306022633383D-05 0.000000000000D+00 0.000000000000D+00 0.213499121121D-04 0.000000000000D+00  6 4 -4 25 23 21 21 2 0.25733616D-01 0.30169428D-01 0.25342454D+05 0.25342454D+05 0.25342454D+05 0.12226647D+01  1  2  2  3  6  5       21 0.117096486078D-03 0.100000000000D+01
0.536532590414D-06 0.161492580394D-06 -.117520748980D-07 0.213499121121D-04 0.000000000000D+00  6 4 -4 25 23 21 21 4 0.25733616D-01 0.30169428D-01 0.25342454D+05 0.25342454D+05 0.25342454D+05 0.12226647D+01  1  2  3  3  6  5       21 0.306903009597D-04 0.100000000000D+01
0.469301161445D-07 0.000000000000D+00 0.000000000000D+00 0.213499121121D-04 0.000000000000D+00  6 4 -4 25 23 21 21 4 0.25733616D-01 0.30169428D-01 0.25342454D+05 0.25342454D+05 0.25342454D+05 0.12226647D+01  1  2 15  3  6  5       21 0.268445834285D-05 0.100000000000D+01
-.426334556206D-01 0.000000000000D+00 0.000000000000D+00 0.213499121121D-04 0.000000000000D+00  6 4 -4 25 23 21 21 4 0.25733616D-01 0.30169428D-01 0.25342454D+05 0.25342454D+05 0.25342454D+05 0.12226647D+01  1  2  4  3  6  5       21 -.243868426136D+01 0.100000000000D+01
-.356787589450D-01 0.000000000000D+00 0.000000000000D+00 0.213499121121D-04 0.000000000000D+00  6 4 -4 25 23 21 21 4 0.25733616D-01 0.30169428D-01 0.25342454D+05 0.25342454D+05 0.25342454D+05 0.12226647D+01  1  2  5  3  6  5       21 -.204086735728D+01 0.100000000000D+01
0.402105403560D-01 0.000000000000D+00 -.000000000000D+00 0.213499121121D-04 0.000000000000D+00  6 4 -4 25 23 21 21 4 0.25733616D-01 0.30169428D-01 0.25342454D+05 0.25342454D+05 0.25342454D+05 0.12226647D+01  1  2  6  3  6  5       21 0.230009063257D+01 0.100000000000D+01
0.377009743400D-01 0.000000000000D+00 0.000000000000D+00 0.213499121121D-04 0.142218808547D-01  6 4 -4 25 23 21 21 4 0.25733616D-01 0.30169428D-01 0.25342372D+05 0.25342372D+05 0.25342372D+05 0.12226648D+01  1  2 11  3  6  5       21 0.215654093262D+01 0.100000000000D+01
-.195359813947D-03 0.000000000000D+00 0.000000000000D+00 0.213499121121D-04 0.000000000000D+00  6 4 -4 25 23 1 -1 4 0.25733616D-01 0.30169428D-01 0.25342454D+05 0.25342454D+05 0.25342454D+05 0.12226647D+01  1  2  5  6  6  5       21 -.111748132221D-01 0.100000000000D+01
-.195359813947D-03 0.000000000000D+00 0.000000000000D+00 0.213499121121D-04 0.000000000000D+00  6 4 -4 25 23 3 -3 4 0.25733616D-01 0.30169428D-01 0.25342454D+05 0.25342454D+05 0.25342454D+05 0.12226647D+01  1  2  5  6  6  5       21 -.111748132221D-01 0.100000000000D+01
0.198687869345D-03 0.000000000000D+00 0.000000000000D+00 0.213499121121D-04 0.148752414704D-03  6 4 -4 25 23 1 -1 4 0.25733616D-01 0.30169428D-01 0.25342372D+05 0.25342372D+05 0.25342372D+05 0.12226648D+01  1  2 11  6  6  5       21 0.113651843370D-01 0.100000000000D+01
0.198687869345D-03 0.000000000000D+00 0.000000000000D+00 0.213499121121D-04 0.148752414704D-03  6 4 -4 25 23 3 -3 4 0.25733616D-01 0.30169428D-01 0.25342372D+05 0.25342372D+05 0.25342372D+05 0.12226648D+01  1  2 11  6  6  5       21 0.113651843370D-01 0.100000000000D+01
-.195359813947D-03 0.000000000000D+00 0.000000000000D+00 0.213499121121D-04 0.000000000000D+00  6 4 -4 25 23 4 -4 4 0.25733616D-01 0.30169428D-01 0.25342454D+05 0.25342454D+05 0.25342454D+05 0.12226647D+01  1  2  5  7  6  5       21 -.111748132221D-01 0.100000000000D+01
0.197841038628D-03 0.000000000000D+00 0.000000000000D+00 0.213499121121D-04 0.148123601304D-03  6 4 -4 25 23 4 -4 4 0.25733616D-01 0.30169428D-01 0.25342372D+05 0.25342372D+05 0.25342372D+05 0.12226648D+01  1  2 11  7  6  5       21 0.113167446047D-01 0.100000000000D+01
-.195359813947D-03 0.000000000000D+00 0.000000000000D+00 0.213499121121D-04 0.000000000000D+00  6 4 -4 25 23 2 -2 4 0.25733616D-01 0.30169428D-01 0.25342454D+05 0.25342454D+05 0.25342454D+05 0.12226647D+01  1  2  5  8  6  5       21 -.111748132221D-01 0.100000000000D+01
0.198693285784D-03 0.000000000000D+00 0.000000000000D+00 0.213499121121D-04 0.148756469850D-03  6 4 -4 25 23 2 -2 4 0.25733616D-01 0.30169428D-01 0.25342372D+05 0.25342372D+05 0.25342372D+05 0.12226648D+01  1  2 11  8  6  5       21 0.113654941638D-01 0.100000000000D+01
  </mgrwgt>
  </event>
  <event>
  5     66 0.43206592E-03 0.65810885E+02 0.75467711E-02 0.11719230E+00
        2 -1    0    0  502    0 0.00000000E+00 0.00000000E+00 0.22117699E+03 0.22117722E+03 0.32000000E+00 0.0000E+00 0.9000E+01
       -2 -1    0    0    0  501 -.00000000E+00 -.00000000E+00 -.42499611E+03 0.42499623E+03 0.32000000E+00 0.0000E+00 0.9000E+01
       25  1    1    2    0    0 -.16113300E+02 0.12398395E+02 -.25949540E+03 0.28874941E+03 0.12500000E+03 0.0000E+00 0.9000E+01
       23  1    1    2    0    0 0.57637567E+02 0.38658308E+02 -.12234225E+03 0.16762885E+03 0.91188000E+02 0.0000E+00 0.9000E+01
       21  1    1    2  502  501 -.41524267E+02 -.51056702E+02 0.17801853E+03 0.18979518E+03 0.75000000E+00 0.0000E+00 0.9000E+01
#aMCatNLO 1  0  0  5  2 0.60164949D+02 0.00000000D+00  -5  6  0 0.00000000D+00 0.00000000D+00 0.00000000D+00 0.00000000D+00 0.00000000D+00
  <mgrwgt>
 0.5890302345D-01   15    2    0
 0.306593333455729D+03 0.000000000000000D+00 0.000000000000000D+00 0.306593333455729D+03
 0.306593333455729D+03 -.000000000000000D+00 -.000000000000000D+00 -.306593333455729D+03
 0.218028652319320D+03 -.161132376814463D+02 0.123984705444207D+02 -.177477138617230D+03
 0.135980970148748D+03 0.576376053586653D+02 0.386583552852539D+02 -.732052656149305D+02
 0.259177044443390D+03 -.415243676772189D+02 -.510568258296745D+02 0.250682404232160D+03
 0.000000000000000D+00 -.000000000000000D+00 0.000000000000000D+00 0.000000000000000D+00
 0.306593333455729D+03 0.000000000000000D+00 0.000000000000000D+00 0.306593333455729D+03
 0.306593333455729D+03 -.000000000000000D+00 -.000000000000000D+00 -.306593333455729D+03
 0.207319066796210D+03 -.183301930608265D+02 0.967258425141215D+01 -.164093389853167D+03
 0.130559864098115D+03 0.562483675427512D+02 0.369501998774587D+02 -.648184437263788D+02
 0.198921698637967D+03 0.286570430180561D+02 -.328461894696865D+02 0.194086949359808D+03
 0.763860373791661D+02 -.665752174999807D+02 -.137765946591843D+02 0.348248842197380D+02
0.731042693925D-03 0.000000000000D+00 0.000000000000D+00 0.969518920759D-05 0.000000000000D+00  6 2 -2 25 23 21 21 2 0.34027256D-01 0.65384043D-01 0.23569565D+05 0.23569565D+05 0.23569565D+05 0.12260506D+01  1  2  2  3  6  5       21 0.372081746770D-01 0.100000000000D+01
0.288454113080D-04 0.385781828342D-04 -.280739643264D-05 0.969518920759D-05 0.000000000000D+00  6 2 -2 25 23 21 21 4 0.34027256D-01 0.65384043D-01 0.23569565D+05 0.23569565D+05 0.23569565D+05 0.12260506D+01  1  2  3  3  6  5       21 0.220693295460D-02 0.100000000000D+01
0.358600311984D-04 0.000000000000D+00 0.000000000000D+00 0.969518920759D-05 0.000000000000D+00  6 2 -2 25 23 21 21 4 0.34027256D-01 0.65384043D-01 0.23569565D+05 0.23569565D+05 0.23569565D+05 0.12260506D+01  1  2 15  3  6  5       21 0.274361435723D-02 0.100000000000D+01
0.517762978740D-03 0.000000000000D+00 0.000000000000D+00 0.949835601135D-05 0.000000000000D+00  6 2 -2 25 23 21 21 4 0.34027256D-01 0.65384043D-01 0.30908404D+05 0.30908404D+05 0.30908404D+05 0.12135410D+01  1  2 12  3  6  5       21 0.380275691699D-01 0.100000000000D+01
-.546665820048D-03 0.000000000000D+00 0.000000000000D+00 0.969518920759D-05 0.000000000000D+00  6 2 -2 25 23 21 21 4 0.34027256D-01 0.65384043D-01 0.23569565D+05 0.23569565D+05 0.23569565D+05 0.12260506D+01  1  2  4  3  6  5       21 -.418248434920D-01 0.100000000000D+01
-.988193989120D-03 0.000000000000D+00 0.000000000000D+00 0.969518920759D-05 0.000000000000D+00  6 2 -2 25 23 21 21 4 0.34027256D-01 0.65384043D-01 0.23569565D+05 0.23569565D+05 0.23569565D+05 0.12260506D+01  1  2  5  3  6  5       21 -.756057127021D-01 0.100000000000D+01
0.129694844658D-02 0.000000000000D+00 -.000000000000D+00 0.969518920759D-05 0.000000000000D+00  6 2 -2 25 23 21 21 4 0.34027256D-01 0.65384043D-01 0.23569565D+05 0.23569565D+05 0.23569565D+05 0.12260506D+01  1  2  6  3  6  5       21 0.992282008606D-01 0.100000000000D+01
0.889649441494D-05 0.000000000000D+00 0.000000000000D+00 0.949835601135D-05 0.000000000000D+00  6 2 -2 25 23 1 -1 4 0.34027256D-01 0.65384043D-01 0.30908404D+05 0.30908404D+05 0.30908404D+05 0.12135410D+01  1  2 12  6  6  5       21 0.653411059937D-03 0.100000000000D+01
0.889649441494D-05 0.000000000000D+00 0.000000000000D+00 0.949835601135D-05 0.000000000000D+00  6 2 -2 25 23 3 -3 4 0.34027256D-01 0.65384043D-01 0.30908404D+05 0.30908404D+05 0.30908404D+05 0.12135410D+01  1  2 12  6  6  5       21 0.653411059937D-03 0.100000000000D+01
-.186074782602D-04 0.000000000000D+00 0.000000000000D+00 0.969518920759D-05 0.000000000000D+00  6 2 -2 25 23 1 -1 4 0.34027256D-01 0.65384043D-01 0.23569565D+05 0.23569565D+05 0.23569565D+05 0.12260506D+01  1  2  5  6  6  5       21 -.142363915480D-02 0.100000000000D+01
-.186074782602D-04 0.000000000000D+00 0.000000000000D+00 0.969518920759D-05 0.000000000000D+00  6 2 -2 25 23 3 -3 4 0.34027256D-01 0.65384043D-01 0.23569565D+05 0.23569565D+05 0.23569565D+05 0.12260506D+01  1  2  5  6  6  5       21 -.142363915480D-02 0.100000000000D+01
0.889649441494D-05 0.000000000000D+00 0.000000000000D+00 0.949835601135D-05 0.000000000000D+00  6 2 -2 25 23 2 -2 4 0.34027256D-01 0.65384043D-01 0.30908404D+05 0.30908404D+05 0.30908404D+05 0.12135410D+01  1  2 12  7  6  5       21 0.653411059937D-03 0.100000000000D+01
-.186074782602D-04 0.000000000000D+00 0.000000000000D+00 0.969518920759D-05 0.000000000000D+00  6 2 -2 25 23 2 -2 4 0.34027256D-01 0.65384043D-01 0.23569565D+05 0.23569565D+05 0.23569565D+05 0.12260506D+01  1  2  5  7  6  5       21 -.142363915480D-02 0.100000000000D+01
0.889649441494D-05 0.000000000000D+00 0.000000000000D+00 0.949835601135D-05 0.000000000000D+00  6 2 -2 25 23 4 -4 4 0.34027256D-01 0.65384043D-01 0.30908404D+05 0.30908404D+05 0.30908404D+05 0.12135410D+01  1  2 12  8  6  5       21 0.653411059937D-03 0.100000000000D+01
-.186074782602D-04 0.000000000000D+00 0.000000000000D+00 0.969518920759D-05 0.000000000000D+00  6 2 -2 25 23 4 -4 4 0.34027256D-01 0.65384043D-01 0.23569565D+05 0.23569565D+05 0.23569565D+05 0.12260506D+01  1  2  5  8  6  5       21 -.142363915480D-02 0.100000000000D+01
  </mgrwgt>
  </event>
  <event>
  5     66 0.43206592E-03 0.39165394E+02 0.75467711E-02 0.11904727E+00
        2 -1    0    0  502    0 0.00000000E+00 0.00000000E+00 0.17645257E+03 0.17645286E+03 0.32000000E+00 0.0000E+00 0.9000E+01
       -2 -1    0    0    0  501 -.00000000E+00 -.00000000E+00 -.50891436E+03 0.50891446E+03 0.32000000E+00 0.0000E+00 0.9000E+01
       25  1    1    2    0    0 -.17062629E+02 -.63125888E+02 -.37426134E+03 0.39996570E+03 0.12500000E+03 0.0000E+00 0.9000E+01
       23  1    1    2    0    0 0.62404227E+01 0.10076624E+03 -.79749737E+02 0.15769606E+03 0.91188000E+02 0.0000E+00 0.9000E+01
       21  1    1    2  502  501 0.10822207E+02 -.37640348E+02 0.12154929E+03 0.12770555E+03 0.75000000E+00 0.0000E+00 0.9000E+01
#aMCatNLO 1  0  0  5  2 0.26905150D+01 0.00000000D+00  -5  6  0 0.00000000D+00 0.00000000D+00 0.00000000D+00 0.00000000D+00 0.00000000D+00
  <mgrwgt>
 0.1380444915D+00   25    2    0
 0.299665447798976D+03 0.000000000000000D+00 0.000000000000000D+00 0.299665447798976D+03
 0.299665447798976D+03 -.000000000000000D+00 -.000000000000000D+00 -.299665447798976D+03
 0.249772005760176D+03 -.170626572223012D+02 -.631257909331279D+02 -.206119031409141D+03
 0.136095131678167D+03 0.624040752343789D+01 0.100766288178561D+03 -.372102178899302D+01
 0.213463758159609D+03 0.108222496988633D+02 -.376404972454333D+02 0.209840053198135D+03
 0.000000000000000D+00 0.000000000000000D+00 -.000000000000000D+00 0.000000000000000D+00
 0.299665447798976D+03 0.000000000000000D+00 0.000000000000000D+00 0.299665447798976D+03
 0.299665447798976D+03 -.000000000000000D+00 -.000000000000000D+00 -.299665447798976D+03
 0.249654361102080D+03 -.170549112048719D+02 -.631527320919282D+02 -.205968838542161D+03
 0.136082241160248D+03 0.624462894788357D+01 0.100751605786301D+03 -.363916968292435D+01
 0.203041915508784D+03 0.118481367682740D+02 -.336260710431666D+02 0.199887289377780D+03
 0.105523778268399D+02 -.103785451128574D+01 -.397280265120587D+01 0.972071884730533D+01
0.322490871568D-03 0.000000000000D+00 0.000000000000D+00 0.101271948555D-04 0.000000000000D+00  6 2 -2 25 23 21 21 2 0.27146579D-01 0.78294547D-01 0.25008347D+05 0.25008347D+05 0.25008347D+05 0.12232821D+01  1  2  2  3  6  5       21 0.142054068142D-01 0.100000000000D+01
0.408662331203D-04 0.170183108443D-04 -.123844986062D-05 0.101271948555D-04 0.000000000000D+00  6 2 -2 25 23 21 21 4 0.27146579D-01 0.78294547D-01 0.25008347D+05 0.25008347D+05 0.25008347D+05 0.12232821D+01  1  2  3  3  6  5       21 0.269373022640D-02 0.100000000000D+01
0.143053260174D-04 0.000000000000D+00 0.000000000000D+00 0.101271948555D-04 0.000000000000D+00  6 2 -2 25 23 21 21 4 0.27146579D-01 0.78294547D-01 0.25008347D+05 0.25008347D+05 0.25008347D+05 0.12232821D+01  1  2 15  3  6  5       21 0.942946930742D-03 0.100000000000D+01
0.286564182661D-04 0.000000000000D+00 0.000000000000D+00 0.101243049925D-04 0.000000000000D+00  6 2 -2 25 23 21 21 4 0.27146579D-01 0.78294547D-01 0.25102297D+05 0.25102297D+05 0.25102297D+05 0.12231076D+01  1  2 12  3  6  5       21 0.188784411137D-02 0.100000000000D+01
0.535613365724D-04 0.000000000000D+00 0.000000000000D+00 0.101243049925D-04 0.000000000000D+00  6 2 -2 25 23 21 21 4 0.27146579D-01 0.78294547D-01 0.25102297D+05 0.25102297D+05 0.25102297D+05 0.12231076D+01  1  2 12  3  6  5       21 0.352854473668D-02 0.100000000000D+01
-.305316916189D-01 0.000000000000D+00 0.000000000000D+00 0.101271948555D-04 0.000000000000D+00  6 2 -2 25 23 21 21 4 0.27146579D-01 0.78294547D-01 0.25008347D+05 0.25008347D+05 0.25008347D+05 0.12232821D+01  1  2  4  3  6  5       21 -.201252071203D+01 0.100000000000D+01
-.577179822557D-01 0.000000000000D+00 0.000000000000D+00 0.101271948555D-04 0.000000000000D+00  6 2 -2 25 23 21 21 4 0.27146579D-01 0.78294547D-01 0.25008347D+05 0.25008347D+05 0.25008347D+05 0.12232821D+01  1  2  5  3  6  5       21 -.380452666023D+01 0.100000000000D+01
0.605284738471D-01 0.000000000000D+00 -.000000000000D+00 0.101271948555D-04 0.000000000000D+00  6 2 -2 25 23 21 21 4 0.27146579D-01 0.78294547D-01 0.25008347D+05 0.25008347D+05 0.25008347D+05 0.12232821D+01  1  2  6  3  6  5       21 0.398978244656D+01 0.100000000000D+01
0.295671384861D-01 0.000000000000D+00 0.000000000000D+00 0.101271948555D-04 0.692466461046D-05  6 2 -2 25 23 21 21 4 0.27146579D-01 0.78294547D-01 0.25102297D+05 0.25102297D+05 0.25102297D+05 0.12231076D+01  1  2 11  3  6  5       21 0.194784106522D+01 0.100000000000D+01
0.799073527021D-06 0.000000000000D+00 0.000000000000D+00 0.101243049925D-04 0.000000000000D+00  6 2 -2 25 23 1 -1 4 0.27146579D-01 0.78294547D-01 0.25102297D+05 0.25102297D+05 0.25102297D+05 0.12231076D+01  1  2 12  6  6  5       21 0.526418283865D-04 0.100000000000D+01
0.799073527021D-06 0.000000000000D+00 0.000000000000D+00 0.101243049925D-04 0.000000000000D+00  6 2 -2 25 23 3 -3 4 0.27146579D-01 0.78294547D-01 0.25102297D+05 0.25102297D+05 0.25102297D+05 0.12231076D+01  1  2 12  6  6  5       21 0.526418283865D-04 0.100000000000D+01
0.917118132349D-06 0.000000000000D+00 0.000000000000D+00 0.101243049925D-04 0.000000000000D+00  6 2 -2 25 23 1 -1 4 0.27146579D-01 0.78294547D-01 0.25102297D+05 0.25102297D+05 0.25102297D+05 0.12231076D+01  1  2 12  6  6  5       21 0.604184392308D-04 0.100000000000D+01
0.917118132349D-06 0.000000000000D+00 0.000000000000D+00 0.101243049925D-04 0.000000000000D+00  6 2 -2 25 23 3 -3 4 0.27146579D-01 0.78294547D-01 0.25102297D+05 0.25102297D+05 0.25102297D+05 0.12231076D+01  1  2 12  6  6  5       21 0.604184392308D-04 0.100000000000D+01
-.229156814024D-03 0.000000000000D+00 0.000000000000D+00 0.101271948555D-04 0.000000000000D+00  6 2 -2 25 23 1 -1 4 0.27146579D-01 0.78294547D-01 0.25008347D+05 0.25008347D+05 0.25008347D+05 0.12232821D+01  1  2  5  6  6  5       21 -.151050534730D-01 0.100000000000D+01
-.229156814024D-03 0.000000000000D+00 0.000000000000D+00 0.101271948555D-04 0.000000000000D+00  6 2 -2 25 23 3 -3 4 0.27146579D-01 0.78294547D-01 0.25008347D+05 0.25008347D+05 0.25008347D+05 0.12232821D+01  1  2  5  6  6  5       21 -.151050534730D-01 0.100000000000D+01
0.205325074938D-03 0.000000000000D+00 0.000000000000D+00 0.101271948555D-04 0.799276107962D-07  6 2 -2 25 23 1 -1 4 0.27146579D-01 0.78294547D-01 0.25102297D+05 0.25102297D+05 0.25102297D+05 0.12231076D+01  1  2 11  6  6  5       21 0.135265241468D-01 0.100000000000D+01
0.205325074938D-03 0.000000000000D+00 0.000000000000D+00 0.101271948555D-04 0.799276107962D-07  6 2 -2 25 23 3 -3 4 0.27146579D-01 0.78294547D-01 0.25102297D+05 0.25102297D+05 0.25102297D+05 0.12231076D+01  1  2 11  6  6  5       21 0.135265241468D-01 0.100000000000D+01
0.799073527021D-06 0.000000000000D+00 0.000000000000D+00 0.101243049925D-04 0.000000000000D+00  6 2 -2 25 23 2 -2 4 0.27146579D-01 0.78294547D-01 0.25102297D+05 0.25102297D+05 0.25102297D+05 0.12231076D+01  1  2 12  7  6  5       21 0.526418283865D-04 0.100000000000D+01
0.917118132349D-06 0.000000000000D+00 0.000000000000D+00 0.101243049925D-04 0.000000000000D+00  6 2 -2 25 23 2 -2 4 0.27146579D-01 0.78294547D-01 0.25102297D+05 0.25102297D+05 0.25102297D+05 0.12231076D+01  1  2 12  7  6  5       21 0.604184392308D-04 0.100000000000D+01
-.229156814024D-03 0.000000000000D+00 0.000000000000D+00 0.101271948555D-04 0.000000000000D+00  6 2 -2 25 23 2 -2 4 0.27146579D-01 0.78294547D-01 0.25008347D+05 0.25008347D+05 0.25008347D+05 0.12232821D+01  1  2  5  7  6  5       21 -.151050534730D-01 0.100000000000D+01
0.206785750242D-03 0.000000000000D+00 0.000000000000D+00 0.101271948555D-04 0.825302633106D-07  6 2 -2 25 23 2 -2 4 0.27146579D-01 0.78294547D-01 0.25102297D+05 0.25102297D+05 0.25102297D+05 0.12231076D+01  1  2 11  7  6  5       21 0.136227513601D-01 0.100000000000D+01
0.799073527021D-06 0.000000000000D+00 0.000000000000D+00 0.101243049925D-04 0.000000000000D+00  6 2 -2 25 23 4 -4 4 0.27146579D-01 0.78294547D-01 0.25102297D+05 0.25102297D+05 0.25102297D+05 0.12231076D+01  1  2 12  8  6  5       21 0.526418283865D-04 0.100000000000D+01
0.917118132349D-06 0.000000000000D+00 0.000000000000D+00 0.101243049925D-04 0.000000000000D+00  6 2 -2 25 23 4 -4 4 0.27146579D-01 0.78294547D-01 0.25102297D+05 0.25102297D+05 0.25102297D+05 0.12231076D+01  1  2 12  8  6  5       21 0.604184392308D-04 0.100000000000D+01
-.229156814024D-03 0.000000000000D+00 0.000000000000D+00 0.101271948555D-04 0.000000000000D+00  6 2 -2 25 23 4 -4 4 0.27146579D-01 0.78294547D-01 0.25008347D+05 0.25008347D+05 0.25008347D+05 0.12232821D+01  1  2  5  8  6  5       21 -.151050534730D-01 0.100000000000D+01
0.204953606065D-03 0.000000000000D+00 0.000000000000D+00 0.101271948555D-04 0.797830078073D-07  6 2 -2 25 23 4 -4 4 0.27146579D-01 0.78294547D-01 0.25102297D+05 0.25102297D+05 0.25102297D+05 0.12231076D+01  1  2 11  8  6  5       21 0.135020523053D-01 0.100000000000D+01
  </mgrwgt>
  </event>
  <event>
  6     66 0.43206592E-03 0.25594403E+02 0.75467711E-02 0.10854873E+00
        2 -1    0    0  503    0 0.00000000E+00 0.00000000E+00 0.99984095E+02 0.99984607E+02 0.32000000E+00 0.0000E+00 0.9000E+01
       -2 -1    0    0    0  501 0.00000000E+00 0.00000000E+00 -.12491821E+04 0.12491821E+04 0.32000000E+00 0.0000E+00 0.9000E+01
       25  1    1    2    0    0 -.17834798E+03 0.20894330E+03 -.35311669E+03 0.46452309E+03 0.12500000E+03 0.0000E+00 0.9000E+01
       23  1    1    2    0    0 0.16951125E+03 -.18497717E+03 -.80173325E+03 0.84501010E+03 0.91188000E+02 0.0000E+00 0.9000E+01
       21  1    1    2  502  501 0.19624589E+01 0.22942873E+01 -.84715515E+01 0.90246709E+01 0.75000000E+00 0.0000E+00 0.9000E+01
       21  1    1    2  503  502 0.68742694E+01 -.26260413E+02 0.14123527E+02 0.30608845E+02 0.75000000E+00 0.0000E+00 0.9000E+01
#aMCatNLO 2  0  0  1  2 0.30430662D+02 0.00000000D+00  -5  6  0 0.00000000D+00 0.00000000D+00 0.00000000D+00 0.00000000D+00 0.00000000D+00
  <mgrwgt>
 0.1065534770D+01    1    2    0
 0.310056881318357D+03 0.000000000000000D+00 0.000000000000000D+00 0.310056881318357D+03
 0.310056881318357D+03 0.000000000000000D+00 0.000000000000000D+00 -.310056881318357D+03
 0.314460102814710D+03 -.174834115668360D+03 0.195379694826815D+03 0.120498809579519D+03
 0.302432681356895D+03 0.172779381462976D+03 -.197596716230811D+03 -.119386341282380D+03
 0.322097846510871D+01 0.205473420538426D+01 0.221702140399649D+01 -.111246829713923D+01
 0.000000000000000D+00 0.000000000000000D+00 -.000000000000000D+00 0.000000000000000D+00
 0.399782326172083D+03 0.000000000000000D+00 0.000000000000000D+00 0.399782326172083D+03
 0.312413734520929D+03 0.000000000000000D+00 0.000000000000000D+00 -.312413734520929D+03
 0.324973256322478D+03 -.178376637767217D+03 0.208912491999921D+03 0.120498809579519D+03
 0.292439187683126D+03 0.169483734290444D+03 -.185007006556346D+03 -.119386341282380D+03
 0.329517112125019D+01 0.201863411210748D+01 0.235492745697565D+01 -.111246829713923D+01
 0.914884455661564D+02 0.687426936466511D+01 -.262604129005504D+02 0.873685916511545D+02
0.936544023727D-01 0.000000000000D+00 0.000000000000D+00 0.703178121992D-03 0.301357446257D-05  6 2 -2 25 23 21 21 4 0.15382136D-01 0.19218096D+00 0.89704490D+05 0.89704490D+05 0.89704490D+05 0.11679313D+01  1  2  1  1  6  1        2 0.106553477003D+01 0.100000000000D+01
  </mgrwgt>
  </event>
  <event>
  5     66 0.43206592E-03 0.45244735E+02 0.75467711E-02 0.11513862E+00
        2 -1    0    0  502    0 0.00000000E+00 0.00000000E+00 0.30964451E+04 0.30964451E+04 0.32000000E+00 0.0000E+00 0.9000E+01
       -2 -1    0    0    0  501 0.00000000E+00 0.00000000E+00 -.12367123E+02 0.12371262E+02 0.32000000E+00 0.0000E+00 0.9000E+01
       25  1    1    2    0    0 -.42521963E+02 0.24879270E+02 0.17892899E+04 0.17943273E+04 0.12500000E+03 0.0000E+00 0.9000E+01
       23  1    1    2    0    0 0.46940021E+02 -.69907038E+02 0.12252742E+04 0.12315448E+04 0.91188000E+02 0.0000E+00 0.9000E+01
       21  1    1    2  502  501 -.44180589E+01 0.45027768E+02 0.69513823E+02 0.82944278E+02 0.75000000E+00 0.0000E+00 0.9000E+01
#aMCatNLO 1  0  0  2  5 0.15987068D+02 0.00000000D+00  -5  6  0 0.00000000D+00 0.00000000D+00 0.00000000D+00 0.00000000D+00 0.00000000D+00
  <mgrwgt>
 0.1244558188D+00    3    2    0
 0.195705332220504D+03 0.000000000000000D+00 0.000000000000000D+00 0.195705332220504D+03
 0.195705332220504D+03 0.000000000000000D+00 0.000000000000000D+00 -.195705332220504D+03
 0.153099172306694D+03 -.425219231756632D+02 0.248788679968863D+02 0.733981235293614D+02
 0.127246051401608D+03 0.469400541912905D+02 -.699073714286832D+02 0.280338542792748D+02
 0.111065440732706D+03 -.441813101562728D+01 0.450285034317969D+02 -.101431977808636D+03
 0.000000000000000D+00 -.000000000000000D+00 0.000000000000000D+00 0.000000000000000D+00
 0.374887649907814D+03 0.000000000000000D+00 0.000000000000000D+00 0.374887649907814D+03
 0.209851440665283D+03 0.000000000000000D+00 0.000000000000000D+00 -.209851440665283D+03
 0.147229565269844D+03 -.111322762730154D+02 0.232450591932390D+02 0.733981235293614D+02
 0.140754329107505D+03 0.749508179358437D+02 -.713653117662941D+02 0.280338542792748D+02
 0.112096388832971D+03 0.189062137964647D+02 0.438144878676369D+02 -.101431977808636D+03
 0.184658807362776D+03 -.827247554592930D+02 0.430576470541817D+01 0.165036209242531D+03
0.480203280231D-03 0.000000000000D+00 0.000000000000D+00 0.805045384390D-05 0.000000000000D+00  6 2 -2 25 23 21 21 2 0.47637649D+00 0.19029540D-02 0.23061805D+05 0.23061805D+05 0.23061805D+05 0.12270730D+01  1  2  2  2  6  2       -2 0.112281173360D+00 0.100000000000D+01
0.183236524115D-04 0.253410233031D-04 -.184410703651D-05 0.805045384390D-05 0.000000000000D+00  6 2 -2 25 23 21 21 4 0.47637649D+00 0.19029540D-02 0.23061805D+05 0.23061805D+05 0.23061805D+05 0.12270730D+01  1  2  3  2  6  2       -2 0.645111343425D-02 0.100000000000D+01
0.162570403573D-04 0.000000000000D+00 0.000000000000D+00 0.805045384390D-05 0.000000000000D+00  6 2 -2 25 23 21 21 4 0.47637649D+00 0.19029540D-02 0.23061805D+05 0.23061805D+05 0.23061805D+05 0.12270730D+01  1  2 15  2  6  2       -2 0.572353202815D-02 0.100000000000D+01
  </mgrwgt>
  </event>
  <event>
  5     66 0.43206592E-03 0.37628823E+02 0.75467711E-02 0.10465647E+00
        2 -1    0    0  502    0 0.00000000E+00 0.00000000E+00 0.18130365E+04 0.18130365E+04 0.32000000E+00 0.0000E+00 0.9000E+01
       -2 -1    0    0    0  501 0.00000000E+00 0.00000000E+00 -.47951457E+02 0.47952525E+02 0.32000000E+00 0.0000E+00 0.9000E+01
       25  1    1    2    0    0 -.19397251E+03 -.78676179E+02 0.11290706E+04 0.11550934E+04 0.12500000E+03 0.0000E+00 0.9000E+01
       23  1    1    2    0    0 0.22411502E+03 0.10118953E+03 0.49792764E+03 0.56277353E+03 0.91188000E+02 0.0000E+00 0.9000E+01
       21  1    1    2  502  501 -.30142514E+02 -.22513347E+02 0.13808674E+03 0.14312209E+03 0.75000000E+00 0.0000E+00 0.9000E+01
#aMCatNLO 1  0  0  2  1 0.50001204D+02 0.00000000D+00  -5  6  0 0.00000000D+00 0.00000000D+00 0.00000000D+00 0.00000000D+00 0.00000000D+00
  <mgrwgt>
 0.4300704724D+00    3    2    0
 0.294853795661557D+03 0.000000000000000D+00 0.000000000000000D+00 0.294853795661557D+03
 0.294853795661557D+03 0.000000000000000D+00 0.000000000000000D+00 -.294853795661557D+03
 0.265739981012863D+03 -.193969908331864D+03 -.786742375890312D+02 0.105729733330930D+03
 0.285620606733791D+03 0.224117813866050D+03 0.101191611594842D+03 -.113116501438651D+03
 0.383470035764593D+02 -.301479055341854D+02 -.225173740058107D+02 0.738676810772165D+01
 0.000000000000000D+00 0.000000000000000D+00 0.000000000000000D+00 0.000000000000000D+00
 0.466678855981916D+03 0.000000000000000D+00 0.000000000000000D+00 0.466678855981916D+03
 0.381127427795744D+03 0.000000000000000D+00 0.000000000000000D+00 -.381127427795744D+03
 0.338114847525645D+03 -.243081090798315D+03 -.168610370094375D+03 0.105729733330930D+03
 0.233986488545423D+03 0.181858453402076D+03 0.238030566587971D+02 -.113116501438651D+03
 0.525764420250436D+02 -.375426595650858D+02 -.360592099984954D+02 0.738676810772165D+01
 0.223128505681548D+03 0.987652969613247D+02 0.180866523434073D+03 0.855514281861724D+02
0.231269073859D-02 0.000000000000D+00 0.000000000000D+00 0.455616689214D-05 0.000000000000D+00  6 2 -2 25 23 21 21 2 0.27892877D+00 0.73772316D-02 0.73901478D+05 0.73901478D+05 0.73901478D+05 0.11758339D+01  1  2  2  2  6  2       -2 0.320014849635D+00 0.100000000000D+01
0.624108796459D-03 0.122044043246D-03 -.888134138166D-05 0.455616689214D-05 0.000000000000D+00  6 2 -2 25 23 21 21 4 0.27892877D+00 0.73772316D-02 0.73901478D+05 0.73901478D+05 0.73901478D+05 0.11758339D+01  1  2  3  2  6  2       -2 0.119400131811D+00 0.100000000000D+01
-.488440859294D-04 0.000000000000D+00 0.000000000000D+00 0.455616689214D-05 0.000000000000D+00  6 2 -2 25 23 21 21 4 0.27892877D+00 0.73772316D-02 0.73901478D+05 0.73901478D+05 0.73901478D+05 0.11758339D+01  1  2 15  2  6  2       -2 -.934450905237D-02 0.100000000000D+01
  </mgrwgt>
  </event>
  <event>
  6     66 0.43206592E-03 0.27199306E+02 0.75467711E-02 0.11255046E+00
        2 -1    0    0  502    0 0.00000000E+00 0.00000000E+00 0.65844481E+03 0.65844489E+03 0.32000000E+00 0.0000E+00 0.9000E+01
       -2 -1    0    0    0  501 0.00000000E+00 0.00000000E+00 -.11432212E+03 0.11432257E+03 0.32000000E+00 0.0000E+00 0.9000E+01
       25  1    1    2    0    0 -.17894970E+03 0.17755388E+02 0.55936034E+02 0.22603560E+03 0.12500000E+03 0.0000E+00 0.9000E+01
       23  1    1    2    0    0 0.16330099E+03 -.10093072E+02 0.34911481E+03 0.39618870E+03 0.91188000E+02 0.0000E+00 0.9000E+01
       21  1    1    2  502  503 0.32148842E+02 -.18623045E+02 0.79421628E+02 0.87685365E+02 0.75000000E+00 0.0000E+00 0.9000E+01
       21  1    1    2  503  501 -.16500129E+02 0.10960729E+02 0.59650217E+02 0.62857798E+02 0.75000000E+00 0.0000E+00 0.9000E+01
#aMCatNLO 2  0  0  5  2 0.26380114D+02 0.00000000D+00  -5  6  0 0.00000000D+00 0.00000000D+00 0.00000000D+00 0.00000000D+00 0.00000000D+00
  <mgrwgt>
 0.1808986497D-01    1    2    0
 0.274362918282386D+03 0.000000000000000D+00 0.000000000000000D+00 0.274362918282386D+03
 0.274362918282386D+03 -.000000000000000D+00 -.000000000000000D+00 -.274362918282386D+03
 0.272002756507767D+03 -.182773476587609D+03 0.196276796879723D+02 -.156745366738442D+03
 0.205369823836824D+03 0.160318858884380D+03 -.863288580620929D+01 0.899157937596902D+02
 0.713532562201819D+02 0.224546177032290D+02 -.109947938817630D+02 0.668295729787518D+02
 0.000000000000000D+00 0.000000000000000D+00 0.000000000000000D+00 0.000000000000000D+00
 0.274362918282386D+03 0.000000000000000D+00 0.000000000000000D+00 0.274362918282386D+03
 0.274362918282386D+03 -.000000000000000D+00 -.000000000000000D+00 -.274362918282386D+03
 0.262794379948060D+03 -.178922809875945D+03 0.177422195406805D+02 -.145284988502433D+03
 0.211811436137390D+03 0.163322663282359D+03 -.101036839579928D+02 0.988557351063550D+02
 0.442111017661556D+02 0.320965156383307D+02 -.186264271110568D+02 0.240310510867138D+02
 0.299089187131667D+02 -.164963690447448D+02 0.109878915283691D+02 0.223982023093639D+02
0.763864291451D-04 0.000000000000D+00 0.000000000000D+00 0.102347748863D-04 0.216882965812D-07  6 2 -2 25 23 21 21 4 0.10129924D+00 0.17588059D-01 0.53647869D+05 0.53647869D+05 0.53647869D+05 0.11892648D+01  1  2  1  3  6  5       21 0.180898649745D-01 0.100000000000D+01
  </mgrwgt>
  </event>
  <event>
  5     66 0.43206592E-03 0.57544083E+02 0.75467711E-02 0.11236740E+00
        2 -1    0    0  502    0 0.00000000E+00 0.00000000E+00 0.41147382E+03 0.41147395E+03 0.32000000E+00 0.0000E+00 0.9000E+01
       -2 -1    0    0    0  501 0.00000000E+00 0.00000000E+00 -.80241048E+02 0.80241686E+02 0.32000000E+00 0.0000E+00 0.9000E+01
       25  1    1    2    0    0 -.97209743E+01 -.16081500E+02 0.27219910E+03 0.30011741E+03 0.12500000E+03 0.0000E+00 0.9000E+01
       23  1    1    2    0    0 -.36496749E+02 0.50356447E+02 0.17336148E+01 0.11039040E+03 0.91188000E+02 0.0000E+00 0.9000E+01
       21  1    1    2  502  501 0.46217724E+02 -.34274947E+02 0.57300064E+02 0.81207818E+02 0.75000000E+00 0.0000E+00 0.9000E+01
#aMCatNLO 1  0  0  2  2 0.34240777D+02 0.00000000D+00  -5  6  0 0.00000000D+00 0.00000000D+00 0.00000000D+00 0.00000000D+00 0.00000000D+00
  <mgrwgt>
 0.6947497434D-01    3    2    0
 0.181706571884071D+03 0.000000000000000D+00 0.000000000000000D+00 0.181706571884071D+03
 0.181706571884071D+03 0.000000000000000D+00 0.000000000000000D+00 -.181706571884071D+03
 0.157977566052271D+03 -.972267464232996D+01 -.160802394898370D+02 0.947565663769464D+02
 0.147784350927981D+03 -.364983400789875D+02 0.503576270022581D+02 -.982697492079061D+02
 0.576512267878896D+02 0.462210147213175D+02 -.342773875124211D+02 0.351318283095969D+01
 0.000000000000000D+00 -.000000000000000D+00 -.000000000000000D+00 0.000000000000000D+00
 0.380831381982138D+03 0.000000000000000D+00 0.000000000000000D+00 0.380831381982138D+03
 0.221923498220640D+03 0.000000000000000D+00 0.000000000000000D+00 -.221923498220640D+03
 0.162252771626659D+03 0.266147499669754D+02 0.318403849408204D+02 0.947565663769464D+02
 0.165626506653704D+03 -.934740790869391D+00 0.972577555394875D+02 -.982697492079061D+02
 0.621058206308150D+02 0.598101790508173D+02 -.163564355692919D+02 0.351318283095969D+01
 0.212769781291599D+03 -.854901882269233D+02 -.112741704911016D+03 0.158907883761497D+03
0.128841521348D-03 0.000000000000D+00 0.000000000000D+00 0.227406231735D-05 0.000000000000D+00  6 2 -2 25 23 21 21 2 0.63303724D-01 0.12344835D-01 0.21657017D+05 0.21657017D+05 0.21657017D+05 0.12300384D+01  1  2  2  2  6  2       -2 0.692104398163D-01 0.100000000000D+01
-.201112986552D-05 0.679915387775D-05 -.494785366729D-06 0.227406231735D-05 0.000000000000D+00  6 2 -2 25 23 21 21 4 0.63303724D-01 0.12344835D-01 0.21657017D+05 0.21657017D+05 0.21657017D+05 0.12300384D+01  1  2  3  2  6  2       -2 -.163453120957D-02 0.100000000000D+01
0.233661358044D-05 0.000000000000D+00 0.000000000000D+00 0.227406231735D-05 0.000000000000D+00  6 2 -2 25 23 21 21 4 0.63303724D-01 0.12344835D-01 0.21657017D+05 0.21657017D+05 0.21657017D+05 0.12300384D+01  1  2 15  2  6  2       -2 0.189906573783D-02 0.100000000000D+01
  </mgrwgt>
  </event>
  <event>
  6     66 0.43206592E-03 0.25319248E+02 0.75467711E-02 0.11964249E+00
        2 -1    0    0  502    0 0.00000000E+00 0.00000000E+00 0.10189353E+04 0.10189353E+04 0.32000000E+00 0.0000E+00 0.9000E+01
       21 -1    0    0  503  501 0.00000000E+00 0.00000000E+00 -.55098649E+02 0.55103754E+02 0.75000000E+00 0.0000E+00 0.9000E+01
       25  1    1    2    0    0 -.19816821E+02 -.19501450E+02 0.58698809E+03 0.60079367E+03 0.12500000E+03 0.0000E+00 0.9000E+01
       23  1    1    2    0    0 -.33593855E+02 0.50177071E+02 0.36368405E+03 0.37977312E+03 0.91188000E+02 0.0000E+00 0.9000E+01
        2  1    1    2  503    0 0.24139950E+02 -.31852676E+02 0.37932944E+02 0.55103002E+02 0.32000000E+00 0.0000E+00 0.9000E+01
       21  1    1    2  502  501 0.29270725E+02 0.11770547E+01 -.24768477E+02 0.38369268E+02 0.75000000E+00 0.0000E+00 0.9000E+01
#aMCatNLO 2  0  0  2  2 0.39966613D+02 0.00000000D+00  -5  6  0 0.00000000D+00 0.00000000D+00 0.00000000D+00 0.00000000D+00 0.00000000D+00
  <mgrwgt>
 0.3846788233D-01    1    2    0
 0.211740270689441D+03 0.000000000000000D+00 0.000000000000000D+00 0.211740270689441D+03
 0.211740270689441D+03 0.000000000000000D+00 0.000000000000000D+00 -.211740270689441D+03
 0.162507789423399D+03 -.106040164737028D+02 -.316579456290837D+02 0.983316375153552D+02
 0.112919018922020D+03 -.270245980203747D+02 0.415087972021156D+02 0.445212797096218D+02
 0.000000000000000D+00 0.000000000000000D+00 -.000000000000000D+00 -.000000000000000D+00
 0.148053733033463D+03 0.376286144940775D+02 -.985085157303187D+01 -.142852917224977D+03
 0.222854752469824D+03 0.000000000000000D+00 0.000000000000000D+00 0.222854752469824D+03
 0.251933018996223D+03 0.000000000000000D+00 0.000000000000000D+00 -.251933018996223D+03
 0.161453179077494D+03 -.198170311834159D+02 -.195013684866864D+02 0.983316375153552D+02
 0.118083427998161D+03 -.335939972640662D+02 0.501771225224852D+02 0.445212797096218D+02
 0.494254563953958D+02 0.241399504356737D+02 -.318526756910015D+02 -.290782665263984D+02
 0.145825707994996D+03 0.292710780118083D+02 0.117692165520271D+01 -.142852917224977D+03
0.479672244498D-05 0.000000000000D+00 0.000000000000D+00 0.166176712359D-04 0.255784689495D-07  6 2 21 25 23 2 21 4 0.15675931D+00 0.84770926D-02 0.23513917D+05 0.23513917D+05 0.23513917D+05 0.12261614D+01  1  2  1  5  5  2       -2 0.384678823251D-01 0.100000000000D+01
  </mgrwgt>
  </event>
  <event>
  6     66 -.43206592E-03 0.12009167E+03 0.75467711E-02 0.11239373E+00
        2 -1    0    0  502    0 0.00000000E+00 0.00000000E+00 0.82013185E+02 0.82013809E+02 0.32000000E+00 0.0000E+00 0.9000E+01
       -2 -1    0    0    0  503 0.00000000E+00 0.00000000E+00 -.85531050E+03 0.85531056E+03 0.32000000E+00 0.0000E+00 0.9000E+01
       25  1    1    2    0    0 0.30353055E+02 -.12843513E+03 -.27984206E+03 0.33369667E+03 0.12500000E+03 0.0000E+00 0.9000E+01
       23  1    1    2    0    0 0.29672432E+02 0.42771358E+02 -.32315704E+03 0.33978753E+03 0.91188000E+02 0.0000E+00 0.9000E+01
       21  1    1    2  502  501 -.97682092E+02 0.10083353E+03 -.72626095E+02 0.15806424E+03 0.75000000E+00 0.0000E+00 0.9000E+01
       21  1    1    2  501  503 0.37656605E+02 -.15169753E+02 -.97672125E+02 0.10577593E+03 0.75000000E+00 0.0000E+00 0.9000E+01
#aMCatNLO 2  0  0  2  5 0.40597307D+02 0.00000000D+00  -5  6  0 0.00000000D+00 0.00000000D+00 0.00000000D+00 0.00000000D+00 0.00000000D+00
  <mgrwgt>
 -.8036994383D-02    2    2    0
 0.241534296581670D+03 0.000000000000000D+00 0.000000000000000D+00 0.241534296581670D+03
 0.241534296581670D+03 0.000000000000000D+00 0.000000000000000D+00 -.241534296581670D+03
 0.189430910776039D+03 0.448200991311192D+02 -.134263365013240D+03 -.149525077039886D+02
 0.133905140575665D+03 0.400367016926057D+02 0.385959822300689D+02 -.807635313855339D+02
 0.159732541811636D+03 -.848568008237249D+02 0.956673827831711D+02 0.957160390895226D+02
 0.000000000000000D+00 0.000000000000000D+00 -.000000000000000D+00 -.000000000000000D+00
 0.254980240517347D+03 0.000000000000000D+00 0.000000000000000D+00 0.254980240517347D+03
 0.275101271633837D+03 0.000000000000000D+00 0.000000000000000D+00 -.275101271633837D+03
 0.182388574137320D+03 0.303533915188501D+02 -.128435532904685D+03 -.149525077039886D+02
 0.132468229055620D+03 0.296726787984084D+02 0.427710707861812D+02 -.807635313855339D+02
 0.169914696615116D+03 -.976826757630736D+02 0.100834214642582D+03 0.957160390895226D+02
 0.453100123431273D+02 0.376566054458151D+02 -.151697525240785D+02 -.201210311164902D+02
-.410013301072D-03 0.000000000000D+00 0.000000000000D+00 0.899998689237D-06 0.000000000000D+00  6 2 -2 25 23 21 21 4 0.11951963D-01 0.13731738D+00 0.54700476D+05 0.54700476D+05 0.54700476D+05 0.11884365D+01  1  2 13  2  6  2       -2 -.167273849257D-01 0.100000000000D+01
0.204547836262D-03 0.000000000000D+00 0.000000000000D+00 0.913003058979D-06 0.129397771666D-08  6 2 -2 25 23 21 21 4 0.12617315D-01 0.13158472D+00 0.54700476D+05 0.54700476D+05 0.54700476D+05 0.11884365D+01  1  2  1  2  6  2       -2 0.869039054305D-02 0.100000000000D+01
  </mgrwgt>
  </event>
  <event>
  5     66 0.43206592E-03 0.29906394E+02 0.75467711E-02 0.12076465E+00
        2 -1    0    0  502    0 0.00000000E+00 0.00000000E+00 0.82350384E+03 0.82350390E+03 0.32000000E+00 0.0000E+00 0.9000E+01
       -2 -1    0    0    0  501 0.00000000E+00 0.00000000E+00 -.34058799E+02 0.34060302E+02 0.32000000E+00 0.0000E+00 0.9000E+01
       25  1    1    2    0    0 0.13121682E+02 -.54519512E+02 0.50027651E+03 0.51869658E+03 0.12500000E+03 0.0000E+00 0.9000E+01
       23  1    1    2    0    0 -.37623634E+02 0.71664416E+02 0.28324361E+03 0.30837237E+03 0.91188000E+02 0.0000E+00 0.9000E+01
       21  1    1    2  502  501 0.24501952E+02 -.17144905E+02 0.59249273E+01 0.30495257E+02 0.75000000E+00 0.0000E+00 0.9000E+01
#aMCatNLO 1  0  0  5  1 0.47368874D+01 0.00000000D+00  -5  6  0 0.00000000D+00 0.00000000D+00 0.00000000D+00 0.00000000D+00 0.00000000D+00
  <mgrwgt>
 0.2085281155D+00   25    2    0
 0.167476035973350D+03 0.000000000000000D+00 0.000000000000000D+00 0.167476035973350D+03
 0.167476035973350D+03 -.000000000000000D+00 -.000000000000000D+00 -.167476035973350D+03
 0.148901750371222D+03 0.131209366875600D+02 -.545189899897515D+02 0.583288266173092D+02
 0.121939791817893D+03 -.376242447583406D+02 0.716648432989926D+02 -.162108787130898D+01
 0.641105297575852D+02 0.245033080707806D+02 -.171458533092411D+02 -.567077387460003D+02
 0.000000000000000D+00 0.000000000000000D+00 -.000000000000000D+00 0.000000000000000D+00
 0.167476035973350D+03 0.000000000000000D+00 0.000000000000000D+00 0.167476035973350D+03
 0.167476035973350D+03 -.000000000000000D+00 -.000000000000000D+00 -.167476035973350D+03
 0.148831005879730D+03 0.132473845359119D+02 -.546074701350791D+02 0.580361897403365D+02
 0.121868726641998D+03 -.375206986690311D+02 0.715923883450362D+02 -.186072345699279D+01
 0.246637730596734D+02 0.645262454295157D+01 -.332183016044435D+01 -.235718217885663D+02
 0.395885663652989D+02 0.178206895901676D+02 -.136630880495128D+02 -.326036444947774D+02
0.216322567802D-04 0.000000000000D+00 0.000000000000D+00 0.146726434152D-04 0.000000000000D+00  6 2 -2 25 23 21 21 2 0.12669302D+00 0.52399356D-02 0.20856726D+05 0.20856726D+05 0.20856726D+05 0.12318256D+01  1  2  2  3  6  5       21 0.198677890106D-01 0.100000000000D+01
0.202679147878D-05 0.114156555303D-05 -.830735619400D-07 0.146726434152D-04 0.000000000000D+00  6 2 -2 25 23 21 21 4 0.12669302D+00 0.52399356D-02 0.20856726D+05 0.20856726D+05 0.20856726D+05 0.12318256D+01  1  2  3  3  6  5       21 0.282458894412D-02 0.100000000000D+01
0.157085771351D-06 0.000000000000D+00 0.000000000000D+00 0.146726434152D-04 0.000000000000D+00  6 2 -2 25 23 21 21 4 0.12669302D+00 0.52399356D-02 0.20856726D+05 0.20856726D+05 0.20856726D+05 0.12318256D+01  1  2 15  3  6  5       21 0.218918787494D-03 0.100000000000D+01
0.160092873058D-04 0.000000000000D+00 0.000000000000D+00 0.146743734510D-04 0.000000000000D+00  6 2 -2 25 23 21 21 4 0.12669302D+00 0.52399356D-02 0.20824916D+05 0.20824916D+05 0.20824916D+05 0.12318983D+01  1  2 12  3  6  5       21 0.223154400698D-01 0.100000000000D+01
0.153216692509D-04 0.000000000000D+00 0.000000000000D+00 0.146743734510D-04 0.000000000000D+00  6 2 -2 25 23 21 21 4 0.12669302D+00 0.52399356D-02 0.20824916D+05 0.20824916D+05 0.20824916D+05 0.12318983D+01  1  2 12  3  6  5       21 0.213569652044D-01 0.100000000000D+01
-.206805752028D-03 0.000000000000D+00 0.000000000000D+00 0.146726434152D-04 0.000000000000D+00  6 2 -2 25 23 21 21 4 0.12669302D+00 0.52399356D-02 0.20856726D+05 0.20856726D+05 0.20856726D+05 0.12318256D+01  1  2  4  3  6  5       21 -.288209836519D+00 0.100000000000D+01
-.110227789543D-03 0.000000000000D+00 0.000000000000D+00 0.146726434152D-04 0.000000000000D+00  6 2 -2 25 23 21 21 4 0.12669302D+00 0.52399356D-02 0.20856726D+05 0.20856726D+05 0.20856726D+05 0.12318256D+01  1  2  5  3  6  5       21 -.153616293998D+00 0.100000000000D+01
0.285527209676D-03 0.000000000000D+00 -.000000000000D+00 0.146726434152D-04 0.000000000000D+00  6 2 -2 25 23 21 21 4 0.12669302D+00 0.52399356D-02 0.20856726D+05 0.20856726D+05 0.20856726D+05 0.12318256D+01  1  2  6  3  6  5       21 0.397918092778D+00 0.100000000000D+01
0.126389531853D-03 0.000000000000D+00 0.000000000000D+00 0.146726434152D-04 0.686699349226D-05  6 2 -2 25 23 21 21 4 0.12669302D+00 0.52399356D-02 0.20824916D+05 0.20824916D+05 0.20824916D+05 0.12318983D+01  1  2 11  3  6  5       21 0.176175114459D+00 0.100000000000D+01
0.643411247663D-06 0.000000000000D+00 0.000000000000D+00 0.146743734510D-04 0.000000000000D+00  6 2 -2 25 23 1 -1 4 0.12669302D+00 0.52399356D-02 0.20824916D+05 0.20824916D+05 0.20824916D+05 0.12318983D+01  1  2 12  6  6  5       21 0.896854735831D-03 0.100000000000D+01
0.643411247663D-06 0.000000000000D+00 0.000000000000D+00 0.146743734510D-04 0.000000000000D+00  6 2 -2 25 23 3 -3 4 0.12669302D+00 0.52399356D-02 0.20824916D+05 0.20824916D+05 0.20824916D+05 0.12318983D+01  1  2 12  6  6  5       21 0.896854735831D-03 0.100000000000D+01
0.614681641427D-06 0.000000000000D+00 0.000000000000D+00 0.146743734510D-04 0.000000000000D+00  6 2 -2 25 23 1 -1 4 0.12669302D+00 0.52399356D-02 0.20824916D+05 0.20824916D+05 0.20824916D+05 0.12318983D+01  1  2 12  6  6  5       21 0.856808368123D-03 0.100000000000D+01
0.614681641427D-06 0.000000000000D+00 0.000000000000D+00 0.146743734510D-04 0.000000000000D+00  6 2 -2 25 23 3 -3 4 0.12669302D+00 0.52399356D-02 0.20824916D+05 0.20824916D+05 0.20824916D+05 0.12318983D+01  1  2 12  6  6  5       21 0.856808368123D-03 0.100000000000D+01
-.172572987214D-05 0.000000000000D+00 0.000000000000D+00 0.146726434152D-04 0.000000000000D+00  6 2 -2 25 23 1 -1 4 0.12669302D+00 0.52399356D-02 0.20856726D+05 0.20856726D+05 0.20856726D+05 0.12318256D+01  1  2  5  6  6  5       21 -.240502171458D-02 0.100000000000D+01
-.172572987214D-05 0.000000000000D+00 0.000000000000D+00 0.146726434152D-04 0.000000000000D+00  6 2 -2 25 23 3 -3 4 0.12669302D+00 0.52399356D-02 0.20856726D+05 0.20856726D+05 0.20856726D+05 0.12318256D+01  1  2  5  6  6  5       21 -.240502171458D-02 0.100000000000D+01
0.220022483329D-05 0.000000000000D+00 0.000000000000D+00 0.146726434152D-04 0.577329822539D-07  6 2 -2 25 23 1 -1 4 0.12669302D+00 0.52399356D-02 0.20824916D+05 0.20824916D+05 0.20824916D+05 0.12318983D+01  1  2 11  6  6  5       21 0.306690638188D-02 0.100000000000D+01
0.220022483329D-05 0.000000000000D+00 0.000000000000D+00 0.146726434152D-04 0.577329822539D-07  6 2 -2 25 23 3 -3 4 0.12669302D+00 0.52399356D-02 0.20824916D+05 0.20824916D+05 0.20824916D+05 0.12318983D+01  1  2 11  6  6  5       21 0.306690638188D-02 0.100000000000D+01
0.643411247663D-06 0.000000000000D+00 0.000000000000D+00 0.146743734510D-04 0.000000000000D+00  6 2 -2 25 23 2 -2 4 0.12669302D+00 0.52399356D-02 0.20824916D+05 0.20824916D+05 0.20824916D+05 0.12318983D+01  1  2 12  7  6  5       21 0.896854735831D-03 0.100000000000D+01
0.614681641427D-06 0.000000000000D+00 0.000000000000D+00 0.146743734510D-04 0.000000000000D+00  6 2 -2 25 23 2 -2 4 0.12669302D+00 0.52399356D-02 0.20824916D+05 0.20824916D+05 0.20824916D+05 0.12318983D+01  1  2 12  7  6  5       21 0.856808368123D-03 0.100000000000D+01
-.172572987214D-05 0.000000000000D+00 0.000000000000D+00 0.146726434152D-04 0.000000000000D+00  6 2 -2 25 23 2 -2 4 0.12669302D+00 0.52399356D-02 0.20856726D+05 0.20856726D+05 0.20856726D+05 0.12318256D+01  1  2  5  7  6  5       21 -.240502171458D-02 0.100000000000D+01
0.220152105655D-05 0.000000000000D+00 0.000000000000D+00 0.146726434152D-04 0.582656917425D-07  6 2 -2 25 23 2 -2 4 0.12669302D+00 0.52399356D-02 0.20824916D+05 0.20824916D+05 0.20824916D+05 0.12318983D+01  1  2 11  7  6  5       21 0.306871319513D-02 0.100000000000D+01
0.643411247663D-06 0.000000000000D+00 0.000000000000D+00 0.146743734510D-04 0.000000000000D+00  6 2 -2 25 23 4 -4 4 0.12669302D+00 0.52399356D-02 0.20824916D+05 0.20824916D+05 0.20824916D+05 0.12318983D+01  1  2 12  8  6  5       21 0.896854735831D-03 0.100000000000D+01
0.614681641427D-06 0.000000000000D+00 0.000000000000D+00 0.146743734510D-04 0.000000000000D+00  6 2 -2 25 23 4 -4 4 0.12669302D+00 0.52399356D-02 0.20824916D+05 0.20824916D+05 0.20824916D+05 0.12318983D+01  1  2 12  8  6  5       21 0.856808368123D-03 0.100000000000D+01
-.172572987214D-05 0.000000000000D+00 0.000000000000D+00 0.146726434152D-04 0.000000000000D+00  6 2 -2 25 23 4 -4 4 0.12669302D+00 0.52399356D-02 0.20856726D+05 0.20856726D+05 0.20856726D+05 0.12318256D+01  1  2  5  8  6  5       21 -.240502171458D-02 0.100000000000D+01
0.220979426043D-05 0.000000000000D+00 0.000000000000D+00 0.146726434152D-04 0.579840800321D-07  6 2 -2 25 23 4 -4 4 0.12669302D+00 0.52399356D-02 0.20824916D+05 0.20824916D+05 0.20824916D+05 0.12318983D+01  1  2 11  8  6  5       21 0.308024526285D-02 0.100000000000D+01
  </mgrwgt>
  </event>
  <event>
  5     66 0.43206592E-03 0.21882720E+02 0.75467711E-02 0.12203555E+00
        2 -1    0    0  502    0 0.00000000E+00 0.00000000E+00 0.11386426E+03 0.11386471E+03 0.32000000E+00 0.0000E+00 0.9000E+01
       -2 -1    0    0    0  501 0.00000000E+00 0.00000000E+00 -.16753874E+03 0.16753905E+03 0.32000000E+00 0.0000E+00 0.9000E+01
       25  1    1    2    0    0 -.23375346E+02 0.41030945E+02 -.86598842E+01 0.13390272E+03 0.12500000E+03 0.0000E+00 0.9000E+01
       23  1    1    2    0    0 0.44345518E+02 -.47254426E+02 -.53528534E+02 0.12401637E+03 0.91188000E+02 0.0000E+00 0.9000E+01
       21  1    1    2  502  501 -.20970172E+02 0.62234805E+01 0.85139422E+01 0.23484666E+02 0.75000000E+00 0.0000E+00 0.9000E+01
#aMCatNLO 1  0  0  1  1 0.24241096D+01 0.00000000D+00  -5  6  0 0.00000000D+00 0.00000000D+00 0.00000000D+00 0.00000000D+00 0.00000000D+00
  <mgrwgt>
 0.3475779527D-01    6    4    0
 0.138118723773155D+03 0.000000000000000D+00 0.000000000000000D+00 0.138118723773155D+03
 0.138118723773155D+03 0.000000000000000D+00 0.000000000000000D+00 -.138118723773155D+03
 0.134722849864444D+03 -.233709464242211D+02 0.410296396901522D+02 0.171934233278287D+02
 0.115937423310690D+03 0.443493035282099D+02 -.472555494392564D+02 -.304349651499537D+02
 0.255771743711763D+02 -.209783571039889D+02 0.622590974910420D+01 0.132415418221250D+02
 0.000000000000000D+00 -.000000000000000D+00 0.000000000000000D+00 -.000000000000000D+00
 0.138889063614915D+03 0.000000000000000D+00 0.000000000000000D+00 0.138889063614915D+03
 0.140044348995812D+03 0.000000000000000D+00 0.000000000000000D+00 -.140044348995812D+03
 0.134324084367686D+03 -.230298897764805D+02 0.398994988987390D+02 0.171934233278287D+02
 0.116451332765231D+03 0.446438905315744D+02 -.482317063074129D+02 -.304349651499537D+02
 0.254726665420333D+02 -.209136439056793D+02 0.601147315730348D+01 0.132415418221250D+02
 0.268532893577667D+01 -.700356849414667D+00 0.232073425137046D+01 -.115528538089660D+01
 0.138118723773155D+03 0.000000000000000D+00 0.000000000000000D+00 0.138118723773155D+03
 0.138118723773155D+03 0.000000000000000D+00 0.000000000000000D+00 -.138118723773155D+03
 0.134722849864444D+03 -.233709464242211D+02 0.410296396901522D+02 0.171934233278287D+02
 0.115937423310690D+03 0.443493035282099D+02 -.472555494392564D+02 -.304349651499537D+02
 0.000000000000000D+00 -.000000000000000D+00 0.000000000000000D+00 -.000000000000000D+00
 0.255771743711763D+02 -.209783571039889D+02 0.622590974910420D+01 0.132415418221250D+02
 0.138889063614915D+03 0.000000000000000D+00 0.000000000000000D+00 0.138889063614915D+03
 0.140044348995812D+03 0.000000000000000D+00 0.000000000000000D+00 -.140044348995812D+03
 0.134324084367686D+03 -.230298897764805D+02 0.398994988987390D+02 0.171934233278287D+02
 0.116451332765231D+03 0.446438905315744D+02 -.482317063074129D+02 -.304349651499537D+02
 0.268532893577667D+01 -.700356849414667D+00 0.232073425137046D+01 -.115528538089660D+01
 0.254726665420333D+02 -.209136439056793D+02 0.601147315730348D+01 0.132415418221250D+02
0.544582409753D-04 0.000000000000D+00 0.000000000000D+00 0.268818808976D-04 0.000000000000D+00  6 2 -2 25 23 21 21 2 0.17517637D-01 0.25775249D-01 0.17872387D+05 0.17872387D+05 0.17872387D+05 0.12392402D+01  1  2  2  1  6  1        2 0.348806447889D-01 0.100000000000D+01
0.105547992471D-04 0.287384033057D-05 -.209133984529D-06 0.268818808976D-04 0.000000000000D+00  6 2 -2 25 23 21 21 4 0.17517637D-01 0.25775249D-01 0.17872387D+05 0.17872387D+05 0.17872387D+05 0.12392402D+01  1  2  3  1  6  1        2 0.103820206302D-01 0.100000000000D+01
0.126704336325D-05 0.000000000000D+00 0.000000000000D+00 0.268818808976D-04 0.000000000000D+00  6 2 -2 25 23 21 21 4 0.17517637D-01 0.25775249D-01 0.17872387D+05 0.17872387D+05 0.17872387D+05 0.12392402D+01  1  2 15  1  6  1        2 0.124630227716D-02 0.100000000000D+01
-.992014458889D-04 0.000000000000D+00 0.000000000000D+00 0.268818808976D-04 0.000000000000D+00  6 2 -2 25 23 21 21 4 0.17517637D-01 0.25775249D-01 0.17872387D+05 0.17872387D+05 0.17872387D+05 0.12392402D+01  1  2  4  1  6  1        2 -.975775506150D-01 0.100000000000D+01
0.891481100291D-04 0.000000000000D+00 0.000000000000D+00 0.268818808976D-04 0.270386133880D-04  6 2 -2 25 23 21 21 4 0.17615340D-01 0.26134603D-01 0.18199035D+05 0.18199035D+05 0.18199035D+05 0.12383634D+01  1  2 11  1  6  1        2 0.848432773850D-01 0.100000000000D+01
0.137053986817D-06 0.000000000000D+00 0.000000000000D+00 0.268438547469D-04 0.738743512761D-07  6 21 -2 25 23 -2 21 4 0.17615340D-01 0.26134603D-01 0.18199035D+05 0.18199035D+05 0.18199035D+05 0.12383634D+01  3  4 11  4  5  1        2 0.983100807950D-03 0.100000000000D+01
  </mgrwgt>
  </event>
  <event>
  5     66 0.43206592E-03 0.23798848E+02 0.75467711E-02 0.11826275E+00
        2 -1    0    0  502    0 0.00000000E+00 0.00000000E+00 0.12334154E+04 0.12334154E+04 0.32000000E+00 0.0000E+00 0.9000E+01
       -2 -1    0    0    0  501 0.00000000E+00 0.00000000E+00 -.27703802E+02 0.27705650E+02 0.32000000E+00 0.0000E+00 0.9000E+01
       25  1    1    2    0    0 -.18358528E+02 0.51599538E+01 0.93941692E+03 0.94788861E+03 0.12500000E+03 0.0000E+00 0.9000E+01
       23  1    1    2    0    0 0.31509266E+02 -.24994756E+02 0.27119061E+03 0.28892416E+03 0.91188000E+02 0.0000E+00 0.9000E+01
       21  1    1    2  502  501 -.13150739E+02 0.19834802E+02 -.48959452E+01 0.24308313E+02 0.75000000E+00 0.0000E+00 0.9000E+01
#aMCatNLO 1  0  0  2  5 0.58478481D+02 0.00000000D+00  -5  6  0 0.00000000D+00 0.00000000D+00 0.00000000D+00 0.00000000D+00 0.00000000D+00
  <mgrwgt>
 0.3340353446D+00    4    2    0
 0.184855315624743D+03 0.000000000000000D+00 0.000000000000000D+00 0.184855315624743D+03
 0.184855315624743D+03 0.000000000000000D+00 0.000000000000000D+00 -.184855315624743D+03
 0.169691472749409D+03 -.183583541265382D+02 0.515969198174409D+01 0.113166003447509D+03
 0.101134950897554D+03 0.315093699360582D+02 -.249949121800499D+02 -.171883949336418D+02
 0.988842076025225D+02 -.131510158095200D+02 0.198352201983058D+02 -.959776085138676D+02
 0.000000000000000D+00 0.000000000000000D+00 -.000000000000000D+00 0.000000000000000D+00
 0.313456417014008D+03 0.000000000000000D+00 0.000000000000000D+00 0.313456417014008D+03
 0.195277998222700D+03 0.000000000000000D+00 0.000000000000000D+00 -.195277998222700D+03
 0.174880118516241D+03 -.382433834145395D+02 0.262479549866531D+02 0.113166003447509D+03
 0.958324676800053D+02 0.201424929604775D+02 -.129402308550325D+02 -.171883949336418D+02
 0.104267468239026D+03 -.248747827317365D+02 0.322683867118265D+02 -.959776085138676D+02
 0.133754360801435D+03 0.429756731857985D+02 -.455761108434471D+02 0.118178418791308D+03
0.389251389683D-03 0.000000000000D+00 0.000000000000D+00 0.256508394571D-04 0.000000000000D+00  6 2 -2 25 23 21 21 2 0.18975636D+00 0.42622688D-02 0.15613591D+05 0.15613591D+05 0.15613591D+05 0.12458425D+01  1  2  2  2  6  2       -2 0.282643325148D+00 0.100000000000D+01
0.519435104609D-04 0.205413601756D-04 -.149482782863D-05 0.256508394571D-04 0.000000000000D+00  6 2 -2 25 23 21 21 4 0.18975636D+00 0.42622688D-02 0.15613591D+05 0.15613591D+05 0.15613591D+05 0.12458425D+01  1  2  3  2  6  2       -2 0.585418071929D-01 0.100000000000D+01
0.173879212828D-04 0.000000000000D+00 0.000000000000D+00 0.256508394571D-04 0.000000000000D+00  6 2 -2 25 23 21 21 4 0.18975636D+00 0.42622688D-02 0.15613591D+05 0.15613591D+05 0.15613591D+05 0.12458425D+01  1  2 15  2  6  2       -2 0.195966796659D-01 0.100000000000D+01
-.237318503872D-04 0.000000000000D+00 0.000000000000D+00 0.256508394571D-04 0.000000000000D+00  6 2 -2 25 23 21 21 4 0.18975636D+00 0.42622688D-02 0.15613591D+05 0.15613591D+05 0.15613591D+05 0.12458425D+01  1  2  4  2  6  2       -2 -.267464674099D-01 0.100000000000D+01
  </mgrwgt>
  </event>
  <event>
  5     66 0.43206592E-03 0.30931730E+02 0.75467711E-02 0.10753234E+00
        2 -1    0    0  502    0 0.00000000E+00 0.00000000E+00 0.15280954E+03 0.15280988E+03 0.32000000E+00 0.0000E+00 0.9000E+01
       -2 -1    0    0    0  501 -.00000000E+00 -.00000000E+00 -.67823137E+03 0.67823144E+03 0.32000000E+00 0.0000E+00 0.9000E+01
       25  1    1    2    0    0 -.26112079E+03 0.81190959E+02 -.26296201E+03 0.39943717E+03 0.12500000E+03 0.0000E+00 0.9000E+01
       23  1    1    2    0    0 0.28847060E+03 -.66759441E+02 -.22433848E+03 0.38251159E+03 0.91188000E+02 0.0000E+00 0.9000E+01
       21  1    1    2  502  501 -.27349806E+02 -.14431517E+02 -.38121337E+02 0.49092559E+02 0.75000000E+00 0.0000E+00 0.9000E+01
#aMCatNLO 1  0  0  5  1 0.13074696D+02 0.00000000D+00  -5  6  0 0.00000000D+00 0.00000000D+00 0.00000000D+00 0.00000000D+00 0.00000000D+00
  <mgrwgt>
 0.2693053760D+00   14    2    0
 0.321932284147050D+03 0.000000000000000D+00 0.000000000000000D+00 0.321932284147050D+03
 0.321932284147050D+03 -.000000000000000D+00 -.000000000000000D+00 -.321932284147050D+03
 0.300965733067164D+03 -.261117334026836D+03 0.811927828201491D+02 -.134477644719656D+02
 0.310643788509789D+03 0.288474165694419D+03 -.667575583819491D+02 0.225919481564541D+02
 0.322550467171471D+02 -.273568316675830D+02 -.144352244381999D+02 -.914418368448848D+01
 0.000000000000000D+00 0.000000000000000D+00 0.000000000000000D+00 0.000000000000000D+00
 0.321932284147050D+03 0.000000000000000D+00 0.000000000000000D+00 0.321932284147050D+03
 0.321932284147050D+03 -.000000000000000D+00 -.000000000000000D+00 -.321932284147050D+03
 0.305398273656758D+03 -.267040404850696D+03 0.780673895821926D+02 -.154275861211880D+02
 0.305630451682606D+03 0.282454289957892D+03 -.699340321199442D+02 0.205797688894441D+02
 0.137573286359386D+02 -.825101059468330D+01 0.954641180535767D+01 -.548187349417782D+01
 0.190785143187973D+02 -.716287451251313D+01 -.176797692676060D+02 0.329690725921656D+00
0.975763013369D-02 0.000000000000D+00 0.000000000000D+00 0.755301230116D-05 0.000000000000D+00  6 2 -2 25 23 21 21 2 0.23509192D-01 0.10434332D+00 0.10285428D+06 0.10285428D+06 0.10285428D+06 0.11624505D+01  1  2  2  3  6  5       21 0.236705562553D+00 0.100000000000D+01
0.394745299816D-02 0.514924288901D-03 -.374718689564D-04 0.755301230116D-05 0.000000000000D+00  6 2 -2 25 23 21 21 4 0.23509192D-01 0.10434332D+00 0.10285428D+06 0.10285428D+06 0.10285428D+06 0.11624505D+01  1  2  3  3  6  5       21 0.129398741483D+00 0.100000000000D+01
0.310279351463D-03 0.000000000000D+00 0.000000000000D+00 0.755301230116D-05 0.000000000000D+00  6 2 -2 25 23 21 21 4 0.23509192D-01 0.10434332D+00 0.10285428D+06 0.10285428D+06 0.10285428D+06 0.11624505D+01  1  2 15  3  6  5       21 0.101710539951D-01 0.100000000000D+01
0.124738580204D-02 0.000000000000D+00 0.000000000000D+00 0.755265664359D-05 0.000000000000D+00  6 2 -2 25 23 21 21 4 0.23509192D-01 0.10434332D+00 0.10292508D+06 0.10292508D+06 0.10292508D+06 0.11624232D+01  1  2 12  3  6  5       21 0.408856776572D-01 0.100000000000D+01
0.120967135996D-02 0.000000000000D+00 0.000000000000D+00 0.755265664359D-05 0.000000000000D+00  6 2 -2 25 23 21 21 4 0.23509192D-01 0.10434332D+00 0.10292508D+06 0.10292508D+06 0.10292508D+06 0.11624232D+01  1  2 12  3  6  5       21 0.396495079657D-01 0.100000000000D+01
-.646571225628D-02 0.000000000000D+00 0.000000000000D+00 0.755301230116D-05 0.000000000000D+00  6 2 -2 25 23 21 21 4 0.23509192D-01 0.10434332D+00 0.10285428D+06 0.10285428D+06 0.10285428D+06 0.11624505D+01  1  2  4  3  6  5       21 -.211948066043D+00 0.100000000000D+01
0.945037750501D-04 0.000000000000D+00 0.000000000000D+00 0.755265664359D-05 0.000000000000D+00  6 2 -2 25 23 1 -1 4 0.23509192D-01 0.10434332D+00 0.10292508D+06 0.10292508D+06 0.10292508D+06 0.11624232D+01  1  2 12  6  6  5       21 0.309755881280D-02 0.100000000000D+01
0.945037750501D-04 0.000000000000D+00 0.000000000000D+00 0.755265664359D-05 0.000000000000D+00  6 2 -2 25 23 3 -3 4 0.23509192D-01 0.10434332D+00 0.10292508D+06 0.10292508D+06 0.10292508D+06 0.11624232D+01  1  2 12  6  6  5       21 0.309755881280D-02 0.100000000000D+01
0.919290185405D-04 0.000000000000D+00 0.000000000000D+00 0.755265664359D-05 0.000000000000D+00  6 2 -2 25 23 1 -1 4 0.23509192D-01 0.10434332D+00 0.10292508D+06 0.10292508D+06 0.10292508D+06 0.11624232D+01  1  2 12  6  6  5       21 0.301316578498D-02 0.100000000000D+01
0.919290185405D-04 0.000000000000D+00 0.000000000000D+00 0.755265664359D-05 0.000000000000D+00  6 2 -2 25 23 3 -3 4 0.23509192D-01 0.10434332D+00 0.10292508D+06 0.10292508D+06 0.10292508D+06 0.11624232D+01  1  2 12  6  6  5       21 0.301316578498D-02 0.100000000000D+01
0.945037750501D-04 0.000000000000D+00 0.000000000000D+00 0.755265664359D-05 0.000000000000D+00  6 2 -2 25 23 2 -2 4 0.23509192D-01 0.10434332D+00 0.10292508D+06 0.10292508D+06 0.10292508D+06 0.11624232D+01  1  2 12  7  6  5       21 0.309755881280D-02 0.100000000000D+01
0.919290185405D-04 0.000000000000D+00 0.000000000000D+00 0.755265664359D-05 0.000000000000D+00  6 2 -2 25 23 2 -2 4 0.23509192D-01 0.10434332D+00 0.10292508D+06 0.10292508D+06 0.10292508D+06 0.11624232D+01  1  2 12  7  6  5       21 0.301316578498D-02 0.100000000000D+01
0.945037750501D-04 0.000000000000D+00 0.000000000000D+00 0.755265664359D-05 0.000000000000D+00  6 2 -2 25 23 4 -4 4 0.23509192D-01 0.10434332D+00 0.10292508D+06 0.10292508D+06 0.10292508D+06 0.11624232D+01  1  2 12  8  6  5       21 0.309755881280D-02 0.100000000000D+01
0.919290185405D-04 0.000000000000D+00 0.000000000000D+00 0.755265664359D-05 0.000000000000D+00  6 2 -2 25 23 4 -4 4 0.23509192D-01 0.10434332D+00 0.10292508D+06 0.10292508D+06 0.10292508D+06 0.11624232D+01  1  2 12  8  6  5       21 0.301316578498D-02 0.100000000000D+01
  </mgrwgt>
  </event>
  <event>
  6     66 -.43206592E-03 0.51596182E+02 0.75467711E-02 0.11497906E+00
        2 -1    0    0  502    0 0.00000000E+00 0.00000000E+00 0.33639260E+04 0.33639260E+04 0.32000000E+00 0.0000E+00 0.9000E+01
       -2 -1    0    0    0  501 0.00000000E+00 0.00000000E+00 -.18577437E+02 0.18580193E+02 0.32000000E+00 0.0000E+00 0.9000E+01
       25  1    1    2    0    0 -.82579652E+02 0.10408171E+02 0.41138730E+03 0.43794091E+03 0.12500000E+03 0.0000E+00 0.9000E+01
       23  1    1    2    0    0 0.13689204E+03 -.38768298E+02 0.20049776E+04 0.20120867E+04 0.91188000E+02 0.0000E+00 0.9000E+01
       21  1    1    2  503  501 -.43032748E+02 0.43870249E+02 0.71354289E+03 0.71618463E+03 0.75000000E+00 0.0000E+00 0.9000E+01
       21  1    1    2  502  503 -.11279637E+02 -.15510122E+02 0.21544074E+03 0.21629394E+03 0.75000000E+00 0.0000E+00 0.9000E+01
#aMCatNLO 2  0  0  5  1 0.20316606D+02 0.00000000D+00  -5  6  0 0.00000000D+00 0.00000000D+00 0.00000000D+00 0.00000000D+00 0.00000000D+00
  <mgrwgt>
 -.4763531733D-01    4    2    0
 0.249995618221902D+03 0.000000000000000D+00 0.000000000000000D+00 0.249995618221902D+03
 0.249995618221902D+03 -.000000000000000D+00 -.000000000000000D+00 -.249995618221902D+03
 0.211164758041953D+03 -.776250476650572D+02 0.782104059760602D+01 -.151257192681487D+03
 0.198895427759939D+03 0.141548174076907D+03 -.411995788316896D+02 0.975235815554075D+02
 0.899310506419126D+02 -.639231264118495D+02 0.333785382340836D+02 0.537336111260799D+02
 0.000000000000000D+00 0.000000000000000D+00 0.000000000000000D+00 0.000000000000000D+00
 0.249995618221902D+03 0.000000000000000D+00 0.000000000000000D+00 0.249995618221902D+03
 0.249995618221902D+03 -.000000000000000D+00 -.000000000000000D+00 -.249995618221902D+03
 0.210203277894113D+03 -.826284799262697D+02 0.104336671133450D+02 -.147051320745758D+03
 0.197080328869282D+03 0.136846256260631D+03 -.387443931670697D+02 0.101476001245564D+03
 0.706355427161511D+02 -.427258217480165D+02 0.439651837047821D+02 0.350848496158484D+02
 0.220720869642574D+02 -.114919545863451D+02 -.156544576510574D+02 0.104904698843461D+02
-.315976108681D-03 0.000000000000D+00 0.000000000000D+00 0.122942584493D-05 0.000000000000D+00  6 2 -2 25 23 21 21 4 0.51752728D+00 0.28582804D-02 0.39975536D+05 0.39975536D+05 0.39975536D+05 0.12020272D+01  1  2 13  3  6  5       21 -.381208141290D-01 0.100000000000D+01
-.442819176852D-03 0.000000000000D+00 0.000000000000D+00 0.122942584493D-05 0.000000000000D+00  6 2 -2 25 23 21 21 4 0.51752728D+00 0.28582804D-02 0.39975536D+05 0.39975536D+05 0.39975536D+05 0.12020272D+01  1  2 13  3  6  5       21 -.534237465104D-01 0.100000000000D+01
-.706475761144D-05 0.000000000000D+00 0.000000000000D+00 0.123265339974D-05 0.000000000000D+00  6 2 -2 25 23 21 21 4 0.51752728D+00 0.28582804D-02 0.38574435D+05 0.38574435D+05 0.38574435D+05 0.12036040D+01  1  2  8  3  6  5       21 -.857792338081D-03 0.100000000000D+01
0.371065362736D-03 0.000000000000D+00 0.000000000000D+00 0.123265339974D-05 0.120132011827D-07  6 2 -2 25 23 21 21 4 0.51752728D+00 0.28582804D-02 0.39975536D+05 0.39975536D+05 0.39975536D+05 0.12020272D+01  1  2  1  3  6  5       21 0.447670356522D-01 0.100000000000D+01
  </mgrwgt>
  </event>
  <event>
  5     66 -.43206592E-03 0.12754057E+03 0.75467711E-02 0.10401456E+00
        2 -1    0    0  502    0 0.00000000E+00 0.00000000E+00 0.17201475E+04 0.17201475E+04 0.32000000E+00 0.0000E+00 0.9000E+01
       -2 -1    0    0    0  501 0.00000000E+00 0.00000000E+00 -.16092938E+03 0.16092970E+03 0.32000000E+00 0.0000E+00 0.9000E+01
       25  1    1    2    0    0 -.25135270E+03 0.27800836E+03 0.71845683E+03 0.81992197E+03 0.12500000E+03 0.0000E+00 0.9000E+01
       23  1    1    2    0    0 0.24114919E+03 -.15087707E+03 0.10841027E+03 0.31778115E+03 0.91188000E+02 0.0000E+00 0.9000E+01
       21  1    1    2  502  501 0.10203504E+02 -.12713129E+03 0.73235101E+03 0.74337409E+03 0.75000000E+00 0.0000E+00 0.9000E+01
#aMCatNLO 1  0  0  5  1 0.63144961D+00 0.00000000D+00  -5  6  0 0.00000000D+00 0.00000000D+00 0.00000000D+00 0.00000000D+00 0.00000000D+00
  <mgrwgt>
 -.1139501828D+00   25    2    0
 0.526139333677194D+03 0.000000000000000D+00 0.000000000000000D+00 0.526139333677194D+03
 0.526139333677194D+03 -.000000000000000D+00 -.000000000000000D+00 -.526139333677194D+03
 0.401134957548044D+03 -.251352713611746D+03 0.278008591958348D+03 0.694067023018638D+02
 0.407435610878188D+03 0.241149172970661D+03 -.150876834903942D+03 -.277077214387284D+03
 0.243708098928155D+03 0.102035406410855D+02 -.127131757054406D+03 0.207670512085420D+03
 0.000000000000000D+00 0.000000000000000D+00 0.000000000000000D+00 0.000000000000000D+00
 0.526139333677194D+03 0.000000000000000D+00 0.000000000000000D+00 0.526139333677194D+03
 0.526139333677194D+03 -.000000000000000D+00 -.000000000000000D+00 -.526139333677194D+03
 0.401134326667796D+03 -.251352603705007D+03 0.278007222567337D+03 0.694089392105565D+02
 0.407434646913502D+03 0.241149284603668D+03 -.150878225803517D+03 -.277074942344219D+03
 0.210129439164443D+03 0.921906566865431D+01 -.110006308804132D+03 0.178795978855930D+03
 0.335802546086456D+02 0.984253432685198D+00 -.171226879596881D+02 0.288700242777325D+02
0.647502385839D-04 0.000000000000D+00 0.000000000000D+00 0.404497479013D-06 0.000000000000D+00  6 2 -2 25 23 21 21 2 0.26463810D+00 0.24758393D-01 0.16865090D+06 0.16865090D+06 0.16865090D+06 0.11432786D+01  1  2  2  3  6  5       21 0.125247761515D-02 0.100000000000D+01
0.800725250161D-06 0.341696396585D-05 -.248657965291D-06 0.404497479013D-06 0.000000000000D+00  6 2 -2 25 23 21 21 4 0.26463810D+00 0.24758393D-01 0.16865090D+06 0.16865090D+06 0.16865090D+06 0.11432786D+01  1  2  3  3  6  5       21 0.202449297205D-04 0.100000000000D+01
0.259964986398D-06 0.000000000000D+00 0.000000000000D+00 0.404497479013D-06 0.000000000000D+00  6 2 -2 25 23 21 21 4 0.26463810D+00 0.24758393D-01 0.16865090D+06 0.16865090D+06 0.16865090D+06 0.11432786D+01  1  2 15  3  6  5       21 0.657275748250D-05 0.100000000000D+01
0.873120320538D-08 0.000000000000D+00 0.000000000000D+00 0.404497343514D-06 0.000000000000D+00  6 2 -2 25 23 21 21 4 0.26463810D+00 0.24758393D-01 0.16865176D+06 0.16865176D+06 0.16865176D+06 0.11432784D+01  1  2 12  3  6  5       21 0.220752932683D-06 0.100000000000D+01
0.873389029272D-08 0.000000000000D+00 0.000000000000D+00 0.404497343514D-06 0.000000000000D+00  6 2 -2 25 23 21 21 4 0.26463810D+00 0.24758393D-01 0.16865176D+06 0.16865176D+06 0.16865176D+06 0.11432784D+01  1  2 12  3  6  5       21 0.220820870903D-06 0.100000000000D+01
-.699377038063D+00 0.000000000000D+00 0.000000000000D+00 0.404497479013D-06 0.000000000000D+00  6 2 -2 25 23 21 21 4 0.26463810D+00 0.24758393D-01 0.16865090D+06 0.16865090D+06 0.16865090D+06 0.11432786D+01  1  2  4  3  6  5       21 -.176825184180D+02 0.100000000000D+01
-.595426981322D+00 0.000000000000D+00 0.000000000000D+00 0.404497479013D-06 0.000000000000D+00  6 2 -2 25 23 21 21 4 0.26463810D+00 0.24758393D-01 0.16865090D+06 0.16865090D+06 0.16865090D+06 0.11432786D+01  1  2  5  3  6  5       21 -.150543240495D+02 0.100000000000D+01
0.679589638174D+00 0.000000000000D+00 -.000000000000D+00 0.404497479013D-06 0.000000000000D+00  6 2 -2 25 23 21 21 4 0.26463810D+00 0.24758393D-01 0.16865090D+06 0.16865090D+06 0.16865090D+06 0.11432786D+01  1  2  6  3  6  5       21 0.171822288118D+02 0.100000000000D+01
0.610474134205D+00 0.000000000000D+00 0.000000000000D+00 0.404497479013D-06 0.636664620400D-05  6 2 -2 25 23 21 21 4 0.26463810D+00 0.24758393D-01 0.16865176D+06 0.16865176D+06 0.16865176D+06 0.11432784D+01  1  2 11  3  6  5       21 0.154347519217D+02 0.100000000000D+01
0.103804208279D-09 0.000000000000D+00 0.000000000000D+00 0.404497343514D-06 0.000000000000D+00  6 2 -2 25 23 1 -1 4 0.26463810D+00 0.24758393D-01 0.16865176D+06 0.16865176D+06 0.16865176D+06 0.11432784D+01  1  2 12  6  6  5       21 0.262450464882D-08 0.100000000000D+01
0.103804208279D-09 0.000000000000D+00 0.000000000000D+00 0.404497343514D-06 0.000000000000D+00  6 2 -2 25 23 3 -3 4 0.26463810D+00 0.24758393D-01 0.16865176D+06 0.16865176D+06 0.16865176D+06 0.11432784D+01  1  2 12  6  6  5       21 0.262450464882D-08 0.100000000000D+01
0.103820906999D-09 0.000000000000D+00 0.000000000000D+00 0.404497343514D-06 0.000000000000D+00  6 2 -2 25 23 1 -1 4 0.26463810D+00 0.24758393D-01 0.16865176D+06 0.16865176D+06 0.16865176D+06 0.11432784D+01  1  2 12  6  6  5       21 0.262492684624D-08 0.100000000000D+01
0.103820906999D-09 0.000000000000D+00 0.000000000000D+00 0.404497343514D-06 0.000000000000D+00  6 2 -2 25 23 3 -3 4 0.26463810D+00 0.24758393D-01 0.16865176D+06 0.16865176D+06 0.16865176D+06 0.11432784D+01  1  2 12  6  6  5       21 0.262492684624D-08 0.100000000000D+01
-.536119735455D-02 0.000000000000D+00 0.000000000000D+00 0.404497479013D-06 0.000000000000D+00  6 2 -2 25 23 1 -1 4 0.26463810D+00 0.24758393D-01 0.16865090D+06 0.16865090D+06 0.16865090D+06 0.11432786D+01  1  2  5  6  6  5       21 -.135548446410D+00 0.100000000000D+01
-.536119735455D-02 0.000000000000D+00 0.000000000000D+00 0.404497479013D-06 0.000000000000D+00  6 2 -2 25 23 3 -3 4 0.26463810D+00 0.24758393D-01 0.16865090D+06 0.16865090D+06 0.16865090D+06 0.11432786D+01  1  2  5  6  6  5       21 -.135548446410D+00 0.100000000000D+01
0.540607952913D-02 0.000000000000D+00 0.000000000000D+00 0.404497479013D-06 0.110278499960D-06  6 2 -2 25 23 1 -1 4 0.26463810D+00 0.24758393D-01 0.16865176D+06 0.16865176D+06 0.16865176D+06 0.11432784D+01  1  2 11  6  6  5       21 0.136683098801D+00 0.100000000000D+01
0.540607952913D-02 0.000000000000D+00 0.000000000000D+00 0.404497479013D-06 0.110278499960D-06  6 2 -2 25 23 3 -3 4 0.26463810D+00 0.24758393D-01 0.16865176D+06 0.16865176D+06 0.16865176D+06 0.11432784D+01  1  2 11  6  6  5       21 0.136683098801D+00 0.100000000000D+01
0.103804208279D-09 0.000000000000D+00 0.000000000000D+00 0.404497343514D-06 0.000000000000D+00  6 2 -2 25 23 2 -2 4 0.26463810D+00 0.24758393D-01 0.16865176D+06 0.16865176D+06 0.16865176D+06 0.11432784D+01  1  2 12  7  6  5       21 0.262450464882D-08 0.100000000000D+01
0.103820906999D-09 0.000000000000D+00 0.000000000000D+00 0.404497343514D-06 0.000000000000D+00  6 2 -2 25 23 2 -2 4 0.26463810D+00 0.24758393D-01 0.16865176D+06 0.16865176D+06 0.16865176D+06 0.11432784D+01  1  2 12  7  6  5       21 0.262492684624D-08 0.100000000000D+01
-.536119735455D-02 0.000000000000D+00 0.000000000000D+00 0.404497479013D-06 0.000000000000D+00  6 2 -2 25 23 2 -2 4 0.26463810D+00 0.24758393D-01 0.16865090D+06 0.16865090D+06 0.16865090D+06 0.11432786D+01  1  2  5  7  6  5       21 -.135548446410D+00 0.100000000000D+01
0.540874355763D-02 0.000000000000D+00 0.000000000000D+00 0.404497479013D-06 0.110332997016D-06  6 2 -2 25 23 2 -2 4 0.26463810D+00 0.24758393D-01 0.16865176D+06 0.16865176D+06 0.16865176D+06 0.11432784D+01  1  2 11  7  6  5       21 0.136750454020D+00 0.100000000000D+01
0.103804208279D-09 0.000000000000D+00 0.000000000000D+00 0.404497343514D-06 0.000000000000D+00  6 2 -2 25 23 4 -4 4 0.26463810D+00 0.24758393D-01 0.16865176D+06 0.16865176D+06 0.16865176D+06 0.11432784D+01  1  2 12  8  6  5       21 0.262450464882D-08 0.100000000000D+01
0.103820906999D-09 0.000000000000D+00 0.000000000000D+00 0.404497343514D-06 0.000000000000D+00  6 2 -2 25 23 4 -4 4 0.26463810D+00 0.24758393D-01 0.16865176D+06 0.16865176D+06 0.16865176D+06 0.11432784D+01  1  2 12  8  6  5       21 0.262492684624D-08 0.100000000000D+01
-.536119735455D-02 0.000000000000D+00 0.000000000000D+00 0.404497479013D-06 0.000000000000D+00  6 2 -2 25 23 4 -4 4 0.26463810D+00 0.24758393D-01 0.16865090D+06 0.16865090D+06 0.16865090D+06 0.11432786D+01  1  2  5  8  6  5       21 -.135548446410D+00 0.100000000000D+01
0.540710110163D-02 0.000000000000D+00 0.000000000000D+00 0.404497479013D-06 0.110299338996D-06  6 2 -2 25 23 4 -4 4 0.26463810D+00 0.24758393D-01 0.16865176D+06 0.16865176D+06 0.16865176D+06 0.11432784D+01  1  2 11  8  6  5       21 0.136708927443D+00 0.100000000000D+01
  </mgrwgt>
  </event>
  <event>
  5     66 0.43206592E-03 0.26524407E+02 0.75467711E-02 0.10254849E+00
        4 -1    0    0  502    0 0.00000000E+00 0.00000000E+00 0.14837765E+03 0.14838574E+03 0.15500000E+01 0.0000E+00 0.9000E+01
       -4 -1    0    0    0  501 0.00000000E+00 0.00000000E+00 -.12844044E+04 0.12844054E+04 0.15500000E+01 0.0000E+00 0.9000E+01
       25  1    1    2    0    0 -.20346223E+03 0.18296067E+03 -.96834395E+03 0.10139953E+04 0.12500000E+03 0.0000E+00 0.9000E+01
       23  1    1    2    0    0 0.22974313E+03 -.18654362E+03 -.20618761E+03 0.37203362E+03 0.91188000E+02 0.0000E+00 0.9000E+01
       21  1    1    2  502  501 -.26280898E+02 0.35829524E+01 0.38504766E+02 0.46762193E+02 0.75000000E+00 0.0000E+00 0.9000E+01
#aMCatNLO 1  0  0  2  1 0.10628715D+04 0.00000000D+00  -5  6  0 0.00000000D+00 0.00000000D+00 0.00000000D+00 0.00000000D+00 0.00000000D+00
  <mgrwgt>
 0.1649450441D+00    7    4    0
 0.436558562981376D+03 0.000000000000000D+00 0.000000000000000D+00 0.436558562981376D+03
 0.436558562981376D+03 0.000000000000000D+00 0.000000000000000D+00 -.436558562981376D+03
 0.404045773246597D+03 -.203462021415496D+03 0.182960639124540D+03 -.269734308628140D+03
 0.342235425566831D+03 0.229743312474378D+03 -.186543645026199D+03 0.145702827846784D+03
 0.126835927149325D+03 -.262812910588821D+02 0.358300590165864D+01 0.124031480781356D+03
 0.000000000000000D+00 -.000000000000000D+00 0.000000000000000D+00 -.000000000000000D+00
 0.502615007073073D+03 0.000000000000000D+00 0.000000000000000D+00 0.502615007073073D+03
 0.751592375831452D+03 0.000000000000000D+00 0.000000000000000D+00 -.751592375831452D+03
 0.368240013854228D+03 -.203010538010328D+03 0.774973032370730D+02 -.269734308628140D+03
 0.407433391758796D+03 0.230181573848662D+03 -.288918407849136D+03 0.145702827846784D+03
 0.130628046529236D+03 -.261307759082915D+02 -.315762706103653D+02 0.124031480781356D+03
 0.347905930762265D+03 -.104025993004232D+01 0.242997375222429D+03 -.248977368758379D+03
 0.436558562981376D+03 0.000000000000000D+00 0.000000000000000D+00 0.436558562981376D+03
 0.436558562981376D+03 0.000000000000000D+00 0.000000000000000D+00 -.436558562981376D+03
 0.404045773246597D+03 -.203462021415496D+03 0.182960639124540D+03 -.269734308628140D+03
 0.342235425566831D+03 0.229743312474378D+03 -.186543645026199D+03 0.145702827846784D+03
 0.000000000000000D+00 -.000000000000000D+00 0.000000000000000D+00 -.000000000000000D+00
 0.126835927149325D+03 -.262812910588821D+02 0.358300590165864D+01 0.124031480781356D+03
 0.502615007073073D+03 0.000000000000000D+00 0.000000000000000D+00 0.502615007073073D+03
 0.751592375831452D+03 0.000000000000000D+00 0.000000000000000D+00 -.751592375831452D+03
 0.368240013854228D+03 -.203010538010328D+03 0.774973032370730D+02 -.269734308628140D+03
 0.407433391758796D+03 0.230181573848662D+03 -.288918407849136D+03 0.145702827846784D+03
 0.347905930762265D+03 -.104025993004232D+01 0.242997375222429D+03 -.248977368758379D+03
 0.130628046529236D+03 -.261307759082915D+02 -.315762706103653D+02 0.124031480781356D+03
0.146903221772D+00 0.000000000000D+00 0.000000000000D+00 0.747550177183D-05 0.000000000000D+00  6 4 -4 25 23 21 21 2 0.22828025D-01 0.19760138D+00 0.10144894D+06 0.10144894D+06 0.10144894D+06 0.11629982D+01  1  2  2  2  6  2       -4 0.959487124688D-01 0.100000000000D+01
0.422866315752D-01 0.775229599522D-02 -.564147052111D-03 0.747550177183D-05 0.000000000000D+00  6 4 -4 25 23 21 21 4 0.22828025D-01 0.19760138D+00 0.10144894D+06 0.10144894D+06 0.10144894D+06 0.11629982D+01  1  2  3  2  6  2       -4 0.373567419743D-01 0.100000000000D+01
-.340602706641D-03 0.000000000000D+00 0.000000000000D+00 0.747550177183D-05 0.000000000000D+00  6 4 -4 25 23 21 21 4 0.22828025D-01 0.19760138D+00 0.10144894D+06 0.10144894D+06 0.10144894D+06 0.11629982D+01  1  2 15  2  6  2       -4 -.300894324134D-03 0.100000000000D+01
-.863958243491D-01 0.000000000000D+00 0.000000000000D+00 0.747550177183D-05 0.000000000000D+00  6 4 -4 25 23 21 21 4 0.22828025D-01 0.19760138D+00 0.10144894D+06 0.10144894D+06 0.10144894D+06 0.11629982D+01  1  2  4  2  6  2       -4 -.763235660454D-01 0.100000000000D+01
-.127323538788D+00 0.000000000000D+00 -.619621564071D-01 0.747550177183D-05 0.000000000000D+00  6 4 -4 25 23 21 21 4 0.22828025D-01 0.35767566D+00 0.10144894D+06 0.10144894D+06 0.10144894D+06 0.11629982D+01  1  2  5  2  6  2       -4 -.119737013252D-01 0.100000000000D+01
0.146959032886D+00 0.000000000000D+00 0.524537021974D-01 0.747550177183D-05 0.000000000000D+00  6 4 -4 25 23 21 21 4 0.22828025D-01 0.19760138D+00 0.10144894D+06 0.10144894D+06 0.10144894D+06 0.11629982D+01  1  2  6  2  6  2       -4 0.129826152328D+00 0.100000000000D+01
-.495417358162D-02 0.000000000000D+00 -.402748227683D-02 0.747550177183D-05 0.000000000000D+00  6 4 21 25 23 4 21 4 0.22828025D-01 0.35767566D+00 0.10144894D+06 0.10144894D+06 0.10144894D+06 0.11629982D+01  3  4  5  5  5  2       -4 -.958840099131D-02 0.100000000000D+01
  </mgrwgt>
  </event>
  <event>
  6     66 -.43206592E-03 0.13735054E+02 0.75467711E-02 0.12046259E+00
        2 -1    0    0  502    0 0.00000000E+00 0.00000000E+00 0.16297174E+04 0.16297174E+04 0.32000000E+00 0.0000E+00 0.9000E+01
       -2 -1    0    0    0  501 0.00000000E+00 0.00000000E+00 -.15669262E+02 0.15672529E+02 0.32000000E+00 0.0000E+00 0.9000E+01
       25  1    1    2    0    0 -.58740562E+02 -.47795154E+02 0.68038309E+03 0.69590300E+03 0.12500000E+03 0.0000E+00 0.9000E+01
       23  1    1    2    0    0 0.73620292E+02 0.28552247E+02 0.87615236E+03 0.88441698E+03 0.91188000E+02 0.0000E+00 0.9000E+01
       21  1    1    2  503  501 -.40126455E+01 0.19106204E+02 0.36327561E+02 0.41248061E+02 0.75000000E+00 0.0000E+00 0.9000E+01
       21  1    1    2  502  503 -.10867084E+02 0.13670291E+00 0.21185144E+02 0.23821944E+02 0.75000000E+00 0.0000E+00 0.9000E+01
#aMCatNLO 2  0  0  5  2 0.87369571D+01 0.00000000D+00  -5  6  0 0.00000000D+00 0.00000000D+00 0.00000000D+00 0.00000000D+00 0.00000000D+00
  <mgrwgt>
 -.2049305930D+00    2    2    0
 0.159809833375861D+03 0.000000000000000D+00 0.000000000000000D+00 0.159809833375861D+03
 0.159809833375861D+03 -.000000000000000D+00 -.000000000000000D+00 -.159809833375861D+03
 0.146523724810297D+03 -.580761598288584D+02 -.486543793504590D+02 -.102035759338710D+02
 0.129075151276469D+03 0.742040033444926D+02 0.277973743276670D+02 0.454556399270931D+02
 0.440207906649548D+02 -.161278435156342D+02 0.208570050227919D+02 -.352520639932220D+02
 0.000000000000000D+00 0.000000000000000D+00 0.000000000000000D+00 -.000000000000000D+00
 0.159809833375861D+03 0.000000000000000D+00 0.000000000000000D+00 0.159809833375861D+03
 0.159809833375861D+03 -.000000000000000D+00 -.000000000000000D+00 -.159809833375861D+03
 0.146614538901784D+03 -.587435607767931D+02 -.477912766727950D+02 -.116623736276188D+02
 0.128458481753486D+03 0.736176650458593D+02 0.285556443857684D+02 0.441740280857417D+02
 0.284188883938503D+02 -.373381704934637D+01 0.189426410956055D+02 -.208534931392131D+02
 0.161277577026016D+02 -.111402872197198D+02 0.292991191421045D+00 -.116581613189098D+02
-.719781605951D-04 0.000000000000D+00 0.000000000000D+00 0.170382220988D-04 0.000000000000D+00  6 2 -2 25 23 21 21 4 0.25072601D+00 0.24109094D-02 0.22085763D+05 0.22085763D+05 0.22085763D+05 0.12291111D+01  1  2 13  3  6  5       21 -.110524628960D+00 0.100000000000D+01
-.614810265169D-04 0.000000000000D+00 0.000000000000D+00 0.170382220988D-04 0.000000000000D+00  6 2 -2 25 23 21 21 4 0.25072601D+00 0.24109094D-02 0.22085763D+05 0.22085763D+05 0.22085763D+05 0.12291111D+01  1  2 13  3  6  5       21 -.944059640828D-01 0.100000000000D+01
  </mgrwgt>
  </event>
  <event>
  6     66 -.43206592E-03 0.15657496E+02 0.75467711E-02 0.12132827E+00
        2 -1    0    0  502    0 0.00000000E+00 0.00000000E+00 0.19274254E+04 0.19274255E+04 0.32000000E+00 0.0000E+00 0.9000E+01
       -2 -1    0    0    0  501 0.00000000E+00 0.00000000E+00 -.22685754E+02 0.22688011E+02 0.32000000E+00 0.0000E+00 0.9000E+01
       25  1    1    2    0    0 -.59255355E+02 0.11147196E+01 0.10860869E+04 0.10948617E+04 0.12500000E+03 0.0000E+00 0.9000E+01
       23  1    1    2    0    0 0.73141935E+02 0.17694586E+02 0.81875391E+03 0.82724607E+03 0.91188000E+02 0.0000E+00 0.9000E+01
       21  1    1    2  503  501 -.15163366E+02 -.11826988E+02 -.43070967E+01 0.19721027E+02 0.75000000E+00 0.0000E+00 0.9000E+01
       21  1    1    2  502  503 0.12767860E+01 -.69823171E+01 0.42059811E+01 0.82846673E+01 0.75000000E+00 0.0000E+00 0.9000E+01
#aMCatNLO 2  0  0  5  1 0.54361943D+01 0.00000000D+00  -5  6  0 0.00000000D+00 0.00000000D+00 0.00000000D+00 0.00000000D+00 0.00000000D+00
  <mgrwgt>
 -.3199184775D+00    4    2    0
 0.209110798235725D+03 0.000000000000000D+00 0.000000000000000D+00 0.209110798235725D+03
 0.209110798235725D+03 -.000000000000000D+00 -.000000000000000D+00 -.209110798235725D+03
 0.158901670364943D+03 -.592184385411454D+02 0.116472334828061D+01 0.782084445634847D+02
 0.128556619016293D+03 0.731718014592843D+02 0.177350394907524D+02 0.504272624119612D+02
 0.130763307090215D+03 -.139533629181389D+02 -.188997628390331D+02 -.128635706975446D+03
 0.000000000000000D+00 0.000000000000000D+00 -.000000000000000D+00 0.000000000000000D+00
 0.209110798235725D+03 0.000000000000000D+00 0.000000000000000D+00 0.209110798235725D+03
 0.209110798235725D+03 -.000000000000000D+00 -.000000000000000D+00 -.209110798235725D+03
 0.158748554259311D+03 -.592551877475505D+02 0.111494672527915D+01 0.778696545402882D+02
 0.128426865781487D+03 0.731420708361226D+02 0.176947695049355D+02 0.501531765337638D+02
 0.111552757917693D+03 -.151867204344216D+02 -.117908878455375D+02 -.109883375836858D+03
 0.194934185129591D+02 0.129983734584946D+01 -.701882838467713D+01 -.181394552371939D+02
-.500498778629D-03 0.000000000000D+00 0.000000000000D+00 0.345664268766D-04 0.000000000000D+00  6 2 -2 25 23 21 21 4 0.29652717D+00 0.34902917D-02 0.20012617D+05 0.20012617D+05 0.20012617D+05 0.12337959D+01  1  2 13  3  6  5       21 -.318385007478D+00 0.100000000000D+01
-.274215621978D-05 0.000000000000D+00 0.000000000000D+00 0.346210085594D-04 0.000000000000D+00  6 2 -2 25 23 21 21 4 0.29652717D+00 0.34902917D-02 0.19609627D+05 0.19609627D+05 0.19609627D+05 0.12347696D+01  1  2  8  3  6  5       21 -.174990407751D-02 0.100000000000D+01
-.211610960924D-05 0.000000000000D+00 0.000000000000D+00 0.346210085594D-04 0.000000000000D+00  6 2 -2 25 23 21 21 4 0.29652717D+00 0.34902917D-02 0.19609627D+05 0.19609627D+05 0.19609627D+05 0.12347696D+01  1  2  9  3  6  5       21 -.135039309830D-02 0.100000000000D+01
0.245526870163D-05 0.000000000000D+00 0.000000000000D+00 0.346210085594D-04 0.000000000000D+00  6 2 -2 25 23 21 21 4 0.29652717D+00 0.34902917D-02 0.19609627D+05 0.19609627D+05 0.19609627D+05 0.12347696D+01  1  2 10  3  6  5       21 0.156682711268D-02 0.100000000000D+01
  </mgrwgt>
  </event>
  <event>
  5     66 0.43206592E-03 0.65852358E+02 0.75467711E-02 0.12047226E+00
        2 -1    0    0  502    0 0.00000000E+00 0.00000000E+00 0.21998262E+02 0.22000590E+02 0.32000000E+00 0.0000E+00 0.9000E+01
       -2 -1    0    0    0  501 -.00000000E+00 -.00000000E+00 -.10691334E+04 0.10691334E+04 0.32000000E+00 0.0000E+00 0.9000E+01
       25  1    1    2    0    0 0.15434320E+02 -.32250488E+01 -.56901351E+03 0.58279499E+03 0.12500000E+03 0.0000E+00 0.9000E+01
       23  1    1    2    0    0 0.32852011E+02 -.41546844E+02 -.26267037E+03 0.28304835E+03 0.91188000E+02 0.0000E+00 0.9000E+01
       21  1    1    2  502  501 -.48286332E+02 0.44771893E+02 -.21545121E+03 0.22529065E+03 0.75000000E+00 0.0000E+00 0.9000E+01
#aMCatNLO 1  0  0  5  2 0.21808277D+02 0.00000000D+00  -5  6  0 0.00000000D+00 0.00000000D+00 0.00000000D+00 0.00000000D+00 0.00000000D+00
  <mgrwgt>
 0.1146640002D+00   14    2    0
 0.153363528355232D+03 0.000000000000000D+00 0.000000000000000D+00 0.153363528355232D+03
 0.153363528355232D+03 -.000000000000000D+00 -.000000000000000D+00 -.153363528355232D+03
 0.130648621949920D+03 0.154356522409658D+02 -.322628365015234D+01 -.345744725356405D+02
 0.110171349436916D+03 0.328531341357284D+02 -.415478852606985D+02 0.318891784242674D+02
 0.659070853236281D+02 -.482887863766943D+02 0.447741689108509D+02 0.268529411137305D+01
 0.000000000000000D+00 0.000000000000000D+00 0.000000000000000D+00 0.000000000000000D+00
 0.153363528355232D+03 0.000000000000000D+00 0.000000000000000D+00 0.153363528355232D+03
 0.153363528355232D+03 -.000000000000000D+00 -.000000000000000D+00 -.153363528355232D+03
 0.129954184426967D+03 0.922187470874960D+01 0.253523461687487D+01 -.342289301961317D+02
 0.107082194130674D+03 0.276729704737059D+02 -.367447510303218D+02 0.321772424660735D+02
 0.241521476063979D+02 -.208385025816396D+02 -.657949255352684D+01 -.102855880675007D+02
 0.455385305464249D+02 -.160563426008159D+02 0.407890089669738D+02 0.123372757975590D+02
0.108099553984D-02 0.000000000000D+00 0.000000000000D+00 0.331148809472D-05 0.000000000000D+00  6 2 -2 25 23 21 21 2 0.33845308D-02 0.16448224D+00 0.22096576D+05 0.22096576D+05 0.22096576D+05 0.12290879D+01  1  2  2  3  6  5       21 0.105650195949D+00 0.100000000000D+01
-.348046284144D-04 0.570457018794D-04 -.415130750564D-05 0.331148809472D-05 0.000000000000D+00  6 2 -2 25 23 21 21 4 0.33845308D-02 0.16448224D+00 0.22096576D+05 0.22096576D+05 0.22096576D+05 0.12290879D+01  1  2  3  3  6  5       21 -.513865327028D-02 0.100000000000D+01
0.290735543519D-04 0.000000000000D+00 0.000000000000D+00 0.331148809472D-05 0.000000000000D+00  6 2 -2 25 23 21 21 4 0.33845308D-02 0.16448224D+00 0.22096576D+05 0.22096576D+05 0.22096576D+05 0.12290879D+01  1  2 15  3  6  5       21 0.429250136994D-02 0.100000000000D+01
0.144135834281D-03 0.000000000000D+00 0.000000000000D+00 0.331859474364D-05 0.000000000000D+00  6 2 -2 25 23 21 21 4 0.33845308D-02 0.16448224D+00 0.21489611D+05 0.21489611D+05 0.21489611D+05 0.12304061D+01  1  2 12  3  6  5       21 0.213596418108D-01 0.100000000000D+01
0.146790739238D-03 0.000000000000D+00 0.000000000000D+00 0.331859474364D-05 0.000000000000D+00  6 2 -2 25 23 21 21 4 0.33845308D-02 0.16448224D+00 0.21489611D+05 0.21489611D+05 0.21489611D+05 0.12304061D+01  1  2 12  3  6  5       21 0.217530749859D-01 0.100000000000D+01
-.315423317791D-03 0.000000000000D+00 0.000000000000D+00 0.331148809472D-05 0.000000000000D+00  6 2 -2 25 23 21 21 4 0.33845308D-02 0.16448224D+00 0.22096576D+05 0.22096576D+05 0.22096576D+05 0.12290879D+01  1  2  4  3  6  5       21 -.465699861579D-01 0.100000000000D+01
0.111481208570D-04 0.000000000000D+00 0.000000000000D+00 0.331859474364D-05 0.000000000000D+00  6 2 -2 25 23 1 -1 4 0.33845308D-02 0.16448224D+00 0.21489611D+05 0.21489611D+05 0.21489611D+05 0.12304061D+01  1  2 12  6  6  5       21 0.165205182706D-02 0.100000000000D+01
0.111481208570D-04 0.000000000000D+00 0.000000000000D+00 0.331859474364D-05 0.000000000000D+00  6 2 -2 25 23 3 -3 4 0.33845308D-02 0.16448224D+00 0.21489611D+05 0.21489611D+05 0.21489611D+05 0.12304061D+01  1  2 12  6  6  5       21 0.165205182706D-02 0.100000000000D+01
0.113181899893D-04 0.000000000000D+00 0.000000000000D+00 0.331859474364D-05 0.000000000000D+00  6 2 -2 25 23 1 -1 4 0.33845308D-02 0.16448224D+00 0.21489611D+05 0.21489611D+05 0.21489611D+05 0.12304061D+01  1  2 12  6  6  5       21 0.167725455176D-02 0.100000000000D+01
0.113181899893D-04 0.000000000000D+00 0.000000000000D+00 0.331859474364D-05 0.000000000000D+00  6 2 -2 25 23 3 -3 4 0.33845308D-02 0.16448224D+00 0.21489611D+05 0.21489611D+05 0.21489611D+05 0.12304061D+01  1  2 12  6  6  5       21 0.167725455176D-02 0.100000000000D+01
0.111481208570D-04 0.000000000000D+00 0.000000000000D+00 0.331859474364D-05 0.000000000000D+00  6 2 -2 25 23 2 -2 4 0.33845308D-02 0.16448224D+00 0.21489611D+05 0.21489611D+05 0.21489611D+05 0.12304061D+01  1  2 12  7  6  5       21 0.165205182706D-02 0.100000000000D+01
0.113181899893D-04 0.000000000000D+00 0.000000000000D+00 0.331859474364D-05 0.000000000000D+00  6 2 -2 25 23 2 -2 4 0.33845308D-02 0.16448224D+00 0.21489611D+05 0.21489611D+05 0.21489611D+05 0.12304061D+01  1  2 12  7  6  5       21 0.167725455176D-02 0.100000000000D+01
0.111481208570D-04 0.000000000000D+00 0.000000000000D+00 0.331859474364D-05 0.000000000000D+00  6 2 -2 25 23 4 -4 4 0.33845308D-02 0.16448224D+00 0.21489611D+05 0.21489611D+05 0.21489611D+05 0.12304061D+01  1  2 12  8  6  5       21 0.165205182706D-02 0.100000000000D+01
0.113181899893D-04 0.000000000000D+00 0.000000000000D+00 0.331859474364D-05 0.000000000000D+00  6 2 -2 25 23 4 -4 4 0.33845308D-02 0.16448224D+00 0.21489611D+05 0.21489611D+05 0.21489611D+05 0.12304061D+01  1  2 12  8  6  5       21 0.167725455176D-02 0.100000000000D+01
  </mgrwgt>
  </event>
  <event>
  5     66 0.43206592E-03 0.67862115E+02 0.75467711E-02 0.12128209E+00
        2 -1    0    0  502    0 0.00000000E+00 0.00000000E+00 0.69060478E+03 0.69060485E+03 0.32000000E+00 0.0000E+00 0.9000E+01
       -2 -1    0    0    0  501 0.00000000E+00 0.00000000E+00 -.38675896E+02 0.38677220E+02 0.32000000E+00 0.0000E+00 0.9000E+01
       25  1    1    2    0    0 -.52267505E+02 -.38198071E+02 0.34643619E+03 0.37394387E+03 0.12500000E+03 0.0000E+00 0.9000E+01
       23  1    1    2    0    0 0.29178843E+02 -.25856139E+02 0.10891533E+03 0.14730154E+03 0.91188000E+02 0.0000E+00 0.9000E+01
       21  1    1    2  502  501 0.23088662E+02 0.64054210E+02 0.19657736E+03 0.20803665E+03 0.75000000E+00 0.0000E+00 0.9000E+01
#aMCatNLO 1  0  0  5  2 0.29831821D+02 0.00000000D+00  -5  6  0 0.00000000D+00 0.00000000D+00 0.00000000D+00 0.00000000D+00 0.00000000D+00
  <mgrwgt>
 0.4256939238D-01   14    2    0
 0.163432763636275D+03 0.000000000000000D+00 0.000000000000000D+00 0.163432763636275D+03
 0.163432763636275D+03 -.000000000000000D+00 -.000000000000000D+00 -.163432763636275D+03
 0.143358543130937D+03 -.522680531174886D+02 -.381995916160796D+02 0.271203560503351D+02
 0.111420269930976D+03 0.291784166614419D+02 -.258573211109408D+02 -.507862594959365D+02
 0.720867142106369D+02 0.230896364560467D+02 0.640569127270204D+02 0.236659034456015D+02
 0.000000000000000D+00 -.000000000000000D+00 0.000000000000000D+00 0.000000000000000D+00
 0.163432763636275D+03 0.000000000000000D+00 0.000000000000000D+00 0.163432763636275D+03
 0.163432763636275D+03 -.000000000000000D+00 -.000000000000000D+00 -.163432763636275D+03
 0.140055990099317D+03 -.479997776206575D+02 -.263582379630735D+02 0.314951583985452D+02
 0.109057983454321D+03 0.324988600973614D+02 -.166455106177529D+02 -.473829450305642D+02
 0.436394896777849D+02 0.153110016678398D+02 0.368504467223547D+02 -.176641689198161D+02
 0.341120640411269D+02 0.189915855456232D+00 0.615330185847170D+01 0.335519555518351D+02
0.270083484771D-04 0.000000000000D+00 0.000000000000D+00 0.286910295403D-05 0.000000000000D+00  6 2 -2 25 23 21 21 2 0.10624700D+00 0.59502454D-02 0.23721217D+05 0.23721217D+05 0.23721217D+05 0.12257500D+01  1  2  2  3  6  5       21 0.252042841045D-01 0.100000000000D+01
-.935679858408D-06 0.142526970621D-05 -.103719169614D-06 0.286910295403D-05 0.000000000000D+00  6 2 -2 25 23 21 21 4 0.10624700D+00 0.59502454D-02 0.23721217D+05 0.23721217D+05 0.23721217D+05 0.12257500D+01  1  2  3  3  6  5       21 -.131192018819D-02 0.100000000000D+01
0.102706459130D-05 0.000000000000D+00 0.000000000000D+00 0.286910295403D-05 0.000000000000D+00  6 2 -2 25 23 21 21 4 0.10624700D+00 0.59502454D-02 0.23721217D+05 0.23721217D+05 0.23721217D+05 0.12257500D+01  1  2 15  3  6  5       21 0.144005105998D-02 0.100000000000D+01
0.660669011116D-05 0.000000000000D+00 0.000000000000D+00 0.291037447098D-05 0.000000000000D+00  6 2 -2 25 23 21 21 4 0.10624700D+00 0.59502454D-02 0.19706051D+05 0.19706051D+05 0.19706051D+05 0.12345346D+01  1  2 12  3  6  5       21 0.948782574154D-02 0.100000000000D+01
0.803426913403D-05 0.000000000000D+00 0.000000000000D+00 0.291037447098D-05 0.000000000000D+00  6 2 -2 25 23 21 21 4 0.10624700D+00 0.59502454D-02 0.19706051D+05 0.19706051D+05 0.19706051D+05 0.12345346D+01  1  2 12  3  6  5       21 0.115379629166D-01 0.100000000000D+01
-.445377082521D-05 0.000000000000D+00 0.000000000000D+00 0.286910295403D-05 0.000000000000D+00  6 2 -2 25 23 21 21 4 0.10624700D+00 0.59502454D-02 0.23721217D+05 0.23721217D+05 0.23721217D+05 0.12257500D+01  1  2  4  3  6  5       21 -.624464853726D-02 0.100000000000D+01
0.193592723125D-06 0.000000000000D+00 0.000000000000D+00 0.291037447098D-05 0.000000000000D+00  6 2 -2 25 23 1 -1 4 0.10624700D+00 0.59502454D-02 0.19706051D+05 0.19706051D+05 0.19706051D+05 0.12345346D+01  1  2 12  6  6  5       21 0.278017281109D-03 0.100000000000D+01
0.193592723125D-06 0.000000000000D+00 0.000000000000D+00 0.291037447098D-05 0.000000000000D+00  6 2 -2 25 23 3 -3 4 0.10624700D+00 0.59502454D-02 0.19706051D+05 0.19706051D+05 0.19706051D+05 0.12345346D+01  1  2 12  6  6  5       21 0.278017281109D-03 0.100000000000D+01
0.233927668072D-06 0.000000000000D+00 0.000000000000D+00 0.291037447098D-05 0.000000000000D+00  6 2 -2 25 23 1 -1 4 0.10624700D+00 0.59502454D-02 0.19706051D+05 0.19706051D+05 0.19706051D+05 0.12345346D+01  1  2 12  6  6  5       21 0.335942039576D-03 0.100000000000D+01
0.233927668072D-06 0.000000000000D+00 0.000000000000D+00 0.291037447098D-05 0.000000000000D+00  6 2 -2 25 23 3 -3 4 0.10624700D+00 0.59502454D-02 0.19706051D+05 0.19706051D+05 0.19706051D+05 0.12345346D+01  1  2 12  6  6  5       21 0.335942039576D-03 0.100000000000D+01
0.193592723125D-06 0.000000000000D+00 0.000000000000D+00 0.291037447098D-05 0.000000000000D+00  6 2 -2 25 23 2 -2 4 0.10624700D+00 0.59502454D-02 0.19706051D+05 0.19706051D+05 0.19706051D+05 0.12345346D+01  1  2 12  7  6  5       21 0.278017281109D-03 0.100000000000D+01
0.233927668072D-06 0.000000000000D+00 0.000000000000D+00 0.291037447098D-05 0.000000000000D+00  6 2 -2 25 23 2 -2 4 0.10624700D+00 0.59502454D-02 0.19706051D+05 0.19706051D+05 0.19706051D+05 0.12345346D+01  1  2 12  7  6  5       21 0.335942039576D-03 0.100000000000D+01
0.193592723125D-06 0.000000000000D+00 0.000000000000D+00 0.291037447098D-05 0.000000000000D+00  6 2 -2 25 23 4 -4 4 0.10624700D+00 0.59502454D-02 0.19706051D+05 0.19706051D+05 0.19706051D+05 0.12345346D+01  1  2 12  8  6  5       21 0.278017281109D-03 0.100000000000D+01
0.233927668072D-06 0.000000000000D+00 0.000000000000D+00 0.291037447098D-05 0.000000000000D+00  6 2 -2 25 23 4 -4 4 0.10624700D+00 0.59502454D-02 0.19706051D+05 0.19706051D+05 0.19706051D+05 0.12345346D+01  1  2 12  8  6  5       21 0.335942039576D-03 0.100000000000D+01
  </mgrwgt>
  </event>
  <event>
  5     66 0.43206592E-03 0.31784148E+02 0.75467711E-02 0.11834450E+00
        2 -1    0    0  502    0 0.00000000E+00 0.00000000E+00 0.12180541E+04 0.12180542E+04 0.32000000E+00 0.0000E+00 0.9000E+01
       -2 -1    0    0    0  501 0.00000000E+00 0.00000000E+00 -.42314634E+02 0.42315844E+02 0.32000000E+00 0.0000E+00 0.9000E+01
       25  1    1    2    0    0 0.95425578E+02 -.34736693E+01 0.19950843E+03 0.25406046E+03 0.12500000E+03 0.0000E+00 0.9000E+01
       23  1    1    2    0    0 -.77916295E+02 0.29999815E+02 0.24538794E+03 0.27477523E+03 0.91188000E+02 0.0000E+00 0.9000E+01
       21  1    1    2  502  501 -.17509283E+02 -.26526145E+02 0.73084314E+03 0.73153433E+03 0.75000000E+00 0.0000E+00 0.9000E+01
#aMCatNLO 1  0  0  5  5 0.10194023D+02 0.00000000D+00  -5  6  0 0.00000000D+00 0.00000000D+00 0.00000000D+00 0.00000000D+00 0.00000000D+00
  <mgrwgt>
 0.1409742624D+00    3    2    0
 0.227029302089919D+03 0.000000000000000D+00 0.000000000000000D+00 0.227029302089919D+03
 0.227029302089919D+03 -.000000000000000D+00 -.000000000000000D+00 -.227029302089919D+03
 0.188611082467530D+03 0.954256850320306D+02 -.347350684335821D+01 -.104072156775722D+03
 0.127310059613485D+03 -.779162227266427D+02 0.299999241558161D+02 -.303589644330411D+02
 0.138137462098822D+03 -.175094623053879D+02 -.265264173124579D+02 0.134431121208763D+03
 0.000000000000000D+00 0.000000000000000D+00 0.000000000000000D+00 -.000000000000000D+00
 0.227029302089919D+03 0.000000000000000D+00 0.000000000000000D+00 0.227029302089919D+03
 0.227029302089919D+03 -.000000000000000D+00 -.000000000000000D+00 -.227029302089919D+03
 0.176059373345879D+03 0.925655622930174D+02 -.780652450070621D+01 -.821132011039698D+02
 0.125129658934980D+03 -.798961159912070D+02 0.270004331346786D+02 -.151580823735642D+02
 0.272407499387696D+02 -.798698715229854D+00 0.141350157216199D+02 -.232727709596090D+02
 0.125628821960209D+03 -.118707475865805D+02 -.333289243555923D+02 0.120544054437143D+03
0.303965508109D-03 0.000000000000D+00 0.000000000000D+00 0.157249197754D-04 0.000000000000D+00  6 2 -2 25 23 21 21 2 0.18739304D+00 0.65100400D-02 0.24448597D+05 0.24448597D+05 0.24448597D+05 0.12243375D+01  1  2  2  3  6  5       21 0.115363746275D+00 0.100000000000D+01
0.428894607699D-04 0.160407005563D-04 -.116730758709D-05 0.157249197754D-04 0.000000000000D+00  6 2 -2 25 23 21 21 4 0.18739304D+00 0.65100400D-02 0.24448597D+05 0.24448597D+05 0.24448597D+05 0.12243375D+01  1  2  3  3  6  5       21 0.244004545278D-01 0.100000000000D+01
0.212696401606D-05 0.000000000000D+00 0.000000000000D+00 0.157249197754D-04 0.000000000000D+00  6 2 -2 25 23 21 21 4 0.18739304D+00 0.65100400D-02 0.24448597D+05 0.24448597D+05 0.24448597D+05 0.12243375D+01  1  2 15  3  6  5       21 0.121006158214D-02 0.100000000000D+01
  </mgrwgt>
  </event>
  <event>
  5     66 -.43206592E-03 0.20471913E+02 0.75467711E-02 0.11933546E+00
        2 -1    0    0  502    0 0.00000000E+00 0.00000000E+00 0.73982031E+03 0.73982038E+03 0.32000000E+00 0.0000E+00 0.9000E+01
       -2 -1    0    0    0  501 0.00000000E+00 0.00000000E+00 -.50318033E+02 0.50319050E+02 0.32000000E+00 0.0000E+00 0.9000E+01
       25  1    1    2    0    0 0.96843334E+02 -.21564432E+02 0.42712165E+03 0.45596223E+03 0.12500000E+03 0.0000E+00 0.9000E+01
       23  1    1    2    0    0 -.86689168E+02 0.39339826E+02 0.27849147E+03 0.30811586E+03 0.91188000E+02 0.0000E+00 0.9000E+01
       21  1    1    2  502  501 -.10154167E+02 -.17775394E+02 -.16110838E+02 0.26061338E+02 0.75000000E+00 0.0000E+00 0.9000E+01
#aMCatNLO 1  0  0  5  1 0.52076283D+01 0.00000000D+00  -5  6  0 0.00000000D+00 0.00000000D+00 0.00000000D+00 0.00000000D+00 0.00000000D+00
  <mgrwgt>
 -.1222545417D+00   15    2    0
 0.192942301925214D+03 0.000000000000000D+00 0.000000000000000D+00 0.192942301925214D+03
 0.192942301925214D+03 -.000000000000000D+00 -.000000000000000D+00 -.192942301925214D+03
 0.170446327036929D+03 0.968435213088198D+02 -.215641044742509D+02 0.598604391824150D+02
 0.133288670189419D+03 -.866890216246121D+02 0.393400816622900D+02 0.196974557097002D+02
 0.821496066240802D+02 -.101544996842077D+02 -.177759771880391D+02 -.795578948921152D+02
 0.000000000000000D+00 -.000000000000000D+00 0.000000000000000D+00 0.000000000000000D+00
 0.192942301925214D+03 0.000000000000000D+00 0.000000000000000D+00 0.192942301925214D+03
 0.192942301925214D+03 -.000000000000000D+00 -.000000000000000D+00 -.192942301925214D+03
 0.169976509638804D+03 0.966906424851278D+02 -.218317267665347D+02 0.586626728950782D+02
 0.133169584929678D+03 -.868086840567903D+02 0.391306063822846D+02 0.187599313118637D+02
 0.762467031919585D+02 -.426466721036085D+01 -.171422009697526D+02 -.741722138481797D+02
 0.649180608998791D+01 -.561729121797668D+01 -.156678645997247D+00 -.325039035876226D+01
0.146622309449D-03 0.000000000000D+00 0.000000000000D+00 0.299249542809D-04 0.000000000000D+00  6 2 -2 25 23 21 21 2 0.11381859D+00 0.77413194D-02 0.24318249D+05 0.24318249D+05 0.24318249D+05 0.12245871D+01  1  2  2  3  6  5       21 0.840404073265D-01 0.100000000000D+01
0.311672782679D-04 0.773747184468D-05 -.563068274826D-06 0.299249542809D-04 0.000000000000D+00  6 2 -2 25 23 21 21 4 0.11381859D+00 0.77413194D-02 0.24318249D+05 0.24318249D+05 0.24318249D+05 0.12245871D+01  1  2  3  3  6  5       21 0.267896070043D-01 0.100000000000D+01
0.252288489502D-05 0.000000000000D+00 0.000000000000D+00 0.299249542809D-04 0.000000000000D+00  6 2 -2 25 23 21 21 4 0.11381859D+00 0.77413194D-02 0.24318249D+05 0.24318249D+05 0.24318249D+05 0.12245871D+01  1  2 15  3  6  5       21 0.216852733414D-02 0.100000000000D+01
0.771335649095D-04 0.000000000000D+00 0.000000000000D+00 0.298846010227D-04 0.000000000000D+00  6 2 -2 25 23 21 21 4 0.11381859D+00 0.77413194D-02 0.24752501D+05 0.24752501D+05 0.24752501D+05 0.12237612D+01  1  2 12  3  6  5       21 0.661419858847D-01 0.100000000000D+01
-.445375285750D-03 0.000000000000D+00 0.000000000000D+00 0.299249542809D-04 0.000000000000D+00  6 2 -2 25 23 21 21 4 0.11381859D+00 0.77413194D-02 0.24318249D+05 0.24318249D+05 0.24318249D+05 0.12245871D+01  1  2  4  3  6  5       21 -.382819082633D+00 0.100000000000D+01
-.127192548704D-02 0.000000000000D+00 0.000000000000D+00 0.299249542809D-04 0.000000000000D+00  6 2 -2 25 23 21 21 4 0.11381859D+00 0.77413194D-02 0.24318249D+05 0.24318249D+05 0.24318249D+05 0.12245871D+01  1  2  5  3  6  5       21 -.109327428734D+01 0.100000000000D+01
0.139300651131D-02 0.000000000000D+00 -.000000000000D+00 0.299249542809D-04 0.000000000000D+00  6 2 -2 25 23 21 21 4 0.11381859D+00 0.77413194D-02 0.24318249D+05 0.24318249D+05 0.24318249D+05 0.12245871D+01  1  2  6  3  6  5       21 0.119734859976D+01 0.100000000000D+01
0.196463003650D-05 0.000000000000D+00 0.000000000000D+00 0.298846010227D-04 0.000000000000D+00  6 2 -2 25 23 1 -1 4 0.11381859D+00 0.77413194D-02 0.24752501D+05 0.24752501D+05 0.24752501D+05 0.12237612D+01  1  2 12  6  6  5       21 0.168466908401D-02 0.100000000000D+01
0.196463003650D-05 0.000000000000D+00 0.000000000000D+00 0.298846010227D-04 0.000000000000D+00  6 2 -2 25 23 3 -3 4 0.11381859D+00 0.77413194D-02 0.24752501D+05 0.24752501D+05 0.24752501D+05 0.12237612D+01  1  2 12  6  6  5       21 0.168466908401D-02 0.100000000000D+01
-.854785190791D-05 0.000000000000D+00 0.000000000000D+00 0.299249542809D-04 0.000000000000D+00  6 2 -2 25 23 1 -1 4 0.11381859D+00 0.77413194D-02 0.24318249D+05 0.24318249D+05 0.24318249D+05 0.12245871D+01  1  2  5  6  6  5       21 -.734724384259D-02 0.100000000000D+01
-.854785190791D-05 0.000000000000D+00 0.000000000000D+00 0.299249542809D-04 0.000000000000D+00  6 2 -2 25 23 3 -3 4 0.11381859D+00 0.77413194D-02 0.24318249D+05 0.24318249D+05 0.24318249D+05 0.12245871D+01  1  2  5  6  6  5       21 -.734724384259D-02 0.100000000000D+01
0.196463003650D-05 0.000000000000D+00 0.000000000000D+00 0.298846010227D-04 0.000000000000D+00  6 2 -2 25 23 2 -2 4 0.11381859D+00 0.77413194D-02 0.24752501D+05 0.24752501D+05 0.24752501D+05 0.12237612D+01  1  2 12  7  6  5       21 0.168466908401D-02 0.100000000000D+01
-.854785190791D-05 0.000000000000D+00 0.000000000000D+00 0.299249542809D-04 0.000000000000D+00  6 2 -2 25 23 2 -2 4 0.11381859D+00 0.77413194D-02 0.24318249D+05 0.24318249D+05 0.24318249D+05 0.12245871D+01  1  2  5  7  6  5       21 -.734724384259D-02 0.100000000000D+01
0.196463003650D-05 0.000000000000D+00 0.000000000000D+00 0.298846010227D-04 0.000000000000D+00  6 2 -2 25 23 4 -4 4 0.11381859D+00 0.77413194D-02 0.24752501D+05 0.24752501D+05 0.24752501D+05 0.12237612D+01  1  2 12  8  6  5       21 0.168466908401D-02 0.100000000000D+01
-.854785190791D-05 0.000000000000D+00 0.000000000000D+00 0.299249542809D-04 0.000000000000D+00  6 2 -2 25 23 4 -4 4 0.11381859D+00 0.77413194D-02 0.24318249D+05 0.24318249D+05 0.24318249D+05 0.12245871D+01  1  2  5  8  6  5       21 -.734724384259D-02 0.100000000000D+01
  </mgrwgt>
  </event>
  <event>
  5     66 0.43206592E-03 0.14332411E+03 0.75467711E-02 0.10571680E+00
        2 -1    0    0  502    0 0.00000000E+00 0.00000000E+00 0.32550012E+03 0.32550028E+03 0.32000000E+00 0.0000E+00 0.9000E+01
       -2 -1    0    0    0  501 0.00000000E+00 0.00000000E+00 -.27524853E+03 0.27524871E+03 0.32000000E+00 0.0000E+00 0.9000E+01
       25  1    1    2    0    0 0.30465923E+02 0.42953233E+02 -.13281990E+03 0.18984014E+03 0.12500000E+03 0.0000E+00 0.9000E+01
       23  1    1    2    0    0 0.50308439E+02 0.75441024E+02 -.49437643E+02 0.13777380E+03 0.91188000E+02 0.0000E+00 0.9000E+01
       21  1    1    2  502  501 -.80774362E+02 -.11839426E+03 0.23250914E+03 0.27313506E+03 0.75000000E+00 0.0000E+00 0.9000E+01
#aMCatNLO 1  0  0  2  2 0.29464634D+03 0.00000000D+00  -5  6  0 0.00000000D+00 0.00000000D+00 0.00000000D+00 0.00000000D+00 0.00000000D+00
  <mgrwgt>
 0.1163417667D+00    3    2    0
 0.299321787572980D+03 0.000000000000000D+00 0.000000000000000D+00 0.299321787572980D+03
 0.299321787572980D+03 0.000000000000000D+00 0.000000000000000D+00 -.299321787572980D+03
 0.201657310794062D+03 0.304660408521842D+02 0.429534057067669D+02 -.149222975073129D+03
 0.142408447797175D+03 0.503085223636517D+02 0.754411465563998D+02 -.611767982477215D+02
 0.254577816554723D+03 -.807745632158358D+02 -.118394552263167D+03 0.210399773320851D+03
 0.000000000000000D+00 -.000000000000000D+00 -.000000000000000D+00 0.000000000000000D+00
 0.126702441583414D+04 0.000000000000000D+00 0.000000000000000D+00 0.126702441583414D+04
 0.356865490069470D+03 0.000000000000000D+00 0.000000000000000D+00 -.356865490069470D+03
 0.250401811601058D+03 0.781715326733166D+02 0.136739834879675D+03 -.149222975073129D+03
 0.203045331600034D+03 0.867640248215990D+02 0.147110702171808D+03 -.611767982477215D+02
 0.213778904122680D+03 -.313491969290799D+02 -.212269424630626D+02 0.210399773320851D+03
 0.956663858579842D+03 -.133586360565836D+03 -.262623594588420D+03 0.910158925764673D+03
0.156897731649D-02 0.000000000000D+00 0.000000000000D+00 0.195492535372D-05 0.000000000000D+00  6 2 -2 25 23 21 21 2 0.50076968D-01 0.42345954D-01 0.41526787D+05 0.41526787D+05 0.41526787D+05 0.12003517D+01  1  2  2  2  6  2       -2 0.121155958819D+00 0.100000000000D+01
-.110769139943D-03 0.827972077162D-04 -.602528601655D-05 0.195492535372D-05 0.000000000000D+00  6 2 -2 25 23 21 21 4 0.50076968D-01 0.42345954D-01 0.41526787D+05 0.41526787D+05 0.41526787D+05 0.12003517D+01  1  2  3  2  6  2       -2 -.123243474457D-01 0.100000000000D+01
0.674999995572D-04 0.000000000000D+00 0.000000000000D+00 0.195492535372D-05 0.000000000000D+00  6 2 -2 25 23 21 21 4 0.50076968D-01 0.42345954D-01 0.41526787D+05 0.41526787D+05 0.41526787D+05 0.12003517D+01  1  2 15  2  6  2       -2 0.751015533350D-02 0.100000000000D+01
  </mgrwgt>
  </event>
  <event>
  6     66 -.43206592E-03 0.51376996E+02 0.75467711E-02 0.11950442E+00
        2 -1    0    0  502    0 0.00000000E+00 0.00000000E+00 0.86294894E+03 0.86294900E+03 0.32000000E+00 0.0000E+00 0.9000E+01
       -2 -1    0    0    0  501 0.00000000E+00 0.00000000E+00 -.63504746E+02 0.63505552E+02 0.32000000E+00 0.0000E+00 0.9000E+01
       25  1    1    2    0    0 0.10310718E+02 0.10469226E+02 0.36885456E+03 0.38973658E+03 0.12500000E+03 0.0000E+00 0.9000E+01
       23  1    1    2    0    0 -.66501504E+00 0.61584245E+02 0.42084225E+03 0.43499024E+03 0.91188000E+02 0.0000E+00 0.9000E+01
       21  1    1    2  502  503 -.46523781E+01 -.58524881E+02 -.25215769E+02 0.63899952E+02 0.75000000E+00 0.0000E+00 0.9000E+01
       21  1    1    2  503  501 -.49933249E+01 -.13528589E+02 0.34963157E+02 0.37827779E+02 0.75000000E+00 0.0000E+00 0.9000E+01
#aMCatNLO 2  0  0  5  1 0.15100871D+02 0.00000000D+00  -5  6  0 0.00000000D+00 0.00000000D+00 0.00000000D+00 0.00000000D+00 0.00000000D+00
  <mgrwgt>
 -.1086606535D-01    3    2    0
 0.234097745714748D+03 0.000000000000000D+00 0.000000000000000D+00 0.234097745714748D+03
 0.234097745714748D+03 -.000000000000000D+00 -.000000000000000D+00 -.234097745714748D+03
 0.143366296485590D+03 0.105546934431859D+02 0.122917238876025D+02 0.683111040621171D+02
 0.145482660360257D+03 -.418559775079051D+00 0.634252679173104D+02 0.939521863440651D+02
 0.179346534583649D+03 -.101361336681069D+02 -.757169918049129D+02 -.162263290406182D+03
 0.000000000000000D+00 -.000000000000000D+00 0.000000000000000D+00 0.000000000000000D+00
 0.234097745714748D+03 0.000000000000000D+00 0.000000000000000D+00 0.234097745714748D+03
 0.234097745714748D+03 -.000000000000000D+00 -.000000000000000D+00 -.234097745714748D+03
 0.141373711414705D+03 0.103096232071223D+02 0.104610474518680D+02 0.643879214970107D+02
 0.142145557226534D+03 -.666115837545836D+00 0.615760223403669D+02 0.899892096735570D+02
 0.169463582061676D+03 -.462453234592277D+01 -.584408238822251D+02 -.159000595752729D+03
 0.152126407265807D+02 -.501897502365371D+01 -.135962459100099D+02 0.462346458216143D+01
-.861311722056D-04 0.000000000000D+00 0.000000000000D+00 0.514639484373D-05 0.000000000000D+00  6 2 -2 25 23 21 21 4 0.13276144D+00 0.97700275D-02 0.23871742D+05 0.23871742D+05 0.23871742D+05 0.12254537D+01  1  2 13  3  6  5       21 -.425897066358D-01 0.100000000000D+01
-.199944113580D-04 0.000000000000D+00 0.000000000000D+00 0.513503617605D-05 0.000000000000D+00  6 2 -2 25 23 21 21 4 0.13276144D+00 0.97700275D-02 0.24572980D+05 0.24572980D+05 0.24572980D+05 0.12241006D+01  1  2  8  3  6  5       21 -.984586475779D-02 0.100000000000D+01
0.840679724286D-04 0.000000000000D+00 0.000000000000D+00 0.513503617605D-05 0.186526116038D-06  6 2 -2 25 23 21 21 4 0.13276144D+00 0.97700275D-02 0.23871742D+05 0.23871742D+05 0.23871742D+05 0.12254537D+01  1  2  1  3  6  5       21 0.415695060397D-01 0.100000000000D+01
  </mgrwgt>
  </event>
  <event>
  5     66 0.43206592E-03 0.40112169E+02 0.75467711E-02 0.11937144E+00
        2 -1    0    0  502    0 0.00000000E+00 0.00000000E+00 0.48161241E+03 0.48161252E+03 0.32000000E+00 0.0000E+00 0.9000E+01
       -2 -1    0    0    0  501 0.00000000E+00 0.00000000E+00 -.78007727E+02 0.78008383E+02 0.32000000E+00 0.0000E+00 0.9000E+01
       25  1    1    2    0    0 0.24963811E+02 -.53703622E+02 0.35781608E+03 0.38362041E+03 0.12500000E+03 0.0000E+00 0.9000E+01
       23  1    1    2    0    0 -.61042221E+02 0.36175667E+02 0.63842598E+02 0.13200742E+03 0.91188000E+02 0.0000E+00 0.9000E+01
       21  1    1    2  502  501 0.36078410E+02 0.17527955E+02 -.18053993E+02 0.43993068E+02 0.75000000E+00 0.0000E+00 0.9000E+01
#aMCatNLO 1  0  0  5  1 0.18477770D+02 0.00000000D+00  -5  6  0 0.00000000D+00 0.00000000D+00 0.00000000D+00 0.00000000D+00 0.00000000D+00
  <mgrwgt>
 0.6382843624D-01   15    2    0
 0.193829056188466D+03 0.000000000000000D+00 0.000000000000000D+00 0.193829056188466D+03
 0.193829056188466D+03 -.000000000000000D+00 -.000000000000000D+00 -.193829056188466D+03
 0.181257922606890D+03 0.249631105582693D+02 -.537039622893954D+02 0.117141632451662D+03
 0.124096132763048D+03 -.610427001677464D+02 0.361754339982129D+02 -.452738948403564D+02
 0.823040570069941D+02 0.360795896094771D+02 0.175285282911825D+02 -.718677376113055D+02
 0.000000000000000D+00 0.000000000000000D+00 0.000000000000000D+00 0.000000000000000D+00
 0.193829056188466D+03 0.000000000000000D+00 0.000000000000000D+00 0.193829056188466D+03
 0.193829056188466D+03 -.000000000000000D+00 -.000000000000000D+00 -.193829056188466D+03
 0.177477248055743D+03 0.279546712755507D+02 -.522505738990273D+02 0.111182676072031D+03
 0.124965385345873D+03 -.589657288677624D+02 0.371844878867355D+02 -.494110602025215D+02
 0.203782397766612D+02 -.107876691697658D+02 0.121579877996915D+02 -.122915492490301D+02
 0.648372391986552D+02 0.417987267619775D+02 0.290809821260027D+01 -.494800666204791D+02
0.105791706525D-03 0.000000000000D+00 0.000000000000D+00 0.615923903972D-05 0.000000000000D+00  6 2 -2 25 23 21 21 2 0.74094276D-01 0.12001247D-01 0.21605232D+05 0.21605232D+05 0.21605232D+05 0.12301518D+01  1  2  2  3  6  5       21 0.501386616378D-01 0.100000000000D+01
0.320959645169D-05 0.558278173157D-05 -.406268008650D-06 0.615923903972D-05 0.000000000000D+00  6 2 -2 25 23 21 21 4 0.74094276D-01 0.12001247D-01 0.21605232D+05 0.21605232D+05 0.21605232D+05 0.12301518D+01  1  2  3  3  6  5       21 0.230191324986D-02 0.100000000000D+01
0.394914074637D-05 0.000000000000D+00 0.000000000000D+00 0.615923903972D-05 0.000000000000D+00  6 2 -2 25 23 21 21 4 0.74094276D-01 0.12001247D-01 0.21605232D+05 0.21605232D+05 0.21605232D+05 0.12301518D+01  1  2 15  3  6  5       21 0.283231226930D-02 0.100000000000D+01
0.104409829684D-04 0.000000000000D+00 0.000000000000D+00 0.610548190152D-05 0.000000000000D+00  6 2 -2 25 23 21 21 4 0.74094276D-01 0.12001247D-01 0.24222362D+05 0.24222362D+05 0.24222362D+05 0.12247717D+01  1  2 12  3  6  5       21 0.737455555454D-02 0.100000000000D+01
-.430867599906D-04 0.000000000000D+00 0.000000000000D+00 0.615923903972D-05 0.000000000000D+00  6 2 -2 25 23 21 21 4 0.74094276D-01 0.12001247D-01 0.21605232D+05 0.21605232D+05 0.21605232D+05 0.12301518D+01  1  2  4  3  6  5       21 -.309016990793D-01 0.100000000000D+01
-.109268183113D-04 0.000000000000D+00 0.000000000000D+00 0.615923903972D-05 0.000000000000D+00  6 2 -2 25 23 21 21 4 0.74094276D-01 0.12001247D-01 0.21605232D+05 0.21605232D+05 0.21605232D+05 0.12301518D+01  1  2  5  3  6  5       21 -.783668234563D-02 0.100000000000D+01
0.603979908208D-04 0.000000000000D+00 -.000000000000D+00 0.615923903972D-05 0.000000000000D+00  6 2 -2 25 23 21 21 4 0.74094276D-01 0.12001247D-01 0.21605232D+05 0.21605232D+05 0.21605232D+05 0.12301518D+01  1  2  6  3  6  5       21 0.433172635339D-01 0.100000000000D+01
0.156328489248D-05 0.000000000000D+00 0.000000000000D+00 0.610548190152D-05 0.000000000000D+00  6 2 -2 25 23 1 -1 4 0.74094276D-01 0.12001247D-01 0.24222362D+05 0.24222362D+05 0.24222362D+05 0.12247717D+01  1  2 12  6  6  5       21 0.110416148767D-02 0.100000000000D+01
0.156328489248D-05 0.000000000000D+00 0.000000000000D+00 0.610548190152D-05 0.000000000000D+00  6 2 -2 25 23 3 -3 4 0.74094276D-01 0.12001247D-01 0.24222362D+05 0.24222362D+05 0.24222362D+05 0.12247717D+01  1  2 12  6  6  5       21 0.110416148767D-02 0.100000000000D+01
-.272398430836D-05 0.000000000000D+00 0.000000000000D+00 0.615923903972D-05 0.000000000000D+00  6 2 -2 25 23 1 -1 4 0.74094276D-01 0.12001247D-01 0.21605232D+05 0.21605232D+05 0.21605232D+05 0.12301518D+01  1  2  5  6  6  5       21 -.195363363158D-02 0.100000000000D+01
-.272398430836D-05 0.000000000000D+00 0.000000000000D+00 0.615923903972D-05 0.000000000000D+00  6 2 -2 25 23 3 -3 4 0.74094276D-01 0.12001247D-01 0.21605232D+05 0.21605232D+05 0.21605232D+05 0.12301518D+01  1  2  5  6  6  5       21 -.195363363158D-02 0.100000000000D+01
0.156328489248D-05 0.000000000000D+00 0.000000000000D+00 0.610548190152D-05 0.000000000000D+00  6 2 -2 25 23 2 -2 4 0.74094276D-01 0.12001247D-01 0.24222362D+05 0.24222362D+05 0.24222362D+05 0.12247717D+01  1  2 12  7  6  5       21 0.110416148767D-02 0.100000000000D+01
-.272398430836D-05 0.000000000000D+00 0.000000000000D+00 0.615923903972D-05 0.000000000000D+00  6 2 -2 25 23 2 -2 4 0.74094276D-01 0.12001247D-01 0.21605232D+05 0.21605232D+05 0.21605232D+05 0.12301518D+01  1  2  5  7  6  5       21 -.195363363158D-02 0.100000000000D+01
0.156328489248D-05 0.000000000000D+00 0.000000000000D+00 0.610548190152D-05 0.000000000000D+00  6 2 -2 25 23 4 -4 4 0.74094276D-01 0.12001247D-01 0.24222362D+05 0.24222362D+05 0.24222362D+05 0.12247717D+01  1  2 12  8  6  5       21 0.110416148767D-02 0.100000000000D+01
-.272398430836D-05 0.000000000000D+00 0.000000000000D+00 0.615923903972D-05 0.000000000000D+00  6 2 -2 25 23 4 -4 4 0.74094276D-01 0.12001247D-01 0.21605232D+05 0.21605232D+05 0.21605232D+05 0.12301518D+01  1  2  5  8  6  5       21 -.195363363158D-02 0.100000000000D+01
  </mgrwgt>
  </event>
  <event>
  5     66 -.43206592E-03 0.17352030E+03 0.75467711E-02 0.11078120E+00
        2 -1    0    0  502    0 0.00000000E+00 0.00000000E+00 0.21046763E+04 0.21046764E+04 0.32000000E+00 0.0000E+00 0.9000E+01
       -2 -1    0    0    0  501 0.00000000E+00 0.00000000E+00 -.38471696E+02 0.38473027E+02 0.32000000E+00 0.0000E+00 0.9000E+01
       25  1    1    2    0    0 -.19738671E+03 -.49416366E+02 0.99433955E+03 0.10226141E+04 0.12500000E+03 0.0000E+00 0.9000E+01
       23  1    1    2    0    0 0.43337388E+02 -.30444967E+02 0.72562526E+03 0.73324777E+03 0.91188000E+02 0.0000E+00 0.9000E+01
       21  1    1    2  502  501 0.15404932E+03 0.79861333E+02 0.34623982E+03 0.38728750E+03 0.75000000E+00 0.0000E+00 0.9000E+01
#aMCatNLO 1  0  0  5  1 0.18477770D+02 0.00000000D+00  -5  6  0 0.00000000D+00 0.00000000D+00 0.00000000D+00 0.00000000D+00 0.00000000D+00
  <mgrwgt>
 -.7721097396D-03    1    2    0
 0.284555654530696D+03 0.000000000000000D+00 0.000000000000000D+00 0.284555654530696D+03
 0.284555654530696D+03 -.000000000000000D+00 -.000000000000000D+00 -.284555654530696D+03
 0.240912599016907D+03 -.197387158470620D+03 -.494166007508894D+02 0.317834800832559D+02
 0.126810436781454D+03 0.433371497270414D+02 -.304450901050508D+02 0.704316936807171D+02
 0.201388273263032D+03 0.154050008743579D+03 0.798616908559402D+02 -.102215173763973D+03
 0.000000000000000D+00 0.000000000000000D+00 0.000000000000000D+00 0.000000000000000D+00
 0.284555654530696D+03 0.000000000000000D+00 0.000000000000000D+00 0.284555654530696D+03
 0.284555654530696D+03 -.000000000000000D+00 -.000000000000000D+00 -.284555654530696D+03
 0.239044033972411D+03 -.195538133661333D+03 -.484580402879032D+02 0.305566161984910D+02
 0.126669094080010D+03 0.443136753316366D+02 -.299388454992689D+02 0.697837499696277D+02
 0.196327946448368D+03 0.148510069379418D+03 0.738652190606058D+02 -.105039760389495D+03
 0.707023456060437D+01 0.271438895027819D+01 0.453166672656629D+01 0.469939422137621D+01
-.402222480444D-05 0.000000000000D+00 0.000000000000D+00 0.474164225044D-06 0.000000000000D+00  6 2 -2 25 23 21 21 4 0.32379646D+00 0.59188267D-02 0.67023972D+05 0.67023972D+05 0.67023972D+05 0.11798804D+01  1  2 14  3  6  5       21 -.772109739635D-03 0.100000000000D+01
  </mgrwgt>
  </event>
  <event>
  5     66 -.43206592E-03 0.21388678E+02 0.75467711E-02 0.11300819E+00
        2 -1    0    0  502    0 0.00000000E+00 0.00000000E+00 0.20731044E+03 0.20731069E+03 0.32000000E+00 0.0000E+00 0.9000E+01
       -2 -1    0    0    0  501 0.00000000E+00 0.00000000E+00 -.19540090E+03 0.19540116E+03 0.32000000E+00 0.0000E+00 0.9000E+01
       25  1    1    2    0    0 0.12936537E+03 0.37199001E+02 0.86305890E+02 0.20296027E+03 0.12500000E+03 0.0000E+00 0.9000E+01
       23  1    1    2    0    0 -.11426156E+03 -.52338514E+02 -.41875816E+02 0.16082244E+03 0.91188000E+02 0.0000E+00 0.9000E+01
       21  1    1    2  502  501 -.15103811E+02 0.15139513E+02 -.32520534E+02 0.38929136E+02 0.75000000E+00 0.0000E+00 0.9000E+01
#aMCatNLO 1  0  0  1  5 0.82643817D+02 0.00000000D+00  -5  6  0 0.00000000D+00 0.00000000D+00 0.00000000D+00 0.00000000D+00 0.00000000D+00
  <mgrwgt>
 -.2362545873D+00    5    4    0
 0.201267853527166D+03 0.000000000000000D+00 0.000000000000000D+00 0.201267853527166D+03
 0.201267853527166D+03 0.000000000000000D+00 0.000000000000000D+00 -.201267853527166D+03
 0.200497405813520D+03 0.129366696115596D+03 0.371976690834925D+02 0.803417767344074D+02
 0.162130667631871D+03 -.114260481256562D+03 -.523395915606167D+02 -.466498833979548D+02
 0.399076336089405D+02 -.151062148590341D+02 0.151419224771242D+02 -.336918933364526D+02
 0.000000000000000D+00 -.000000000000000D+00 0.000000000000000D+00 0.000000000000000D+00
 0.917975951991532D+03 0.000000000000000D+00 0.000000000000000D+00 0.917975951991532D+03
 0.207862389165987D+03 0.000000000000000D+00 0.000000000000000D+00 -.207862389165987D+03
 0.231070279583919D+03 0.173201591986155D+03 0.362612955037579D+02 0.803417767344074D+02
 0.142288661967110D+03 -.833402106582952D+02 -.530000910072667D+02 -.466498833979548D+02
 0.375729213725297D+02 -.723641326237825D+01 0.149738127064378D+02 -.336918933364526D+02
 0.714906478233961D+03 -.826249680654812D+02 0.176498279707099D+01 0.710113562825545D+03
 0.201267853527166D+03 0.000000000000000D+00 0.000000000000000D+00 0.201267853527166D+03
 0.201267853527166D+03 0.000000000000000D+00 0.000000000000000D+00 -.201267853527166D+03
 0.200497405813520D+03 0.129366696115596D+03 0.371976690834925D+02 0.803417767344074D+02
 0.162130667631871D+03 -.114260481256562D+03 -.523395915606167D+02 -.466498833979548D+02
 0.000000000000000D+00 -.000000000000000D+00 0.000000000000000D+00 0.000000000000000D+00
 0.399076336089405D+02 -.151062148590341D+02 0.151419224771242D+02 -.336918933364526D+02
 0.917975951991532D+03 0.000000000000000D+00 0.000000000000000D+00 0.917975951991532D+03
 0.207862389165987D+03 0.000000000000000D+00 0.000000000000000D+00 -.207862389165987D+03
 0.231070279583919D+03 0.173201591986155D+03 0.362612955037579D+02 0.803417767344074D+02
 0.142288661967110D+03 -.833402106582952D+02 -.530000910072667D+02 -.466498833979548D+02
 0.714906478233961D+03 -.826249680654812D+02 0.176498279707099D+01 0.710113562825545D+03
 0.375729213725297D+02 -.723641326237825D+01 0.149738127064378D+02 -.336918933364526D+02
0.127828251179D-03 0.000000000000D+00 0.000000000000D+00 0.186985113186D-04 0.000000000000D+00  6 2 -2 25 23 21 21 2 0.31893953D-01 0.30061716D-01 0.32464760D+05 0.32464760D+05 0.32464760D+05 0.12113158D+01  1  2  2  1  6  1        2 0.309086691665D-01 0.100000000000D+01
0.292607100735D-04 0.674568214188D-05 -.490894142480D-06 0.186985113186D-04 0.000000000000D+00  6 2 -2 25 23 21 21 4 0.31893953D-01 0.30061716D-01 0.32464760D+05 0.32464760D+05 0.32464760D+05 0.12113158D+01  1  2  3  1  6  1        2 0.103813325867D-01 0.100000000000D+01
0.275792734401D-05 0.000000000000D+00 0.000000000000D+00 0.186985113186D-04 0.000000000000D+00  6 2 -2 25 23 21 21 4 0.31893953D-01 0.30061716D-01 0.32464760D+05 0.32464760D+05 0.32464760D+05 0.12113158D+01  1  2 15  1  6  1        2 0.978477997836D-03 0.100000000000D+01
-.379470559318D-02 0.000000000000D+00 -.119977744128D-03 0.186985113186D-04 0.000000000000D+00  6 2 -2 25 23 21 21 4 0.14656896D+00 0.30061716D-01 0.32464760D+05 0.32464760D+05 0.32464760D+05 0.12113158D+01  1  2  5  1  6  1        2 -.238928981922D+00 0.100000000000D+01
-.702571109084D-03 0.000000000000D+00 -.221655247726D-04 0.186985113186D-04 0.000000000000D+00  6 21 -2 25 23 -2 21 4 0.14656896D+00 0.30061716D-01 0.32464760D+05 0.32464760D+05 0.32464760D+05 0.12113158D+01  3  4  5  4  5  1        2 -.395940851774D-01 0.100000000000D+01
  </mgrwgt>
  </event>
  <event>
  5     66 0.43206592E-03 0.40821741E+02 0.75467711E-02 0.12175597E+00
        2 -1    0    0  502    0 0.00000000E+00 0.00000000E+00 0.85999977E+03 0.85999983E+03 0.32000000E+00 0.0000E+00 0.9000E+01
       -2 -1    0    0    0  501 0.00000000E+00 0.00000000E+00 -.58175365E+02 0.58176245E+02 0.32000000E+00 0.0000E+00 0.9000E+01
       25  1    1    2    0    0 -.23192654E+02 -.43684140E+02 0.52955772E+03 0.54635390E+03 0.12500000E+03 0.0000E+00 0.9000E+01
       23  1    1    2    0    0 0.36579667E+02 0.51201618E+01 0.30437509E+03 0.31988082E+03 0.91188000E+02 0.0000E+00 0.9000E+01
       21  1    1    2  502  501 -.13387013E+02 0.38563978E+02 -.32108408E+02 0.51941360E+02 0.75000000E+00 0.0000E+00 0.9000E+01
#aMCatNLO 1  0  0  5  1 0.51400744D+00 0.00000000D+00  -5  6  0 0.00000000D+00 0.00000000D+00 0.00000000D+00 0.00000000D+00 0.00000000D+00
  <mgrwgt>
 0.1296221147D+00   25    2    0
 0.223676623581238D+03 0.000000000000000D+00 0.000000000000000D+00 0.223676623581238D+03
 0.223676623581238D+03 -.000000000000000D+00 -.000000000000000D+00 -.223676623581238D+03
 0.172206119817314D+03 -.231926006584174D+02 -.436842951398185D+02 0.107627753555351D+03
 0.110989745014816D+03 0.365797017840980D+02 0.512006190247684D+01 0.513729747820306D+02
 0.164157382330345D+03 -.133871011256806D+02 0.385642332373417D+02 -.159000728337382D+03
 0.000000000000000D+00 0.000000000000000D+00 0.000000000000000D+00 -.000000000000000D+00
 0.223676623581238D+03 0.000000000000000D+00 0.000000000000000D+00 0.223676623581238D+03
 0.223676623581238D+03 -.000000000000000D+00 -.000000000000000D+00 -.223676623581238D+03
 0.172194266309358D+03 -.231940788616739D+02 -.436800368784804D+02 0.107610196700271D+03
 0.110984320446779D+03 0.365787490476911D+02 0.512280645102876D+01 0.513616589802609D+02
 0.161296389105092D+03 -.128521770385101D+02 0.383015697426145D+02 -.156154847631970D+03
 0.287827130124626D+01 -.532493147507152D+00 0.255660684837068D+00 -.281700804856224D+01
0.153534136916D-04 0.000000000000D+00 0.000000000000D+00 0.168444205383D-04 0.000000000000D+00  6 2 -2 25 23 21 21 2 0.13230773D+00 0.89501284D-02 0.18719113D+05 0.18719113D+05 0.18719113D+05 0.12370032D+01  1  2  2  3  6  5       21 0.591947599654D-02 0.100000000000D+01
0.123780771723D-05 0.810221900096D-06 -.589611512224D-07 0.168444205383D-04 0.000000000000D+00  6 2 -2 25 23 21 21 4 0.13230773D+00 0.89501284D-02 0.18719113D+05 0.18719113D+05 0.18719113D+05 0.12370032D+01  1  2  3  3  6  5       21 0.730252649457D-03 0.100000000000D+01
0.468422201166D-06 0.000000000000D+00 0.000000000000D+00 0.168444205383D-04 0.000000000000D+00  6 2 -2 25 23 21 21 4 0.13230773D+00 0.89501284D-02 0.18719113D+05 0.18719113D+05 0.18719113D+05 0.12370032D+01  1  2 15  3  6  5       21 0.276348699968D-03 0.100000000000D+01
0.897602648765D-15 0.000000000000D+00 0.000000000000D+00 0.168428099043D-04 0.000000000000D+00  6 2 -2 25 23 21 21 4 0.13230773D+00 0.89501284D-02 0.18742100D+05 0.18742100D+05 0.18742100D+05 0.12369441D+01  1  2 12  3  6  5       21 0.529452795042D-12 0.100000000000D+01
0.751391406377D-15 0.000000000000D+00 0.000000000000D+00 0.168428099043D-04 0.000000000000D+00  6 2 -2 25 23 21 21 4 0.13230773D+00 0.89501284D-02 0.18742100D+05 0.18742100D+05 0.18742100D+05 0.12369441D+01  1  2 12  3  6  5       21 0.443209788679D-12 0.100000000000D+01
-.148495067881D-01 0.000000000000D+00 0.000000000000D+00 0.168444205383D-04 0.000000000000D+00  6 2 -2 25 23 21 21 4 0.13230773D+00 0.89501284D-02 0.18719113D+05 0.18719113D+05 0.18719113D+05 0.12370032D+01  1  2  4  3  6  5       21 -.876056234276D+01 0.100000000000D+01
-.175967091258D-01 0.000000000000D+00 0.000000000000D+00 0.168444205383D-04 0.000000000000D+00  6 2 -2 25 23 21 21 4 0.13230773D+00 0.89501284D-02 0.18719113D+05 0.18719113D+05 0.18719113D+05 0.12370032D+01  1  2  5  3  6  5       21 -.103812920876D+02 0.100000000000D+01
0.179015654963D-01 0.000000000000D+00 -.000000000000D+00 0.168444205383D-04 0.000000000000D+00  6 2 -2 25 23 21 21 4 0.13230773D+00 0.89501284D-02 0.18719113D+05 0.18719113D+05 0.18719113D+05 0.12370032D+01  1  2  6  3  6  5       21 0.105611440704D+02 0.100000000000D+01
0.147578392182D-01 0.000000000000D+00 0.000000000000D+00 0.168444205383D-04 0.669946210134D-03  6 2 -2 25 23 21 21 4 0.13230773D+00 0.89501284D-02 0.18742100D+05 0.18742100D+05 0.18742100D+05 0.12369441D+01  1  2 11  3  6  5       21 0.870494225215D+01 0.100000000000D+01
0.610487321034D-16 0.000000000000D+00 0.000000000000D+00 0.168428099043D-04 0.000000000000D+00  6 2 -2 25 23 1 -1 4 0.13230773D+00 0.89501284D-02 0.18742100D+05 0.18742100D+05 0.18742100D+05 0.12369441D+01  1  2 12  6  6  5       21 0.360097219971D-13 0.100000000000D+01
0.610487321034D-16 0.000000000000D+00 0.000000000000D+00 0.168428099043D-04 0.000000000000D+00  6 2 -2 25 23 3 -3 4 0.13230773D+00 0.89501284D-02 0.18742100D+05 0.18742100D+05 0.18742100D+05 0.12369441D+01  1  2 12  6  6  5       21 0.360097219971D-13 0.100000000000D+01
0.604411251153D-16 0.000000000000D+00 0.000000000000D+00 0.168428099043D-04 0.000000000000D+00  6 2 -2 25 23 1 -1 4 0.13230773D+00 0.89501284D-02 0.18742100D+05 0.18742100D+05 0.18742100D+05 0.12369441D+01  1  2 12  6  6  5       21 0.356513237476D-13 0.100000000000D+01
0.604411251153D-16 0.000000000000D+00 0.000000000000D+00 0.168428099043D-04 0.000000000000D+00  6 2 -2 25 23 3 -3 4 0.13230773D+00 0.89501284D-02 0.18742100D+05 0.18742100D+05 0.18742100D+05 0.12369441D+01  1  2 12  6  6  5       21 0.356513237476D-13 0.100000000000D+01
-.254104064206D-04 0.000000000000D+00 0.000000000000D+00 0.168444205383D-04 0.000000000000D+00  6 2 -2 25 23 1 -1 4 0.13230773D+00 0.89501284D-02 0.18719113D+05 0.18719113D+05 0.18719113D+05 0.12370032D+01  1  2  5  6  6  5       21 -.149910332228D-01 0.100000000000D+01
-.254104064206D-04 0.000000000000D+00 0.000000000000D+00 0.168444205383D-04 0.000000000000D+00  6 2 -2 25 23 3 -3 4 0.13230773D+00 0.89501284D-02 0.18719113D+05 0.18719113D+05 0.18719113D+05 0.12370032D+01  1  2  5  6  6  5       21 -.149910332228D-01 0.100000000000D+01
0.255211432646D-04 0.000000000000D+00 0.000000000000D+00 0.168444205383D-04 0.162633953250D-05  6 2 -2 25 23 1 -1 4 0.13230773D+00 0.89501284D-02 0.18742100D+05 0.18742100D+05 0.18742100D+05 0.12369441D+01  1  2 11  6  6  5       21 0.150536995994D-01 0.100000000000D+01
0.255211432646D-04 0.000000000000D+00 0.000000000000D+00 0.168444205383D-04 0.162633953250D-05  6 2 -2 25 23 3 -3 4 0.13230773D+00 0.89501284D-02 0.18742100D+05 0.18742100D+05 0.18742100D+05 0.12369441D+01  1  2 11  6  6  5       21 0.150536995994D-01 0.100000000000D+01
0.610487321034D-16 0.000000000000D+00 0.000000000000D+00 0.168428099043D-04 0.000000000000D+00  6 2 -2 25 23 2 -2 4 0.13230773D+00 0.89501284D-02 0.18742100D+05 0.18742100D+05 0.18742100D+05 0.12369441D+01  1  2 12  7  6  5       21 0.360097219971D-13 0.100000000000D+01
0.604411251153D-16 0.000000000000D+00 0.000000000000D+00 0.168428099043D-04 0.000000000000D+00  6 2 -2 25 23 2 -2 4 0.13230773D+00 0.89501284D-02 0.18742100D+05 0.18742100D+05 0.18742100D+05 0.12369441D+01  1  2 12  7  6  5       21 0.356513237476D-13 0.100000000000D+01
-.254104064206D-04 0.000000000000D+00 0.000000000000D+00 0.168444205383D-04 0.000000000000D+00  6 2 -2 25 23 2 -2 4 0.13230773D+00 0.89501284D-02 0.18719113D+05 0.18719113D+05 0.18719113D+05 0.12370032D+01  1  2  5  7  6  5       21 -.149910332228D-01 0.100000000000D+01
0.224809802698D-04 0.000000000000D+00 0.000000000000D+00 0.168444205383D-04 0.203950228382D-05  6 2 -2 25 23 2 -2 4 0.13230773D+00 0.89501284D-02 0.18742100D+05 0.18742100D+05 0.18742100D+05 0.12369441D+01  1  2 11  7  6  5       21 0.132604531142D-01 0.100000000000D+01
0.610487321034D-16 0.000000000000D+00 0.000000000000D+00 0.168428099043D-04 0.000000000000D+00  6 2 -2 25 23 4 -4 4 0.13230773D+00 0.89501284D-02 0.18742100D+05 0.18742100D+05 0.18742100D+05 0.12369441D+01  1  2 12  8  6  5       21 0.360097219971D-13 0.100000000000D+01
0.604411251153D-16 0.000000000000D+00 0.000000000000D+00 0.168428099043D-04 0.000000000000D+00  6 2 -2 25 23 4 -4 4 0.13230773D+00 0.89501284D-02 0.18742100D+05 0.18742100D+05 0.18742100D+05 0.12369441D+01  1  2 12  8  6  5       21 0.356513237476D-13 0.100000000000D+01
-.254104064206D-04 0.000000000000D+00 0.000000000000D+00 0.168444205383D-04 0.000000000000D+00  6 2 -2 25 23 4 -4 4 0.13230773D+00 0.89501284D-02 0.18719113D+05 0.18719113D+05 0.18719113D+05 0.12370032D+01  1  2  5  8  6  5       21 -.149910332228D-01 0.100000000000D+01
0.255325463782D-04 0.000000000000D+00 0.000000000000D+00 0.168444205383D-04 0.162706619801D-05  6 2 -2 25 23 4 -4 4 0.13230773D+00 0.89501284D-02 0.18742100D+05 0.18742100D+05 0.18742100D+05 0.12369441D+01  1  2 11  8  6  5       21 0.150604257497D-01 0.100000000000D+01
  </mgrwgt>
  </event>
  <event>
  5     66 0.43206592E-03 0.37376811E+02 0.75467711E-02 0.11498043E+00
        2 -1    0    0  502    0 0.00000000E+00 0.00000000E+00 0.83518355E+03 0.83518361E+03 0.32000000E+00 0.0000E+00 0.9000E+01
       -2 -1    0    0    0  501 0.00000000E+00 0.00000000E+00 -.58698588E+02 0.58699460E+02 0.32000000E+00 0.0000E+00 0.9000E+01
       25  1    1    2    0    0 0.12101765E+03 -.69655063E+02 0.54256561E+03 0.57402050E+03 0.12500000E+03 0.0000E+00 0.9000E+01
       23  1    1    2    0    0 -.10736912E+03 0.10444346E+03 0.16165490E+03 0.23850393E+03 0.91188000E+02 0.0000E+00 0.9000E+01
       21  1    1    2  502  501 -.13648526E+02 -.34788398E+02 0.72264455E+02 0.81358643E+02 0.75000000E+00 0.0000E+00 0.9000E+01
#aMCatNLO 1  0  0  5  2 0.30023740D+01 0.00000000D+00  -5  6  0 0.00000000D+00 0.00000000D+00 0.00000000D+00 0.00000000D+00 0.00000000D+00
  <mgrwgt>
 0.2770384269D+00   25    2    0
 0.221414797380449D+03 0.000000000000000D+00 0.000000000000000D+00 0.221414797380449D+03
 0.221414797380449D+03 -.000000000000000D+00 -.000000000000000D+00 -.221414797380449D+03
 0.207332492716319D+03 0.121018925455869D+03 -.696518069092319D+02 0.886837528059595D+02
 0.197982512804893D+03 -.107367902688993D+03 0.104446570447546D+03 -.918959815576958D+02
 0.375145892396864D+02 -.136510227668755D+02 -.347947635383137D+02 0.321222875173632D+01
 0.000000000000000D+00 0.000000000000000D+00 0.000000000000000D+00 0.000000000000000D+00
 0.221414797380449D+03 0.000000000000000D+00 0.000000000000000D+00 0.221414797380449D+03
 0.221414797380449D+03 -.000000000000000D+00 -.000000000000000D+00 -.221414797380449D+03
 0.207496583773679D+03 0.120588157289422D+03 -.707497815260296D+02 0.887851170709837D+02
 0.197610910231051D+03 -.107778696105264D+03 0.103399508990955D+03 -.917993175607702D+02
 0.308086493570126D+01 0.231837779925812D+01 -.174946104874583D+01 -.102773497111931D+01
 0.346412358204667D+02 -.151278389834160D+02 -.309002664161799D+02 0.404193546090578D+01
0.509523604819D-03 0.000000000000D+00 0.000000000000D+00 0.517902843659D-05 0.000000000000D+00  6 2 -2 25 23 21 21 2 0.12848985D+00 0.90306238D-02 0.40029685D+05 0.40029685D+05 0.40029685D+05 0.12019675D+01  1  2  2  3  6  5       21 0.191468883135D+00 0.100000000000D+01
0.882932119704D-04 0.268882993406D-04 -.195670480315D-05 0.517902843659D-05 0.000000000000D+00  6 2 -2 25 23 21 21 4 0.12848985D+00 0.90306238D-02 0.40029685D+05 0.40029685D+05 0.40029685D+05 0.12019675D+01  1  2  3  3  6  5       21 0.479343335608D-01 0.100000000000D+01
0.101126222838D-04 0.000000000000D+00 0.000000000000D+00 0.517902843659D-05 0.000000000000D+00  6 2 -2 25 23 21 21 4 0.12848985D+00 0.90306238D-02 0.40029685D+05 0.40029685D+05 0.40029685D+05 0.12019675D+01  1  2 15  3  6  5       21 0.549013677164D-02 0.100000000000D+01
0.187908288591D-06 0.000000000000D+00 0.000000000000D+00 0.517960449389D-05 0.000000000000D+00  6 2 -2 25 23 21 21 4 0.12848985D+00 0.90306238D-02 0.39969059D+05 0.39969059D+05 0.39969059D+05 0.12020344D+01  1  2 12  3  6  5       21 0.102036539543D-03 0.100000000000D+01
0.191302785923D-06 0.000000000000D+00 0.000000000000D+00 0.517960449389D-05 0.000000000000D+00  6 2 -2 25 23 21 21 4 0.12848985D+00 0.90306238D-02 0.39969059D+05 0.39969059D+05 0.39969059D+05 0.12020344D+01  1  2 12  3  6  5       21 0.103879793845D-03 0.100000000000D+01
-.384771344591D-03 0.000000000000D+00 0.000000000000D+00 0.517902843659D-05 0.000000000000D+00  6 2 -2 25 23 21 21 4 0.12848985D+00 0.90306238D-02 0.40029685D+05 0.40029685D+05 0.40029685D+05 0.12019675D+01  1  2  4  3  6  5       21 -.208892139777D+00 0.100000000000D+01
-.129444044268D-04 0.000000000000D+00 0.000000000000D+00 0.517902843659D-05 0.000000000000D+00  6 2 -2 25 23 21 21 4 0.12848985D+00 0.90306238D-02 0.40029685D+05 0.40029685D+05 0.40029685D+05 0.12019675D+01  1  2  5  3  6  5       21 -.702750965437D-02 0.100000000000D+01
0.436091678905D-03 0.000000000000D+00 -.000000000000D+00 0.517902843659D-05 0.000000000000D+00  6 2 -2 25 23 21 21 4 0.12848985D+00 0.90306238D-02 0.40029685D+05 0.40029685D+05 0.40029685D+05 0.12019675D+01  1  2  6  3  6  5       21 0.236753919505D+00 0.100000000000D+01
0.151011552917D-04 0.000000000000D+00 0.000000000000D+00 0.517902843659D-05 0.315888027886D-05  6 2 -2 25 23 21 21 4 0.12848985D+00 0.90306238D-02 0.39969059D+05 0.39969059D+05 0.39969059D+05 0.12020344D+01  1  2 11  3  6  5       21 0.820011528297D-02 0.100000000000D+01
0.135987567441D-06 0.000000000000D+00 0.000000000000D+00 0.517960449389D-05 0.000000000000D+00  6 2 -2 25 23 1 -1 4 0.12848985D+00 0.90306238D-02 0.39969059D+05 0.39969059D+05 0.39969059D+05 0.12020344D+01  1  2 12  6  6  5       21 0.738429417171D-04 0.100000000000D+01
0.135987567441D-06 0.000000000000D+00 0.000000000000D+00 0.517960449389D-05 0.000000000000D+00  6 2 -2 25 23 3 -3 4 0.12848985D+00 0.90306238D-02 0.39969059D+05 0.39969059D+05 0.39969059D+05 0.12020344D+01  1  2 12  6  6  5       21 0.738429417171D-04 0.100000000000D+01
0.136487572225D-06 0.000000000000D+00 0.000000000000D+00 0.517960449389D-05 0.000000000000D+00  6 2 -2 25 23 1 -1 4 0.12848985D+00 0.90306238D-02 0.39969059D+05 0.39969059D+05 0.39969059D+05 0.12020344D+01  1  2 12  6  6  5       21 0.741144505384D-04 0.100000000000D+01
0.136487572225D-06 0.000000000000D+00 0.000000000000D+00 0.517960449389D-05 0.000000000000D+00  6 2 -2 25 23 3 -3 4 0.12848985D+00 0.90306238D-02 0.39969059D+05 0.39969059D+05 0.39969059D+05 0.12020344D+01  1  2 12  6  6  5       21 0.741144505384D-04 0.100000000000D+01
-.162441075639D-04 0.000000000000D+00 0.000000000000D+00 0.517902843659D-05 0.000000000000D+00  6 2 -2 25 23 1 -1 4 0.12848985D+00 0.90306238D-02 0.40029685D+05 0.40029685D+05 0.40029685D+05 0.12019675D+01  1  2  5  6  6  5       21 -.881891657341D-02 0.100000000000D+01
-.162441075639D-04 0.000000000000D+00 0.000000000000D+00 0.517902843659D-05 0.000000000000D+00  6 2 -2 25 23 3 -3 4 0.12848985D+00 0.90306238D-02 0.40029685D+05 0.40029685D+05 0.40029685D+05 0.12019675D+01  1  2  5  6  6  5       21 -.881891657341D-02 0.100000000000D+01
0.173146898055D-04 0.000000000000D+00 0.000000000000D+00 0.517902843659D-05 0.398180633183D-07  6 2 -2 25 23 1 -1 4 0.12848985D+00 0.90306238D-02 0.39969059D+05 0.39969059D+05 0.39969059D+05 0.12020344D+01  1  2 11  6  6  5       21 0.940209207516D-02 0.100000000000D+01
0.173146898055D-04 0.000000000000D+00 0.000000000000D+00 0.517902843659D-05 0.398180633183D-07  6 2 -2 25 23 3 -3 4 0.12848985D+00 0.90306238D-02 0.39969059D+05 0.39969059D+05 0.39969059D+05 0.12020344D+01  1  2 11  6  6  5       21 0.940209207516D-02 0.100000000000D+01
0.135987567441D-06 0.000000000000D+00 0.000000000000D+00 0.517960449389D-05 0.000000000000D+00  6 2 -2 25 23 2 -2 4 0.12848985D+00 0.90306238D-02 0.39969059D+05 0.39969059D+05 0.39969059D+05 0.12020344D+01  1  2 12  7  6  5       21 0.738429417171D-04 0.100000000000D+01
0.136487572225D-06 0.000000000000D+00 0.000000000000D+00 0.517960449389D-05 0.000000000000D+00  6 2 -2 25 23 2 -2 4 0.12848985D+00 0.90306238D-02 0.39969059D+05 0.39969059D+05 0.39969059D+05 0.12020344D+01  1  2 12  7  6  5       21 0.741144505384D-04 0.100000000000D+01
-.162441075639D-04 0.000000000000D+00 0.000000000000D+00 0.517902843659D-05 0.000000000000D+00  6 2 -2 25 23 2 -2 4 0.12848985D+00 0.90306238D-02 0.40029685D+05 0.40029685D+05 0.40029685D+05 0.12019675D+01  1  2  5  7  6  5       21 -.881891657341D-02 0.100000000000D+01
0.172730031458D-04 0.000000000000D+00 0.000000000000D+00 0.517902843659D-05 0.410416064667D-07  6 2 -2 25 23 2 -2 4 0.12848985D+00 0.90306238D-02 0.39969059D+05 0.39969059D+05 0.39969059D+05 0.12020344D+01  1  2 11  7  6  5       21 0.937945570010D-02 0.100000000000D+01
0.135987567441D-06 0.000000000000D+00 0.000000000000D+00 0.517960449389D-05 0.000000000000D+00  6 2 -2 25 23 4 -4 4 0.12848985D+00 0.90306238D-02 0.39969059D+05 0.39969059D+05 0.39969059D+05 0.12020344D+01  1  2 12  8  6  5       21 0.738429417171D-04 0.100000000000D+01
0.136487572225D-06 0.000000000000D+00 0.000000000000D+00 0.517960449389D-05 0.000000000000D+00  6 2 -2 25 23 4 -4 4 0.12848985D+00 0.90306238D-02 0.39969059D+05 0.39969059D+05 0.39969059D+05 0.12020344D+01  1  2 12  8  6  5       21 0.741144505384D-04 0.100000000000D+01
-.162441075639D-04 0.000000000000D+00 0.000000000000D+00 0.517902843659D-05 0.000000000000D+00  6 2 -2 25 23 4 -4 4 0.12848985D+00 0.90306238D-02 0.40029685D+05 0.40029685D+05 0.40029685D+05 0.12019675D+01  1  2  5  8  6  5       21 -.881891657341D-02 0.100000000000D+01
0.173199871075D-04 0.000000000000D+00 0.000000000000D+00 0.517902843659D-05 0.398302453618D-07  6 2 -2 25 23 4 -4 4 0.12848985D+00 0.90306238D-02 0.39969059D+05 0.39969059D+05 0.39969059D+05 0.12020344D+01  1  2 11  8  6  5       21 0.940496857606D-02 0.100000000000D+01
  </mgrwgt>
  </event>
  <event>
  5     66 0.43206592E-03 0.26794933E+02 0.75467711E-02 0.12365941E+00
        2 -1    0    0  502    0 0.00000000E+00 0.00000000E+00 0.85594101E+02 0.85594699E+02 0.32000000E+00 0.0000E+00 0.9000E+01
       -2 -1    0    0    0  501 -.00000000E+00 -.00000000E+00 -.20221048E+03 0.20221074E+03 0.32000000E+00 0.0000E+00 0.9000E+01
       25  1    1    2    0    0 -.54200905E+00 0.16226804E+02 -.20469166E+02 0.12770117E+03 0.12500000E+03 0.0000E+00 0.9000E+01
       23  1    1    2    0    0 -.25109901E+02 -.85004232E+01 -.51495497E+02 0.10802686E+03 0.91188000E+02 0.0000E+00 0.9000E+01
       21  1    1    2  502  501 0.25651910E+02 -.77263806E+01 -.44651719E+02 0.52077403E+02 0.75000000E+00 0.0000E+00 0.9000E+01
#aMCatNLO 1  0  0  5  2 0.13203124D+01 0.00000000D+00  -5  6  0 0.00000000D+00 0.00000000D+00 0.00000000D+00 0.00000000D+00 0.00000000D+00
  <mgrwgt>
 0.4433816853D+00   25    2    0
 0.131560430492455D+03 0.000000000000000D+00 0.000000000000000D+00 0.131560430492455D+03
 0.131560430492455D+03 -.000000000000000D+00 -.000000000000000D+00 -.131560430492455D+03
 0.130610166191068D+03 -.544601507251294D+00 0.162275846667548D+02 0.342108815662496D+02
 0.953385885949651D+02 -.251117938079491D+02 -.849985322826321D+01 -.844662288284776D+01
 0.371721061988763D+02 0.256563953152004D+02 -.772773143849163D+01 -.257642586834018D+02
 0.000000000000000D+00 0.000000000000000D+00 0.000000000000000D+00 0.000000000000000D+00
 0.131560430492455D+03 0.000000000000000D+00 0.000000000000000D+00 0.131560430492455D+03
 0.131560430492455D+03 -.000000000000000D+00 -.000000000000000D+00 -.131560430492455D+03
 0.130495043199640D+03 -.163009306367918D+00 0.161126487214975D+02 0.338276850940116D+02
 0.952983195745183D+02 -.248331875038936D+02 -.858376972036436D+01 -.872640048996395D+01
 0.359823093835045D+02 0.242804126438739D+02 -.866781968767562D+01 -.251009372788227D+02
 0.134518882724618D+01 0.715784166387575D+00 0.113894068654253D+01 -.347325224950096D-03
0.390736665086D-03 0.000000000000D+00 0.000000000000D+00 0.216749148850D-04 0.000000000000D+00  6 2 -2 25 23 21 21 2 0.13168389D-01 0.31109370D-01 0.15352292D+05 0.15352292D+05 0.15352292D+05 0.12466748D+01  1  2  2  3  6  5       21 0.251636859046D+00 0.100000000000D+01
0.388007197185D-04 0.206197403120D-04 -.150053167726D-05 0.216749148850D-04 0.000000000000D+00  6 2 -2 25 23 21 21 4 0.13168389D-01 0.31109370D-01 0.15352292D+05 0.15352292D+05 0.15352292D+05 0.12466748D+01  1  2  3  3  6  5       21 0.388361567129D-01 0.100000000000D+01
0.180429440490D-04 0.000000000000D+00 0.000000000000D+00 0.216749148850D-04 0.000000000000D+00  6 2 -2 25 23 21 21 4 0.13168389D-01 0.31109370D-01 0.15352292D+05 0.15352292D+05 0.15352292D+05 0.12466748D+01  1  2 15  3  6  5       21 0.180594228079D-01 0.100000000000D+01
0.333340746089D-08 0.000000000000D+00 0.000000000000D+00 0.216714550566D-04 0.000000000000D+00  6 2 -2 25 23 21 21 4 0.13168389D-01 0.31109370D-01 0.15383269D+05 0.15383269D+05 0.15383269D+05 0.12465753D+01  1  2 12  3  6  5       21 0.333561035707D-05 0.100000000000D+01
0.222637657241D-08 0.000000000000D+00 0.000000000000D+00 0.216714550566D-04 0.000000000000D+00  6 2 -2 25 23 21 21 4 0.13168389D-01 0.31109370D-01 0.15383269D+05 0.15383269D+05 0.15383269D+05 0.12465753D+01  1  2 12  3  6  5       21 0.222784788262D-05 0.100000000000D+01
-.332800239092D-02 0.000000000000D+00 0.000000000000D+00 0.216749148850D-04 0.000000000000D+00  6 2 -2 25 23 21 21 4 0.13168389D-01 0.31109370D-01 0.15352292D+05 0.15352292D+05 0.15352292D+05 0.12466748D+01  1  2  4  3  6  5       21 -.333104188099D+01 0.100000000000D+01
-.419654823273D-02 0.000000000000D+00 0.000000000000D+00 0.216749148850D-04 0.000000000000D+00  6 2 -2 25 23 21 21 4 0.13168389D-01 0.31109370D-01 0.15352292D+05 0.15352292D+05 0.15352292D+05 0.12466748D+01  1  2  5  3  6  5       21 -.420038097237D+01 0.100000000000D+01
0.444050362537D-02 0.000000000000D+00 -.000000000000D+00 0.216749148850D-04 0.000000000000D+00  6 2 -2 25 23 21 21 4 0.13168389D-01 0.31109370D-01 0.15352292D+05 0.15352292D+05 0.15352292D+05 0.12466748D+01  1  2  6  3  6  5       21 0.444455917134D+01 0.100000000000D+01
0.322397170624D-02 0.000000000000D+00 0.000000000000D+00 0.216749148850D-04 0.618812072920D-04  6 2 -2 25 23 21 21 4 0.13168389D-01 0.31109370D-01 0.15383269D+05 0.15383269D+05 0.15383269D+05 0.12465753D+01  1  2 11  3  6  5       21 0.322610228134D+01 0.100000000000D+01
0.511497762747D-09 0.000000000000D+00 0.000000000000D+00 0.216714550566D-04 0.000000000000D+00  6 2 -2 25 23 1 -1 4 0.13168389D-01 0.31109370D-01 0.15383269D+05 0.15383269D+05 0.15383269D+05 0.12465753D+01  1  2 12  6  6  5       21 0.511835788170D-06 0.100000000000D+01
0.511497762747D-09 0.000000000000D+00 0.000000000000D+00 0.216714550566D-04 0.000000000000D+00  6 2 -2 25 23 3 -3 4 0.13168389D-01 0.31109370D-01 0.15383269D+05 0.15383269D+05 0.15383269D+05 0.12465753D+01  1  2 12  6  6  5       21 0.511835788170D-06 0.100000000000D+01
0.489139301385D-09 0.000000000000D+00 0.000000000000D+00 0.216714550566D-04 0.000000000000D+00  6 2 -2 25 23 1 -1 4 0.13168389D-01 0.31109370D-01 0.15383269D+05 0.15383269D+05 0.15383269D+05 0.12465753D+01  1  2 12  6  6  5       21 0.489462551126D-06 0.100000000000D+01
0.489139301385D-09 0.000000000000D+00 0.000000000000D+00 0.216714550566D-04 0.000000000000D+00  6 2 -2 25 23 3 -3 4 0.13168389D-01 0.31109370D-01 0.15383269D+05 0.15383269D+05 0.15383269D+05 0.12465753D+01  1  2 12  6  6  5       21 0.489462551126D-06 0.100000000000D+01
-.130201753798D-04 0.000000000000D+00 0.000000000000D+00 0.216749148850D-04 0.000000000000D+00  6 2 -2 25 23 1 -1 4 0.13168389D-01 0.31109370D-01 0.15352292D+05 0.15352292D+05 0.15352292D+05 0.12466748D+01  1  2  5  6  6  5       21 -.130320668056D-01 0.100000000000D+01
-.130201753798D-04 0.000000000000D+00 0.000000000000D+00 0.216749148850D-04 0.000000000000D+00  6 2 -2 25 23 3 -3 4 0.13168389D-01 0.31109370D-01 0.15352292D+05 0.15352292D+05 0.15352292D+05 0.12466748D+01  1  2  5  6  6  5       21 -.130320668056D-01 0.100000000000D+01
0.120127236921D-04 0.000000000000D+00 0.000000000000D+00 0.216749148850D-04 0.375465025612D-06  6 2 -2 25 23 1 -1 4 0.13168389D-01 0.31109370D-01 0.15383269D+05 0.15383269D+05 0.15383269D+05 0.12465753D+01  1  2 11  6  6  5       21 0.120206623505D-01 0.100000000000D+01
0.120127236921D-04 0.000000000000D+00 0.000000000000D+00 0.216749148850D-04 0.375465025612D-06  6 2 -2 25 23 3 -3 4 0.13168389D-01 0.31109370D-01 0.15383269D+05 0.15383269D+05 0.15383269D+05 0.12465753D+01  1  2 11  6  6  5       21 0.120206623505D-01 0.100000000000D+01
0.511497762747D-09 0.000000000000D+00 0.000000000000D+00 0.216714550566D-04 0.000000000000D+00  6 2 -2 25 23 2 -2 4 0.13168389D-01 0.31109370D-01 0.15383269D+05 0.15383269D+05 0.15383269D+05 0.12465753D+01  1  2 12  7  6  5       21 0.511835788170D-06 0.100000000000D+01
0.489139301385D-09 0.000000000000D+00 0.000000000000D+00 0.216714550566D-04 0.000000000000D+00  6 2 -2 25 23 2 -2 4 0.13168389D-01 0.31109370D-01 0.15383269D+05 0.15383269D+05 0.15383269D+05 0.12465753D+01  1  2 12  7  6  5       21 0.489462551126D-06 0.100000000000D+01
-.130201753798D-04 0.000000000000D+00 0.000000000000D+00 0.216749148850D-04 0.000000000000D+00  6 2 -2 25 23 2 -2 4 0.13168389D-01 0.31109370D-01 0.15352292D+05 0.15352292D+05 0.15352292D+05 0.12466748D+01  1  2  5  7  6  5       21 -.130320668056D-01 0.100000000000D+01
0.116562838233D-04 0.000000000000D+00 0.000000000000D+00 0.216749148850D-04 0.404929879506D-06  6 2 -2 25 23 2 -2 4 0.13168389D-01 0.31109370D-01 0.15383269D+05 0.15383269D+05 0.15383269D+05 0.12465753D+01  1  2 11  7  6  5       21 0.116639869269D-01 0.100000000000D+01
0.511497762747D-09 0.000000000000D+00 0.000000000000D+00 0.216714550566D-04 0.000000000000D+00  6 2 -2 25 23 4 -4 4 0.13168389D-01 0.31109370D-01 0.15383269D+05 0.15383269D+05 0.15383269D+05 0.12465753D+01  1  2 12  8  6  5       21 0.511835788170D-06 0.100000000000D+01
0.489139301385D-09 0.000000000000D+00 0.000000000000D+00 0.216714550566D-04 0.000000000000D+00  6 2 -2 25 23 4 -4 4 0.13168389D-01 0.31109370D-01 0.15383269D+05 0.15383269D+05 0.15383269D+05 0.12465753D+01  1  2 12  8  6  5       21 0.489462551126D-06 0.100000000000D+01
-.130201753798D-04 0.000000000000D+00 0.000000000000D+00 0.216749148850D-04 0.000000000000D+00  6 2 -2 25 23 4 -4 4 0.13168389D-01 0.31109370D-01 0.15352292D+05 0.15352292D+05 0.15352292D+05 0.12466748D+01  1  2  5  8  6  5       21 -.130320668056D-01 0.100000000000D+01
0.120160934634D-04 0.000000000000D+00 0.000000000000D+00 0.216749148850D-04 0.375570349876D-06  6 2 -2 25 23 4 -4 4 0.13168389D-01 0.31109370D-01 0.15383269D+05 0.15383269D+05 0.15383269D+05 0.12465753D+01  1  2 11  8  6  5       21 0.120240343487D-01 0.100000000000D+01
  </mgrwgt>
  </event>
  <event>
  6     66 0.43206592E-03 0.52623479E+02 0.75467711E-02 0.11541264E+00
        2 -1    0    0  502    0 0.00000000E+00 0.00000000E+00 0.40854539E+03 0.40854551E+03 0.32000000E+00 0.0000E+00 0.9000E+01
       -2 -1    0    0    0  503 0.00000000E+00 0.00000000E+00 -.13625796E+03 0.13625834E+03 0.32000000E+00 0.0000E+00 0.9000E+01
       25  1    1    2    0    0 0.43916568E+02 -.67424387E+02 -.27074317E+02 0.15110503E+03 0.12500000E+03 0.0000E+00 0.9000E+01
       23  1    1    2    0    0 -.21219725E+02 0.10915493E+03 0.16679850E+03 0.22023185E+03 0.91188000E+02 0.0000E+00 0.9000E+01
       21  1    1    2  502  501 -.52476109E+02 -.42481437E+02 0.12600540E+03 0.14295572E+03 0.75000000E+00 0.0000E+00 0.9000E+01
       21  1    1    2  501  503 0.29779266E+02 0.75089301E+00 0.65578455E+01 0.30511250E+02 0.75000000E+00 0.0000E+00 0.9000E+01
#aMCatNLO 2  0  0  2  2 0.29788732D+02 0.00000000D+00  -5  6  0 0.00000000D+00 0.00000000D+00 0.00000000D+00 0.00000000D+00 0.00000000D+00
  <mgrwgt>
 0.2577610103D-01    1    2    0
 0.219657289727294D+03 0.000000000000000D+00 0.000000000000000D+00 0.219657289727294D+03
 0.219657289727294D+03 0.000000000000000D+00 0.000000000000000D+00 -.219657289727294D+03
 0.196133008824608D+03 0.570851943500501D+02 -.670916617100274D+02 -.122813462884156D+03
 0.155675195632493D+03 -.106484575526685D+02 0.109422024961407D+03 0.619107906290105D+02
 0.875063749974867D+02 -.464367367973816D+02 -.423303632513797D+02 0.609026722551459D+02
 0.000000000000000D+00 0.000000000000000D+00 0.000000000000000D+00 -.000000000000000D+00
 0.230620083946547D+03 0.000000000000000D+00 0.000000000000000D+00 0.230620083946547D+03
 0.241373545434075D+03 0.000000000000000D+00 0.000000000000000D+00 -.241373545434075D+03
 0.192828497876174D+03 0.439172901376854D+02 -.674236943110199D+02 -.122813462884156D+03
 0.156567454536911D+03 -.212191213268823D+02 0.109155482546565D+03 0.619107906290105D+02
 0.909274154136621D+02 -.524774349639244D+02 -.424826812430434D+02 0.609026722551459D+02
 0.316702615538756D+02 0.297792661531213D+02 0.750893007498098D+00 -.107534614875279D+02
0.816123741813D-04 0.000000000000D+00 0.000000000000D+00 0.209028019381D-05 0.585418457393D-08  6 2 -2 25 23 21 21 4 0.62851983D-01 0.20962404D-01 0.37980765D+05 0.37980765D+05 0.37980765D+05 0.12042915D+01  1  2  1  2  6  2       -2 0.257761010290D-01 0.100000000000D+01
  </mgrwgt>
  </event>
  <event>
  5     66 0.43206592E-03 0.31516069E+02 0.75467711E-02 0.12124313E+00
        2 -1    0    0  502    0 0.00000000E+00 0.00000000E+00 0.44331274E+03 0.44331286E+03 0.32000000E+00 0.0000E+00 0.9000E+01
       -2 -1    0    0    0  501 0.00000000E+00 0.00000000E+00 -.71624669E+02 0.71625384E+02 0.32000000E+00 0.0000E+00 0.9000E+01
       25  1    1    2    0    0 0.33350758E+02 -.60174586E+02 0.34212685E+03 0.37068724E+03 0.12500000E+03 0.0000E+00 0.9000E+01
       23  1    1    2    0    0 -.20883341E+01 0.56207636E+02 0.34029057E+02 0.11241391E+03 0.91188000E+02 0.0000E+00 0.9000E+01
       21  1    1    2  502  501 -.31262424E+02 0.39669505E+01 -.44678325E+01 0.31837083E+02 0.75000000E+00 0.0000E+00 0.9000E+01
#aMCatNLO 1  0  0  5  2 0.67015415D+01 0.00000000D+00  -5  6  0 0.00000000D+00 0.00000000D+00 0.00000000D+00 0.00000000D+00 0.00000000D+00
  <mgrwgt>
 0.7142462951D-01   20    2    0
 0.178191868371888D+03 0.000000000000000D+00 0.000000000000000D+00 0.178191868371888D+03
 0.178191868371888D+03 -.000000000000000D+00 -.000000000000000D+00 -.178191868371888D+03
 0.178788118699193D+03 0.333524769500969D+02 -.601748044051845D+02 0.107734843871831D+03
 0.126935364748074D+03 -.208711369932104D+01 0.562074809127838D+02 -.680712753338133D+02
 0.506602532965083D+02 -.312653632507759D+02 0.396732349240070D+01 -.396635685380181D+02
 0.000000000000000D+00 -.000000000000000D+00 0.000000000000000D+00 0.000000000000000D+00
 0.178191868371888D+03 0.000000000000000D+00 0.000000000000000D+00 0.178191868371888D+03
 0.178191868371888D+03 -.000000000000000D+00 -.000000000000000D+00 -.178191868371888D+03
 0.178118984904205D+03 0.326769894315379D+02 -.600890904641787D+02 0.106877913303840D+03
 0.127299530158114D+03 -.256828231871097D+01 0.562685373461347D+02 -.686816909032867D+02
 0.356451395335070D+02 -.164038629953954D+02 0.423470927229919D+01 -.313617041719767D+02
 0.153200821479505D+02 -.137048441174315D+02 -.414156154255180D+00 -.683451822857660D+01
0.437909976514D-04 0.000000000000D+00 0.000000000000D+00 0.843112654559D-05 0.000000000000D+00  6 2 -2 25 23 21 21 2 0.68202024D-01 0.11019244D-01 0.19787836D+05 0.19787836D+05 0.19787836D+05 0.12343363D+01  1  2  2  3  6  5       21 0.261479777424D-01 0.100000000000D+01
0.296682399042D-05 0.231091443485D-05 -.168168961416D-06 0.843112654559D-05 0.000000000000D+00  6 2 -2 25 23 21 21 4 0.68202024D-01 0.11019244D-01 0.19787836D+05 0.19787836D+05 0.19787836D+05 0.12343363D+01  1  2  3  3  6  5       21 0.269905688017D-02 0.100000000000D+01
0.419397148034D-06 0.000000000000D+00 0.000000000000D+00 0.843112654559D-05 0.000000000000D+00  6 2 -2 25 23 21 21 4 0.68202024D-01 0.11019244D-01 0.19787836D+05 0.19787836D+05 0.19787836D+05 0.12343363D+01  1  2 15  3  6  5       21 0.381544965787D-03 0.100000000000D+01
0.904959693468D-04 0.000000000000D+00 0.000000000000D+00 0.843584911052D-05 0.000000000000D+00  6 2 -2 25 23 21 21 4 0.68202024D-01 0.11019244D-01 0.19645542D+05 0.19645542D+05 0.19645542D+05 0.12346819D+01  1  2 12  3  6  5       21 0.824069802433D-01 0.100000000000D+01
0.832978235158D-04 0.000000000000D+00 0.000000000000D+00 0.843584911052D-05 0.000000000000D+00  6 2 -2 25 23 21 21 4 0.68202024D-01 0.11019244D-01 0.19645542D+05 0.19645542D+05 0.19645542D+05 0.12346819D+01  1  2 12  3  6  5       21 0.758522412249D-01 0.100000000000D+01
-.227294242781D-03 0.000000000000D+00 0.000000000000D+00 0.843112654559D-05 0.000000000000D+00  6 2 -2 25 23 21 21 4 0.68202024D-01 0.11019244D-01 0.19787836D+05 0.19787836D+05 0.19787836D+05 0.12343363D+01  1  2  4  3  6  5       21 -.206780075859D+00 0.100000000000D+01
-.197737858014D-03 0.000000000000D+00 0.000000000000D+00 0.843112654559D-05 0.000000000000D+00  6 2 -2 25 23 21 21 4 0.68202024D-01 0.11019244D-01 0.19787836D+05 0.19787836D+05 0.19787836D+05 0.12343363D+01  1  2  5  3  6  5       21 -.179891266844D+00 0.100000000000D+01
0.289923897248D-03 0.000000000000D+00 -.000000000000D+00 0.843112654559D-05 0.000000000000D+00  6 2 -2 25 23 21 21 4 0.68202024D-01 0.11019244D-01 0.19787836D+05 0.19787836D+05 0.19787836D+05 0.12343363D+01  1  2  6  3  6  5       21 0.263757166626D+00 0.100000000000D+01
0.176008877280D-05 0.000000000000D+00 0.000000000000D+00 0.843584911052D-05 0.000000000000D+00  6 2 -2 25 23 1 -1 4 0.68202024D-01 0.11019244D-01 0.19645542D+05 0.19645542D+05 0.19645542D+05 0.12346819D+01  1  2 12  6  6  5       21 0.160276310397D-02 0.100000000000D+01
0.176008877280D-05 0.000000000000D+00 0.000000000000D+00 0.843584911052D-05 0.000000000000D+00  6 2 -2 25 23 3 -3 4 0.68202024D-01 0.11019244D-01 0.19645542D+05 0.19645542D+05 0.19645542D+05 0.12346819D+01  1  2 12  6  6  5       21 0.160276310397D-02 0.100000000000D+01
0.164679285580D-05 0.000000000000D+00 0.000000000000D+00 0.843584911052D-05 0.000000000000D+00  6 2 -2 25 23 1 -1 4 0.68202024D-01 0.11019244D-01 0.19645542D+05 0.19645542D+05 0.19645542D+05 0.12346819D+01  1  2 12  6  6  5       21 0.149959415112D-02 0.100000000000D+01
0.164679285580D-05 0.000000000000D+00 0.000000000000D+00 0.843584911052D-05 0.000000000000D+00  6 2 -2 25 23 3 -3 4 0.68202024D-01 0.11019244D-01 0.19645542D+05 0.19645542D+05 0.19645542D+05 0.12346819D+01  1  2 12  6  6  5       21 0.149959415112D-02 0.100000000000D+01
-.152746569078D-05 0.000000000000D+00 0.000000000000D+00 0.843112654559D-05 0.000000000000D+00  6 2 -2 25 23 1 -1 4 0.68202024D-01 0.11019244D-01 0.19787836D+05 0.19787836D+05 0.19787836D+05 0.12343363D+01  1  2  5  6  6  5       21 -.138960612265D-02 0.100000000000D+01
-.152746569078D-05 0.000000000000D+00 0.000000000000D+00 0.843112654559D-05 0.000000000000D+00  6 2 -2 25 23 3 -3 4 0.68202024D-01 0.11019244D-01 0.19787836D+05 0.19787836D+05 0.19787836D+05 0.12343363D+01  1  2  5  6  6  5       21 -.138960612265D-02 0.100000000000D+01
0.176008877280D-05 0.000000000000D+00 0.000000000000D+00 0.843584911052D-05 0.000000000000D+00  6 2 -2 25 23 2 -2 4 0.68202024D-01 0.11019244D-01 0.19645542D+05 0.19645542D+05 0.19645542D+05 0.12346819D+01  1  2 12  7  6  5       21 0.160276310397D-02 0.100000000000D+01
0.164679285580D-05 0.000000000000D+00 0.000000000000D+00 0.843584911052D-05 0.000000000000D+00  6 2 -2 25 23 2 -2 4 0.68202024D-01 0.11019244D-01 0.19645542D+05 0.19645542D+05 0.19645542D+05 0.12346819D+01  1  2 12  7  6  5       21 0.149959415112D-02 0.100000000000D+01
-.152746569078D-05 0.000000000000D+00 0.000000000000D+00 0.843112654559D-05 0.000000000000D+00  6 2 -2 25 23 2 -2 4 0.68202024D-01 0.11019244D-01 0.19787836D+05 0.19787836D+05 0.19787836D+05 0.12343363D+01  1  2  5  7  6  5       21 -.138960612265D-02 0.100000000000D+01
0.176008877280D-05 0.000000000000D+00 0.000000000000D+00 0.843584911052D-05 0.000000000000D+00  6 2 -2 25 23 4 -4 4 0.68202024D-01 0.11019244D-01 0.19645542D+05 0.19645542D+05 0.19645542D+05 0.12346819D+01  1  2 12  8  6  5       21 0.160276310397D-02 0.100000000000D+01
0.164679285580D-05 0.000000000000D+00 0.000000000000D+00 0.843584911052D-05 0.000000000000D+00  6 2 -2 25 23 4 -4 4 0.68202024D-01 0.11019244D-01 0.19645542D+05 0.19645542D+05 0.19645542D+05 0.12346819D+01  1  2 12  8  6  5       21 0.149959415112D-02 0.100000000000D+01
-.152746569078D-05 0.000000000000D+00 0.000000000000D+00 0.843112654559D-05 0.000000000000D+00  6 2 -2 25 23 4 -4 4 0.68202024D-01 0.11019244D-01 0.19787836D+05 0.19787836D+05 0.19787836D+05 0.12343363D+01  1  2  5  8  6  5       21 -.138960612265D-02 0.100000000000D+01
  </mgrwgt>
  </event>
  <event>
  6     66 0.43206592E-03 0.30571481E+02 0.75467711E-02 0.11806118E+00
        2 -1    0    0  502    0 0.00000000E+00 0.00000000E+00 0.11618912E+04 0.11618912E+04 0.32000000E+00 0.0000E+00 0.9000E+01
       -2 -1    0    0    0  501 0.00000000E+00 0.00000000E+00 -.27992370E+02 0.27994199E+02 0.32000000E+00 0.0000E+00 0.9000E+01
       25  1    1    2    0    0 -.15191519E+02 -.10823231E+03 0.74391661E+03 0.76222172E+03 0.12500000E+03 0.0000E+00 0.9000E+01
       23  1    1    2    0    0 0.42869725E+02 0.88778924E+02 0.32079430E+03 0.34776967E+03 0.91188000E+02 0.0000E+00 0.9000E+01
       21  1    1    2  502  503 -.25272738E+02 0.19739291E+02 0.70186205E+02 0.77168755E+02 0.75000000E+00 0.0000E+00 0.9000E+01
       21  1    1    2  503  501 -.24054683E+01 -.28590266E+00 -.99831032E+00 0.27252782E+01 0.75000000E+00 0.0000E+00 0.9000E+01
#aMCatNLO 2  0  0  5  2 0.91486666D+01 0.00000000D+00  -5  6  0 0.00000000D+00 0.00000000D+00 0.00000000D+00 0.00000000D+00 0.00000000D+00
  <mgrwgt>
 0.3024003112D-01    4    2    0
 0.180347447967115D+03 0.000000000000000D+00 0.000000000000000D+00 0.180347447967115D+03
 0.180347447967115D+03 -.000000000000000D+00 -.000000000000000D+00 -.180347447967115D+03
 0.176944104229556D+03 -.134580060006443D+02 -.109450696731110D+03 0.593602820171988D+02
 0.138319355924129D+03 0.442312829897505D+02 0.878219644887980D+02 -.338805111778850D+02
 0.454314357805453D+02 -.307732769891061D+02 0.216287322423119D+02 -.254797708393138D+02
 0.000000000000000D+00 0.000000000000000D+00 0.000000000000000D+00 -.000000000000000D+00
 0.180347447967115D+03 0.000000000000000D+00 0.000000000000000D+00 0.180347447967115D+03
 0.180347447967115D+03 -.000000000000000D+00 -.000000000000000D+00 -.180347447967115D+03
 0.175841051875099D+03 -.152156027917375D+02 -.108215384989758D+03 0.579050205745900D+02
 0.138788174129836D+03 0.428507166672090D+02 0.887922836180728D+02 -.350235975491962D+02
 0.335984078532779D+02 -.250770315640920D+02 0.196444033073434D+02 -.106814285986086D+02
 0.124672620760175D+02 -.255808231137939D+01 -.221301935657732D+00 -.121999944267851D+02
-.400763154445D-04 0.000000000000D+00 0.000000000000D+00 0.698228829900D-05 0.000000000000D+00  6 2 -2 25 23 21 21 4 0.17875263D+00 0.43066625D-02 0.28014834D+05 0.28014834D+05 0.28014834D+05 0.12180314D+01  1  2 13  3  6  5       21 -.449253036342D-01 0.100000000000D+01
-.363564008528D-04 0.000000000000D+00 0.000000000000D+00 0.698228829900D-05 0.000000000000D+00  6 2 -2 25 23 21 21 4 0.17875263D+00 0.43066625D-02 0.28014834D+05 0.28014834D+05 0.28014834D+05 0.12180314D+01  1  2 13  3  6  5       21 -.407553022089D-01 0.100000000000D+01
-.849382493443D-05 0.000000000000D+00 0.000000000000D+00 0.697086102502D-05 0.000000000000D+00  6 2 -2 25 23 21 21 4 0.17875263D+00 0.43066625D-02 0.28630263D+05 0.28630263D+05 0.28630263D+05 0.12170343D+01  1  2  8  3  6  5       21 -.949342213999D-02 0.100000000000D+01
0.111877560913D-03 0.000000000000D+00 0.000000000000D+00 0.697086102502D-05 0.703766222026D-05  6 2 -2 25 23 21 21 4 0.17875263D+00 0.43066625D-02 0.28014834D+05 0.28014834D+05 0.28014834D+05 0.12180314D+01  1  2  1  3  6  5       21 0.125414059105D+00 0.100000000000D+01
  </mgrwgt>
  </event>
  <event>
  5     66 0.43206592E-03 0.31463474E+02 0.75467711E-02 0.11458189E+00
        2 -1    0    0  502    0 0.00000000E+00 0.00000000E+00 0.21076143E+03 0.21076168E+03 0.32000000E+00 0.0000E+00 0.9000E+01
       -2 -1    0    0    0  501 -.00000000E+00 -.00000000E+00 -.24062266E+03 0.24062288E+03 0.32000000E+00 0.0000E+00 0.9000E+01
       25  1    1    2    0    0 0.16759882E+02 -.41258292E+02 0.76455421E+02 0.15314559E+03 0.12500000E+03 0.0000E+00 0.9000E+01
       23  1    1    2    0    0 -.35536373E+02 0.16011888E+02 0.68554815E+02 0.12055799E+03 0.91188000E+02 0.0000E+00 0.9000E+01
       21  1    1    2  502  501 0.18776491E+02 0.25246404E+02 -.17487146E+03 0.17768098E+03 0.75000000E+00 0.0000E+00 0.9000E+01
#aMCatNLO 1  0  0  5  1 0.68692122D+01 0.00000000D+00  -5  6  0 0.00000000D+00 0.00000000D+00 0.00000000D+00 0.00000000D+00 0.00000000D+00
  <mgrwgt>
 0.1981629724D+00    4    2    0
 0.225197869792623D+03 0.000000000000000D+00 0.000000000000000D+00 0.225197869792623D+03
 0.225197869792623D+03 -.000000000000000D+00 -.000000000000000D+00 -.225197869792623D+03
 0.158551139834687D+03 0.167598148339991D+02 -.412583818591873D+02 0.867774076356860D+02
 0.125368135900551D+03 -.355364256271979D+02 0.160118164267246D+02 0.766987766756318D+02
 0.166476463850007D+03 0.187766107931988D+02 0.252465654324627D+02 -.163476184311318D+03
 0.000000000000000D+00 0.000000000000000D+00 0.000000000000000D+00 0.000000000000000D+00
 0.225197869792623D+03 0.000000000000000D+00 0.000000000000000D+00 0.225197869792623D+03
 0.225197869792623D+03 -.000000000000000D+00 -.000000000000000D+00 -.225197869792623D+03
 0.132314405662517D+03 0.246268032731274D+02 -.306806242131257D+02 0.182844689358123D+02
 0.101536510038207D+03 -.293993762103157D+02 0.242635409457040D+02 0.232673330220580D+02
 0.118350571863567D+03 0.549083403635243D+02 -.695024348967430D+02 -.784942262996503D+02
 0.981942520209545D+02 -.501357674263360D+02 0.759195181641647D+02 0.369424243417800D+02
0.977752792290D-03 0.000000000000D+00 0.000000000000D+00 0.296588010174D-04 0.000000000000D+00  6 2 -2 25 23 21 21 2 0.32424871D-01 0.37018906D-01 0.17335415D+05 0.17335415D+05 0.17335415D+05 0.12407214D+01  1  2  2  3  6  5       21 0.164752299923D+00 0.100000000000D+01
0.139580068291D-03 0.515974324086D-04 -.375482817062D-05 0.296588010174D-04 0.000000000000D+00  6 2 -2 25 23 21 21 4 0.32424871D-01 0.37018906D-01 0.17335415D+05 0.17335415D+05 0.17335415D+05 0.12407214D+01  1  2  3  3  6  5       21 0.362054846288D-01 0.100000000000D+01
0.224401582782D-04 0.000000000000D+00 0.000000000000D+00 0.296588010174D-04 0.000000000000D+00  6 2 -2 25 23 21 21 4 0.32424871D-01 0.37018906D-01 0.17335415D+05 0.17335415D+05 0.17335415D+05 0.12407214D+01  1  2 15  3  6  5       21 0.582072222457D-02 0.100000000000D+01
-.332147708259D-04 0.000000000000D+00 0.000000000000D+00 0.296588010174D-04 0.000000000000D+00  6 2 -2 25 23 21 21 4 0.32424871D-01 0.37018906D-01 0.17335415D+05 0.17335415D+05 0.17335415D+05 0.12407214D+01  1  2  4  3  6  5       21 -.861553436181D-02 0.100000000000D+01
  </mgrwgt>
  </event>
  <event>
  5     66 0.43206592E-03 0.35941516E+02 0.75467711E-02 0.12250050E+00
        2 -1    0    0  502    0 0.00000000E+00 0.00000000E+00 0.66080932E+03 0.66080940E+03 0.32000000E+00 0.0000E+00 0.9000E+01
       -2 -1    0    0    0  501 0.00000000E+00 0.00000000E+00 -.10855709E+03 0.10855756E+03 0.32000000E+00 0.0000E+00 0.9000E+01
       25  1    1    2    0    0 0.17755464E+02 -.16877356E+02 0.39926684E+03 0.41909320E+03 0.12500000E+03 0.0000E+00 0.9000E+01
       23  1    1    2    0    0 -.39320169E+02 -.11875856E+02 0.23789759E+03 0.25806516E+03 0.91188000E+02 0.0000E+00 0.9000E+01
       21  1    1    2  502  501 0.21564706E+02 0.28753212E+02 -.84912196E+02 0.92208607E+02 0.75000000E+00 0.0000E+00 0.9000E+01
#aMCatNLO 1  0  0  5  1 0.68692122D+01 0.00000000D+00  -5  6  0 0.00000000D+00 0.00000000D+00 0.00000000D+00 0.00000000D+00 0.00000000D+00
  <mgrwgt>
 0.1593790609D-01    1    2    0
 0.267835303714853D+03 0.000000000000000D+00 0.000000000000000D+00 0.267835303714853D+03
 0.267835303714853D+03 -.000000000000000D+00 -.000000000000000D+00 -.267835303714853D+03
 0.190304709350418D+03 0.177554189845219D+02 -.168774154470556D+02 0.141388756078617D+03
 0.125389436489114D+03 -.393201986576166D+02 -.118758947618874D+02 0.756316371645342D+02
 0.219976461590173D+03 0.215647796730947D+02 0.287533102089431D+02 -.217020393243151D+03
 0.000000000000000D+00 0.000000000000000D+00 0.000000000000000D+00 0.000000000000000D+00
 0.267835303714853D+03 0.000000000000000D+00 0.000000000000000D+00 0.267835303714853D+03
 0.267835303714853D+03 -.000000000000000D+00 -.000000000000000D+00 -.267835303714853D+03
 0.170489760085387D+03 0.205422956399130D+02 -.131615449303493D+02 0.113342605047094D+03
 0.114266886497418D+03 -.374690266790315D+02 -.940764222431256D+01 0.570020904293796D+02
 0.179600886659247D+03 -.460681238002741D+02 0.554767871154490D+02 -.164488700370748D+03
 0.713130741876526D+02 0.629948548393927D+02 -.329075999607871D+02 -.585599510572629D+01
0.526126572591D-04 0.000000000000D+00 0.000000000000D+00 0.325188263075D-04 0.000000000000D+00  6 2 -2 25 23 21 21 4 0.10166302D+00 0.16701133D-01 0.17335822D+05 0.17335822D+05 0.17335822D+05 0.12407202D+01  1  2 14  3  6  5       21 0.159379060925D-01 0.100000000000D+01
  </mgrwgt>
  </event>
  <event>
  5     66 -.43206592E-03 0.20349646E+02 0.75467711E-02 0.12307907E+00
        2 -1    0    0  502    0 0.00000000E+00 0.00000000E+00 0.31032604E+03 0.31032620E+03 0.32000000E+00 0.0000E+00 0.9000E+01
       -2 -1    0    0    0  501 0.00000000E+00 0.00000000E+00 -.64085257E+02 0.64086056E+02 0.32000000E+00 0.0000E+00 0.9000E+01
       25  1    1    2    0    0 0.27714128E+02 0.31291610E+02 0.20398649E+03 0.24286359E+03 0.12500000E+03 0.0000E+00 0.9000E+01
       23  1    1    2    0    0 -.44526429E+02 -.19848134E+02 0.29483799E+02 0.10752254E+03 0.91188000E+02 0.0000E+00 0.9000E+01
       21  1    1    2  502  501 0.16812301E+02 -.11443475E+02 0.12770494E+02 0.24026123E+02 0.75000000E+00 0.0000E+00 0.9000E+01
#aMCatNLO 1  0  0  5  1 0.10994673D+01 0.00000000D+00  -5  6  0 0.00000000D+00 0.00000000D+00 0.00000000D+00 0.00000000D+00 0.00000000D+00
  <mgrwgt>
 -.2775576751D+00   14    2    0
 0.141023062909790D+03 0.000000000000000D+00 0.000000000000000D+00 0.141023062909790D+03
 0.141023062909790D+03 -.000000000000000D+00 -.000000000000000D+00 -.141023062909790D+03
 0.144307596520870D+03 0.277085008504496D+02 0.312954400024170D+02 0.587581213902039D+02
 0.116994484822654D+03 -.445309908375789D+02 -.198450290303798D+02 -.547322922297720D+02
 0.207440444760563D+02 0.168224899871293D+02 -.114504109720372D+02 -.402582916043193D+01
 0.000000000000000D+00 -.000000000000000D+00 0.000000000000000D+00 0.000000000000000D+00
 0.141023062909790D+03 0.000000000000000D+00 0.000000000000000D+00 0.141023062909790D+03
 0.141023062909790D+03 -.000000000000000D+00 -.000000000000000D+00 -.141023062909790D+03
 0.144258010673497D+03 0.287511198413975D+02 0.305857700342530D+02 0.585086098172923D+02
 0.116869596113165D+03 -.436860144231857D+02 -.204201714268908D+02 -.549345054985297D+02
 0.194384256816696D+02 0.160159875999002D+02 -.106786644722142D+02 -.270308328978351D+01
 0.148009335124867D+01 -.108109301811196D+01 0.513065864851951D+00 -.871021028979100D+00
0.147655363771D-03 0.000000000000D+00 0.000000000000D+00 0.261629091843D-04 0.000000000000D+00  6 2 -2 25 23 21 21 2 0.47742542D-01 0.98593444D-02 0.16327179D+05 0.16327179D+05 0.16327179D+05 0.12436468D+01  1  2  2  3  6  5       21 0.155126960718D+00 0.100000000000D+01
0.326889186960D-04 0.779198761898D-05 -.567035475432D-06 0.261629091843D-04 0.000000000000D+00  6 2 -2 25 23 21 21 4 0.47742542D-01 0.98593444D-02 0.16327179D+05 0.16327179D+05 0.16327179D+05 0.12436468D+01  1  2  3  3  6  5       21 0.531168962723D-01 0.100000000000D+01
0.445211133602D-05 0.000000000000D+00 0.000000000000D+00 0.261629091843D-04 0.000000000000D+00  6 2 -2 25 23 21 21 4 0.47742542D-01 0.98593444D-02 0.16327179D+05 0.16327179D+05 0.16327179D+05 0.12436468D+01  1  2 15  3  6  5       21 0.723432727241D-02 0.100000000000D+01
0.231947943195D-09 0.000000000000D+00 0.000000000000D+00 0.261644500218D-04 0.000000000000D+00  6 2 -2 25 23 21 21 4 0.47742542D-01 0.98593444D-02 0.16314981D+05 0.16314981D+05 0.16314981D+05 0.12436834D+01  1  2 12  3  6  5       21 0.376931903237D-06 0.100000000000D+01
0.195572801110D-09 0.000000000000D+00 0.000000000000D+00 0.261644500218D-04 0.000000000000D+00  6 2 -2 25 23 21 21 4 0.47742542D-01 0.98593444D-02 0.16314981D+05 0.16314981D+05 0.16314981D+05 0.12436834D+01  1  2 12  3  6  5       21 0.317819710442D-06 0.100000000000D+01
-.303422157982D-03 0.000000000000D+00 0.000000000000D+00 0.261629091843D-04 0.000000000000D+00  6 2 -2 25 23 21 21 4 0.47742542D-01 0.98593444D-02 0.16327179D+05 0.16327179D+05 0.16327179D+05 0.12436468D+01  1  2  4  3  6  5       21 -.493036904713D+00 0.100000000000D+01
0.271558070294D-10 0.000000000000D+00 0.000000000000D+00 0.261644500218D-04 0.000000000000D+00  6 2 -2 25 23 1 -1 4 0.47742542D-01 0.98593444D-02 0.16314981D+05 0.16314981D+05 0.16314981D+05 0.12436834D+01  1  2 12  6  6  5       21 0.441301176744D-07 0.100000000000D+01
0.271558070294D-10 0.000000000000D+00 0.000000000000D+00 0.261644500218D-04 0.000000000000D+00  6 2 -2 25 23 3 -3 4 0.47742542D-01 0.98593444D-02 0.16314981D+05 0.16314981D+05 0.16314981D+05 0.12436834D+01  1  2 12  6  6  5       21 0.441301176744D-07 0.100000000000D+01
0.267847231953D-10 0.000000000000D+00 0.000000000000D+00 0.261644500218D-04 0.000000000000D+00  6 2 -2 25 23 1 -1 4 0.47742542D-01 0.98593444D-02 0.16314981D+05 0.16314981D+05 0.16314981D+05 0.12436834D+01  1  2 12  6  6  5       21 0.435270800535D-07 0.100000000000D+01
0.267847231953D-10 0.000000000000D+00 0.000000000000D+00 0.261644500218D-04 0.000000000000D+00  6 2 -2 25 23 3 -3 4 0.47742542D-01 0.98593444D-02 0.16314981D+05 0.16314981D+05 0.16314981D+05 0.12436834D+01  1  2 12  6  6  5       21 0.435270800535D-07 0.100000000000D+01
0.271558070294D-10 0.000000000000D+00 0.000000000000D+00 0.261644500218D-04 0.000000000000D+00  6 2 -2 25 23 2 -2 4 0.47742542D-01 0.98593444D-02 0.16314981D+05 0.16314981D+05 0.16314981D+05 0.12436834D+01  1  2 12  7  6  5       21 0.441301176744D-07 0.100000000000D+01
0.267847231953D-10 0.000000000000D+00 0.000000000000D+00 0.261644500218D-04 0.000000000000D+00  6 2 -2 25 23 2 -2 4 0.47742542D-01 0.98593444D-02 0.16314981D+05 0.16314981D+05 0.16314981D+05 0.12436834D+01  1  2 12  7  6  5       21 0.435270800535D-07 0.100000000000D+01
0.271558070294D-10 0.000000000000D+00 0.000000000000D+00 0.261644500218D-04 0.000000000000D+00  6 2 -2 25 23 4 -4 4 0.47742542D-01 0.98593444D-02 0.16314981D+05 0.16314981D+05 0.16314981D+05 0.12436834D+01  1  2 12  8  6  5       21 0.441301176744D-07 0.100000000000D+01
0.267847231953D-10 0.000000000000D+00 0.000000000000D+00 0.261644500218D-04 0.000000000000D+00  6 2 -2 25 23 4 -4 4 0.47742542D-01 0.98593444D-02 0.16314981D+05 0.16314981D+05 0.16314981D+05 0.12436834D+01  1  2 12  8  6  5       21 0.435270800535D-07 0.100000000000D+01
  </mgrwgt>
  </event>
  <event>
  5     66 0.43206592E-03 0.27774232E+02 0.75467711E-02 0.12364443E+00
        2 -1    0    0  502    0 0.00000000E+00 0.00000000E+00 0.16508018E+04 0.16508018E+04 0.32000000E+00 0.0000E+00 0.9000E+01
       -2 -1    0    0    0  501 0.00000000E+00 0.00000000E+00 -.11492548E+02 0.11497002E+02 0.32000000E+00 0.0000E+00 0.9000E+01
       25  1    1    2    0    0 0.62430651E+01 -.28924753E+01 0.11591338E+04 0.11658746E+04 0.12500000E+03 0.0000E+00 0.9000E+01
       23  1    1    2    0    0 -.14203208E+02 -.23707130E+02 0.32098478E+03 0.33482867E+03 0.91188000E+02 0.0000E+00 0.9000E+01
       21  1    1    2  502  501 0.79601430E+01 0.26599605E+02 0.15919064E+03 0.16159556E+03 0.75000000E+00 0.0000E+00 0.9000E+01
#aMCatNLO 1  0  0  5  1 0.10185177D+02 0.00000000D+00  -5  6  0 0.00000000D+00 0.00000000D+00 0.00000000D+00 0.00000000D+00 0.00000000D+00
  <mgrwgt>
 0.2978858597D+00   14    2    0
 0.137752118445121D+03 0.000000000000000D+00 0.000000000000000D+00 0.137752118445121D+03
 0.137752118445121D+03 -.000000000000000D+00 -.000000000000000D+00 -.137752118445121D+03
 0.137396080106885D+03 0.624161899581912D+01 -.289730756350589D+01 0.566156394464560D+02
 0.110314966606456D+03 -.142043691140057D+02 -.237110097482418D+02 -.555892474150827D+02
 0.277931901769012D+02 0.796275011818656D+01 0.266083173117477D+02 -.102639203137338D+01
 0.000000000000000D+00 0.000000000000000D+00 0.000000000000000D+00 0.000000000000000D+00
 0.137752118445121D+03 0.000000000000000D+00 0.000000000000000D+00 0.137752118445121D+03
 0.137752118445121D+03 -.000000000000000D+00 -.000000000000000D+00 -.137752118445121D+03
 0.137367735121897D+03 0.749388022342859D+01 0.128724722056660D+01 0.564542239899694D+02
 0.109584232197905D+03 -.132021583956263D+02 -.203620234794192D+02 -.557184315637541D+02
 0.151620684138862D+02 -.653412445384078D+01 0.136528624642472D+02 -.890439633796814D+00
 0.133902011565540D+02 0.122424026260385D+02 0.542191379460542D+01 0.154647207581553D+00
0.166918029033D-03 0.000000000000D+00 0.000000000000D+00 0.149262961470D-04 0.000000000000D+00  6 2 -2 25 23 21 21 2 0.25396985D+00 0.17684293D-02 0.15406827D+05 0.15406827D+05 0.15406827D+05 0.12464998D+01  1  2  2  3  6  5       21 0.265357618983D+00 0.100000000000D+01
0.201348532281D-04 0.880850639214D-05 -.641009182015D-06 0.149262961470D-04 0.000000000000D+00  6 2 -2 25 23 21 21 4 0.25396985D+00 0.17684293D-02 0.15406827D+05 0.15406827D+05 0.15406827D+05 0.12464998D+01  1  2  3  3  6  5       21 0.497348948732D-01 0.100000000000D+01
0.515191594389D-05 0.000000000000D+00 0.000000000000D+00 0.149262961470D-04 0.000000000000D+00  6 2 -2 25 23 21 21 4 0.25396985D+00 0.17684293D-02 0.15406827D+05 0.15406827D+05 0.15406827D+05 0.12464998D+01  1  2 15  3  6  5       21 0.127256948418D-01 0.100000000000D+01
0.490631541758D-04 0.000000000000D+00 0.000000000000D+00 0.149275378285D-04 0.000000000000D+00  6 2 -2 25 23 21 21 4 0.25396985D+00 0.17684293D-02 0.15390649D+05 0.15390649D+05 0.15390649D+05 0.12465516D+01  1  2 12  3  6  5       21 0.121207915376D+00 0.100000000000D+01
0.488358779958D-04 0.000000000000D+00 0.000000000000D+00 0.149275378285D-04 0.000000000000D+00  6 2 -2 25 23 21 21 4 0.25396985D+00 0.17684293D-02 0.15390649D+05 0.15390649D+05 0.15390649D+05 0.12465516D+01  1  2 12  3  6  5       21 0.120646441650D+00 0.100000000000D+01
-.122861648153D-03 0.000000000000D+00 0.000000000000D+00 0.149262961470D-04 0.000000000000D+00  6 2 -2 25 23 21 21 4 0.25396985D+00 0.17684293D-02 0.15406827D+05 0.15406827D+05 0.15406827D+05 0.12464998D+01  1  2  4  3  6  5       21 -.303479299582D+00 0.100000000000D+01
0.160727406219D-05 0.000000000000D+00 0.000000000000D+00 0.149275378285D-04 0.000000000000D+00  6 2 -2 25 23 1 -1 4 0.25396985D+00 0.17684293D-02 0.15390649D+05 0.15390649D+05 0.15390649D+05 0.12465516D+01  1  2 12  6  6  5       21 0.397068516666D-02 0.100000000000D+01
0.160727406219D-05 0.000000000000D+00 0.000000000000D+00 0.149275378285D-04 0.000000000000D+00  6 2 -2 25 23 3 -3 4 0.25396985D+00 0.17684293D-02 0.15390649D+05 0.15390649D+05 0.15390649D+05 0.12465516D+01  1  2 12  6  6  5       21 0.397068516666D-02 0.100000000000D+01
0.159989809190D-05 0.000000000000D+00 0.000000000000D+00 0.149275378285D-04 0.000000000000D+00  6 2 -2 25 23 1 -1 4 0.25396985D+00 0.17684293D-02 0.15390649D+05 0.15390649D+05 0.15390649D+05 0.12465516D+01  1  2 12  6  6  5       21 0.395246322401D-02 0.100000000000D+01
0.159989809190D-05 0.000000000000D+00 0.000000000000D+00 0.149275378285D-04 0.000000000000D+00  6 2 -2 25 23 3 -3 4 0.25396985D+00 0.17684293D-02 0.15390649D+05 0.15390649D+05 0.15390649D+05 0.12465516D+01  1  2 12  6  6  5       21 0.395246322401D-02 0.100000000000D+01
0.160727406219D-05 0.000000000000D+00 0.000000000000D+00 0.149275378285D-04 0.000000000000D+00  6 2 -2 25 23 2 -2 4 0.25396985D+00 0.17684293D-02 0.15390649D+05 0.15390649D+05 0.15390649D+05 0.12465516D+01  1  2 12  7  6  5       21 0.397068516666D-02 0.100000000000D+01
0.159989809190D-05 0.000000000000D+00 0.000000000000D+00 0.149275378285D-04 0.000000000000D+00  6 2 -2 25 23 2 -2 4 0.25396985D+00 0.17684293D-02 0.15390649D+05 0.15390649D+05 0.15390649D+05 0.12465516D+01  1  2 12  7  6  5       21 0.395246322401D-02 0.100000000000D+01
0.160727406219D-05 0.000000000000D+00 0.000000000000D+00 0.149275378285D-04 0.000000000000D+00  6 2 -2 25 23 4 -4 4 0.25396985D+00 0.17684293D-02 0.15390649D+05 0.15390649D+05 0.15390649D+05 0.12465516D+01  1  2 12  8  6  5       21 0.397068516666D-02 0.100000000000D+01
0.159989809190D-05 0.000000000000D+00 0.000000000000D+00 0.149275378285D-04 0.000000000000D+00  6 2 -2 25 23 4 -4 4 0.25396985D+00 0.17684293D-02 0.15390649D+05 0.15390649D+05 0.15390649D+05 0.12465516D+01  1  2 12  8  6  5       21 0.395246322401D-02 0.100000000000D+01
  </mgrwgt>
  </event>
  <event>
  5     66 0.43206592E-03 0.70067897E+02 0.75467711E-02 0.11117183E+00
        2 -1    0    0  502    0 0.00000000E+00 0.00000000E+00 0.27777155E+04 0.27777155E+04 0.32000000E+00 0.0000E+00 0.9000E+01
       -2 -1    0    0    0  501 0.00000000E+00 0.00000000E+00 -.23582014E+02 0.23584186E+02 0.32000000E+00 0.0000E+00 0.9000E+01
       25  1    1    2    0    0 0.10367061E+03 0.14680806E+03 0.89247657E+03 0.91893396E+03 0.12500000E+03 0.0000E+00 0.9000E+01
       23  1    1    2    0    0 -.38592972E+02 -.17277143E+03 0.11348347E+04 0.11521738E+04 0.91188000E+02 0.0000E+00 0.9000E+01
       21  1    1    2  502  501 -.65077634E+02 0.25963365E+02 0.72682225E+03 0.73019199E+03 0.75000000E+00 0.0000E+00 0.9000E+01
#aMCatNLO 1  0  0  5  5 0.24744441D+02 0.00000000D+00  -5  6  0 0.00000000D+00 0.00000000D+00 0.00000000D+00 0.00000000D+00 0.00000000D+00
  <mgrwgt>
 0.8256702185D-01    4    2    0
 0.255943731825845D+03 0.000000000000000D+00 0.000000000000000D+00 0.255943731825845D+03
 0.255943731825845D+03 -.000000000000000D+00 -.000000000000000D+00 -.255943731825845D+03
 0.227022674194682D+03 0.103671718624772D+03 0.146807619068834D+03 -.601164897447543D+02
 0.199453782256679D+03 -.385919943379532D+02 -.172771818400689D+03 0.112746020787155D+02
 0.854110072003287D+02 -.650797242868187D+02 0.259641993318552D+02 0.488418876660388D+02
 0.000000000000000D+00 0.000000000000000D+00 0.000000000000000D+00 -.000000000000000D+00
 0.255943731825845D+03 0.000000000000000D+00 0.000000000000000D+00 0.255943731825845D+03
 0.255943731825845D+03 -.000000000000000D+00 -.000000000000000D+00 -.255943731825845D+03
 0.219215611249146D+03 0.781428747069744D+02 0.156992603708171D+03 -.409572671060460D+02
 0.199198117474712D+03 -.613984689452453D+02 -.163672949909008D+03 0.283907051820185D+02
 0.375222816467756D+02 0.369187023064633D+02 -.597321079318417D+01 0.304167598650515D+01
 0.559514532810566D+02 -.536631080681923D+02 0.126535569940216D+02 0.952488593752233D+01
0.782018781699D-03 0.000000000000D+00 0.000000000000D+00 0.175475115282D-05 0.000000000000D+00  6 2 -2 25 23 21 21 2 0.42734102D+00 0.36281706D-02 0.59565588D+05 0.59565588D+05 0.59565588D+05 0.11848251D+01  1  2  2  3  6  5       21 0.985552078047D-01 0.100000000000D+01
0.341107957911D-04 0.412682648918D-04 -.300315803200D-05 0.175475115282D-05 0.000000000000D+00  6 2 -2 25 23 21 21 4 0.42734102D+00 0.36281706D-02 0.59565588D+05 0.59565588D+05 0.59565588D+05 0.11848251D+01  1  2  3  3  6  5       21 0.603479805677D-02 0.100000000000D+01
0.721092914674D-05 0.000000000000D+00 0.000000000000D+00 0.175475115282D-05 0.000000000000D+00  6 2 -2 25 23 21 21 4 0.42734102D+00 0.36281706D-02 0.59565588D+05 0.59565588D+05 0.59565588D+05 0.11848251D+01  1  2 15  3  6  5       21 0.127573984110D-02 0.100000000000D+01
-.131692561038D-03 0.000000000000D+00 0.000000000000D+00 0.175475115282D-05 0.000000000000D+00  6 2 -2 25 23 21 21 4 0.42734102D+00 0.36281706D-02 0.59565588D+05 0.59565588D+05 0.59565588D+05 0.11848251D+01  1  2  4  3  6  5       21 -.232987238501D-01 0.100000000000D+01
  </mgrwgt>
  </event>
  <event>
  5     66 0.43206592E-03 0.50426477E+02 0.75467711E-02 0.11735760E+00
        2 -1    0    0  502    0 0.00000000E+00 0.00000000E+00 0.11375703E+04 0.11375703E+04 0.32000000E+00 0.0000E+00 0.9000E+01
       -2 -1    0    0    0  501 0.00000000E+00 0.00000000E+00 -.34371471E+02 0.34372961E+02 0.32000000E+00 0.0000E+00 0.9000E+01
       25  1    1    2    0    0 -.36070282E+02 -.62508014E+02 0.20284755E+03 0.24895872E+03 0.12500000E+03 0.0000E+00 0.9000E+01
       23  1    1    2    0    0 0.65304590E+02 0.10359083E+03 0.66901978E+03 0.68622043E+03 0.91188000E+02 0.0000E+00 0.9000E+01
       21  1    1    2  502  501 -.29234308E+02 -.41082818E+02 0.23133145E+03 0.23676411E+03 0.75000000E+00 0.0000E+00 0.9000E+01
#aMCatNLO 1  0  0  2  5 0.86317348D+00 0.00000000D+00  -5  6  0 0.00000000D+00 0.00000000D+00 0.00000000D+00 0.00000000D+00 0.00000000D+00
  <mgrwgt>
 0.1243954086D+00    6    4    0
 0.197739379928936D+03 0.000000000000000D+00 0.000000000000000D+00 0.197739379928936D+03
 0.197739379928936D+03 0.000000000000000D+00 0.000000000000000D+00 -.197739379928936D+03
 0.171903575702721D+03 -.360691547447557D+02 -.625064293556490D+02 -.933691689187997D+02
 0.167265585247890D+03 0.653056869321895D+02 0.103592372830846D+03 0.683104106993154D+02
 0.563095989072600D+02 -.292365321874339D+02 -.410859434751969D+02 0.250587582194842D+02
 0.000000000000000D+00 0.000000000000000D+00 0.000000000000000D+00 0.000000000000000D+00
 0.199361847490524D+03 0.000000000000000D+00 0.000000000000000D+00 0.199361847490524D+03
 0.197854689087861D+03 0.000000000000000D+00 0.000000000000000D+00 -.197854689087861D+03
 0.172042885062590D+03 -.363878908709930D+02 -.627046568767643D+02 -.933691689187997D+02
 0.167025538149143D+03 0.649958984335087D+02 0.103399709994385D+03 0.683104106993154D+02
 0.564112786279178D+02 -.293409909330529D+02 -.411509081795349D+02 0.250587582194842D+02
 0.173683473873458D+01 0.732983370537156D+00 0.455855061914546D+00 0.150715840266313D+01
 0.197739379928936D+03 0.000000000000000D+00 0.000000000000000D+00 0.197739379928936D+03
 0.197739379928936D+03 0.000000000000000D+00 0.000000000000000D+00 -.197739379928936D+03
 0.171903575702721D+03 -.360691547447557D+02 -.625064293556490D+02 -.933691689187997D+02
 0.167265585247890D+03 0.653056869321895D+02 0.103592372830846D+03 0.683104106993154D+02
 0.000000000000000D+00 0.000000000000000D+00 0.000000000000000D+00 0.000000000000000D+00
 0.563095989072600D+02 -.292365321874339D+02 -.410859434751969D+02 0.250587582194842D+02
 0.199361847490524D+03 0.000000000000000D+00 0.000000000000000D+00 0.199361847490524D+03
 0.197854689087861D+03 0.000000000000000D+00 0.000000000000000D+00 -.197854689087861D+03
 0.172042885062590D+03 -.363878908709930D+02 -.627046568767643D+02 -.933691689187997D+02
 0.167025538149143D+03 0.649958984335087D+02 0.103399709994385D+03 0.683104106993154D+02
 0.173683473873458D+01 0.732983370537156D+00 0.455855061914546D+00 0.150715840266313D+01
 0.564112786279178D+02 -.293409909330529D+02 -.411509081795349D+02 0.250587582194842D+02
0.188036847823D-03 0.000000000000D+00 0.000000000000D+00 0.323109723949D-05 0.000000000000D+00  6 2 -2 25 23 21 21 2 0.17501093D+00 0.52880367D-02 0.30179323D+05 0.30179323D+05 0.30179323D+05 0.12146268D+01  1  2  2  2  6  2       -2 0.107154828542D+00 0.100000000000D+01
0.781033179645D-05 0.992297707803D-05 -.722111006880D-06 0.323109723949D-05 0.000000000000D+00  6 2 -2 25 23 21 21 4 0.17501093D+00 0.52880367D-02 0.30179323D+05 0.30179323D+05 0.30179323D+05 0.12146268D+01  1  2  3  2  6  2       -2 0.656634988126D-02 0.100000000000D+01
0.995877653237D-05 0.000000000000D+00 0.000000000000D+00 0.323109723949D-05 0.000000000000D+00  6 2 -2 25 23 21 21 4 0.17501093D+00 0.52880367D-02 0.30179323D+05 0.30179323D+05 0.30179323D+05 0.12146268D+01  1  2 15  2  6  2       -2 0.837260347000D-02 0.100000000000D+01
-.233051380029D-03 0.000000000000D+00 0.000000000000D+00 0.323109723949D-05 0.000000000000D+00  6 2 -2 25 23 21 21 4 0.17501093D+00 0.52880367D-02 0.30179323D+05 0.30179323D+05 0.30179323D+05 0.12146268D+01  1  2  4  2  6  2       -2 -.195932380526D+00 0.100000000000D+01
0.234241643597D-03 0.000000000000D+00 0.000000000000D+00 0.323109723949D-05 0.940199150776D-05  6 2 -2 25 23 21 21 4 0.17644690D+00 0.52911203D-02 0.30332316D+05 0.30332316D+05 0.30332316D+05 0.12143966D+01  1  2 11  2  6  2       -2 0.194227765634D+00 0.100000000000D+01
0.275012763135D-06 0.000000000000D+00 0.000000000000D+00 0.322987230268D-05 0.544620968274D-08  6 2 21 25 23 2 21 4 0.17644690D+00 0.52911203D-02 0.30332316D+05 0.30332316D+05 0.30332316D+05 0.12143966D+01  3  4 11  5  5  2       -2 0.400624163313D-02 0.100000000000D+01
  </mgrwgt>
  </event>
  <event>
  5     66 -.43206592E-03 0.44144428E+02 0.75467711E-02 0.11915181E+00
        2 -1    0    0  502    0 0.00000000E+00 0.00000000E+00 0.35451876E+03 0.35451890E+03 0.32000000E+00 0.0000E+00 0.9000E+01
       -2 -1    0    0    0  501 0.00000000E+00 0.00000000E+00 -.22187952E+03 0.22187975E+03 0.32000000E+00 0.0000E+00 0.9000E+01
       25  1    1    2    0    0 -.27237462E+02 -.79001548E+02 0.75185190E+02 0.16810989E+03 0.12500000E+03 0.0000E+00 0.9000E+01
       23  1    1    2    0    0 -.10722882E+02 0.56468753E+02 0.21724168E+03 0.24251371E+03 0.91188000E+02 0.0000E+00 0.9000E+01
       21  1    1    2  502  501 0.37960344E+02 0.22532795E+02 -.15978763E+03 0.16577504E+03 0.75000000E+00 0.0000E+00 0.9000E+01
#aMCatNLO 1  0  0  2  5 0.11311889D+02 0.00000000D+00  -5  6  0 0.00000000D+00 0.00000000D+00 0.00000000D+00 0.00000000D+00 0.00000000D+00
  <mgrwgt>
 -.5378684969D-01    7    4    0
 0.280464896315638D+03 0.000000000000000D+00 0.000000000000000D+00 0.280464896315638D+03
 0.280464896315638D+03 0.000000000000000D+00 0.000000000000000D+00 -.280464896315638D+03
 0.154967481273822D+03 -.272375299718670D+02 -.790015881406866D+02 0.375071497801850D+02
 0.197832274424150D+03 -.107229693299238D+02 0.564687010273142D+02 0.165887495589239D+03
 0.208130036933305D+03 0.379604993017909D+02 0.225328871133723D+02 -.203394645369424D+03
 0.000000000000000D+00 -.000000000000000D+00 0.000000000000000D+00 -.000000000000000D+00
 0.280611471416470D+03 0.000000000000000D+00 0.000000000000000D+00 0.280611471416470D+03
 0.637744876646744D+03 0.000000000000000D+00 0.000000000000000D+00 -.637744876646744D+03
 0.155220990549147D+03 -.244410067656423D+02 -.804015348778052D+02 0.375071497801850D+02
 0.197169368358922D+03 -.716180777531199D+01 0.546859743588445D+02 0.165887495589239D+03
 0.208653481716130D+03 0.417180366951868D+02 0.206518541930028D+02 -.203394645369424D+03
 0.357312507439014D+03 -.101152221542326D+02 0.506370632595790D+01 -.357133405230273D+03
 0.280464896315638D+03 0.000000000000000D+00 0.000000000000000D+00 0.280464896315638D+03
 0.280464896315638D+03 0.000000000000000D+00 0.000000000000000D+00 -.280464896315638D+03
 0.154967481273822D+03 -.272375299718670D+02 -.790015881406866D+02 0.375071497801850D+02
 0.197832274424150D+03 -.107229693299238D+02 0.564687010273142D+02 0.165887495589239D+03
 0.000000000000000D+00 -.000000000000000D+00 0.000000000000000D+00 -.000000000000000D+00
 0.208130036933305D+03 0.379604993017909D+02 0.225328871133723D+02 -.203394645369424D+03
 0.280611471416470D+03 0.000000000000000D+00 0.000000000000000D+00 0.280611471416470D+03
 0.637744876646744D+03 0.000000000000000D+00 0.000000000000000D+00 -.637744876646744D+03
 0.155220990549147D+03 -.244410067656423D+02 -.804015348778052D+02 0.375071497801850D+02
 0.197169368358922D+03 -.716180777531199D+01 0.546859743588445D+02 0.165887495589239D+03
 0.357312507439014D+03 -.101152221542326D+02 0.506370632595790D+01 -.357133405230273D+03
 0.208653481716130D+03 0.417180366951868D+02 0.206518541930028D+02 -.203394645369424D+03
0.283335830467D-04 0.000000000000D+00 0.000000000000D+00 0.102733481467D-04 0.000000000000D+00  6 2 -2 25 23 21 21 2 0.54541376D-01 0.34135339D-01 0.22845667D+05 0.22845667D+05 0.22845667D+05 0.12275159D+01  1  2  2  2  6  2       -2 0.312862835231D-02 0.100000000000D+01
0.263841411015D-05 0.149520425579D-05 -.108808419303D-06 0.102733481467D-04 0.000000000000D+00  6 2 -2 25 23 21 21 4 0.54541376D-01 0.34135339D-01 0.22845667D+05 0.22845667D+05 0.22845667D+05 0.12275159D+01  1  2  3  2  6  2       -2 0.438985012343D-03 0.100000000000D+01
0.185304690458D-05 0.000000000000D+00 0.000000000000D+00 0.102733481467D-04 0.000000000000D+00  6 2 -2 25 23 21 21 4 0.54541376D-01 0.34135339D-01 0.22845667D+05 0.22845667D+05 0.22845667D+05 0.12275159D+01  1  2 15  2  6  2       -2 0.308313928110D-03 0.100000000000D+01
0.111603620373D-01 0.000000000000D+00 0.000000000000D+00 0.102086484002D-04 0.000000000000D+00  6 2 -2 25 23 21 21 4 0.54541376D-01 0.79045161D-01 0.24814561D+05 0.24814561D+05 0.24814561D+05 0.12236445D+01  1  2 12  2  6  2       -2 0.340873953275D+00 0.100000000000D+01
-.115660996640D-01 0.000000000000D+00 -.131996203386D-04 0.102733481467D-04 0.000000000000D+00  6 2 -2 25 23 21 21 4 0.54541376D-01 0.77631365D-01 0.22845667D+05 0.22845667D+05 0.22845667D+05 0.12275159D+01  1  2  5  2  6  2       -2 -.372448061547D+00 0.100000000000D+01
0.102064857580D-02 0.000000000000D+00 0.000000000000D+00 0.102086484002D-04 0.000000000000D+00  6 2 21 25 23 2 21 4 0.54541376D-01 0.79045161D-01 0.24814561D+05 0.24814561D+05 0.24814561D+05 0.12236445D+01  3  4 12  5  5  2       -2 0.373115462794D+00 0.100000000000D+01
-.103217188238D-02 0.000000000000D+00 -.117890204072D-05 0.102733481467D-04 0.000000000000D+00  6 2 21 25 23 2 21 4 0.54541376D-01 0.77631365D-01 0.22845667D+05 0.22845667D+05 0.22845667D+05 0.12275159D+01  3  4  5  5  5  2       -2 -.399204131510D+00 0.100000000000D+01
  </mgrwgt>
  </event>
  <event>
  5     66 0.43206592E-03 0.23189667E+02 0.75467711E-02 0.12058242E+00
        2 -1    0    0  502    0 0.00000000E+00 0.00000000E+00 0.47226240E+03 0.47226251E+03 0.32000000E+00 0.0000E+00 0.9000E+01
       -2 -1    0    0    0  501 0.00000000E+00 0.00000000E+00 -.40085183E+02 0.40086460E+02 0.32000000E+00 0.0000E+00 0.9000E+01
       25  1    1    2    0    0 -.12641571E+02 -.49584663E+02 0.23182087E+03 0.26829902E+03 0.12500000E+03 0.0000E+00 0.9000E+01
       23  1    1    2    0    0 0.50767274E+01 0.71494401E+02 0.17132239E+03 0.20689088E+03 0.91188000E+02 0.0000E+00 0.9000E+01
       21  1    1    2  502  501 0.75648437E+01 -.21909738E+02 0.29033968E+02 0.37159081E+02 0.75000000E+00 0.0000E+00 0.9000E+01
#aMCatNLO 1  0  0  2  1 0.16701854D+02 0.00000000D+00  -5  6  0 0.00000000D+00 0.00000000D+00 0.00000000D+00 0.00000000D+00 0.00000000D+00
  <mgrwgt>
 0.9748804464D-01    4    2    0
 0.137590260316949D+03 0.000000000000000D+00 0.000000000000000D+00 0.137590260316949D+03
 0.137590260316949D+03 0.000000000000000D+00 0.000000000000000D+00 -.137590260316949D+03
 0.135454895177595D+03 -.126434550840205D+02 -.495792065962472D+02 0.102505582481238D+02
 0.116139958682382D+03 0.507511205415610D+01 0.714990797993915D+02 -.594672045949575D+01
 0.235856667739211D+02 0.756834302986442D+01 -.219198732031443D+02 -.430383778862807D+01
 0.000000000000000D+00 0.000000000000000D+00 0.000000000000000D+00 0.000000000000000D+00
 0.258078760776077D+03 0.000000000000000D+00 0.000000000000000D+00 0.258078760776077D+03
 0.138423466128851D+03 0.000000000000000D+00 0.000000000000000D+00 -.138423466128851D+03
 0.137159479872030D+03 -.206758197067388D+02 -.515282393821305D+02 0.102505582481238D+02
 0.115031042214655D+03 -.173615668053820D+01 0.698463428158346D+02 -.594672045949575D+01
 0.234963852055343D+02 0.618110800744155D+01 -.222564822426270D+02 -.430383778862807D+01
 0.120815319612708D+03 0.162308683798354D+02 0.393837880892286D+01 0.119655294647227D+03
0.532449450290D-04 0.000000000000D+00 0.000000000000D+00 0.242689960025D-04 0.000000000000D+00  6 2 -2 25 23 21 21 2 0.72655861D-01 0.61670578D-02 0.18802410D+05 0.18802410D+05 0.18802410D+05 0.12367893D+01  1  2  2  2  6  2       -2 0.731660840985D-01 0.100000000000D+01
0.110165418326D-04 0.280981294443D-05 -.204474608627D-06 0.242689960025D-04 0.000000000000D+00  6 2 -2 25 23 21 21 4 0.72655861D-01 0.61670578D-02 0.18802410D+05 0.18802410D+05 0.18802410D+05 0.12367893D+01  1  2  3  2  6  2       -2 0.231562450093D-01 0.100000000000D+01
0.155853647142D-05 0.000000000000D+00 0.000000000000D+00 0.242689960025D-04 0.000000000000D+00  6 2 -2 25 23 21 21 4 0.72655861D-01 0.61670578D-02 0.18802410D+05 0.18802410D+05 0.18802410D+05 0.12367893D+01  1  2 15  2  6  2       -2 0.327596925937D-02 0.100000000000D+01
-.100394940910D-05 0.000000000000D+00 0.000000000000D+00 0.242689960025D-04 0.000000000000D+00  6 2 -2 25 23 21 21 4 0.72655861D-01 0.61670578D-02 0.18802410D+05 0.18802410D+05 0.18802410D+05 0.12367893D+01  1  2  4  2  6  2       -2 -.211025373001D-02 0.100000000000D+01
  </mgrwgt>
  </event>
  <event>
  5     66 0.43206592E-03 0.55326911E+02 0.75467711E-02 0.11971517E+00
        2 -1    0    0  502    0 0.00000000E+00 0.00000000E+00 0.30688553E+04 0.30688553E+04 0.32000000E+00 0.0000E+00 0.9000E+01
       -2 -1    0    0    0  501 0.00000000E+00 0.00000000E+00 -.16472195E+02 0.16475303E+02 0.32000000E+00 0.0000E+00 0.9000E+01
       25  1    1    2    0    0 -.22769591E+02 0.18410794E+02 0.16813935E+04 0.16862878E+04 0.12500000E+03 0.0000E+00 0.9000E+01
       23  1    1    2    0    0 0.34731924E+02 0.35607088E+02 0.13191113E+04 0.13231946E+04 0.91188000E+02 0.0000E+00 0.9000E+01
       21  1    1    2  502  501 -.11962333E+02 -.54017882E+02 0.51878340E+02 0.75848228E+02 0.75000000E+00 0.0000E+00 0.9000E+01
#aMCatNLO 1  0  0  1  5 0.15166843D+02 0.00000000D+00  -5  6  0 0.00000000D+00 0.00000000D+00 0.00000000D+00 0.00000000D+00 0.00000000D+00
  <mgrwgt>
 0.1775525387D+00    9    4    0
 0.224845732274684D+03 0.000000000000000D+00 0.000000000000000D+00 0.224845732274684D+03
 0.224845732274684D+03 0.000000000000000D+00 0.000000000000000D+00 -.224845732274684D+03
 0.156770578892769D+03 -.227695496414698D+02 0.184109814876159D+02 0.899699826395520D+02
 0.124663277408636D+03 0.347319572579657D+02 0.356072366386120D+02 0.689311049835641D+02
 0.168257608247964D+03 -.119624076164959D+02 -.540182181262279D+02 -.158901087623116D+03
 0.000000000000000D+00 0.000000000000000D+00 0.000000000000000D+00 0.000000000000000D+00
 0.233200152960554D+03 0.000000000000000D+00 0.000000000000000D+00 0.233200152960554D+03
 0.231964131438532D+03 0.000000000000000D+00 0.000000000000000D+00 -.231964131438532D+03
 0.157197261236392D+03 -.273039725803082D+02 0.156803777185029D+02 0.899699826395520D+02
 0.123111121887752D+03 0.311535209462586D+02 0.334523225928611D+02 0.689311049835641D+02
 0.169638776469832D+03 -.168424141712584D+02 -.569569303882879D+02 -.158901087623116D+03
 0.152171248051096D+02 0.129928658053080D+02 0.782423007692381D+01 0.123602152202230D+01
 0.224845732274684D+03 0.000000000000000D+00 0.000000000000000D+00 0.224845732274684D+03
 0.224845732274684D+03 0.000000000000000D+00 0.000000000000000D+00 -.224845732274684D+03
 0.156770578892769D+03 -.227695496414698D+02 0.184109814876159D+02 0.899699826395520D+02
 0.124663277408636D+03 0.347319572579657D+02 0.356072366386120D+02 0.689311049835641D+02
 0.000000000000000D+00 0.000000000000000D+00 0.000000000000000D+00 0.000000000000000D+00
 0.168257608247964D+03 -.119624076164959D+02 -.540182181262279D+02 -.158901087623116D+03
 0.233200152960554D+03 0.000000000000000D+00 0.000000000000000D+00 0.233200152960554D+03
 0.231964131438532D+03 0.000000000000000D+00 0.000000000000000D+00 -.231964131438532D+03
 0.157197261236392D+03 -.273039725803082D+02 0.156803777185029D+02 0.899699826395520D+02
 0.123111121887752D+03 0.311535209462586D+02 0.334523225928611D+02 0.689311049835641D+02
 0.152171248051096D+02 0.129928658053080D+02 0.782423007692381D+01 0.123602152202230D+01
 0.169638776469832D+03 -.168424141712584D+02 -.569569303882879D+02 -.158901087623116D+03
0.129053166769D-03 0.000000000000D+00 0.000000000000D+00 0.982805068371D-05 0.000000000000D+00  6 2 -2 25 23 21 21 2 0.47213182D+00 0.25344242D-02 0.20675993D+05 0.20675993D+05 0.20675993D+05 0.12322399D+01  1  2  2  1  6  1        2 0.208461308487D-01 0.100000000000D+01
0.309063469414D-05 0.681032271343D-05 -.495598140871D-06 0.982805068371D-05 0.000000000000D+00  6 2 -2 25 23 21 21 4 0.47213182D+00 0.25344242D-02 0.20675993D+05 0.20675993D+05 0.20675993D+05 0.12322399D+01  1  2  3  1  6  1        2 0.758045009814D-03 0.100000000000D+01
0.592384359646D-05 0.000000000000D+00 0.000000000000D+00 0.982805068371D-05 0.000000000000D+00  6 2 -2 25 23 21 21 4 0.47213182D+00 0.25344242D-02 0.20675993D+05 0.20675993D+05 0.20675993D+05 0.12322399D+01  1  2 15  1  6  1        2 0.145295077601D-02 0.100000000000D+01
0.454617500225D-03 0.000000000000D+00 0.000000000000D+00 0.973724049004D-05 0.000000000000D+00  6 2 -2 25 23 21 21 4 0.49964468D+00 0.25344242D-02 0.23328056D+05 0.23328056D+05 0.23328056D+05 0.12265338D+01  1  2 12  1  6  1        2 0.852531043504D-01 0.100000000000D+01
-.219056143197D-03 0.000000000000D+00 0.000000000000D+00 0.982805068371D-05 0.000000000000D+00  6 2 -2 25 23 21 21 4 0.47213182D+00 0.25344242D-02 0.20675993D+05 0.20675993D+05 0.20675993D+05 0.12322399D+01  1  2  4  1  6  1        2 -.537282573494D-01 0.100000000000D+01
-.264043982305D-02 0.000000000000D+00 -.469881559814D-03 0.982805068371D-05 0.000000000000D+00  6 2 -2 25 23 21 21 4 0.49476592D+00 0.25344242D-02 0.20675993D+05 0.20675993D+05 0.20675993D+05 0.12322399D+01  1  2  5  1  6  1        2 -.529113442449D+00 0.100000000000D+01
0.266004053282D-02 0.000000000000D+00 0.469366869978D-03 0.982805068371D-05 0.000000000000D+00  6 2 -2 25 23 21 21 4 0.47213182D+00 0.25344242D-02 0.20675993D+05 0.20675993D+05 0.20675993D+05 0.12322399D+01  1  2  6  1  6  1        2 0.652432477907D+00 0.100000000000D+01
0.568543389837D-05 0.000000000000D+00 0.000000000000D+00 0.973724049004D-05 0.000000000000D+00  6 21 -2 25 23 -2 21 4 0.49964468D+00 0.25344242D-02 0.23328056D+05 0.23328056D+05 0.23328056D+05 0.12265338D+01  3  4 12  4  5  1        2 0.109240150231D-03 0.100000000000D+01
-.212742714811D-04 0.000000000000D+00 -.385068070982D-05 0.982805068371D-05 0.000000000000D+00  6 21 -2 25 23 -2 21 4 0.49476592D+00 0.25344242D-02 0.20675993D+05 0.20675993D+05 0.20675993D+05 0.12322399D+01  3  4  5  4  5  1        2 -.457710539774D-03 0.100000000000D+01
  </mgrwgt>
  </event>
  <event>
  5     66 0.43206592E-03 0.31301467E+02 0.75467711E-02 0.11067509E+00
        2 -1    0    0  502    0 0.00000000E+00 0.00000000E+00 0.24858503E+03 0.24858524E+03 0.32000000E+00 0.0000E+00 0.9000E+01
       -2 -1    0    0    0  501 -.00000000E+00 -.00000000E+00 -.29457894E+03 0.29457911E+03 0.32000000E+00 0.0000E+00 0.9000E+01
       25  1    1    2    0    0 0.18736511E+03 -.91922689E+02 -.56710404E+02 0.24979299E+03 0.12500000E+03 0.0000E+00 0.9000E+01
       23  1    1    2    0    0 -.21146847E+03 0.11188203E+03 0.28094658E+02 0.25756759E+03 0.91188000E+02 0.0000E+00 0.9000E+01
       21  1    1    2  502  501 0.24103360E+02 -.19959339E+02 -.17378163E+02 0.35803774E+02 0.75000000E+00 0.0000E+00 0.9000E+01
#aMCatNLO 1  0  0  5  1 0.76748049D+01 0.00000000D+00  -5  6  0 0.00000000D+00 0.00000000D+00 0.00000000D+00 0.00000000D+00 0.00000000D+00
  <mgrwgt>
 0.1938243899D+00   19    2    0
 0.270606760257305D+03 0.000000000000000D+00 0.000000000000000D+00 0.270606760257305D+03
 0.270606760257305D+03 -.000000000000000D+00 -.000000000000000D+00 -.270606760257305D+03
 0.245870957197983D+03 0.187362518566562D+03 -.919205400444341D+02 -.356851306258899D+02
 0.260887099829943D+03 -.211471226579901D+03 0.111884308158426D+03 0.500864196203025D+02
 0.344554634866851D+02 0.241087080133393D+02 -.199637681139922D+02 -.144012889944126D+02
 0.000000000000000D+00 0.000000000000000D+00 0.000000000000000D+00 0.000000000000000D+00
 0.270606760257305D+03 0.000000000000000D+00 0.000000000000000D+00 0.270606760257305D+03
 0.270606760257305D+03 -.000000000000000D+00 -.000000000000000D+00 -.270606760257305D+03
 0.249989804823452D+03 0.190903244525828D+03 -.948525193096386D+02 -.378001762667097D+02
 0.256170499345527D+03 -.207779143228976D+03 0.108826993936751D+03 0.478809609412762D+02
 0.271427333453460D+02 0.148934126245861D+02 -.141535442696348D+02 -.177367251334023D+02
 0.791048300028534D+01 0.198248607856213D+01 0.179069642522377D+00 0.765594045883572D+01
0.152615502901D-02 0.000000000000D+00 0.000000000000D+00 0.772158061260D-05 0.000000000000D+00  6 2 -2 25 23 21 21 2 0.38243880D-01 0.45319866D-01 0.70384900D+05 0.70384900D+05 0.70384900D+05 0.11778481D+01  1  2  2  3  6  5       21 0.133121254822D+00 0.100000000000D+01
0.479640268941D-03 0.805374135212D-04 -.586083715724D-05 0.772158061260D-05 0.000000000000D+00  6 2 -2 25 23 21 21 4 0.38243880D-01 0.45319866D-01 0.70384900D+05 0.70384900D+05 0.70384900D+05 0.11778481D+01  1  2  3  3  6  5       21 0.580420831227D-01 0.100000000000D+01
0.278166457243D-04 0.000000000000D+00 0.000000000000D+00 0.772158061260D-05 0.000000000000D+00  6 2 -2 25 23 21 21 4 0.38243880D-01 0.45319866D-01 0.70384900D+05 0.70384900D+05 0.70384900D+05 0.11778481D+01  1  2 15  3  6  5       21 0.336613951720D-02 0.100000000000D+01
0.269506456024D-03 0.000000000000D+00 0.000000000000D+00 0.774082704807D-05 0.000000000000D+00  6 2 -2 25 23 21 21 4 0.38243880D-01 0.45319866D-01 0.67940499D+05 0.67940499D+05 0.67940499D+05 0.11793152D+01  1  2 12  3  6  5       21 0.327729843611D-01 0.100000000000D+01
0.227267384936D-03 0.000000000000D+00 0.000000000000D+00 0.774082704807D-05 0.000000000000D+00  6 2 -2 25 23 21 21 4 0.38243880D-01 0.45319866D-01 0.67940499D+05 0.67940499D+05 0.67940499D+05 0.11793152D+01  1  2 12  3  6  5       21 0.276365566976D-01 0.100000000000D+01
-.688569990345D-03 0.000000000000D+00 0.000000000000D+00 0.772158061260D-05 0.000000000000D+00  6 2 -2 25 23 21 21 4 0.38243880D-01 0.45319866D-01 0.70384900D+05 0.70384900D+05 0.70384900D+05 0.11778481D+01  1  2  4  3  6  5       21 -.833250233632D-01 0.100000000000D+01
0.565034198466D-04 0.000000000000D+00 0.000000000000D+00 0.772158061260D-05 0.178131852236D-04  6 2 -2 25 23 21 21 4 0.38243880D-01 0.45319866D-01 0.67940499D+05 0.67940499D+05 0.67940499D+05 0.11793152D+01  1  2 11  3  6  5       21 0.687102536353D-02 0.100000000000D+01
0.162402425852D-04 0.000000000000D+00 0.000000000000D+00 0.774082704807D-05 0.000000000000D+00  6 2 -2 25 23 1 -1 4 0.38243880D-01 0.45319866D-01 0.67940499D+05 0.67940499D+05 0.67940499D+05 0.11793152D+01  1  2 12  6  6  5       21 0.197487371589D-02 0.100000000000D+01
0.162402425852D-04 0.000000000000D+00 0.000000000000D+00 0.774082704807D-05 0.000000000000D+00  6 2 -2 25 23 3 -3 4 0.38243880D-01 0.45319866D-01 0.67940499D+05 0.67940499D+05 0.67940499D+05 0.11793152D+01  1  2 12  6  6  5       21 0.197487371589D-02 0.100000000000D+01
0.151933358135D-04 0.000000000000D+00 0.000000000000D+00 0.774082704807D-05 0.000000000000D+00  6 2 -2 25 23 1 -1 4 0.38243880D-01 0.45319866D-01 0.67940499D+05 0.67940499D+05 0.67940499D+05 0.11793152D+01  1  2 12  6  6  5       21 0.184756597060D-02 0.100000000000D+01
0.151933358135D-04 0.000000000000D+00 0.000000000000D+00 0.774082704807D-05 0.000000000000D+00  6 2 -2 25 23 3 -3 4 0.38243880D-01 0.45319866D-01 0.67940499D+05 0.67940499D+05 0.67940499D+05 0.11793152D+01  1  2 12  6  6  5       21 0.184756597060D-02 0.100000000000D+01
0.101850713356D-06 0.000000000000D+00 0.000000000000D+00 0.774082704807D-05 0.528757059719D-08  6 2 -2 25 23 1 -1 4 0.38243880D-01 0.45319866D-01 0.67940499D+05 0.67940499D+05 0.67940499D+05 0.11793152D+01  1  2 11  6  6  5       21 0.123854243985D-04 0.100000000000D+01
0.101850713356D-06 0.000000000000D+00 0.000000000000D+00 0.774082704807D-05 0.528757059719D-08  6 2 -2 25 23 3 -3 4 0.38243880D-01 0.45319866D-01 0.67940499D+05 0.67940499D+05 0.67940499D+05 0.11793152D+01  1  2 11  6  6  5       21 0.123854243985D-04 0.100000000000D+01
0.162402425852D-04 0.000000000000D+00 0.000000000000D+00 0.774082704807D-05 0.000000000000D+00  6 2 -2 25 23 2 -2 4 0.38243880D-01 0.45319866D-01 0.67940499D+05 0.67940499D+05 0.67940499D+05 0.11793152D+01  1  2 12  7  6  5       21 0.197487371589D-02 0.100000000000D+01
0.151933358135D-04 0.000000000000D+00 0.000000000000D+00 0.774082704807D-05 0.000000000000D+00  6 2 -2 25 23 2 -2 4 0.38243880D-01 0.45319866D-01 0.67940499D+05 0.67940499D+05 0.67940499D+05 0.11793152D+01  1  2 12  7  6  5       21 0.184756597060D-02 0.100000000000D+01
0.102373778573D-06 0.000000000000D+00 0.000000000000D+00 0.774082704807D-05 0.545094839333D-08  6 2 -2 25 23 2 -2 4 0.38243880D-01 0.45319866D-01 0.67940499D+05 0.67940499D+05 0.67940499D+05 0.11793152D+01  1  2 11  7  6  5       21 0.124490310684D-04 0.100000000000D+01
0.162402425852D-04 0.000000000000D+00 0.000000000000D+00 0.774082704807D-05 0.000000000000D+00  6 2 -2 25 23 4 -4 4 0.38243880D-01 0.45319866D-01 0.67940499D+05 0.67940499D+05 0.67940499D+05 0.11793152D+01  1  2 12  8  6  5       21 0.197487371589D-02 0.100000000000D+01
0.151933358135D-04 0.000000000000D+00 0.000000000000D+00 0.774082704807D-05 0.000000000000D+00  6 2 -2 25 23 4 -4 4 0.38243880D-01 0.45319866D-01 0.67940499D+05 0.67940499D+05 0.67940499D+05 0.11793152D+01  1  2 12  8  6  5       21 0.184756597060D-02 0.100000000000D+01
0.101894259164D-06 0.000000000000D+00 0.000000000000D+00 0.774082704807D-05 0.528983127386D-08  6 2 -2 25 23 4 -4 4 0.38243880D-01 0.45319866D-01 0.67940499D+05 0.67940499D+05 0.67940499D+05 0.11793152D+01  1  2 11  8  6  5       21 0.123907197301D-04 0.100000000000D+01
  </mgrwgt>
  </event>
  <event>
  5     66 0.43206592E-03 0.31295741E+02 0.75467711E-02 0.12221813E+00
        2 -1    0    0  502    0 0.00000000E+00 0.00000000E+00 0.44750019E+04 0.44750019E+04 0.32000000E+00 0.0000E+00 0.9000E+01
       -2 -1    0    0    0  501 0.00000000E+00 0.00000000E+00 -.65062545E+01 0.65141191E+01 0.32000000E+00 0.0000E+00 0.9000E+01
       25  1    1    2    0    0 -.16933023E+02 0.31754928E+02 0.97705119E+03 0.98567192E+03 0.12500000E+03 0.0000E+00 0.9000E+01
       23  1    1    2    0    0 0.37064942E+02 -.77989028E+01 0.33259616E+04 0.33274270E+04 0.91188000E+02 0.0000E+00 0.9000E+01
       21  1    1    2  502  501 -.20131919E+02 -.23956025E+02 0.16548286E+03 0.16841712E+03 0.75000000E+00 0.0000E+00 0.9000E+01
#aMCatNLO 1  0  0  1  5 0.70443337D+01 0.00000000D+00  -5  6  0 0.00000000D+00 0.00000000D+00 0.00000000D+00 0.00000000D+00 0.00000000D+00
  <mgrwgt>
 0.1845097253D+00   11    4    0
 0.170684356633890D+03 0.000000000000000D+00 0.000000000000000D+00 0.170684356633890D+03
 0.170684356633890D+03 0.000000000000000D+00 0.000000000000000D+00 -.170684356633890D+03
 0.150439195011698D+03 -.169317815328609D+02 0.317564054248045D+02 -.755764307465400D+02
 0.146097401982822D+03 0.370661480465525D+02 -.779746788417671D+01 0.107677758547050D+03
 0.448321162732603D+02 -.201343665136916D+02 -.239589375406278D+02 -.321013278005095D+02
 0.000000000000000D+00 0.000000000000000D+00 0.000000000000000D+00 0.000000000000000D+00
 0.178166788174635D+03 0.000000000000000D+00 0.000000000000000D+00 0.178166788174635D+03
 0.172386756284179D+03 0.000000000000000D+00 0.000000000000000D+00 -.172386756284179D+03
 0.150407175143819D+03 -.195344103041631D+02 0.300653997882218D+02 -.755764307465400D+02
 0.145574782063912D+03 0.345428853673446D+02 -.943690700056848D+01 0.107677758547050D+03
 0.454594302009304D+02 -.209154807300194D+02 -.244664507738595D+02 -.321013278005095D+02
 0.911215705015199D+01 0.590700566683792D+01 0.383795798620618D+01 0.578003189045662D+01
 0.170684356633890D+03 0.000000000000000D+00 0.000000000000000D+00 0.170684356633890D+03
 0.170684356633890D+03 0.000000000000000D+00 0.000000000000000D+00 -.170684356633890D+03
 0.150439195011698D+03 -.169317815328609D+02 0.317564054248045D+02 -.755764307465400D+02
 0.146097401982822D+03 0.370661480465525D+02 -.779746788417671D+01 0.107677758547050D+03
 0.000000000000000D+00 0.000000000000000D+00 0.000000000000000D+00 0.000000000000000D+00
 0.448321162732603D+02 -.201343665136916D+02 -.239589375406278D+02 -.321013278005095D+02
 0.178166788174635D+03 0.000000000000000D+00 0.000000000000000D+00 0.178166788174635D+03
 0.172386756284179D+03 0.000000000000000D+00 0.000000000000000D+00 -.172386756284179D+03
 0.150407175143819D+03 -.195344103041631D+02 0.300653997882218D+02 -.755764307465400D+02
 0.145574782063912D+03 0.345428853673446D+02 -.943690700056848D+01 0.107677758547050D+03
 0.911215705015199D+01 0.590700566683792D+01 0.383795798620618D+01 0.578003189045662D+01
 0.454594302009304D+02 -.209154807300194D+02 -.244664507738595D+02 -.321013278005095D+02
0.269278165490D-03 0.000000000000D+00 0.000000000000D+00 0.809049715502D-05 0.000000000000D+00  6 2 -2 25 23 21 21 2 0.68846244D+00 0.10015681D-02 0.16914963D+05 0.16914963D+05 0.16914963D+05 0.12419175D+01  1  2  2  1  6  1        2 0.169316720331D-01 0.100000000000D+01
0.150251710957D-04 0.142101991961D-04 -.103409905805D-05 0.809049715502D-05 0.000000000000D+00  6 2 -2 25 23 21 21 4 0.68846244D+00 0.10015681D-02 0.16914963D+05 0.16914963D+05 0.16914963D+05 0.12419175D+01  1  2  3  1  6  1        2 0.145714788303D-02 0.100000000000D+01
0.151373977510D-04 0.000000000000D+00 0.000000000000D+00 0.809049715502D-05 0.000000000000D+00  6 2 -2 25 23 21 21 4 0.68846244D+00 0.10015681D-02 0.16914963D+05 0.16914963D+05 0.16914963D+05 0.12419175D+01  1  2 15  1  6  1        2 0.146803167478D-02 0.100000000000D+01
0.661119755211D-03 0.000000000000D+00 0.000000000000D+00 0.805629201917D-05 0.000000000000D+00  6 2 -2 25 23 21 21 4 0.73372980D+00 0.10015681D-02 0.17854261D+05 0.17854261D+05 0.17854261D+05 0.12392894D+01  1  2 12  1  6  1        2 0.330352753912D-01 0.100000000000D+01
-.478320133680D-03 0.000000000000D+00 0.000000000000D+00 0.809049715502D-05 0.000000000000D+00  6 2 -2 25 23 21 21 4 0.68846244D+00 0.10015681D-02 0.16914963D+05 0.16914963D+05 0.16914963D+05 0.12419175D+01  1  2  4  1  6  1        2 -.463877027265D-01 0.100000000000D+01
-.467302953592D-02 0.000000000000D+00 -.610356966812D-03 0.809049715502D-05 0.000000000000D+00  6 2 -2 25 23 21 21 4 0.71967071D+00 0.10015681D-02 0.16914963D+05 0.16914963D+05 0.16914963D+05 0.12419175D+01  1  2  5  1  6  1        2 -.292113372922D+00 0.100000000000D+01
0.482796483208D-02 0.000000000000D+00 0.649911289814D-03 0.809049715502D-05 0.000000000000D+00  6 2 -2 25 23 21 21 4 0.68846244D+00 0.10015681D-02 0.16914963D+05 0.16914963D+05 0.16914963D+05 0.12419175D+01  1  2  6  1  6  1        2 0.468218211267D+00 0.100000000000D+01
0.313010963670D-04 0.000000000000D+00 0.000000000000D+00 0.809049715502D-05 0.487551333122D-06  6 2 -2 25 23 21 21 4 0.71864314D+00 0.10115577D-02 0.17854261D+05 0.17854261D+05 0.17854261D+05 0.12392894D+01  1  2 11  1  6  1        2 0.193639903150D-02 0.100000000000D+01
0.135928143621D-04 0.000000000000D+00 0.000000000000D+00 0.805629201917D-05 0.000000000000D+00  6 21 -2 25 23 -2 21 4 0.73372980D+00 0.10015681D-02 0.17854261D+05 0.17854261D+05 0.17854261D+05 0.12392894D+01  3  4 12  4  5  1        2 0.135697404507D-04 0.100000000000D+01
-.359617351224D-04 0.000000000000D+00 -.475261191810D-05 0.809049715502D-05 0.000000000000D+00  6 21 -2 25 23 -2 21 4 0.71967071D+00 0.10015681D-02 0.16914963D+05 0.16914963D+05 0.16914963D+05 0.12419175D+01  3  4  5  4  5  1        2 -.499826378466D-04 0.100000000000D+01
0.345607003972D-06 0.000000000000D+00 0.000000000000D+00 0.809049715502D-05 0.101262653582D-07  6 21 -2 25 23 -2 21 4 0.71864314D+00 0.10115577D-02 0.17854261D+05 0.17854261D+05 0.17854261D+05 0.12392894D+01  3  4 11  4  5  1        2 0.476524630648D-06 0.100000000000D+01
  </mgrwgt>
  </event>
  <event>
  5     66 0.43206592E-03 0.29480363E+02 0.75467711E-02 0.12137861E+00
        2 -1    0    0  502    0 0.00000000E+00 0.00000000E+00 0.15656298E+03 0.15656330E+03 0.32000000E+00 0.0000E+00 0.9000E+01
       -2 -1    0    0    0  501 0.00000000E+00 0.00000000E+00 -.15053559E+03 0.15053593E+03 0.32000000E+00 0.0000E+00 0.9000E+01
       25  1    1    2    0    0 -.56839796E+02 -.60150840E+01 -.14445347E+02 0.13820496E+03 0.12500000E+03 0.0000E+00 0.9000E+01
       23  1    1    2    0    0 0.58862968E+02 -.23392407E+02 0.54654738E+02 0.12375155E+03 0.91188000E+02 0.0000E+00 0.9000E+01
       21  1    1    2  502  501 -.20231722E+01 0.29407491E+02 -.34182008E+02 0.45142728E+02 0.75000000E+00 0.0000E+00 0.9000E+01
#aMCatNLO 1  0  0  5  1 0.13144200D+01 0.00000000D+00  -5  6  0 0.00000000D+00 0.00000000D+00 0.00000000D+00 0.00000000D+00 0.00000000D+00
  <mgrwgt>
 0.7577344536D-01   13    2    0
 0.153520041761870D+03 0.000000000000000D+00 0.000000000000000D+00 0.153520041761870D+03
 0.153520041761870D+03 -.000000000000000D+00 -.000000000000000D+00 -.153520041761870D+03
 0.138514924723165D+03 -.568396736782418D+02 -.601686136891071D+01 -.171590572725386D+02
 0.122703635542470D+03 0.588630765176444D+02 -.233939812869336D+02 0.522378281876632D+02
 0.458215232581058D+02 -.202340283940260D+01 0.294108426558443D+02 -.350787709151246D+02
 0.000000000000000D+00 0.000000000000000D+00 -.000000000000000D+00 0.000000000000000D+00
 0.153520041761870D+03 0.000000000000000D+00 0.000000000000000D+00 0.153520041761870D+03
 0.153520041761870D+03 -.000000000000000D+00 -.000000000000000D+00 -.153520041761870D+03
 0.138587423612531D+03 -.568760433014383D+02 -.548821663022923D+01 -.177895801004865D+02
 0.122363363334394D+03 0.588309115271253D+02 -.229264523022143D+02 0.516801990730180D+02
 0.447092708924417D+02 -.144257336872793D+01 0.296208696072569D+02 -.334580628476823D+02
 0.138002568437382D+01 -.512294856959114D+00 -.120620067481331D+01 -.432556124849240D+00
0.134199313659D-03 0.000000000000D+00 0.000000000000D+00 0.142863775508D-04 0.000000000000D+00  6 2 -2 25 23 21 21 2 0.24086663D-01 0.23159373D-01 0.19315044D+05 0.19315044D+05 0.19315044D+05 0.12354957D+01  1  2  2  3  6  5       21 0.720337997380D-01 0.100000000000D+01
0.126689167354D-04 0.708189234581D-05 -.515360699943D-06 0.142863775508D-04 0.000000000000D+00  6 2 -2 25 23 21 21 4 0.24086663D-01 0.23159373D-01 0.19315044D+05 0.19315044D+05 0.19315044D+05 0.12354957D+01  1  2  3  3  6  5       21 0.103802539492D-01 0.100000000000D+01
0.598251927095D-05 0.000000000000D+00 0.000000000000D+00 0.142863775508D-04 0.000000000000D+00  6 2 -2 25 23 21 21 4 0.24086663D-01 0.23159373D-01 0.19315044D+05 0.19315044D+05 0.19315044D+05 0.12354957D+01  1  2 15  3  6  5       21 0.490176631400D-02 0.100000000000D+01
-.501449400227D-03 0.000000000000D+00 0.000000000000D+00 0.142863775508D-04 0.000000000000D+00  6 2 -2 25 23 21 21 4 0.24086663D-01 0.23159373D-01 0.19315044D+05 0.19315044D+05 0.19315044D+05 0.12354957D+01  1  2  4  3  6  5       21 -.410861656584D+00 0.100000000000D+01
0.477832563228D-03 0.000000000000D+00 0.000000000000D+00 0.142863775508D-04 0.175850366248D-04  6 2 -2 25 23 21 21 4 0.24086663D-01 0.23159373D-01 0.19505129D+05 0.19505129D+05 0.19505129D+05 0.12350258D+01  1  2 11  3  6  5       21 0.391018220661D+00 0.100000000000D+01
0.111072627001D-09 0.000000000000D+00 0.000000000000D+00 0.142755120151D-04 0.000000000000D+00  6 2 -2 25 23 1 -1 4 0.24086663D-01 0.23159373D-01 0.19505129D+05 0.19505129D+05 0.19505129D+05 0.12350258D+01  1  2 12  6  6  5       21 0.908925517352D-07 0.100000000000D+01
0.111072627001D-09 0.000000000000D+00 0.000000000000D+00 0.142755120151D-04 0.000000000000D+00  6 2 -2 25 23 3 -3 4 0.24086663D-01 0.23159373D-01 0.19505129D+05 0.19505129D+05 0.19505129D+05 0.12350258D+01  1  2 12  6  6  5       21 0.908925517352D-07 0.100000000000D+01
0.265877475859D-05 0.000000000000D+00 0.000000000000D+00 0.142755120151D-04 0.122523438414D-06  6 2 -2 25 23 1 -1 4 0.24086663D-01 0.23159373D-01 0.19505129D+05 0.19505129D+05 0.19505129D+05 0.12350258D+01  1  2 11  6  6  5       21 0.217571897616D-02 0.100000000000D+01
0.265877475859D-05 0.000000000000D+00 0.000000000000D+00 0.142755120151D-04 0.122523438414D-06  6 2 -2 25 23 3 -3 4 0.24086663D-01 0.23159373D-01 0.19505129D+05 0.19505129D+05 0.19505129D+05 0.12350258D+01  1  2 11  6  6  5       21 0.217571897616D-02 0.100000000000D+01
0.111072627001D-09 0.000000000000D+00 0.000000000000D+00 0.142755120151D-04 0.000000000000D+00  6 2 -2 25 23 2 -2 4 0.24086663D-01 0.23159373D-01 0.19505129D+05 0.19505129D+05 0.19505129D+05 0.12350258D+01  1  2 12  7  6  5       21 0.908925517352D-07 0.100000000000D+01
0.216511732578D-05 0.000000000000D+00 0.000000000000D+00 0.142755120151D-04 0.142231090398D-06  6 2 -2 25 23 2 -2 4 0.24086663D-01 0.23159373D-01 0.19505129D+05 0.19505129D+05 0.19505129D+05 0.12350258D+01  1  2 11  7  6  5       21 0.177175100527D-02 0.100000000000D+01
0.111072627001D-09 0.000000000000D+00 0.000000000000D+00 0.142755120151D-04 0.000000000000D+00  6 2 -2 25 23 4 -4 4 0.24086663D-01 0.23159373D-01 0.19505129D+05 0.19505129D+05 0.19505129D+05 0.12350258D+01  1  2 12  8  6  5       21 0.908925517352D-07 0.100000000000D+01
0.266096191108D-05 0.000000000000D+00 0.000000000000D+00 0.142755120151D-04 0.122624228239D-06  6 2 -2 25 23 4 -4 4 0.24086663D-01 0.23159373D-01 0.19505129D+05 0.19505129D+05 0.19505129D+05 0.12350258D+01  1  2 11  8  6  5       21 0.217750875890D-02 0.100000000000D+01
  </mgrwgt>
  </event>
  <event>
  5     66 -.43206592E-03 0.69689856E+02 0.75467711E-02 0.11729473E+00
        2 -1    0    0  502    0 0.00000000E+00 0.00000000E+00 0.24436053E+04 0.24436053E+04 0.32000000E+00 0.0000E+00 0.9000E+01
       -2 -1    0    0    0  501 0.00000000E+00 0.00000000E+00 -.18602278E+02 0.18605030E+02 0.32000000E+00 0.0000E+00 0.9000E+01
       25  1    1    2    0    0 0.11865922E+02 -.85337531E+02 0.56206195E+03 0.58220437E+03 0.12500000E+03 0.0000E+00 0.9000E+01
       23  1    1    2    0    0 0.11656441E+02 -.16832533E+02 0.31637939E+03 0.32989449E+03 0.91188000E+02 0.0000E+00 0.9000E+01
       21  1    1    2  502  501 -.23522363E+02 0.10217006E+03 0.15465617E+04 0.15501115E+04 0.75000000E+00 0.0000E+00 0.9000E+01
#aMCatNLO 1  0  0  5  1 0.85626656D+01 0.00000000D+00  -5  6  0 0.00000000D+00 0.00000000D+00 0.00000000D+00 0.00000000D+00 0.00000000D+00
  <mgrwgt>
 -.1479752014D-01   25    2    0
 0.213213600887680D+03 0.000000000000000D+00 0.000000000000000D+00 0.213213600887680D+03
 0.213213600887680D+03 -.000000000000000D+00 -.000000000000000D+00 -.213213600887680D+03
 0.165345677941456D+03 0.118660279473386D+02 -.853379922869670D+02 -.655043331933264D+02
 0.105642294297769D+03 0.116565089064256D+02 -.168328272270787D+02 -.492526621428137D+02
 0.155439229536135D+03 -.235225368537642D+02 0.102170819514046D+03 0.114756995336140D+03
 0.000000000000000D+00 0.000000000000000D+00 0.000000000000000D+00 0.000000000000000D+00
 0.213213600887680D+03 0.000000000000000D+00 0.000000000000000D+00 0.213213600887680D+03
 0.213213600887680D+03 -.000000000000000D+00 -.000000000000000D+00 -.213213600887680D+03
 0.165105492941492D+03 0.118094056470859D+02 -.850920516872966D+02 -.652280957667932D+02
 0.105531169925870D+03 0.116203246578884D+02 -.166756598964657D+02 -.490761337493649D+02
 0.891551613156018D+02 -.161988591806356D+02 0.640924440904504D+02 0.598197154871987D+02
 0.666353775923966D+02 -.723087112433864D+01 0.376752674933118D+02 0.544845140289594D+02
0.311869983847D-05 0.000000000000D+00 0.000000000000D+00 0.232035953593D-05 0.000000000000D+00  6 2 -2 25 23 21 21 2 0.37593949D+00 0.28621023D-02 0.30645816D+05 0.30645816D+05 0.30645816D+05 0.12139288D+01  1  2  2  3  6  5       21 0.907963877995D-03 0.100000000000D+01
-.212414975769D-06 0.164578312010D-06 -.119766285522D-07 0.232035953593D-05 0.000000000000D+00  6 2 -2 25 23 21 21 4 0.37593949D+00 0.28621023D-02 0.30645816D+05 0.30645816D+05 0.30645816D+05 0.12139288D+01  1  2  3  3  6  5       21 -.911310854534D-04 0.100000000000D+01
0.130870123210D-06 0.000000000000D+00 0.000000000000D+00 0.232035953593D-05 0.000000000000D+00  6 2 -2 25 23 21 21 4 0.37593949D+00 0.28621023D-02 0.30645816D+05 0.30645816D+05 0.30645816D+05 0.12139288D+01  1  2 15  3  6  5       21 0.561464008759D-04 0.100000000000D+01
0.328330158801D-04 0.000000000000D+00 0.000000000000D+00 0.232090434438D-05 0.000000000000D+00  6 2 -2 25 23 21 21 4 0.37593949D+00 0.28621023D-02 0.30549935D+05 0.30549935D+05 0.30549935D+05 0.12140713D+01  1  2 12  3  6  5       21 0.140932342502D-01 0.100000000000D+01
0.333603218111D-04 0.000000000000D+00 0.000000000000D+00 0.232090434438D-05 0.000000000000D+00  6 2 -2 25 23 21 21 4 0.37593949D+00 0.28621023D-02 0.30549935D+05 0.30549935D+05 0.30549935D+05 0.12140713D+01  1  2 12  3  6  5       21 0.143195748957D-01 0.100000000000D+01
-.134863177376D-03 0.000000000000D+00 0.000000000000D+00 0.232035953593D-05 0.000000000000D+00  6 2 -2 25 23 21 21 4 0.37593949D+00 0.28621023D-02 0.30645816D+05 0.30645816D+05 0.30645816D+05 0.12139288D+01  1  2  4  3  6  5       21 -.578595162487D-01 0.100000000000D+01
-.665345546531D-04 0.000000000000D+00 0.000000000000D+00 0.232035953593D-05 0.000000000000D+00  6 2 -2 25 23 21 21 4 0.37593949D+00 0.28621023D-02 0.30645816D+05 0.30645816D+05 0.30645816D+05 0.12139288D+01  1  2  5  3  6  5       21 -.285449091512D-01 0.100000000000D+01
0.981958281497D-04 0.000000000000D+00 -.000000000000D+00 0.232035953593D-05 0.000000000000D+00  6 2 -2 25 23 21 21 4 0.37593949D+00 0.28621023D-02 0.30645816D+05 0.30645816D+05 0.30645816D+05 0.12139288D+01  1  2  6  3  6  5       21 0.421283498203D-01 0.100000000000D+01
0.754316068178D-07 0.000000000000D+00 0.000000000000D+00 0.232035953593D-05 0.191529162088D-06  6 2 -2 25 23 21 21 4 0.37593949D+00 0.28621023D-02 0.30549935D+05 0.30549935D+05 0.30549935D+05 0.12140713D+01  1  2 11  3  6  5       21 0.323782411166D-04 0.100000000000D+01
0.473804377295D-06 0.000000000000D+00 0.000000000000D+00 0.232090434438D-05 0.000000000000D+00  6 2 -2 25 23 1 -1 4 0.37593949D+00 0.28621023D-02 0.30549935D+05 0.30549935D+05 0.30549935D+05 0.12140713D+01  1  2 12  6  6  5       21 0.203375654017D-03 0.100000000000D+01
0.473804377295D-06 0.000000000000D+00 0.000000000000D+00 0.232090434438D-05 0.000000000000D+00  6 2 -2 25 23 3 -3 4 0.37593949D+00 0.28621023D-02 0.30549935D+05 0.30549935D+05 0.30549935D+05 0.12140713D+01  1  2 12  6  6  5       21 0.203375654017D-03 0.100000000000D+01
0.481761611592D-06 0.000000000000D+00 0.000000000000D+00 0.232090434438D-05 0.000000000000D+00  6 2 -2 25 23 1 -1 4 0.37593949D+00 0.28621023D-02 0.30549935D+05 0.30549935D+05 0.30549935D+05 0.12140713D+01  1  2 12  6  6  5       21 0.206791214968D-03 0.100000000000D+01
0.481761611592D-06 0.000000000000D+00 0.000000000000D+00 0.232090434438D-05 0.000000000000D+00  6 2 -2 25 23 3 -3 4 0.37593949D+00 0.28621023D-02 0.30549935D+05 0.30549935D+05 0.30549935D+05 0.12140713D+01  1  2 12  6  6  5       21 0.206791214968D-03 0.100000000000D+01
-.863522392693D-06 0.000000000000D+00 0.000000000000D+00 0.232035953593D-05 0.000000000000D+00  6 2 -2 25 23 1 -1 4 0.37593949D+00 0.28621023D-02 0.30645816D+05 0.30645816D+05 0.30645816D+05 0.12139288D+01  1  2  5  6  6  5       21 -.370471680137D-03 0.100000000000D+01
-.863522392693D-06 0.000000000000D+00 0.000000000000D+00 0.232035953593D-05 0.000000000000D+00  6 2 -2 25 23 3 -3 4 0.37593949D+00 0.28621023D-02 0.30645816D+05 0.30645816D+05 0.30645816D+05 0.12139288D+01  1  2  5  6  6  5       21 -.370471680137D-03 0.100000000000D+01
0.907521510874D-09 0.000000000000D+00 0.000000000000D+00 0.232035953593D-05 0.291600923914D-08  6 2 -2 25 23 1 -1 4 0.37593949D+00 0.28621023D-02 0.30549935D+05 0.30549935D+05 0.30549935D+05 0.12140713D+01  1  2 11  6  6  5       21 0.389544271124D-06 0.100000000000D+01
0.907521510874D-09 0.000000000000D+00 0.000000000000D+00 0.232035953593D-05 0.291600923914D-08  6 2 -2 25 23 3 -3 4 0.37593949D+00 0.28621023D-02 0.30549935D+05 0.30549935D+05 0.30549935D+05 0.12140713D+01  1  2 11  6  6  5       21 0.389544271124D-06 0.100000000000D+01
0.473804377295D-06 0.000000000000D+00 0.000000000000D+00 0.232090434438D-05 0.000000000000D+00  6 2 -2 25 23 2 -2 4 0.37593949D+00 0.28621023D-02 0.30549935D+05 0.30549935D+05 0.30549935D+05 0.12140713D+01  1  2 12  7  6  5       21 0.203375654017D-03 0.100000000000D+01
0.481761611592D-06 0.000000000000D+00 0.000000000000D+00 0.232090434438D-05 0.000000000000D+00  6 2 -2 25 23 2 -2 4 0.37593949D+00 0.28621023D-02 0.30549935D+05 0.30549935D+05 0.30549935D+05 0.12140713D+01  1  2 12  7  6  5       21 0.206791214968D-03 0.100000000000D+01
-.863522392693D-06 0.000000000000D+00 0.000000000000D+00 0.232035953593D-05 0.000000000000D+00  6 2 -2 25 23 2 -2 4 0.37593949D+00 0.28621023D-02 0.30645816D+05 0.30645816D+05 0.30645816D+05 0.12139288D+01  1  2  5  7  6  5       21 -.370471680137D-03 0.100000000000D+01
0.100152851124D-08 0.000000000000D+00 0.000000000000D+00 0.232035953593D-05 0.323141884863D-08  6 2 -2 25 23 2 -2 4 0.37593949D+00 0.28621023D-02 0.30549935D+05 0.30549935D+05 0.30549935D+05 0.12140713D+01  1  2 11  7  6  5       21 0.429895808802D-06 0.100000000000D+01
0.473804377295D-06 0.000000000000D+00 0.000000000000D+00 0.232090434438D-05 0.000000000000D+00  6 2 -2 25 23 4 -4 4 0.37593949D+00 0.28621023D-02 0.30549935D+05 0.30549935D+05 0.30549935D+05 0.12140713D+01  1  2 12  8  6  5       21 0.203375654017D-03 0.100000000000D+01
0.481761611592D-06 0.000000000000D+00 0.000000000000D+00 0.232090434438D-05 0.000000000000D+00  6 2 -2 25 23 4 -4 4 0.37593949D+00 0.28621023D-02 0.30549935D+05 0.30549935D+05 0.30549935D+05 0.12140713D+01  1  2 12  8  6  5       21 0.206791214968D-03 0.100000000000D+01
-.863522392693D-06 0.000000000000D+00 0.000000000000D+00 0.232035953593D-05 0.000000000000D+00  6 2 -2 25 23 4 -4 4 0.37593949D+00 0.28621023D-02 0.30645816D+05 0.30645816D+05 0.30645816D+05 0.12139288D+01  1  2  5  8  6  5       21 -.370471680137D-03 0.100000000000D+01
0.929833799322D-09 0.000000000000D+00 0.000000000000D+00 0.232035953593D-05 0.298770212849D-08  6 2 -2 25 23 4 -4 4 0.37593949D+00 0.28621023D-02 0.30549935D+05 0.30549935D+05 0.30549935D+05 0.12140713D+01  1  2 11  8  6  5       21 0.399121591371D-06 0.100000000000D+01
  </mgrwgt>
  </event>
  <event>
  5     66 -.43206592E-03 0.28373246E+02 0.75467711E-02 0.11423983E+00
        2 -1    0    0  502    0 0.00000000E+00 0.00000000E+00 0.34052281E+04 0.34052282E+04 0.32000000E+00 0.0000E+00 0.9000E+01
       -2 -1    0    0    0  501 0.00000000E+00 0.00000000E+00 -.24653851E+02 0.24655928E+02 0.32000000E+00 0.0000E+00 0.9000E+01
       25  1    1    2    0    0 0.13916046E+03 0.27821238E+02 0.65686081E+03 0.68354282E+03 0.12500000E+03 0.0000E+00 0.9000E+01
       23  1    1    2    0    0 -.16208976E+03 -.11110500E+02 0.27069989E+04 0.27134028E+04 0.91188000E+02 0.0000E+00 0.9000E+01
       21  1    1    2  502  501 0.22929297E+02 -.16710738E+02 0.16714558E+02 0.32938433E+02 0.75000000E+00 0.0000E+00 0.9000E+01
#aMCatNLO 1  0  0  2  1 0.13683653D+02 0.00000000D+00  -5  6  0 0.00000000D+00 0.00000000D+00 0.00000000D+00 0.00000000D+00 0.00000000D+00
  <mgrwgt>
 -.1389874672D+00    7    4    0
 0.289750882582032D+03 0.000000000000000D+00 0.000000000000000D+00 0.289750882582032D+03
 0.289750882582032D+03 0.000000000000000D+00 0.000000000000000D+00 -.289750882582032D+03
 0.213813839739504D+03 0.139160212385456D+03 0.278214210015533D+02 -.997585178640873D+02
 0.268242283194717D+03 -.162090074181281D+03 -.111102709987291D+02 0.192981970348932D+03
 0.974456422298436D+02 0.229298617958248D+02 -.167111500028242D+02 -.932234524848450D+02
 0.000000000000000D+00 0.000000000000000D+00 0.000000000000000D+00 -.000000000000000D+00
 0.291424966145130D+03 0.000000000000000D+00 0.000000000000000D+00 0.291424966145130D+03
 0.319210972701497D+03 0.000000000000000D+00 0.000000000000000D+00 -.319210972701497D+03
 0.210539487245628D+03 0.134371902794325D+03 0.263496782265935D+02 -.997585178640873D+02
 0.272052617223546D+03 -.168186642981842D+03 -.129841224933966D+02 0.192981970348932D+03
 0.970711927944566D+02 0.207349766198311D+02 -.173857735496430D+02 -.932234524848450D+02
 0.309726415829958D+02 0.130797635676857D+02 0.402021781644613D+01 -.277860065563674D+02
 0.289750882582032D+03 0.000000000000000D+00 0.000000000000000D+00 0.289750882582032D+03
 0.289750882582032D+03 0.000000000000000D+00 0.000000000000000D+00 -.289750882582032D+03
 0.213813839739504D+03 0.139160212385456D+03 0.278214210015533D+02 -.997585178640873D+02
 0.268242283194717D+03 -.162090074181281D+03 -.111102709987291D+02 0.192981970348932D+03
 0.000000000000000D+00 0.000000000000000D+00 0.000000000000000D+00 -.000000000000000D+00
 0.974456422298436D+02 0.229298617958248D+02 -.167111500028242D+02 -.932234524848450D+02
 0.291424966145130D+03 0.000000000000000D+00 0.000000000000000D+00 0.291424966145130D+03
 0.319210972701497D+03 0.000000000000000D+00 0.000000000000000D+00 -.319210972701497D+03
 0.210539487245628D+03 0.134371902794325D+03 0.263496782265935D+02 -.997585178640873D+02
 0.272052617223546D+03 -.168186642981842D+03 -.129841224933966D+02 0.192981970348932D+03
 0.309726415829958D+02 0.130797635676857D+02 0.402021781644613D+01 -.277860065563674D+02
 0.970711927944566D+02 0.207349766198311D+02 -.173857735496430D+02 -.932234524848450D+02
0.335759474935D-03 0.000000000000D+00 0.000000000000D+00 0.715003427788D-05 0.000000000000D+00  6 2 -2 25 23 21 21 2 0.52388141D+00 0.37930610D-02 0.40763568D+05 0.40763568D+05 0.40763568D+05 0.12011672D+01  1  2  2  2  6  2       -2 0.172774783019D-01 0.100000000000D+01
0.512616555122D-04 0.177185142810D-04 -.128940479125D-05 0.715003427788D-05 0.000000000000D+00  6 2 -2 25 23 21 21 4 0.52388141D+00 0.37930610D-02 0.40763568D+05 0.40763568D+05 0.40763568D+05 0.12011672D+01  1  2  3  2  6  2       -2 0.380584977138D-02 0.100000000000D+01
0.238264147291D-05 0.000000000000D+00 0.000000000000D+00 0.715003427788D-05 0.000000000000D+00  6 2 -2 25 23 21 21 4 0.52388141D+00 0.37930610D-02 0.40763568D+05 0.40763568D+05 0.40763568D+05 0.12011672D+01  1  2 15  2  6  2       -2 0.176895876935D-03 0.100000000000D+01
-.127487326803D-02 0.000000000000D+00 0.000000000000D+00 0.715003427788D-05 0.000000000000D+00  6 2 -2 25 23 21 21 4 0.52388141D+00 0.37930610D-02 0.40763568D+05 0.40763568D+05 0.40763568D+05 0.12011672D+01  1  2  4  2  6  2       -2 -.946511790772D-01 0.100000000000D+01
-.809517775209D-02 0.000000000000D+00 -.674080692706D-03 0.715003427788D-05 0.000000000000D+00  6 2 -2 25 23 21 21 4 0.52388141D+00 0.42115336D-02 0.40763568D+05 0.40763568D+05 0.40763568D+05 0.12011672D+01  1  2  5  2  6  2       -2 -.513678991476D+00 0.100000000000D+01
0.812486345188D-02 0.000000000000D+00 0.670406077785D-03 0.715003427788D-05 0.000000000000D+00  6 2 -2 25 23 21 21 4 0.52388141D+00 0.37930610D-02 0.40763568D+05 0.40763568D+05 0.40763568D+05 0.12011672D+01  1  2  6  2  6  2       -2 0.603219100162D+00 0.100000000000D+01
-.134316376309D-03 0.000000000000D+00 -.113859619276D-04 0.715003427788D-05 0.000000000000D+00  6 2 21 25 23 2 21 4 0.52388141D+00 0.42115336D-02 0.40763568D+05 0.40763568D+05 0.40763568D+05 0.12011672D+01  3  4  5  5  5  2       -2 -.155136620722D+00 0.100000000000D+01
  </mgrwgt>
  </event>
  <event>
  5     66 0.43206592E-03 0.34221051E+02 0.75467711E-02 0.12138760E+00
        2 -1    0    0  502    0 0.00000000E+00 0.00000000E+00 0.43128798E+03 0.43128810E+03 0.32000000E+00 0.0000E+00 0.9000E+01
       -2 -1    0    0    0  501 0.00000000E+00 0.00000000E+00 -.48305780E+02 0.48306839E+02 0.32000000E+00 0.0000E+00 0.9000E+01
       25  1    1    2    0    0 -.58980796E+02 -.44155056E+02 0.13805126E+03 0.20027869E+03 0.12500000E+03 0.0000E+00 0.9000E+01
       23  1    1    2    0    0 0.28055439E+02 0.29518670E+02 0.18842615E+03 0.21325601E+03 0.91188000E+02 0.0000E+00 0.9000E+01
       21  1    1    2  502  501 0.30925357E+02 0.14636387E+02 0.56504787E+02 0.66060238E+02 0.75000000E+00 0.0000E+00 0.9000E+01
#aMCatNLO 1  0  0  5  1 0.11522735D+02 0.00000000D+00  -5  6  0 0.00000000D+00 0.00000000D+00 0.00000000D+00 0.00000000D+00 0.00000000D+00
  <mgrwgt>
 0.1640554631D+00   20    2    0
 0.144339823817705D+03 0.000000000000000D+00 0.000000000000000D+00 0.144339823817705D+03
 0.144339823817705D+03 -.000000000000000D+00 -.000000000000000D+00 -.144339823817705D+03
 0.149584835964216D+03 -.589845216948409D+02 -.441568197986503D+02 -.363541554178042D+02
 0.104310417800853D+03 0.280528406296834D+02 0.295174399379572D+02 0.301192760521083D+02
 0.347843938703417D+02 0.309316810651575D+02 0.146393798606931D+02 0.623487936569592D+01
 0.000000000000000D+00 0.000000000000000D+00 0.000000000000000D+00 0.000000000000000D+00
 0.144339823817705D+03 0.000000000000000D+00 0.000000000000000D+00 0.144339823817705D+03
 0.144339823817705D+03 -.000000000000000D+00 -.000000000000000D+00 -.144339823817705D+03
 0.147198921636977D+03 -.547977300619964D+02 -.421752904733714D+02 -.355102264795386D+02
 0.105720222650946D+03 0.310157875752713D+02 0.309197467104915D+02 0.307165153917285D+02
 0.146704227020711D+02 0.446519829892065D+01 0.135670235248527D+02 -.334950430434907D+01
 0.210900806454168D+02 0.193167441878044D+02 -.231147976197282D+01 0.814321539215911D+01
0.846928933467D-04 0.000000000000D+00 0.000000000000D+00 0.106178420950D-04 0.000000000000D+00  6 2 -2 25 23 21 21 2 0.66352088D-01 0.74317490D-02 0.19486539D+05 0.19486539D+05 0.19486539D+05 0.12350715D+01  1  2  2  3  6  5       21 0.963944659776D-01 0.100000000000D+01
0.820782024050D-05 0.446936677082D-05 -.325243010602D-06 0.106178420950D-04 0.000000000000D+00  6 2 -2 25 23 21 21 4 0.66352088D-01 0.74317490D-02 0.19486539D+05 0.19486539D+05 0.19486539D+05 0.12350715D+01  1  2  3  3  6  5       21 0.142500755923D-01 0.100000000000D+01
0.389951913538D-05 0.000000000000D+00 0.000000000000D+00 0.106178420950D-04 0.000000000000D+00  6 2 -2 25 23 21 21 4 0.66352088D-01 0.74317490D-02 0.19486539D+05 0.19486539D+05 0.19486539D+05 0.12350715D+01  1  2 15  3  6  5       21 0.677018268245D-02 0.100000000000D+01
0.161809514183D-04 0.000000000000D+00 0.000000000000D+00 0.106263768659D-04 0.000000000000D+00  6 2 -2 25 23 21 21 4 0.66352088D-01 0.74317490D-02 0.19286064D+05 0.19286064D+05 0.19286064D+05 0.12355678D+01  1  2 12  3  6  5       21 0.281288518115D-01 0.100000000000D+01
0.166339848747D-04 0.000000000000D+00 0.000000000000D+00 0.106263768659D-04 0.000000000000D+00  6 2 -2 25 23 21 21 4 0.66352088D-01 0.74317490D-02 0.19286064D+05 0.19286064D+05 0.19286064D+05 0.12355678D+01  1  2 12  3  6  5       21 0.289164019765D-01 0.100000000000D+01
-.588340270575D-04 0.000000000000D+00 0.000000000000D+00 0.106178420950D-04 0.000000000000D+00  6 2 -2 25 23 21 21 4 0.66352088D-01 0.74317490D-02 0.19486539D+05 0.19486539D+05 0.19486539D+05 0.12350715D+01  1  2  4  3  6  5       21 -.102145186956D+00 0.100000000000D+01
-.211553445291D-04 0.000000000000D+00 0.000000000000D+00 0.106178420950D-04 0.000000000000D+00  6 2 -2 25 23 21 21 4 0.66352088D-01 0.74317490D-02 0.19486539D+05 0.19486539D+05 0.19486539D+05 0.12350715D+01  1  2  5  3  6  5       21 -.367290279134D-01 0.100000000000D+01
0.753055998648D-04 0.000000000000D+00 -.000000000000D+00 0.106178420950D-04 0.000000000000D+00  6 2 -2 25 23 21 21 4 0.66352088D-01 0.74317490D-02 0.19486539D+05 0.19486539D+05 0.19486539D+05 0.12350715D+01  1  2  6  3  6  5       21 0.130742445516D+00 0.100000000000D+01
0.896116717231D-06 0.000000000000D+00 0.000000000000D+00 0.106263768659D-04 0.000000000000D+00  6 2 -2 25 23 1 -1 4 0.66352088D-01 0.74317490D-02 0.19286064D+05 0.19286064D+05 0.19286064D+05 0.12355678D+01  1  2 12  6  6  5       21 0.155780298037D-02 0.100000000000D+01
0.896116717231D-06 0.000000000000D+00 0.000000000000D+00 0.106263768659D-04 0.000000000000D+00  6 2 -2 25 23 3 -3 4 0.66352088D-01 0.74317490D-02 0.19286064D+05 0.19286064D+05 0.19286064D+05 0.12355678D+01  1  2 12  6  6  5       21 0.155780298037D-02 0.100000000000D+01
0.919535660474D-06 0.000000000000D+00 0.000000000000D+00 0.106263768659D-04 0.000000000000D+00  6 2 -2 25 23 1 -1 4 0.66352088D-01 0.74317490D-02 0.19286064D+05 0.19286064D+05 0.19286064D+05 0.12355678D+01  1  2 12  6  6  5       21 0.159851430612D-02 0.100000000000D+01
0.919535660474D-06 0.000000000000D+00 0.000000000000D+00 0.106263768659D-04 0.000000000000D+00  6 2 -2 25 23 3 -3 4 0.66352088D-01 0.74317490D-02 0.19286064D+05 0.19286064D+05 0.19286064D+05 0.12355678D+01  1  2 12  6  6  5       21 0.159851430612D-02 0.100000000000D+01
-.214525576019D-05 0.000000000000D+00 0.000000000000D+00 0.106178420950D-04 0.000000000000D+00  6 2 -2 25 23 1 -1 4 0.66352088D-01 0.74317490D-02 0.19486539D+05 0.19486539D+05 0.19486539D+05 0.12350715D+01  1  2  5  6  6  5       21 -.372450368696D-02 0.100000000000D+01
-.214525576019D-05 0.000000000000D+00 0.000000000000D+00 0.106178420950D-04 0.000000000000D+00  6 2 -2 25 23 3 -3 4 0.66352088D-01 0.74317490D-02 0.19486539D+05 0.19486539D+05 0.19486539D+05 0.12350715D+01  1  2  5  6  6  5       21 -.372450368696D-02 0.100000000000D+01
0.896116717231D-06 0.000000000000D+00 0.000000000000D+00 0.106263768659D-04 0.000000000000D+00  6 2 -2 25 23 2 -2 4 0.66352088D-01 0.74317490D-02 0.19286064D+05 0.19286064D+05 0.19286064D+05 0.12355678D+01  1  2 12  7  6  5       21 0.155780298037D-02 0.100000000000D+01
0.919535660474D-06 0.000000000000D+00 0.000000000000D+00 0.106263768659D-04 0.000000000000D+00  6 2 -2 25 23 2 -2 4 0.66352088D-01 0.74317490D-02 0.19286064D+05 0.19286064D+05 0.19286064D+05 0.12355678D+01  1  2 12  7  6  5       21 0.159851430612D-02 0.100000000000D+01
-.214525576019D-05 0.000000000000D+00 0.000000000000D+00 0.106178420950D-04 0.000000000000D+00  6 2 -2 25 23 2 -2 4 0.66352088D-01 0.74317490D-02 0.19486539D+05 0.19486539D+05 0.19486539D+05 0.12350715D+01  1  2  5  7  6  5       21 -.372450368696D-02 0.100000000000D+01
0.896116717231D-06 0.000000000000D+00 0.000000000000D+00 0.106263768659D-04 0.000000000000D+00  6 2 -2 25 23 4 -4 4 0.66352088D-01 0.74317490D-02 0.19286064D+05 0.19286064D+05 0.19286064D+05 0.12355678D+01  1  2 12  8  6  5       21 0.155780298037D-02 0.100000000000D+01
0.919535660474D-06 0.000000000000D+00 0.000000000000D+00 0.106263768659D-04 0.000000000000D+00  6 2 -2 25 23 4 -4 4 0.66352088D-01 0.74317490D-02 0.19286064D+05 0.19286064D+05 0.19286064D+05 0.12355678D+01  1  2 12  8  6  5       21 0.159851430612D-02 0.100000000000D+01
-.214525576019D-05 0.000000000000D+00 0.000000000000D+00 0.106178420950D-04 0.000000000000D+00  6 2 -2 25 23 4 -4 4 0.66352088D-01 0.74317490D-02 0.19486539D+05 0.19486539D+05 0.19486539D+05 0.12350715D+01  1  2  5  8  6  5       21 -.372450368696D-02 0.100000000000D+01
  </mgrwgt>
  </event>
  <event>
  6     66 -.43206592E-03 0.40656177E+02 0.75467711E-02 0.11807672E+00
        2 -1    0    0  502    0 0.00000000E+00 0.00000000E+00 0.33893640E+03 0.33893655E+03 0.32000000E+00 0.0000E+00 0.9000E+01
       -2 -1    0    0    0  501 0.00000000E+00 0.00000000E+00 -.26720349E+03 0.26720368E+03 0.32000000E+00 0.0000E+00 0.9000E+01
       25  1    1    2    0    0 -.36770855E+02 0.94554705E+02 0.20763018E+03 0.26273176E+03 0.12500000E+03 0.0000E+00 0.9000E+01
       23  1    1    2    0    0 -.70944500E+01 -.33840849E+02 0.48113432E+02 0.10874598E+03 0.91188000E+02 0.0000E+00 0.9000E+01
       21  1    1    2  503  501 0.35307724E+02 -.38883631E+02 -.19966542E+03 0.20645923E+03 0.75000000E+00 0.0000E+00 0.9000E+01
       21  1    1    2  502  503 0.85575812E+01 -.21830226E+02 0.15654721E+02 0.28203258E+02 0.75000000E+00 0.0000E+00 0.9000E+01
#aMCatNLO 2  0  0  5  1 0.26287949D+02 0.00000000D+00  -5  6  0 0.00000000D+00 0.00000000D+00 0.00000000D+00 0.00000000D+00 0.00000000D+00
  <mgrwgt>
 -.1970459337D-01    3    2    0
 0.300940347807801D+03 0.000000000000000D+00 0.000000000000000D+00 0.300940347807801D+03
 0.300940347807801D+03 -.000000000000000D+00 -.000000000000000D+00 -.300940347807801D+03
 0.251226677269258D+03 -.393902306790839D+02 0.981801765692801D+02 0.190522717878015D+03
 0.105356409635298D+03 -.820998956478176D+01 -.322968331816464D+02 0.409173843863934D+02
 0.245297608711045D+03 0.476002202438657D+02 -.658833433876337D+02 -.231440102264408D+03
 0.000000000000000D+00 0.000000000000000D+00 0.000000000000000D+00 0.000000000000000D+00
 0.300940347807801D+03 0.000000000000000D+00 0.000000000000000D+00 0.300940347807801D+03
 0.300940347807801D+03 -.000000000000000D+00 -.000000000000000D+00 -.300940347807801D+03
 0.239810060385172D+03 -.367626189683837D+02 0.945433059048479D+02 0.177746837432084D+03
 0.103776798902771D+03 -.709088619488754D+01 -.338457813005262D+02 0.354761196811920D+02
 0.231674323276324D+03 0.352644396738604D+02 -.387883505397395D+02 -.225665405462241D+03
 0.266195130513353D+02 0.858906548941089D+01 -.219091740645822D+02 0.124424483489650D+02
-.240372858392D-03 0.000000000000D+00 0.000000000000D+00 0.439476688873D-05 0.000000000000D+00  6 2 -2 25 23 21 21 4 0.52144088D-01 0.41108255D-01 0.27966031D+05 0.27966031D+05 0.27966031D+05 0.12181116D+01  1  2 13  3  6  5       21 -.287338914259D-01 0.100000000000D+01
-.212202751281D-05 0.000000000000D+00 0.000000000000D+00 0.437980038744D-05 0.000000000000D+00  6 2 -2 25 23 21 21 4 0.52144088D-01 0.41108255D-01 0.29261817D+05 0.29261817D+05 0.29261817D+05 0.12160356D+01  1  2  8  3  6  5       21 -.251959148630D-03 0.100000000000D+01
0.776421922719D-04 0.000000000000D+00 0.000000000000D+00 0.437980038744D-05 0.690875033806D-07  6 2 -2 25 23 21 21 4 0.52144088D-01 0.41108255D-01 0.27966031D+05 0.27966031D+05 0.27966031D+05 0.12181116D+01  1  2  1  3  6  5       21 0.928125720073D-02 0.100000000000D+01
  </mgrwgt>
  </event>
  <event>
  5     66 0.43206592E-03 0.24117300E+02 0.75467711E-02 0.12391540E+00
        2 -1    0    0  502    0 0.00000000E+00 0.00000000E+00 0.34528919E+02 0.34530401E+02 0.32000000E+00 0.0000E+00 0.9000E+01
       -2 -1    0    0    0  501 -.00000000E+00 -.00000000E+00 -.50310648E+03 0.50310658E+03 0.32000000E+00 0.0000E+00 0.9000E+01
       25  1    1    2    0    0 0.16559684E+02 0.63311524E+01 -.24972165E+03 0.27982175E+03 0.12500000E+03 0.0000E+00 0.9000E+01
       23  1    1    2    0    0 -.17158842E+02 0.17773945E+02 -.10421679E+03 0.14066531E+03 0.91188000E+02 0.0000E+00 0.9000E+01
       21  1    1    2  502  501 0.59915779E+00 -.24105097E+02 -.11463912E+03 0.11714992E+03 0.75000000E+00 0.0000E+00 0.9000E+01
#aMCatNLO 1  0  0  5  1 0.70802635D+01 0.00000000D+00  -5  6  0 0.00000000D+00 0.00000000D+00 0.00000000D+00 0.00000000D+00 0.00000000D+00
  <mgrwgt>
 0.5911793764D+00    9    2    0
 0.131803446416922D+03 0.000000000000000D+00 0.000000000000000D+00 0.131803446416922D+03
 0.131803446416922D+03 -.000000000000000D+00 -.000000000000000D+00 -.131803446416922D+03
 0.126812010833985D+03 0.165596183517381D+02 0.633379246810522D+01 -.119142018102100D+02
 0.101642038857253D+03 -.171588943616604D+02 0.177760610289680D+02 0.374891546669056D+02
 0.351528431426053D+02 0.599276009922324D+00 -.241098534970733D+02 -.255749528566956D+02
 0.000000000000000D+00 -.000000000000000D+00 0.000000000000000D+00 0.000000000000000D+00
 0.131803446416922D+03 0.000000000000000D+00 0.000000000000000D+00 0.131803446416922D+03
 0.131803446416922D+03 -.000000000000000D+00 -.000000000000000D+00 -.131803446416922D+03
 0.127011985532876D+03 0.166257229638514D+02 0.367429586362929D+01 -.147353097978745D+02
 0.100474425412192D+03 -.171062561924429D+02 0.156583414353629D+02 0.352427462108473D+02
 0.708030308667158D+01 0.823458536046949D+00 -.512357675842450D+01 0.481680070576674D+01
 0.290401788021038D+02 -.342925307455498D+00 -.142090605405677D+02 -.253242371187396D+02
0.166528442860D-02 0.000000000000D+00 0.000000000000D+00 0.257432527968D-04 0.000000000000D+00  6 2 -2 25 23 21 21 2 0.53122632D-02 0.77401118D-01 0.14987163D+05 0.14987163D+05 0.14987163D+05 0.12478649D+01  1  2  2  3  6  5       21 0.550124607718D+00 0.100000000000D+01
0.195381116068D-03 0.878794736497D-04 -.639513068530D-05 0.257432527968D-04 0.000000000000D+00  6 2 -2 25 23 21 21 4 0.53122632D-02 0.77401118D-01 0.14987163D+05 0.14987163D+05 0.14987163D+05 0.12478649D+01  1  2  3  3  6  5       21 0.100505630213D+00 0.100000000000D+01
0.295012753466D-04 0.000000000000D+00 0.000000000000D+00 0.257432527968D-04 0.000000000000D+00  6 2 -2 25 23 21 21 4 0.53122632D-02 0.77401118D-01 0.14987163D+05 0.14987163D+05 0.14987163D+05 0.12478649D+01  1  2 15  3  6  5       21 0.151756952282D-01 0.100000000000D+01
0.117925513276D-03 0.000000000000D+00 0.000000000000D+00 0.258312136617D-04 0.000000000000D+00  6 2 -2 25 23 21 21 4 0.53122632D-02 0.77401118D-01 0.14357737D+05 0.14357737D+05 0.14357737D+05 0.12499950D+01  1  2 12  3  6  5       21 0.609921624314D-01 0.100000000000D+01
-.344423084573D-03 0.000000000000D+00 0.000000000000D+00 0.257432527968D-04 0.000000000000D+00  6 2 -2 25 23 21 21 4 0.53122632D-02 0.77401118D-01 0.14987163D+05 0.14987163D+05 0.14987163D+05 0.12478649D+01  1  2  4  3  6  5       21 -.177174027212D+00 0.100000000000D+01
0.200863145093D-04 0.000000000000D+00 0.000000000000D+00 0.258312136617D-04 0.000000000000D+00  6 2 -2 25 23 1 -1 4 0.53122632D-02 0.77401118D-01 0.14357737D+05 0.14357737D+05 0.14357737D+05 0.12499950D+01  1  2 12  6  6  5       21 0.103888270075D-01 0.100000000000D+01
0.200863145093D-04 0.000000000000D+00 0.000000000000D+00 0.258312136617D-04 0.000000000000D+00  6 2 -2 25 23 3 -3 4 0.53122632D-02 0.77401118D-01 0.14357737D+05 0.14357737D+05 0.14357737D+05 0.12499950D+01  1  2 12  6  6  5       21 0.103888270075D-01 0.100000000000D+01
0.200863145093D-04 0.000000000000D+00 0.000000000000D+00 0.258312136617D-04 0.000000000000D+00  6 2 -2 25 23 2 -2 4 0.53122632D-02 0.77401118D-01 0.14357737D+05 0.14357737D+05 0.14357737D+05 0.12499950D+01  1  2 12  7  6  5       21 0.103888270075D-01 0.100000000000D+01
0.200863145093D-04 0.000000000000D+00 0.000000000000D+00 0.258312136617D-04 0.000000000000D+00  6 2 -2 25 23 4 -4 4 0.53122632D-02 0.77401118D-01 0.14357737D+05 0.14357737D+05 0.14357737D+05 0.12499950D+01  1  2 12  8  6  5       21 0.103888270075D-01 0.100000000000D+01
  </mgrwgt>
  </event>
  <event>
  5     66 -.43206592E-03 0.23809838E+02 0.75467711E-02 0.11766188E+00
        4 -1    0    0  502    0 0.00000000E+00 0.00000000E+00 0.42498902E+03 0.42499184E+03 0.15500000E+01 0.0000E+00 0.9000E+01
       -4 -1    0    0    0  501 0.00000000E+00 0.00000000E+00 -.72855987E+02 0.72872474E+02 0.15500000E+01 0.0000E+00 0.9000E+01
       25  1    1    2    0    0 0.39847286E+02 0.12010389E+03 0.22293056E+03 0.28519429E+03 0.12500000E+03 0.0000E+00 0.9000E+01
       23  1    1    2    0    0 -.21449833E+02 -.10500000E+03 0.12553946E+03 0.18857493E+03 0.91188000E+02 0.0000E+00 0.9000E+01
       21  1    1    2  502  501 -.18397453E+02 -.15103882E+02 0.36630081E+01 0.24095097E+02 0.75000000E+00 0.0000E+00 0.9000E+01
#aMCatNLO 1  0  0  5  2 0.52104306D+00 0.00000000D+00  -5  6  0 0.00000000D+00 0.00000000D+00 0.00000000D+00 0.00000000D+00 0.00000000D+00
  <mgrwgt>
 -.1256947481D-01   25    2    0
 0.175976708690993D+03 0.000000000000000D+00 0.000000000000000D+00 0.175976708690993D+03
 0.175976708690993D+03 -.000000000000000D+00 -.000000000000000D+00 -.175976708690993D+03
 0.180386926665456D+03 0.398501531771008D+02 0.120106240035825D+03 0.300149913880863D+02
 0.141147858883642D+03 -.214475890892390D+02 -.104998161671262D+03 -.110839384404252D+02
 0.304186318328877D+02 -.184025640878618D+02 -.151080783645624D+02 -.189310529476611D+02
 0.000000000000000D+00 0.000000000000000D+00 0.000000000000000D+00 -.000000000000000D+00
 0.175976708690993D+03 0.000000000000000D+00 0.000000000000000D+00 0.175976708690993D+03
 0.175976708690993D+03 -.000000000000000D+00 -.000000000000000D+00 -.175976708690993D+03
 0.180366415298749D+03 0.398283000478660D+02 0.120088299123492D+03 0.299925106759073D+02
 0.141162285057009D+03 -.214646904140008D+02 -.105012201462316D+03 -.111015308847712D+02
 0.209949439447044D+01 -.162882614050861D+01 -.934887916275936D+00 -.938502371019796D+00
 0.283252226317568D+02 -.167347834933566D+02 -.141412097449009D+02 -.179524774201163D+02
0.552596202798D-04 0.000000000000D+00 0.000000000000D+00 0.178271099478D-04 0.000000000000D+00  6 4 -4 25 23 21 21 2 0.65384411D-01 0.11210099D-01 0.29308429D+05 0.29308429D+05 0.29308429D+05 0.12159629D+01  1  2  2  3  6  5       21 0.195679481241D-02 0.100000000000D+01
0.128269218227D-04 0.291613027832D-05 -.212211492066D-06 0.178271099478D-04 0.000000000000D+00  6 4 -4 25 23 21 21 4 0.65384411D-01 0.11210099D-01 0.29308429D+05 0.29308429D+05 0.29308429D+05 0.12159629D+01  1  2  3  3  6  5       21 0.671584209103D-03 0.100000000000D+01
0.161592232791D-05 0.000000000000D+00 0.000000000000D+00 0.178271099478D-04 0.000000000000D+00  6 4 -4 25 23 21 21 4 0.65384411D-01 0.11210099D-01 0.29308429D+05 0.29308429D+05 0.29308429D+05 0.12159629D+01  1  2 15  3  6  5       21 0.846054831834D-04 0.100000000000D+01
0.360609609836D-15 0.000000000000D+00 0.000000000000D+00 0.178273150082D-04 0.000000000000D+00  6 4 -4 25 23 21 21 4 0.65384411D-01 0.11210099D-01 0.29303945D+05 0.29303945D+05 0.29303945D+05 0.12159699D+01  1  2 12  3  6  5       21 0.188807815151D-13 0.100000000000D+01
0.358376370580D-15 0.000000000000D+00 0.000000000000D+00 0.178273150082D-04 0.000000000000D+00  6 4 -4 25 23 21 21 4 0.65384411D-01 0.11210099D-01 0.29303945D+05 0.29303945D+05 0.29303945D+05 0.12159699D+01  1  2 12  3  6  5       21 0.187638536759D-13 0.100000000000D+01
-.139883406517D-02 0.000000000000D+00 0.000000000000D+00 0.178271099478D-04 0.000000000000D+00  6 4 -4 25 23 21 21 4 0.65384411D-01 0.11210099D-01 0.29308429D+05 0.29308429D+05 0.29308429D+05 0.12159629D+01  1  2  4  3  6  5       21 -.732393073186D-01 0.100000000000D+01
-.290265296604D-04 0.000000000000D+00 0.000000000000D+00 0.178271099478D-04 0.000000000000D+00  6 4 -4 25 23 21 21 4 0.65384411D-01 0.11210099D-01 0.29308429D+05 0.29308429D+05 0.29308429D+05 0.12159629D+01  1  2  5  3  6  5       21 -.151975347121D-02 0.100000000000D+01
0.111556749567D-02 0.000000000000D+00 -.000000000000D+00 0.178271099478D-04 0.000000000000D+00  6 4 -4 25 23 21 21 4 0.65384411D-01 0.11210099D-01 0.29308429D+05 0.29308429D+05 0.29308429D+05 0.12159629D+01  1  2  6  3  6  5       21 0.584082077242D-01 0.100000000000D+01
0.262745376060D-04 0.000000000000D+00 0.000000000000D+00 0.178271099478D-04 0.453708074275D-03  6 4 -4 25 23 21 21 4 0.65384411D-01 0.11210099D-01 0.29303945D+05 0.29303945D+05 0.29303945D+05 0.12159699D+01  1  2 11  3  6  5       21 0.137568104237D-02 0.100000000000D+01
0.437924098319D-15 0.000000000000D+00 0.000000000000D+00 0.178273150082D-04 0.000000000000D+00  6 4 -4 25 23 1 -1 4 0.65384411D-01 0.11210099D-01 0.29303945D+05 0.29303945D+05 0.29303945D+05 0.12159699D+01  1  2 12  6  6  5       21 0.229288099791D-13 0.100000000000D+01
0.437924098319D-15 0.000000000000D+00 0.000000000000D+00 0.178273150082D-04 0.000000000000D+00  6 4 -4 25 23 3 -3 4 0.65384411D-01 0.11210099D-01 0.29303945D+05 0.29303945D+05 0.29303945D+05 0.12159699D+01  1  2 12  6  6  5       21 0.229288099791D-13 0.100000000000D+01
0.437123051003D-15 0.000000000000D+00 0.000000000000D+00 0.178273150082D-04 0.000000000000D+00  6 4 -4 25 23 1 -1 4 0.65384411D-01 0.11210099D-01 0.29303945D+05 0.29303945D+05 0.29303945D+05 0.12159699D+01  1  2 12  6  6  5       21 0.228868687802D-13 0.100000000000D+01
0.437123051003D-15 0.000000000000D+00 0.000000000000D+00 0.178273150082D-04 0.000000000000D+00  6 4 -4 25 23 3 -3 4 0.65384411D-01 0.11210099D-01 0.29303945D+05 0.29303945D+05 0.29303945D+05 0.12159699D+01  1  2 12  6  6  5       21 0.228868687802D-13 0.100000000000D+01
-.363189752886D-04 0.000000000000D+00 0.000000000000D+00 0.178271099478D-04 0.000000000000D+00  6 4 -4 25 23 1 -1 4 0.65384411D-01 0.11210099D-01 0.29308429D+05 0.29308429D+05 0.29308429D+05 0.12159629D+01  1  2  5  6  6  5       21 -.190156692555D-02 0.100000000000D+01
-.363189752886D-04 0.000000000000D+00 0.000000000000D+00 0.178271099478D-04 0.000000000000D+00  6 4 -4 25 23 3 -3 4 0.65384411D-01 0.11210099D-01 0.29308429D+05 0.29308429D+05 0.29308429D+05 0.12159629D+01  1  2  5  6  6  5       21 -.190156692555D-02 0.100000000000D+01
0.348715910917D-04 0.000000000000D+00 0.000000000000D+00 0.178271099478D-04 0.491644375532D-05  6 4 -4 25 23 1 -1 4 0.65384411D-01 0.11210099D-01 0.29303945D+05 0.29303945D+05 0.29303945D+05 0.12159699D+01  1  2 11  6  6  5       21 0.182580517692D-02 0.100000000000D+01
0.348715910917D-04 0.000000000000D+00 0.000000000000D+00 0.178271099478D-04 0.491644375532D-05  6 4 -4 25 23 3 -3 4 0.65384411D-01 0.11210099D-01 0.29303945D+05 0.29303945D+05 0.29303945D+05 0.12159699D+01  1  2 11  6  6  5       21 0.182580517692D-02 0.100000000000D+01
0.437924098319D-15 0.000000000000D+00 0.000000000000D+00 0.178273150082D-04 0.000000000000D+00  6 4 -4 25 23 4 -4 4 0.65384411D-01 0.11210099D-01 0.29303945D+05 0.29303945D+05 0.29303945D+05 0.12159699D+01  1  2 12  7  6  5       21 0.229288099791D-13 0.100000000000D+01
0.437123051003D-15 0.000000000000D+00 0.000000000000D+00 0.178273150082D-04 0.000000000000D+00  6 4 -4 25 23 4 -4 4 0.65384411D-01 0.11210099D-01 0.29303945D+05 0.29303945D+05 0.29303945D+05 0.12159699D+01  1  2 12  7  6  5       21 0.228868687802D-13 0.100000000000D+01
-.363189752886D-04 0.000000000000D+00 0.000000000000D+00 0.178271099478D-04 0.000000000000D+00  6 4 -4 25 23 4 -4 4 0.65384411D-01 0.11210099D-01 0.29308429D+05 0.29308429D+05 0.29308429D+05 0.12159629D+01  1  2  5  7  6  5       21 -.190156692555D-02 0.100000000000D+01
0.347915496649D-04 0.000000000000D+00 0.000000000000D+00 0.178271099478D-04 0.490659982320D-05  6 4 -4 25 23 4 -4 4 0.65384411D-01 0.11210099D-01 0.29303945D+05 0.29303945D+05 0.29303945D+05 0.12159699D+01  1  2 11  7  6  5       21 0.182161437154D-02 0.100000000000D+01
0.437924098319D-15 0.000000000000D+00 0.000000000000D+00 0.178273150082D-04 0.000000000000D+00  6 4 -4 25 23 2 -2 4 0.65384411D-01 0.11210099D-01 0.29303945D+05 0.29303945D+05 0.29303945D+05 0.12159699D+01  1  2 12  8  6  5       21 0.229288099791D-13 0.100000000000D+01
0.437123051003D-15 0.000000000000D+00 0.000000000000D+00 0.178273150082D-04 0.000000000000D+00  6 4 -4 25 23 2 -2 4 0.65384411D-01 0.11210099D-01 0.29303945D+05 0.29303945D+05 0.29303945D+05 0.12159699D+01  1  2 12  8  6  5       21 0.228868687802D-13 0.100000000000D+01
-.363189752886D-04 0.000000000000D+00 0.000000000000D+00 0.178271099478D-04 0.000000000000D+00  6 4 -4 25 23 2 -2 4 0.65384411D-01 0.11210099D-01 0.29308429D+05 0.29308429D+05 0.29308429D+05 0.12159629D+01  1  2  5  8  6  5       21 -.190156692555D-02 0.100000000000D+01
0.348706457438D-04 0.000000000000D+00 0.000000000000D+00 0.178271099478D-04 0.491631047348D-05  6 4 -4 25 23 2 -2 4 0.65384411D-01 0.11210099D-01 0.29303945D+05 0.29303945D+05 0.29303945D+05 0.12159699D+01  1  2 11  8  6  5       21 0.182575568044D-02 0.100000000000D+01
  </mgrwgt>
  </event>
  <event>
  5     66 0.43206592E-03 0.48039086E+02 0.75467711E-02 0.11990177E+00
        4 -1    0    0  502    0 0.00000000E+00 0.00000000E+00 0.64738854E+03 0.64739039E+03 0.15500000E+01 0.0000E+00 0.9000E+01
       -4 -1    0    0    0  501 0.00000000E+00 0.00000000E+00 -.52240852E+02 0.52263841E+02 0.15500000E+01 0.0000E+00 0.9000E+01
       25  1    1    2    0    0 -.49296902E+02 -.28446224E+02 0.18877868E+03 0.23345612E+03 0.12500000E+03 0.0000E+00 0.9000E+01
       23  1    1    2    0    0 0.27999659E+02 0.71504709E+02 0.40041758E+03 0.41778750E+03 0.91188000E+02 0.0000E+00 0.9000E+01
       21  1    1    2  502  501 0.21297243E+02 -.43058485E+02 0.59514313E+01 0.48410616E+02 0.75000000E+00 0.0000E+00 0.9000E+01
#aMCatNLO 1  0  0  5  1 0.41941999D+01 0.00000000D+00  -5  6  0 0.00000000D+00 0.00000000D+00 0.00000000D+00 0.00000000D+00 0.00000000D+00
  <mgrwgt>
 0.1709598347D-02   14    2    0
 0.183926126065912D+03 0.000000000000000D+00 0.000000000000000D+00 0.183926126065912D+03
 0.183926126065912D+03 -.000000000000000D+00 -.000000000000000D+00 -.183926126065912D+03
 0.138608129930198D+03 -.492972336579519D+02 -.284455524529205D+02 -.186506563441624D+02
 0.146796807486475D+03 0.279993070635260D+02 0.715054195480274D+02 0.856566700464374D+02
 0.824473147151518D+02 0.212979265944259D+02 -.430598670951069D+02 -.670060137022750D+02
 0.000000000000000D+00 0.000000000000000D+00 0.000000000000000D+00 0.000000000000000D+00
 0.183926126065912D+03 0.000000000000000D+00 0.000000000000000D+00 0.183926126065912D+03
 0.183926126065912D+03 -.000000000000000D+00 -.000000000000000D+00 -.183926126065912D+03
 0.138875469940648D+03 -.487734610733194D+02 -.295045089566131D+02 -.202985121965694D+02
 0.145354981979146D+03 0.285507670342941D+02 0.703904850522084D+02 0.839217061196101D+02
 0.793257597901596D+02 0.173938259631967D+02 -.395115938023955D+02 -.665497178043802D+02
 0.429604042187140D+01 0.282886807582865D+01 -.137438229319975D+01 0.292652388133935D+01
0.354010866601D-04 0.000000000000D+00 0.000000000000D+00 0.510278701612D-05 0.000000000000D+00  6 4 -4 25 23 21 21 2 0.99600148D-01 0.80389652D-02 0.23195562D+05 0.23195562D+05 0.23195562D+05 0.12268013D+01  1  2  2  3  6  5       21 0.859678221781D-03 0.100000000000D+01
0.421987494371D-06 0.186816666804D-05 -.135949494095D-06 0.510278701612D-05 0.000000000000D+00  6 4 -4 25 23 21 21 4 0.99600148D-01 0.80389652D-02 0.23195562D+05 0.23195562D+05 0.23195562D+05 0.12268013D+01  1  2  3  3  6  5       21 0.154229460097D-04 0.100000000000D+01
0.115415031611D-05 0.000000000000D+00 0.000000000000D+00 0.510278701612D-05 0.000000000000D+00  6 4 -4 25 23 21 21 4 0.99600148D-01 0.80389652D-02 0.23195562D+05 0.23195562D+05 0.23195562D+05 0.12268013D+01  1  2 15  3  6  5       21 0.421822879820D-04 0.100000000000D+01
0.204786891912D-05 0.000000000000D+00 0.000000000000D+00 0.510851275678D-05 0.000000000000D+00  6 4 -4 25 23 21 21 4 0.99600148D-01 0.80389652D-02 0.22858561D+05 0.22858561D+05 0.22858561D+05 0.12274894D+01  1  2 12  3  6  5       21 0.749248547410D-04 0.100000000000D+01
-.117600734670D-03 0.000000000000D+00 0.000000000000D+00 0.510278701612D-05 0.000000000000D+00  6 4 -4 25 23 21 21 4 0.99600148D-01 0.80389652D-02 0.23195562D+05 0.23195562D+05 0.23195562D+05 0.12268013D+01  1  2  4  3  6  5       21 -.429811263532D-02 0.100000000000D+01
0.135203122574D-03 0.000000000000D+00 0.000000000000D+00 0.510278701612D-05 0.306841126237D-05  6 4 -4 25 23 21 21 4 0.99600148D-01 0.80389652D-02 0.22858561D+05 0.22858561D+05 0.22858561D+05 0.12274894D+01  1  2 11  3  6  5       21 0.494664195779D-02 0.100000000000D+01
0.554403175579D-07 0.000000000000D+00 0.000000000000D+00 0.510851275678D-05 0.000000000000D+00  6 4 -4 25 23 1 -1 4 0.99600148D-01 0.80389652D-02 0.22858561D+05 0.22858561D+05 0.22858561D+05 0.12274894D+01  1  2 12  6  6  5       21 0.202838067468D-05 0.100000000000D+01
0.554403175579D-07 0.000000000000D+00 0.000000000000D+00 0.510851275678D-05 0.000000000000D+00  6 4 -4 25 23 3 -3 4 0.99600148D-01 0.80389652D-02 0.22858561D+05 0.22858561D+05 0.22858561D+05 0.12274894D+01  1  2 12  6  6  5       21 0.202838067468D-05 0.100000000000D+01
0.420132861577D-06 0.000000000000D+00 0.000000000000D+00 0.510851275678D-05 0.541834709892D-08  6 4 -4 25 23 1 -1 4 0.99600148D-01 0.80389652D-02 0.22858561D+05 0.22858561D+05 0.22858561D+05 0.12274894D+01  1  2 11  6  6  5       21 0.153712932169D-04 0.100000000000D+01
0.420132861577D-06 0.000000000000D+00 0.000000000000D+00 0.510851275678D-05 0.541834709892D-08  6 4 -4 25 23 3 -3 4 0.99600148D-01 0.80389652D-02 0.22858561D+05 0.22858561D+05 0.22858561D+05 0.12274894D+01  1  2 11  6  6  5       21 0.153712932169D-04 0.100000000000D+01
0.554403175579D-07 0.000000000000D+00 0.000000000000D+00 0.510851275678D-05 0.000000000000D+00  6 4 -4 25 23 4 -4 4 0.99600148D-01 0.80389652D-02 0.22858561D+05 0.22858561D+05 0.22858561D+05 0.12274894D+01  1  2 12  7  6  5       21 0.202838067468D-05 0.100000000000D+01
0.400305967907D-06 0.000000000000D+00 0.000000000000D+00 0.510851275678D-05 0.613072200804D-08  6 4 -4 25 23 4 -4 4 0.99600148D-01 0.80389652D-02 0.22858561D+05 0.22858561D+05 0.22858561D+05 0.12274894D+01  1  2 11  7  6  5       21 0.146458917450D-04 0.100000000000D+01
0.554403175579D-07 0.000000000000D+00 0.000000000000D+00 0.510851275678D-05 0.000000000000D+00  6 4 -4 25 23 2 -2 4 0.99600148D-01 0.80389652D-02 0.22858561D+05 0.22858561D+05 0.22858561D+05 0.12274894D+01  1  2 12  8  6  5       21 0.202838067468D-05 0.100000000000D+01
0.419789006834D-06 0.000000000000D+00 0.000000000000D+00 0.510851275678D-05 0.541391249140D-08  6 4 -4 25 23 2 -2 4 0.99600148D-01 0.80389652D-02 0.22858561D+05 0.22858561D+05 0.22858561D+05 0.12274894D+01  1  2 11  8  6  5       21 0.153587126916D-04 0.100000000000D+01
  </mgrwgt>
  </event>
  <event>
  5     66 0.43206592E-03 0.43138288E+02 0.75467711E-02 0.11587455E+00
        2 -1    0    0  502    0 0.00000000E+00 0.00000000E+00 0.17336498E+03 0.17336527E+03 0.32000000E+00 0.0000E+00 0.9000E+01
       -2 -1    0    0    0  501 0.00000000E+00 0.00000000E+00 -.51272890E+03 0.51272900E+03 0.32000000E+00 0.0000E+00 0.9000E+01
       25  1    1    2    0    0 -.48905772E+02 0.12670899E+03 -.22672859E+03 0.29236586E+03 0.12500000E+03 0.0000E+00 0.9000E+01
       23  1    1    2    0    0 0.73768825E+02 -.91456691E+02 -.22706207E+03 0.27143803E+03 0.91188000E+02 0.0000E+00 0.9000E+01
       21  1    1    2  502  501 -.24863054E+02 -.35252294E+02 0.11442674E+03 0.12229038E+03 0.75000000E+00 0.0000E+00 0.9000E+01
#aMCatNLO 1  0  0  1  2 0.37966779D+01 0.00000000D+00  -5  6  0 0.00000000D+00 0.00000000D+00 0.00000000D+00 0.00000000D+00 0.00000000D+00
  <mgrwgt>
 0.9185598669D-01    6    4    0
 0.298143202484332D+03 0.000000000000000D+00 0.000000000000000D+00 0.298143202484332D+03
 0.298143202484332D+03 0.000000000000000D+00 0.000000000000000D+00 -.298143202484332D+03
 0.207362072477610D+03 -.489057142840641D+02 0.126709066382792D+03 -.944831874408160D+02
 0.183092440167211D+03 0.737688759555836D+02 -.914566188325632D+02 -.106777479434330D+03
 0.205831892323843D+03 -.248631616715195D+02 -.352524475502290D+02 0.201260666875146D+03
 0.000000000000000D+00 -.000000000000000D+00 -.000000000000000D+00 -.000000000000000D+00
 0.298604354190551D+03 0.000000000000000D+00 0.000000000000000D+00 0.298604354190551D+03
 0.306067562212962D+03 0.000000000000000D+00 0.000000000000000D+00 -.306067562212962D+03
 0.208162505559963D+03 -.488626965129171D+02 0.128031218464528D+03 -.944831874408160D+02
 0.182529410665860D+03 0.738067274761356D+02 -.902932515692111D+02 -.106777479434330D+03
 0.205606575733855D+03 -.248205669207023D+02 -.339432970070339D+02 0.201260666875146D+03
 0.837342444383523D+01 -.123464042516180D+00 -.379466988828313D+01 -.746320802241102D+01
 0.298143202484332D+03 0.000000000000000D+00 0.000000000000000D+00 0.298143202484332D+03
 0.298143202484332D+03 0.000000000000000D+00 0.000000000000000D+00 -.298143202484332D+03
 0.207362072477610D+03 -.489057142840641D+02 0.126709066382792D+03 -.944831874408160D+02
 0.183092440167211D+03 0.737688759555836D+02 -.914566188325632D+02 -.106777479434330D+03
 0.000000000000000D+00 -.000000000000000D+00 -.000000000000000D+00 -.000000000000000D+00
 0.205831892323843D+03 -.248631616715195D+02 -.352524475502290D+02 0.201260666875146D+03
 0.298604354190551D+03 0.000000000000000D+00 0.000000000000000D+00 0.298604354190551D+03
 0.306067562212962D+03 0.000000000000000D+00 0.000000000000000D+00 -.306067562212962D+03
 0.208162505559963D+03 -.488626965129171D+02 0.128031218464528D+03 -.944831874408160D+02
 0.182529410665860D+03 0.738067274761356D+02 -.902932515692111D+02 -.106777479434330D+03
 0.837342444383523D+01 -.123464042516180D+00 -.379466988828313D+01 -.746320802241102D+01
 0.205606575733855D+03 -.248205669207023D+02 -.339432970070339D+02 0.201260666875146D+03
0.196454948395D-02 0.000000000000D+00 0.000000000000D+00 0.916520487811D-05 0.000000000000D+00  6 2 -2 25 23 21 21 2 0.26671565D-01 0.78881399D-01 0.35429945D+05 0.35429945D+05 0.35429945D+05 0.12073879D+01  1  2  2  1  6  1        2 0.845855472421D-01 0.100000000000D+01
0.266340470112D-03 0.103672124499D-03 -.754438729614D-05 0.916520487811D-05 0.000000000000D+00  6 2 -2 25 23 21 21 4 0.26671565D-01 0.78881399D-01 0.35429945D+05 0.35429945D+05 0.35429945D+05 0.12073879D+01  1  2  3  1  6  1        2 0.167172179969D-01 0.100000000000D+01
0.152208640374D-04 0.000000000000D+00 0.000000000000D+00 0.916520487811D-05 0.000000000000D+00  6 2 -2 25 23 21 21 4 0.26671565D-01 0.78881399D-01 0.35429945D+05 0.35429945D+05 0.35429945D+05 0.12073879D+01  1  2 15  1  6  1        2 0.955358012646D-03 0.100000000000D+01
-.274294441158D-02 0.000000000000D+00 0.000000000000D+00 0.916520487811D-05 0.000000000000D+00  6 2 -2 25 23 21 21 4 0.26671565D-01 0.78881399D-01 0.35429945D+05 0.35429945D+05 0.35429945D+05 0.12073879D+01  1  2  4  1  6  1        2 -.172164596925D+00 0.100000000000D+01
0.250769278238D-02 0.000000000000D+00 0.000000000000D+00 0.916520487811D-05 0.262065273398D-05  6 2 -2 25 23 21 21 4 0.26712820D-01 0.80977991D-01 0.35980481D+05 0.35980481D+05 0.35980481D+05 0.12066990D+01  1  2 11  1  6  1        2 0.147979983440D+00 0.100000000000D+01
0.429195564385D-04 0.000000000000D+00 0.000000000000D+00 0.915474944912D-05 0.110798639602D-07  6 21 -2 25 23 -2 21 4 0.26712820D-01 0.80977991D-01 0.35980481D+05 0.35980481D+05 0.35980481D+05 0.12066990D+01  3  4 11  4  5  1        2 0.137824769216D-01 0.100000000000D+01
  </mgrwgt>
  </event>
  <event>
  5     66 -.43206592E-03 0.21046331E+02 0.75467711E-02 0.12103658E+00
        2 -1    0    0  502    0 0.00000000E+00 0.00000000E+00 0.14874017E+04 0.14874018E+04 0.32000000E+00 0.0000E+00 0.9000E+01
       -2 -1    0    0    0  501 0.00000000E+00 0.00000000E+00 -.21151025E+02 0.21153446E+02 0.32000000E+00 0.0000E+00 0.9000E+01
       25  1    1    2    0    0 0.62599018E+02 -.58618044E+00 0.62473175E+03 0.64018258E+03 0.12500000E+03 0.0000E+00 0.9000E+01
       23  1    1    2    0    0 -.83402562E+02 -.25960780E+01 0.83794543E+03 0.84701270E+03 0.91188000E+02 0.0000E+00 0.9000E+01
       21  1    1    2  502  501 0.20803544E+02 0.31822585E+01 0.35735392E+01 0.21359937E+02 0.75000000E+00 0.0000E+00 0.9000E+01
#aMCatNLO 1  0  0  5  2 0.32701904D+01 0.00000000D+00  -5  6  0 0.00000000D+00 0.00000000D+00 0.00000000D+00 0.00000000D+00 0.00000000D+00
  <mgrwgt>
 -.3839614022D-02    1    2    0
 0.177375092672142D+03 0.000000000000000D+00 0.000000000000000D+00 0.177375092672142D+03
 0.177375092672142D+03 -.000000000000000D+00 -.000000000000000D+00 -.177375092672142D+03
 0.140203951364475D+03 0.625986182635326D+02 -.586241588300219D+00 0.106403613899553D+02
 0.138485222266953D+03 -.834029566896910D+02 -.259613843341967D+01 0.624508792810745D+02
 0.760610117128557D+02 0.208043384261584D+02 0.318238002171988D+01 -.730912406710298D+02
 0.000000000000000D+00 0.000000000000000D+00 0.000000000000000D+00 -.000000000000000D+00
 0.177375092672142D+03 0.000000000000000D+00 0.000000000000000D+00 0.177375092672142D+03
 0.177375092672142D+03 -.000000000000000D+00 -.000000000000000D+00 -.177375092672142D+03
 0.140208821085141D+03 0.626255978085562D+02 -.582114604624044D+00 0.105455749863637D+02
 0.138426911240261D+03 -.833763139540256D+02 -.259206297050571D+01 0.623572761794156D+02
 0.742639698652982D+02 0.209970919788292D+02 0.252067369741548D+01 -.711892235713922D+02
 0.185048315358342D+01 -.246375833359755D+00 0.653503877714271D+00 -.171362759438705D+01
-.323668295627D-05 0.000000000000D+00 0.000000000000D+00 0.301256159824D-04 0.000000000000D+00  6 2 -2 25 23 21 21 4 0.22883123D+00 0.32541927D-02 0.20227997D+05 0.20227997D+05 0.20227997D+05 0.12332844D+01  1  2 14  3  6  5       21 -.383961402242D-02 0.100000000000D+01
  </mgrwgt>
  </event>
  <event>
  6     66 0.43206592E-03 0.34087233E+03 0.75467711E-02 0.10326249E+00
        2 -1    0    0  502    0 0.00000000E+00 0.00000000E+00 0.20033659E+04 0.20033659E+04 0.32000000E+00 0.0000E+00 0.9000E+01
       21 -1    0    0  503  501 0.00000000E+00 0.00000000E+00 -.20474249E+03 0.20474386E+03 0.75000000E+00 0.0000E+00 0.9000E+01
       25  1    1    2    0    0 -.30349015E+02 0.17910844E+03 0.51637134E+03 0.56148487E+03 0.12500000E+03 0.0000E+00 0.9000E+01
       23  1    1    2    0    0 0.25326082E+03 0.10234128E+03 0.37263217E+03 0.47094030E+03 0.91188000E+02 0.0000E+00 0.9000E+01
        2  1    1    2  503    0 -.96813404E+01 -.76444814E+01 -.10377913E+03 0.10451017E+03 0.32000000E+00 0.0000E+00 0.9000E+01
       21  1    1    2  502  501 -.21323046E+03 -.27380524E+03 0.10133990E+04 0.10711744E+04 0.75000000E+00 0.0000E+00 0.9000E+01
#aMCatNLO 2  0  0  2  5 0.12335577D+02 0.00000000D+00  -5  6  0 0.00000000D+00 0.00000000D+00 0.00000000D+00 0.00000000D+00 0.00000000D+00
  <mgrwgt>
 0.3533683068D-02    2    2    0
 0.448843995273130D+03 0.000000000000000D+00 0.000000000000000D+00 0.448843995273130D+03
 0.448843995273130D+03 0.000000000000000D+00 0.000000000000000D+00 -.448843995273130D+03
 0.220252373579942D+03 -.327305037210607D+02 0.177228045643880D+03 0.201256560393647D+02
 0.310285298944417D+03 0.249895517616263D+03 0.996840804309024D+02 -.124807971624297D+03
 0.000000000000000D+00 -.000000000000000D+00 -.000000000000000D+00 -.000000000000000D+00
 0.367150318021901D+03 -.217165013895202D+03 -.276912126074782D+03 0.104682315584933D+03
 0.448968231642767D+03 0.000000000000000D+00 0.000000000000000D+00 0.448968231642767D+03
 0.913595933948185D+03 0.000000000000000D+00 0.000000000000000D+00 -.913595933948185D+03
 0.221429406021472D+03 -.303489023896477D+02 0.179108581435259D+03 0.201256560393647D+02
 0.313858537745090D+03 0.253260976326818D+03 0.102341479667344D+03 -.124807971624297D+03
 0.464791424403070D+03 -.968134042807172D+01 -.764448144337741D+01 -.464627702305418D+03
 0.362484797421321D+03 -.213230733509098D+03 -.273805579659225D+03 0.104682315584933D+03
-.572781767065D-03 0.000000000000D+00 0.000000000000D+00 0.115139161906D-06 0.000000000000D+00  6 2 21 25 23 2 21 4 0.30812492D+00 0.31501438D-01 0.18829722D+06 0.18829722D+06 0.18829722D+06 0.11391377D+01  1  2 13  5  5  2       -2 -.801110136799D-01 0.100000000000D+01
0.598361761130D-03 0.000000000000D+00 0.000000000000D+00 0.115359596688D-06 0.531049599199D-09  6 2 21 25 23 2 21 4 0.30821020D+00 0.31498948D-01 0.18829722D+06 0.18829722D+06 0.18829722D+06 0.11391377D+01  1  2  1  5  5  2       -2 0.836446967477D-01 0.100000000000D+01
  </mgrwgt>
  </event>
  <event>
  6     66 -.43206592E-03 0.22537625E+02 0.75467711E-02 0.10164188E+00
        2 -1    0    0  502    0 0.00000000E+00 0.00000000E+00 0.11826775E+04 0.11826776E+04 0.32000000E+00 0.0000E+00 0.9000E+01
       -2 -1    0    0    0  501 0.00000000E+00 0.00000000E+00 -.23312902E+03 0.23312924E+03 0.32000000E+00 0.0000E+00 0.9000E+01
       25  1    1    2    0    0 0.29721220E+03 0.30660831E+03 0.55553955E+03 0.71175342E+03 0.12500000E+03 0.0000E+00 0.9000E+01
       23  1    1    2    0    0 -.28026902E+03 -.36129407E+03 0.24359616E+03 0.52605938E+03 0.91188000E+02 0.0000E+00 0.9000E+01
        2  1    1    2  502    0 -.27908833E+02 0.26080552E+02 0.14079221E+03 0.14588230E+03 0.32000000E+00 0.0000E+00 0.9000E+01
       -2  1    1    2    0  501 0.10965660E+02 0.28605208E+02 0.96205868E+01 0.32111707E+02 0.32000000E+00 0.0000E+00 0.9000E+01
#aMCatNLO 2  0  0  5  2 0.33276581D+02 0.00000000D+00  -5  6  0 0.00000000D+00 0.00000000D+00 0.00000000D+00 0.00000000D+00 0.00000000D+00
  <mgrwgt>
 -.5837369490D-02    3    2    0
 0.525087270722848D+03 0.000000000000000D+00 0.000000000000000D+00 0.525087270722848D+03
 0.525087270722848D+03 -.000000000000000D+00 -.000000000000000D+00 -.525087270722848D+03
 0.450204045749768D+03 0.300678942991768D+03 0.295419041926936D+03 0.968423756306264D+02
 0.498758024935801D+03 -.276495654580149D+03 -.373472989270244D+03 -.156564348999716D+03
 0.101212470760127D+03 -.241832884116183D+02 0.780539473433072D+02 0.597219733690891D+02
 0.000000000000000D+00 0.000000000000000D+00 0.000000000000000D+00 -.000000000000000D+00
 0.525087270722848D+03 0.000000000000000D+00 0.000000000000000D+00 0.525087270722848D+03
 0.525087270722848D+03 -.000000000000000D+00 -.000000000000000D+00 -.525087270722848D+03
 0.457277010455610D+03 0.297199822326617D+03 0.306648246846321D+03 0.105434257271178D+03
 0.488924990030573D+03 -.280282255263976D+03 -.361251362279120D+03 -.147213128382000D+03
 0.691823752139662D+02 -.278984541429287D+02 0.257570236983885D+02 0.578312461121283D+02
 0.347901657455465D+02 0.109808870802877D+02 0.288460917344099D+02 -.160523750013068D+02
-.149919158999D-03 0.000000000000D+00 0.000000000000D+00 0.912910366881D-06 0.000000000000D+00  6 2 -2 25 23 2 -2 4 0.18195041D+00 0.35866024D-01 0.24011362D+06 0.24011362D+06 0.24011362D+06 0.11301635D+01  1  2 13  7  6  5       21 -.359500993270D-02 0.100000000000D+01
-.175598185437D-03 0.000000000000D+00 0.000000000000D+00 0.912910366881D-06 0.000000000000D+00  6 2 -2 25 23 2 -2 4 0.18195041D+00 0.35866024D-01 0.24011362D+06 0.24011362D+06 0.24011362D+06 0.11301635D+01  1  2 13  7  6  5       21 -.421078416545D-02 0.100000000000D+01
0.820872729917D-04 0.000000000000D+00 0.000000000000D+00 0.912910366881D-06 0.592957864542D-10  6 2 -2 25 23 2 -2 4 0.18195041D+00 0.35866024D-01 0.24011362D+06 0.24011362D+06 0.24011362D+06 0.11301635D+01  1  2  1  7  6  5       21 0.196842460780D-02 0.100000000000D+01
  </mgrwgt>
  </event>
  <event>
  5     66 0.43206592E-03 0.12257879E+03 0.75467711E-02 0.10067211E+00
        2 -1    0    0  502    0 0.00000000E+00 0.00000000E+00 0.13690642E+04 0.13690643E+04 0.32000000E+00 0.0000E+00 0.9000E+01
       -2 -1    0    0    0  501 0.00000000E+00 0.00000000E+00 -.30702781E+03 0.30702797E+03 0.32000000E+00 0.0000E+00 0.9000E+01
       25  1    1    2    0    0 -.13229363E+03 -.38306156E+03 0.19997382E+03 0.46888409E+03 0.12500000E+03 0.0000E+00 0.9000E+01
       23  1    1    2    0    0 0.13916640E+02 0.41487924E+03 0.96028225E+03 0.10501313E+04 0.91188000E+02 0.0000E+00 0.9000E+01
       21  1    1    2  502  501 0.11837699E+03 -.31817680E+02 -.98219657E+02 0.15707686E+03 0.75000000E+00 0.0000E+00 0.9000E+01
#aMCatNLO 1  0  0  2  5 0.91684516D+02 0.00000000D+00  -5  6  0 0.00000000D+00 0.00000000D+00 0.00000000D+00 0.00000000D+00 0.00000000D+00
  <mgrwgt>
 0.5303220083D-01    7    4    0
 0.648337070571063D+03 0.000000000000000D+00 0.000000000000000D+00 0.648337070571063D+03
 0.648337070571063D+03 0.000000000000000D+00 0.000000000000000D+00 -.648337070571063D+03
 0.442295705490423D+03 -.132293771715005D+03 -.383061521307296D+03 -.125549671263724D+03
 0.570893274467413D+03 0.139164576867049D+02 0.414879288525950D+03 0.381163203425751D+03
 0.283485161184290D+03 0.118377314028300D+03 -.318177672186540D+02 -.255613532162027D+03
 0.000000000000000D+00 0.000000000000000D+00 -.000000000000000D+00 -.000000000000000D+00
 0.669768184855536D+03 0.000000000000000D+00 0.000000000000000D+00 0.669768184855536D+03
 0.756026101818913D+03 0.000000000000000D+00 0.000000000000000D+00 -.756026101818913D+03
 0.452457099839529D+03 -.163885282962431D+03 -.382715718607287D+03 -.125549671263724D+03
 0.571655743814861D+03 -.264241257088282D+02 0.415320859128536D+03 0.381163203425751D+03
 0.275798645199712D+03 0.986303844242424D+02 -.316016160658810D+02 -.255613532162027D+03
 0.125882797820347D+03 0.916790242470168D+02 -.100352445536766D+01 -.862579169633768D+02
 0.648337070571063D+03 0.000000000000000D+00 0.000000000000000D+00 0.648337070571063D+03
 0.648337070571063D+03 0.000000000000000D+00 0.000000000000000D+00 -.648337070571063D+03
 0.442295705490423D+03 -.132293771715005D+03 -.383061521307296D+03 -.125549671263724D+03
 0.570893274467413D+03 0.139164576867049D+02 0.414879288525950D+03 0.381163203425751D+03
 0.000000000000000D+00 0.000000000000000D+00 -.000000000000000D+00 -.000000000000000D+00
 0.283485161184290D+03 0.118377314028300D+03 -.318177672186540D+02 -.255613532162027D+03
 0.669768184855536D+03 0.000000000000000D+00 0.000000000000000D+00 0.669768184855536D+03
 0.756026101818913D+03 0.000000000000000D+00 0.000000000000000D+00 -.756026101818913D+03
 0.452457099839529D+03 -.163885282962431D+03 -.382715718607287D+03 -.125549671263724D+03
 0.571655743814861D+03 -.264241257088282D+02 0.415320859128536D+03 0.381163203425751D+03
 0.125882797820347D+03 0.916790242470168D+02 -.100352445536766D+01 -.862579169633768D+02
 0.275798645199712D+03 0.986303844242424D+02 -.316016160658810D+02 -.255613532162027D+03
0.556463921989D-02 0.000000000000D+00 0.000000000000D+00 0.373080531378D-06 0.000000000000D+00  6 2 -2 25 23 21 21 2 0.21062528D+00 0.47235063D-01 0.23604604D+06 0.23604604D+06 0.23604604D+06 0.11307871D+01  1  2  2  2  6  2       -2 0.478842792392D-01 0.100000000000D+01
0.260957202561D-03 0.293654079324D-03 -.213696798075D-04 0.373080531378D-06 0.000000000000D+00  6 2 -2 25 23 21 21 4 0.21062528D+00 0.47235063D-01 0.23604604D+06 0.23604604D+06 0.23604604D+06 0.11307871D+01  1  2  3  2  6  2       -2 0.287135538427D-02 0.100000000000D+01
0.139368685342D-04 0.000000000000D+00 0.000000000000D+00 0.373080531378D-06 0.000000000000D+00  6 2 -2 25 23 21 21 4 0.21062528D+00 0.47235063D-01 0.23604604D+06 0.23604604D+06 0.23604604D+06 0.11307871D+01  1  2 15  2  6  2       -2 0.153349676165D-03 0.100000000000D+01
-.420503261761D-02 0.000000000000D+00 0.000000000000D+00 0.373080531378D-06 0.000000000000D+00  6 2 -2 25 23 21 21 4 0.21062528D+00 0.47235063D-01 0.23604604D+06 0.23604604D+06 0.23604604D+06 0.11307871D+01  1  2  4  2  6  2       -2 -.462686713727D-01 0.100000000000D+01
-.329918703474D-01 0.000000000000D+00 -.656066468328D-02 0.373080531378D-06 0.000000000000D+00  6 2 -2 25 23 21 21 4 0.21062528D+00 0.56468251D-01 0.23604604D+06 0.23604604D+06 0.23604604D+06 0.11307871D+01  1  2  5  2  6  2       -2 -.252400157749D+00 0.100000000000D+01
0.337274233046D-01 0.000000000000D+00 0.645746774521D-02 0.373080531378D-06 0.000000000000D+00  6 2 -2 25 23 21 21 4 0.21062528D+00 0.47235063D-01 0.23604604D+06 0.23604604D+06 0.23604604D+06 0.11307871D+01  1  2  6  2  6  2       -2 0.371108432927D+00 0.100000000000D+01
-.802562133108D-03 0.000000000000D+00 -.171931775285D-03 0.373080531378D-06 0.000000000000D+00  6 2 21 25 23 2 21 4 0.21062528D+00 0.56468251D-01 0.23604604D+06 0.23604604D+06 0.23604604D+06 0.11307871D+01  3  4  5  5  5  2       -2 -.703163872703D-01 0.100000000000D+01
  </mgrwgt>
  </event>
  <event>
  5     66 0.43206592E-03 0.39314691E+02 0.75467711E-02 0.11752609E+00
        2 -1    0    0  502    0 0.00000000E+00 0.00000000E+00 0.81685282E+03 0.81685288E+03 0.32000000E+00 0.0000E+00 0.9000E+01
       -2 -1    0    0    0  501 0.00000000E+00 0.00000000E+00 -.72894162E+02 0.72894865E+02 0.32000000E+00 0.0000E+00 0.9000E+01
       25  1    1    2    0    0 0.61816764E+02 -.34151012E+02 0.41962746E+03 0.44350853E+03 0.12500000E+03 0.0000E+00 0.9000E+01
       23  1    1    2    0    0 -.79220442E+02 0.69403463E+02 0.36438608E+03 0.39010920E+03 0.91188000E+02 0.0000E+00 0.9000E+01
       21  1    1    2  502  501 0.17403678E+02 -.35252451E+02 -.40054886E+02 0.56130025E+02 0.75000000E+00 0.0000E+00 0.9000E+01
#aMCatNLO 1  0  0  5  2 0.44777564D+02 0.00000000D+00  -5  6  0 0.00000000D+00 0.00000000D+00 0.00000000D+00 0.00000000D+00 0.00000000D+00
  <mgrwgt>
 0.3686423206D-01    8    2    0
 0.244016684603720D+03 0.000000000000000D+00 0.000000000000000D+00 0.244016684603720D+03
 0.244016684603720D+03 -.000000000000000D+00 -.000000000000000D+00 -.244016684603720D+03
 0.168892860036205D+03 0.618167004881347D+02 -.341508837663837D+02 0.889506090476308D+02
 0.155749097939483D+03 -.792205002148167D+02 0.694035814846230D+02 0.696404005429613D+02
 0.163391411231751D+03 0.174037997266819D+02 -.352526977182393D+02 -.158591009590592D+03
 0.000000000000000D+00 0.000000000000000D+00 0.000000000000000D+00 -.000000000000000D+00
 0.244016684603720D+03 0.000000000000000D+00 0.000000000000000D+00 0.244016684603720D+03
 0.244016684603720D+03 -.000000000000000D+00 -.000000000000000D+00 -.244016684603720D+03
 0.163480015475299D+03 0.632790892709238D+02 -.371130615962728D+02 0.756246849897415D+02
 0.148750231481554D+03 -.778807506849345D+02 0.666898186318661D+02 0.574320188171711D+02
 0.480537691363040D+02 0.253125052342243D+02 -.403708799058560D+02 -.621561441850422D+01
 0.127749353114282D+03 -.107108438202137D+02 0.107941228702627D+02 -.126841089388408D+03
0.134914355293D-03 0.000000000000D+00 0.000000000000D+00 0.121328428468D-04 0.000000000000D+00  6 2 -2 25 23 21 21 2 0.12566972D+00 0.11214545D-01 0.25952907D+05 0.25952907D+05 0.25952907D+05 0.12215597D+01  1  2  2  3  6  5       21 0.380878358277D-01 0.100000000000D+01
0.149997512043D-04 0.711962612948D-05 -.518106648090D-06 0.121328428468D-04 0.000000000000D+00  6 2 -2 25 23 21 21 4 0.12566972D+00 0.11214545D-01 0.25952907D+05 0.25952907D+05 0.25952907D+05 0.12215597D+01  1  2  3  3  6  5       21 0.631890140008D-02 0.100000000000D+01
0.223842897434D-05 0.000000000000D+00 0.000000000000D+00 0.121328428468D-04 0.000000000000D+00  6 2 -2 25 23 21 21 4 0.12566972D+00 0.11214545D-01 0.25952907D+05 0.25952907D+05 0.25952907D+05 0.12215597D+01  1  2 15  3  6  5       21 0.942976439226D-03 0.100000000000D+01
-.130426373147D-04 0.000000000000D+00 0.000000000000D+00 0.121328428468D-04 0.000000000000D+00  6 2 -2 25 23 21 21 4 0.12566972D+00 0.11214545D-01 0.25952907D+05 0.25952907D+05 0.25952907D+05 0.12215597D+01  1  2  5  3  6  5       21 -.549443374534D-02 0.100000000000D+01
-.177503061539D-05 0.000000000000D+00 0.000000000000D+00 0.121328428468D-04 0.000000000000D+00  6 2 -2 25 23 1 -1 4 0.12566972D+00 0.11214545D-01 0.25952907D+05 0.25952907D+05 0.25952907D+05 0.12215597D+01  1  2  5  6  6  5       21 -.747761965383D-03 0.100000000000D+01
-.177503061539D-05 0.000000000000D+00 0.000000000000D+00 0.121328428468D-04 0.000000000000D+00  6 2 -2 25 23 3 -3 4 0.12566972D+00 0.11214545D-01 0.25952907D+05 0.25952907D+05 0.25952907D+05 0.12215597D+01  1  2  5  6  6  5       21 -.747761965383D-03 0.100000000000D+01
-.177503061539D-05 0.000000000000D+00 0.000000000000D+00 0.121328428468D-04 0.000000000000D+00  6 2 -2 25 23 2 -2 4 0.12566972D+00 0.11214545D-01 0.25952907D+05 0.25952907D+05 0.25952907D+05 0.12215597D+01  1  2  5  7  6  5       21 -.747761965383D-03 0.100000000000D+01
-.177503061539D-05 0.000000000000D+00 0.000000000000D+00 0.121328428468D-04 0.000000000000D+00  6 2 -2 25 23 4 -4 4 0.12566972D+00 0.11214545D-01 0.25952907D+05 0.25952907D+05 0.25952907D+05 0.12215597D+01  1  2  5  8  6  5       21 -.747761965383D-03 0.100000000000D+01
  </mgrwgt>
  </event>
  <event>
  5     66 0.43206592E-03 0.39637300E+02 0.75467711E-02 0.11712973E+00
        2 -1    0    0  502    0 0.00000000E+00 0.00000000E+00 0.19412827E+04 0.19412827E+04 0.32000000E+00 0.0000E+00 0.9000E+01
       -2 -1    0    0    0  501 0.00000000E+00 0.00000000E+00 -.21945425E+02 0.21947758E+02 0.32000000E+00 0.0000E+00 0.9000E+01
       25  1    1    2    0    0 -.16240218E+01 -.11296965E+02 0.18661552E+03 0.22490134E+03 0.12500000E+03 0.0000E+00 0.9000E+01
       23  1    1    2    0    0 -.37557694E+02 0.53170427E+01 0.11316305E+04 0.11359321E+04 0.91188000E+02 0.0000E+00 0.9000E+01
       21  1    1    2  502  501 0.39181716E+02 0.59799223E+01 0.60109125E+03 0.60239706E+03 0.75000000E+00 0.0000E+00 0.9000E+01
#aMCatNLO 1  0  0  2  2 0.44899974D+02 0.00000000D+00  -5  6  0 0.00000000D+00 0.00000000D+00 0.00000000D+00 0.00000000D+00 0.00000000D+00
  <mgrwgt>
 0.9505833266D-01    4    2    0
 0.206408791055072D+03 0.000000000000000D+00 0.000000000000000D+00 0.206408791055072D+03
 0.206408791055072D+03 0.000000000000000D+00 0.000000000000000D+00 -.206408791055072D+03
 0.201918645847500D+03 -.162511811240096D+01 -.112971322978045D+02 -.158164070932228D+03
 0.140778010134388D+03 -.375584581094212D+02 0.531692606721987D+01 0.100320931589756D+03
 0.701209261282557D+02 0.391835762218222D+02 0.598020623058468D+01 0.578431393424719D+02
 0.000000000000000D+00 -.000000000000000D+00 0.000000000000000D+00 0.000000000000000D+00
 0.255910315160311D+03 0.000000000000000D+00 0.000000000000000D+00 0.255910315160311D+03
 0.242717831131227D+03 0.000000000000000D+00 0.000000000000000D+00 -.242717831131227D+03
 0.207503864878830D+03 0.357210039775440D+01 -.490328533184149D+02 -.158164070932228D+03
 0.141285947952606D+03 -.339779319155469D+02 -.206803910159501D+02 0.100320931589756D+03
 0.712369604803493D+02 0.409779763966815D+02 -.704849061283573D+01 0.578431393424719D+02
 0.786013729797524D+02 -.105721448788890D+02 0.767617349472007D+02 0.131924840290841D+02
0.255016761816D-03 0.000000000000D+00 0.000000000000D+00 0.370582992106D-05 0.000000000000D+00  6 2 -2 25 23 21 21 2 0.29865906D+00 0.33764007D-02 0.17413498D+05 0.17413498D+05 0.17413498D+05 0.12405028D+01  1  2  2  2  6  2       -2 0.111309164350D+00 0.100000000000D+01
-.118795060217D-05 0.134576042478D-04 -.979331512830D-06 0.370582992106D-05 0.000000000000D+00  6 2 -2 25 23 21 21 4 0.29865906D+00 0.33764007D-02 0.17413498D+05 0.17413498D+05 0.17413498D+05 0.12405028D+01  1  2  3  2  6  2       -2 -.797914028497D-03 0.100000000000D+01
0.640312594013D-05 0.000000000000D+00 0.000000000000D+00 0.370582992106D-05 0.000000000000D+00  6 2 -2 25 23 21 21 4 0.29865906D+00 0.33764007D-02 0.17413498D+05 0.17413498D+05 0.17413498D+05 0.12405028D+01  1  2 15  2  6  2       -2 0.430080510464D-02 0.100000000000D+01
-.294097434352D-04 0.000000000000D+00 0.000000000000D+00 0.370582992106D-05 0.000000000000D+00  6 2 -2 25 23 21 21 4 0.29865906D+00 0.33764007D-02 0.17413498D+05 0.17413498D+05 0.17413498D+05 0.12405028D+01  1  2  4  2  6  2       -2 -.197537227714D-01 0.100000000000D+01
  </mgrwgt>
  </event>
  <event>
  5     66 -.43206592E-03 0.22582304E+02 0.75467711E-02 0.11530380E+00
        2 -1    0    0  502    0 0.00000000E+00 0.00000000E+00 0.58869412E+03 0.58869421E+03 0.32000000E+00 0.0000E+00 0.9000E+01
       -2 -1    0    0    0  501 0.00000000E+00 0.00000000E+00 -.71139518E+02 0.71140237E+02 0.32000000E+00 0.0000E+00 0.9000E+01
       25  1    1    2    0    0 0.71896246E+02 -.13582778E+03 0.32855748E+03 0.38365775E+03 0.12500000E+03 0.0000E+00 0.9000E+01
       23  1    1    2    0    0 -.85329125E+02 0.11768160E+03 0.18652878E+03 0.25345267E+03 0.91188000E+02 0.0000E+00 0.9000E+01
       21  1    1    2  502  501 0.13432879E+02 0.18146177E+02 0.24683437E+01 0.22724022E+02 0.75000000E+00 0.0000E+00 0.9000E+01
#aMCatNLO 1  0  0  5  2 0.35549577D-01 0.00000000D+00  -5  6  0 0.00000000D+00 0.00000000D+00 0.00000000D+00 0.00000000D+00 0.00000000D+00
  <mgrwgt>
 -.3189757947D+00   15    2    0
 0.204645258476546D+03 0.000000000000000D+00 0.000000000000000D+00 0.204645258476546D+03
 0.204645258476546D+03 -.000000000000000D+00 -.000000000000000D+00 -.204645258476546D+03
 0.203046035460758D+03 0.718945769756267D+02 -.135830030223594D+03 0.445428468700041D+02
 0.172732078310825D+03 -.853305452385810D+02 0.117679679462698D+03 -.197815728500072D+02
 0.335124031815095D+02 0.134359682629543D+02 0.181503507608961D+02 -.247612740199969D+02
 0.000000000000000D+00 0.000000000000000D+00 0.000000000000000D+00 -.000000000000000D+00
 0.204645258476546D+03 0.000000000000000D+00 0.000000000000000D+00 0.204645258476546D+03
 0.204645258476546D+03 -.000000000000000D+00 -.000000000000000D+00 -.204645258476546D+03
 0.203045984370869D+03 0.718946305351724D+02 -.135829957871195D+03 0.445427481646067D+02
 0.172732107352014D+03 -.853304996752507D+02 0.117679741013187D+03 -.197816568191030D+02
 0.253901215757113D+01 0.100570238526297D+01 0.140474177975480D+01 -.186060366031607D+01
 0.309734130726389D+02 0.124301667548154D+02 0.167454750782523D+02 -.229004876851876D+02
0.711864025250D-05 0.000000000000D+00 0.000000000000D+00 0.175420689912D-04 0.000000000000D+00  6 2 -2 25 23 21 21 2 0.90568388D-01 0.10944603D-01 0.38470503D+05 0.38470503D+05 0.38470503D+05 0.12037235D+01  1  2  2  3  6  5       21 0.301896811976D-02 0.100000000000D+01
0.192398914548D-05 0.375660966827D-06 -.273374529506D-07 0.175420689912D-04 0.000000000000D+00  6 2 -2 25 23 21 21 4 0.90568388D-01 0.10944603D-01 0.38470503D+05 0.38470503D+05 0.38470503D+05 0.12037235D+01  1  2  3  3  6  5       21 0.118227250423D-02 0.100000000000D+01
-.861042493703D-07 0.000000000000D+00 0.000000000000D+00 0.175420689912D-04 0.000000000000D+00  6 2 -2 25 23 21 21 4 0.90568388D-01 0.10944603D-01 0.38470503D+05 0.38470503D+05 0.38470503D+05 0.12037235D+01  1  2 15  3  6  5       21 -.529102187335D-04 0.100000000000D+01
-.469102329913D-01 0.000000000000D+00 0.000000000000D+00 0.175420689912D-04 0.000000000000D+00  6 2 -2 25 23 21 21 4 0.90568388D-01 0.10944603D-01 0.38470503D+05 0.38470503D+05 0.38470503D+05 0.12037235D+01  1  2  4  3  6  5       21 -.288258791705D+02 0.100000000000D+01
-.134086205235D-02 0.000000000000D+00 0.000000000000D+00 0.175420689912D-04 0.000000000000D+00  6 2 -2 25 23 21 21 4 0.90568388D-01 0.10944603D-01 0.38470503D+05 0.38470503D+05 0.38470503D+05 0.12037235D+01  1  2  5  3  6  5       21 -.823946611232D+00 0.100000000000D+01
0.464139042876D-01 0.000000000000D+00 -.000000000000D+00 0.175420689912D-04 0.000000000000D+00  6 2 -2 25 23 21 21 4 0.90568388D-01 0.10944603D-01 0.38470503D+05 0.38470503D+05 0.38470503D+05 0.12037235D+01  1  2  6  3  6  5       21 0.285208900385D+02 0.100000000000D+01
0.132742387007D-02 0.000000000000D+00 0.000000000000D+00 0.175420689912D-04 0.103194168268D+00  6 2 -2 25 23 21 21 4 0.90568388D-01 0.10944603D-01 0.38470515D+05 0.38470515D+05 0.38470515D+05 0.12037235D+01  1  2 11  3  6  5       21 0.815688946950D+00 0.100000000000D+01
-.156363543958D-02 0.000000000000D+00 0.000000000000D+00 0.175420689912D-04 0.000000000000D+00  6 2 -2 25 23 1 -1 4 0.90568388D-01 0.10944603D-01 0.38470503D+05 0.38470503D+05 0.38470503D+05 0.12037235D+01  1  2  5  6  6  5       21 -.960838677913D+00 0.100000000000D+01
-.156363543958D-02 0.000000000000D+00 0.000000000000D+00 0.175420689912D-04 0.000000000000D+00  6 2 -2 25 23 3 -3 4 0.90568388D-01 0.10944603D-01 0.38470503D+05 0.38470503D+05 0.38470503D+05 0.12037235D+01  1  2  5  6  6  5       21 -.960838677913D+00 0.100000000000D+01
0.155963904450D-02 0.000000000000D+00 0.000000000000D+00 0.175420689912D-04 0.124826847614D-02  6 2 -2 25 23 1 -1 4 0.90568388D-01 0.10944603D-01 0.38470515D+05 0.38470515D+05 0.38470515D+05 0.12037235D+01  1  2 11  6  6  5       21 0.958382893752D+00 0.100000000000D+01
0.155963904450D-02 0.000000000000D+00 0.000000000000D+00 0.175420689912D-04 0.124826847614D-02  6 2 -2 25 23 3 -3 4 0.90568388D-01 0.10944603D-01 0.38470515D+05 0.38470515D+05 0.38470515D+05 0.12037235D+01  1  2 11  6  6  5       21 0.958382893752D+00 0.100000000000D+01
-.156363543958D-02 0.000000000000D+00 0.000000000000D+00 0.175420689912D-04 0.000000000000D+00  6 2 -2 25 23 2 -2 4 0.90568388D-01 0.10944603D-01 0.38470503D+05 0.38470503D+05 0.38470503D+05 0.12037235D+01  1  2  5  7  6  5       21 -.960838677913D+00 0.100000000000D+01
0.155955319821D-02 0.000000000000D+00 0.000000000000D+00 0.175420689912D-04 0.124819982399D-02  6 2 -2 25 23 2 -2 4 0.90568388D-01 0.10944603D-01 0.38470515D+05 0.38470515D+05 0.38470515D+05 0.12037235D+01  1  2 11  7  6  5       21 0.958330142052D+00 0.100000000000D+01
-.156363543958D-02 0.000000000000D+00 0.000000000000D+00 0.175420689912D-04 0.000000000000D+00  6 2 -2 25 23 4 -4 4 0.90568388D-01 0.10944603D-01 0.38470503D+05 0.38470503D+05 0.38470503D+05 0.12037235D+01  1  2  5  8  6  5       21 -.960838677913D+00 0.100000000000D+01
0.155963670030D-02 0.000000000000D+00 0.000000000000D+00 0.175420689912D-04 0.124826659994D-02  6 2 -2 25 23 4 -4 4 0.90568388D-01 0.10944603D-01 0.38470515D+05 0.38470515D+05 0.38470515D+05 0.12037235D+01  1  2 11  8  6  5       21 0.958381453263D+00 0.100000000000D+01
  </mgrwgt>
  </event>
  <event>
  5     66 0.43206592E-03 0.21621643E+02 0.75467711E-02 0.11486395E+00
        2 -1    0    0  502    0 0.00000000E+00 0.00000000E+00 0.42526470E+03 0.42526482E+03 0.32000000E+00 0.0000E+00 0.9000E+01
       -2 -1    0    0    0  501 0.00000000E+00 0.00000000E+00 -.36333809E+02 0.36335218E+02 0.32000000E+00 0.0000E+00 0.9000E+01
       25  1    1    2    0    0 -.75335453E+01 0.29105278E+02 0.24739699E+03 0.27880843E+03 0.12500000E+03 0.0000E+00 0.9000E+01
       23  1    1    2    0    0 -.58175446E+01 -.12109012E+02 0.12622186E+03 0.15629357E+03 0.91188000E+02 0.0000E+00 0.9000E+01
       21  1    1    2  502  501 0.13351090E+02 -.16996267E+02 0.15312048E+02 0.26498038E+02 0.75000000E+00 0.0000E+00 0.9000E+01
#aMCatNLO 1  0  0  2  2 0.13674336D+02 0.00000000D+00  -5  6  0 0.00000000D+00 0.00000000D+00 0.00000000D+00 0.00000000D+00 0.00000000D+00
  <mgrwgt>
 0.2018895091D+00    5    4    0
 0.124305427921491D+03 0.000000000000000D+00 0.000000000000000D+00 0.124305427921491D+03
 0.124305427921491D+03 0.000000000000000D+00 0.000000000000000D+00 -.124305427921491D+03
 0.130638091349682D+03 -.753664350054152D+01 0.291092225436079D+02 0.231767788775808D+02
 0.927289532259956D+02 -.581974377472928D+01 -.121062120965934D+02 -.101477895848148D+02
 0.252438112673049D+02 0.133563872752708D+02 -.170030104470145D+02 -.130289892927659D+02
 0.000000000000000D+00 0.000000000000000D+00 0.000000000000000D+00 -.000000000000000D+00
 0.180576556785156D+03 0.000000000000000D+00 0.000000000000000D+00 0.180576556785156D+03
 0.241780431762762D+03 0.000000000000000D+00 0.000000000000000D+00 -.241780431762762D+03
 0.144817500820694D+03 -.692879746216302D+02 0.302027112090172D+01 0.231767788775808D+02
 0.109615659724685D+03 -.511811361372321D+02 -.312706760899453D+02 -.101477895848148D+02
 0.254803670120635D+02 0.198509688289052D+01 -.218071990737918D+02 -.130289892927659D+02
 0.142443460990476D+03 0.118484013875972D+03 0.500576040428354D+02 -.612038749776053D+02
 0.124305427921491D+03 0.000000000000000D+00 0.000000000000000D+00 0.124305427921491D+03
 0.124305427921491D+03 0.000000000000000D+00 0.000000000000000D+00 -.124305427921491D+03
 0.130638091349682D+03 -.753664350054152D+01 0.291092225436079D+02 0.231767788775808D+02
 0.927289532259956D+02 -.581974377472928D+01 -.121062120965934D+02 -.101477895848148D+02
 0.000000000000000D+00 0.000000000000000D+00 0.000000000000000D+00 -.000000000000000D+00
 0.252438112673049D+02 0.133563872752708D+02 -.170030104470145D+02 -.130289892927659D+02
 0.180576556785156D+03 0.000000000000000D+00 0.000000000000000D+00 0.180576556785156D+03
 0.241780431762762D+03 0.000000000000000D+00 0.000000000000000D+00 -.241780431762762D+03
 0.144817500820694D+03 -.692879746216302D+02 0.302027112090172D+01 0.231767788775808D+02
 0.109615659724685D+03 -.511811361372321D+02 -.312706760899453D+02 -.101477895848148D+02
 0.142443460990476D+03 0.118484013875972D+03 0.500576040428354D+02 -.612038749776053D+02
 0.254803670120635D+02 0.198509688289052D+01 -.218071990737918D+02 -.130289892927659D+02
0.826407164274D-04 0.000000000000D+00 0.000000000000D+00 0.330242024722D-04 0.000000000000D+00  6 2 -2 25 23 21 21 2 0.65425456D-01 0.55899344D-02 0.14684519D+05 0.14684519D+05 0.14684519D+05 0.12488763D+01  1  2  2  2  6  2       -2 0.149090881698D+00 0.100000000000D+01
0.139502628373D-04 0.436107041952D-05 -.317362110882D-06 0.330242024722D-04 0.000000000000D+00  6 2 -2 25 23 21 21 4 0.65425456D-01 0.55899344D-02 0.14684519D+05 0.14684519D+05 0.14684519D+05 0.12488763D+01  1  2  3  2  6  2       -2 0.392534882521D-01 0.100000000000D+01
0.200851258597D-05 0.000000000000D+00 0.000000000000D+00 0.330242024722D-04 0.000000000000D+00  6 2 -2 25 23 21 21 4 0.65425456D-01 0.55899344D-02 0.14684519D+05 0.14684519D+05 0.14684519D+05 0.12488763D+01  1  2 15  2  6  2       -2 0.565158707884D-02 0.100000000000D+01
-.689986706866D-05 0.000000000000D+00 -.402151341456D-04 0.330242024722D-04 0.000000000000D+00  6 2 -2 25 23 21 21 4 0.65425456D-01 0.15699915D-01 0.14684519D+05 0.14684519D+05 0.14684519D+05 0.12488763D+01  1  2  5  2  6  2       -2 -.386557925949D-02 0.100000000000D+01
0.143411108845D-05 0.000000000000D+00 -.466650538569D-05 0.330242024722D-04 0.000000000000D+00  6 2 21 25 23 2 21 4 0.65425456D-01 0.15699915D-01 0.14684519D+05 0.14684519D+05 0.14684519D+05 0.12488763D+01  3  4  5  5  5  2       -2 0.117591312879D-01 0.100000000000D+01
  </mgrwgt>
  </event>
  <event>
  5     66 0.43206592E-03 0.26859888E+02 0.75467711E-02 0.11180085E+00
        2 -1    0    0  502    0 0.00000000E+00 0.00000000E+00 0.12921169E+04 0.12921169E+04 0.32000000E+00 0.0000E+00 0.9000E+01
       -2 -1    0    0    0  501 0.00000000E+00 0.00000000E+00 -.74676075E+02 0.74676761E+02 0.32000000E+00 0.0000E+00 0.9000E+01
       25  1    1    2    0    0 -.15239905E+03 -.24066615E+02 0.21513284E+03 0.29276580E+03 0.12500000E+03 0.0000E+00 0.9000E+01
       23  1    1    2    0    0 0.13964016E+03 0.47702547E+02 0.17541819E+03 0.24670164E+03 0.91188000E+02 0.0000E+00 0.9000E+01
       21  1    1    2  502  501 0.12758893E+02 -.23635932E+02 0.82688979E+03 0.82732626E+03 0.75000000E+00 0.0000E+00 0.9000E+01
#aMCatNLO 1  0  0  5  1 0.55292139D+01 0.00000000D+00  -5  6  0 0.00000000D+00 0.00000000D+00 0.00000000D+00 0.00000000D+00 0.00000000D+00
  <mgrwgt>
 0.2741279664D+00   10    2    0
 0.310629545139802D+03 0.000000000000000D+00 0.000000000000000D+00 0.310629545139802D+03
 0.310629545139802D+03 -.000000000000000D+00 -.000000000000000D+00 -.310629545139802D+03
 0.222514401845403D+03 -.152399085455835D+03 -.240665550037395D+02 -.100414036424669D+03
 0.198997677242937D+03 0.139640131112938D+03 0.477026005058196D+02 -.975188181420798D+02
 0.199747011191262D+03 0.127589543428974D+02 -.236360455020801D+02 0.197932854566749D+03
 0.000000000000000D+00 0.000000000000000D+00 0.000000000000000D+00 0.000000000000000D+00
 0.310629545139802D+03 0.000000000000000D+00 0.000000000000000D+00 0.310629545139802D+03
 0.310629545139802D+03 -.000000000000000D+00 -.000000000000000D+00 -.310629545139802D+03
 0.215617338593378D+03 -.151421644063889D+03 -.258772715087740D+02 -.852507432832223D+02
 0.192954504799438D+03 0.140514549127045D+03 0.460827354750467D+02 -.839537524662032D+02
 0.762282094329067D+02 0.610286894526651D+02 -.171839008440150D+02 0.423196470781634D+02
 0.136459037453880D+03 -.501215945158219D+02 -.302156312225770D+01 0.126884848671262D+03
0.128089554361D-02 0.000000000000D+00 0.000000000000D+00 0.198085507717D-04 0.000000000000D+00  6 2 -2 25 23 21 21 2 0.19878727D+00 0.11488683D-01 0.39779128D+05 0.39779128D+05 0.39779128D+05 0.12022445D+01  1  2  2  3  6  5       21 0.175397924562D+00 0.100000000000D+01
0.362053452309D-03 0.675947148961D-04 -.491897615500D-05 0.198085507717D-04 0.000000000000D+00  6 2 -2 25 23 21 21 4 0.19878727D+00 0.11488683D-01 0.39779128D+05 0.39779128D+05 0.39779128D+05 0.12022445D+01  1  2  3  3  6  5       21 0.716587210448D-01 0.100000000000D+01
0.690254589657D-06 0.000000000000D+00 0.000000000000D+00 0.198085507717D-04 0.000000000000D+00  6 2 -2 25 23 21 21 4 0.19878727D+00 0.11488683D-01 0.39779128D+05 0.39779128D+05 0.39779128D+05 0.12022445D+01  1  2 15  3  6  5       21 0.136617288897D-03 0.100000000000D+01
-.300984619514D-03 0.000000000000D+00 0.000000000000D+00 0.198085507717D-04 0.000000000000D+00  6 2 -2 25 23 21 21 4 0.19878727D+00 0.11488683D-01 0.39779128D+05 0.39779128D+05 0.39779128D+05 0.12022445D+01  1  2  4  3  6  5       21 -.595717918195D-01 0.100000000000D+01
-.272898933683D-03 0.000000000000D+00 0.000000000000D+00 0.198085507717D-04 0.000000000000D+00  6 2 -2 25 23 21 21 4 0.19878727D+00 0.11488683D-01 0.39779128D+05 0.39779128D+05 0.39779128D+05 0.12022445D+01  1  2  5  3  6  5       21 -.540129874124D-01 0.100000000000D+01
0.825737009753D-03 0.000000000000D+00 -.000000000000D+00 0.198085507717D-04 0.000000000000D+00  6 2 -2 25 23 21 21 4 0.19878727D+00 0.11488683D-01 0.39779128D+05 0.39779128D+05 0.39779128D+05 0.12022445D+01  1  2  6  3  6  5       21 0.163432381768D+00 0.100000000000D+01
-.289416768620D-04 0.000000000000D+00 0.000000000000D+00 0.198085507717D-04 0.000000000000D+00  6 2 -2 25 23 1 -1 4 0.19878727D+00 0.11488683D-01 0.39779128D+05 0.39779128D+05 0.39779128D+05 0.12022445D+01  1  2  5  6  6  5       21 -.572822475685D-02 0.100000000000D+01
-.289416768620D-04 0.000000000000D+00 0.000000000000D+00 0.198085507717D-04 0.000000000000D+00  6 2 -2 25 23 3 -3 4 0.19878727D+00 0.11488683D-01 0.39779128D+05 0.39779128D+05 0.39779128D+05 0.12022445D+01  1  2  5  6  6  5       21 -.572822475685D-02 0.100000000000D+01
-.289416768620D-04 0.000000000000D+00 0.000000000000D+00 0.198085507717D-04 0.000000000000D+00  6 2 -2 25 23 2 -2 4 0.19878727D+00 0.11488683D-01 0.39779128D+05 0.39779128D+05 0.39779128D+05 0.12022445D+01  1  2  5  7  6  5       21 -.572822475685D-02 0.100000000000D+01
-.289416768620D-04 0.000000000000D+00 0.000000000000D+00 0.198085507717D-04 0.000000000000D+00  6 2 -2 25 23 4 -4 4 0.19878727D+00 0.11488683D-01 0.39779128D+05 0.39779128D+05 0.39779128D+05 0.12022445D+01  1  2  5  8  6  5       21 -.572822475685D-02 0.100000000000D+01
  </mgrwgt>
  </event>
  <event>
  5     66 0.43206592E-03 0.39261328E+02 0.75467711E-02 0.12011484E+00
        2 -1    0    0  502    0 0.00000000E+00 0.00000000E+00 0.33755897E+03 0.33755912E+03 0.32000000E+00 0.0000E+00 0.9000E+01
       -2 -1    0    0    0  501 0.00000000E+00 0.00000000E+00 -.59091553E+02 0.59092419E+02 0.32000000E+00 0.0000E+00 0.9000E+01
       25  1    1    2    0    0 0.19694465E+01 -.59793704E+02 0.18702107E+03 0.23276822E+03 0.12500000E+03 0.0000E+00 0.9000E+01
       23  1    1    2    0    0 -.83695977E+01 0.21062091E+02 0.78805920E+02 0.12263477E+03 0.91188000E+02 0.0000E+00 0.9000E+01
       21  1    1    2  502  501 0.64001512E+01 0.38731613E+02 0.12640427E+02 0.41248548E+02 0.75000000E+00 0.0000E+00 0.9000E+01
#aMCatNLO 1  0  0  2  2 0.26262634D+02 0.00000000D+00  -5  6  0 0.00000000D+00 0.00000000D+00 0.00000000D+00 0.00000000D+00 0.00000000D+00
  <mgrwgt>
 0.2961450959D-01    4    2    0
 0.141234151074639D+03 0.000000000000000D+00 0.000000000000000D+00 0.141234151074639D+03
 0.141234151074639D+03 0.000000000000000D+00 0.000000000000000D+00 -.141234151074639D+03
 0.142490385643010D+03 0.196900700434527D+01 -.597963636286359D+02 0.331515898397435D+02
 0.945176945252521D+02 -.836988917700304D+01 0.210603266870986D+02 -.102347852623414D+02
 0.454602219810157D+02 0.640088217265777D+01 0.387360369415372D+02 -.229168045774021D+02
 0.000000000000000D+00 0.000000000000000D+00 0.000000000000000D+00 0.000000000000000D+00
 0.159120900777051D+03 0.000000000000000D+00 0.000000000000000D+00 0.159120900777051D+03
 0.151823332517939D+03 0.000000000000000D+00 0.000000000000000D+00 -.151823332517939D+03
 0.147260270227140D+03 -.663135265586789D+01 -.701254906608227D+02 0.331515898397435D+02
 0.939185134704194D+02 -.139630401464206D+02 0.143428905384014D+02 -.102347852623414D+02
 0.425077821642995D+02 0.378982173530063D+01 0.356001244899979D+02 -.229168045774021D+02
 0.272576674331317D+02 0.168045710669879D+02 0.201824756324235D+02 0.729756825911158D+01
0.368273741079D-04 0.000000000000D+00 0.000000000000D+00 0.942286082666D-05 0.000000000000D+00  6 2 -2 25 23 21 21 2 0.51932227D-01 0.90910864D-02 0.18469285D+05 0.18469285D+05 0.18469285D+05 0.12376513D+01  1  2  2  2  6  2       -2 0.399536764777D-01 0.100000000000D+01
0.168012853001D-05 0.194343392450D-05 -.141426813444D-06 0.942286082666D-05 0.000000000000D+00  6 2 -2 25 23 21 21 4 0.51932227D-01 0.90910864D-02 0.18469285D+05 0.18469285D+05 0.18469285D+05 0.12376513D+01  1  2  3  2  6  2       -2 0.279206210172D-02 0.100000000000D+01
0.258508966358D-06 0.000000000000D+00 0.000000000000D+00 0.942286082666D-05 0.000000000000D+00  6 2 -2 25 23 21 21 4 0.51932227D-01 0.90910864D-02 0.18469285D+05 0.18469285D+05 0.18469285D+05 0.12376513D+01  1  2 15  2  6  2       -2 0.429593971550D-03 0.100000000000D+01
-.816025027839D-05 0.000000000000D+00 0.000000000000D+00 0.942286082666D-05 0.000000000000D+00  6 2 -2 25 23 21 21 4 0.51932227D-01 0.90910864D-02 0.18469285D+05 0.18469285D+05 0.18469285D+05 0.12376513D+01  1  2  4  2  6  2       -2 -.135608229584D-01 0.100000000000D+01
  </mgrwgt>
  </event>
  <event>
  5     66 0.43206592E-03 0.22591912E+02 0.75467711E-02 0.11680727E+00
        2 -1    0    0  502    0 0.00000000E+00 0.00000000E+00 0.30798125E+03 0.30798142E+03 0.32000000E+00 0.0000E+00 0.9000E+01
       -2 -1    0    0    0  501 0.00000000E+00 0.00000000E+00 -.13942352E+03 0.13942389E+03 0.32000000E+00 0.0000E+00 0.9000E+01
       25  1    1    2    0    0 -.15220610E+01 -.14015504E+03 0.15210773E+03 0.24167646E+03 0.12500000E+03 0.0000E+00 0.9000E+01
       23  1    1    2    0    0 0.47734739E+01 0.11779955E+03 0.56781165E+02 0.15949568E+03 0.91188000E+02 0.0000E+00 0.9000E+01
       21  1    1    2  502  501 -.32514129E+01 0.22355491E+02 -.40331171E+02 0.46233165E+02 0.75000000E+00 0.0000E+00 0.9000E+01
#aMCatNLO 1  0  0  5  2 0.54682137D+01 0.00000000D+00  -5  6  0 0.00000000D+00 0.00000000D+00 0.00000000D+00 0.00000000D+00 0.00000000D+00
  <mgrwgt>
 0.2645282369D+00   20    2    0
 0.207219571335441D+03 0.000000000000000D+00 0.000000000000000D+00 0.207219571335441D+03
 0.207219571335441D+03 -.000000000000000D+00 -.000000000000000D+00 -.207219571335441D+03
 0.199037335650694D+03 -.152196114515862D+01 -.140155724966554D+03 0.659159872587783D+02
 0.149088542079261D+03 0.477354876373070D+01 0.117799033221747D+03 -.356973942210541D+01
 0.663132649409258D+02 -.325158761857208D+01 0.223566917448075D+02 -.623462478366728D+02
 0.000000000000000D+00 0.000000000000000D+00 0.000000000000000D+00 -.000000000000000D+00
 0.207219571335441D+03 0.000000000000000D+00 0.000000000000000D+00 0.207219571335441D+03
 0.207219571335441D+03 -.000000000000000D+00 -.000000000000000D+00 -.207219571335441D+03
 0.198569628708726D+03 -.156389592825421D+01 -.139867397192854D+03 0.651119257705003D+02
 0.149274199126577D+03 0.474208106331848D+01 0.118015393277375D+03 -.417310407927925D+01
 0.106491268879138D+02 -.191286577927212D+01 0.801518828881966D+01 -.674548772737352D+01
 0.559461879476646D+02 -.126531935579215D+01 0.138368156266596D+02 -.541933339638475D+02
0.244105203586D-03 0.000000000000D+00 0.000000000000D+00 0.195395748776D-04 0.000000000000D+00  6 2 -2 25 23 21 21 2 0.47381772D-01 0.21449814D-01 0.32299874D+05 0.32299874D+05 0.32299874D+05 0.12115459D+01  1  2  2  3  6  5       21 0.699252307282D-01 0.100000000000D+01
0.499849700473D-04 0.128817855003D-04 -.937428256146D-06 0.195395748776D-04 0.000000000000D+00  6 2 -2 25 23 21 21 4 0.47381772D-01 0.21449814D-01 0.32299874D+05 0.32299874D+05 0.32299874D+05 0.12115459D+01  1  2  3  3  6  5       21 0.210172571095D-01 0.100000000000D+01
0.277667660973D-05 0.000000000000D+00 0.000000000000D+00 0.195395748776D-04 0.000000000000D+00  6 2 -2 25 23 21 21 4 0.47381772D-01 0.21449814D-01 0.32299874D+05 0.32299874D+05 0.32299874D+05 0.12115459D+01  1  2 15  3  6  5       21 0.116751347778D-02 0.100000000000D+01
0.243227482326D-04 0.000000000000D+00 0.000000000000D+00 0.195436483304D-04 0.000000000000D+00  6 2 -2 25 23 21 21 4 0.47381772D-01 0.21449814D-01 0.32209761D+05 0.32209761D+05 0.32209761D+05 0.12116722D+01  1  2 12  3  6  5       21 0.102308493835D-01 0.100000000000D+01
0.151475790224D-04 0.000000000000D+00 0.000000000000D+00 0.195436483304D-04 0.000000000000D+00  6 2 -2 25 23 21 21 4 0.47381772D-01 0.21449814D-01 0.32209761D+05 0.32209761D+05 0.32209761D+05 0.12116722D+01  1  2 12  3  6  5       21 0.637150859850D-02 0.100000000000D+01
-.233767695884D-03 0.000000000000D+00 0.000000000000D+00 0.195395748776D-04 0.000000000000D+00  6 2 -2 25 23 21 21 4 0.47381772D-01 0.21449814D-01 0.32299874D+05 0.32299874D+05 0.32299874D+05 0.12115459D+01  1  2  4  3  6  5       21 -.982926620470D-01 0.100000000000D+01
-.738366924586D-04 0.000000000000D+00 0.000000000000D+00 0.195395748776D-04 0.000000000000D+00  6 2 -2 25 23 21 21 4 0.47381772D-01 0.21449814D-01 0.32299874D+05 0.32299874D+05 0.32299874D+05 0.12115459D+01  1  2  5  3  6  5       21 -.310462274569D-01 0.100000000000D+01
0.690909549957D-03 0.000000000000D+00 -.000000000000D+00 0.195395748776D-04 0.000000000000D+00  6 2 -2 25 23 21 21 4 0.47381772D-01 0.21449814D-01 0.32299874D+05 0.32299874D+05 0.32299874D+05 0.12115459D+01  1  2  6  3  6  5       21 0.290507799386D+00 0.100000000000D+01
0.809540960630D-05 0.000000000000D+00 0.000000000000D+00 0.195436483304D-04 0.000000000000D+00  6 2 -2 25 23 1 -1 4 0.47381772D-01 0.21449814D-01 0.32209761D+05 0.32209761D+05 0.32209761D+05 0.12116722D+01  1  2 12  6  6  5       21 0.340516275496D-02 0.100000000000D+01
0.809540960630D-05 0.000000000000D+00 0.000000000000D+00 0.195436483304D-04 0.000000000000D+00  6 2 -2 25 23 3 -3 4 0.47381772D-01 0.21449814D-01 0.32209761D+05 0.32209761D+05 0.32209761D+05 0.12116722D+01  1  2 12  6  6  5       21 0.340516275496D-02 0.100000000000D+01
0.625451273220D-05 0.000000000000D+00 0.000000000000D+00 0.195436483304D-04 0.000000000000D+00  6 2 -2 25 23 1 -1 4 0.47381772D-01 0.21449814D-01 0.32209761D+05 0.32209761D+05 0.32209761D+05 0.12116722D+01  1  2 12  6  6  5       21 0.263082843758D-02 0.100000000000D+01
0.625451273220D-05 0.000000000000D+00 0.000000000000D+00 0.195436483304D-04 0.000000000000D+00  6 2 -2 25 23 3 -3 4 0.47381772D-01 0.21449814D-01 0.32209761D+05 0.32209761D+05 0.32209761D+05 0.12116722D+01  1  2 12  6  6  5       21 0.263082843758D-02 0.100000000000D+01
-.175380463391D-04 0.000000000000D+00 0.000000000000D+00 0.195395748776D-04 0.000000000000D+00  6 2 -2 25 23 1 -1 4 0.47381772D-01 0.21449814D-01 0.32299874D+05 0.32299874D+05 0.32299874D+05 0.12115459D+01  1  2  5  6  6  5       21 -.737424927447D-02 0.100000000000D+01
-.175380463391D-04 0.000000000000D+00 0.000000000000D+00 0.195395748776D-04 0.000000000000D+00  6 2 -2 25 23 3 -3 4 0.47381772D-01 0.21449814D-01 0.32299874D+05 0.32299874D+05 0.32299874D+05 0.12115459D+01  1  2  5  6  6  5       21 -.737424927447D-02 0.100000000000D+01
0.809540960630D-05 0.000000000000D+00 0.000000000000D+00 0.195436483304D-04 0.000000000000D+00  6 2 -2 25 23 2 -2 4 0.47381772D-01 0.21449814D-01 0.32209761D+05 0.32209761D+05 0.32209761D+05 0.12116722D+01  1  2 12  7  6  5       21 0.340516275496D-02 0.100000000000D+01
0.625451273220D-05 0.000000000000D+00 0.000000000000D+00 0.195436483304D-04 0.000000000000D+00  6 2 -2 25 23 2 -2 4 0.47381772D-01 0.21449814D-01 0.32209761D+05 0.32209761D+05 0.32209761D+05 0.12116722D+01  1  2 12  7  6  5       21 0.263082843758D-02 0.100000000000D+01
-.175380463391D-04 0.000000000000D+00 0.000000000000D+00 0.195395748776D-04 0.000000000000D+00  6 2 -2 25 23 2 -2 4 0.47381772D-01 0.21449814D-01 0.32299874D+05 0.32299874D+05 0.32299874D+05 0.12115459D+01  1  2  5  7  6  5       21 -.737424927447D-02 0.100000000000D+01
0.809540960630D-05 0.000000000000D+00 0.000000000000D+00 0.195436483304D-04 0.000000000000D+00  6 2 -2 25 23 4 -4 4 0.47381772D-01 0.21449814D-01 0.32209761D+05 0.32209761D+05 0.32209761D+05 0.12116722D+01  1  2 12  8  6  5       21 0.340516275496D-02 0.100000000000D+01
0.625451273220D-05 0.000000000000D+00 0.000000000000D+00 0.195436483304D-04 0.000000000000D+00  6 2 -2 25 23 4 -4 4 0.47381772D-01 0.21449814D-01 0.32209761D+05 0.32209761D+05 0.32209761D+05 0.12116722D+01  1  2 12  8  6  5       21 0.263082843758D-02 0.100000000000D+01
-.175380463391D-04 0.000000000000D+00 0.000000000000D+00 0.195395748776D-04 0.000000000000D+00  6 2 -2 25 23 4 -4 4 0.47381772D-01 0.21449814D-01 0.32299874D+05 0.32299874D+05 0.32299874D+05 0.12115459D+01  1  2  5  8  6  5       21 -.737424927447D-02 0.100000000000D+01
  </mgrwgt>
  </event>
  <event>
  5     66 -.43206592E-03 0.57856489E+02 0.75467711E-02 0.11452102E+00
        2 -1    0    0  502    0 0.00000000E+00 0.00000000E+00 0.20545512E+04 0.20545513E+04 0.32000000E+00 0.0000E+00 0.9000E+01
       -2 -1    0    0    0  501 0.00000000E+00 0.00000000E+00 -.27970444E+02 0.27972275E+02 0.32000000E+00 0.0000E+00 0.9000E+01
       25  1    1    2    0    0 -.48441401E+02 -.10776326E+03 0.35407001E+03 0.39363697E+03 0.12500000E+03 0.0000E+00 0.9000E+01
       23  1    1    2    0    0 0.88023364E+01 0.14990359E+03 0.11843564E+04 0.11973153E+04 0.91188000E+02 0.0000E+00 0.9000E+01
       21  1    1    2  502  501 0.39639065E+02 -.42140329E+02 0.48815435E+03 0.49157125E+03 0.75000000E+00 0.0000E+00 0.9000E+01
#aMCatNLO 1  0  0  2  5 0.55728610D+01 0.00000000D+00  -5  6  0 0.00000000D+00 0.00000000D+00 0.00000000D+00 0.00000000D+00 0.00000000D+00
  <mgrwgt>
 -.6424404731D-01   11    4    0
 0.239726183240914D+03 0.000000000000000D+00 0.000000000000000D+00 0.239726183240914D+03
 0.239726183240914D+03 0.000000000000000D+00 0.000000000000000D+00 -.239726183240914D+03
 0.213174279546701D+03 -.484423626442675D+02 -.107762234242313D+03 -.125932171555966D+03
 0.194479110306755D+03 0.880145909709496D+01 0.149904517804708D+03 0.834148839309085D+02
 0.717989766283716D+02 0.396409035471725D+02 -.421422835623953D+02 0.425172876250576D+02
 0.000000000000000D+00 -.000000000000000D+00 -.000000000000000D+00 -.000000000000000D+00
 0.240053584711064D+03 0.000000000000000D+00 0.000000000000000D+00 0.240053584711064D+03
 0.264690937195498D+03 0.000000000000000D+00 0.000000000000000D+00 -.264690937195498D+03
 0.211816821745779D+03 -.475340066364168D+02 -.105465503150419D+03 -.125932171555966D+03
 0.196150150763320D+03 0.963637172245614D+01 0.152015551110052D+03 0.834148839309085D+02
 0.715177806427838D+02 0.399472220491294D+02 -.413677731046162D+02 0.425172876250576D+02
 0.252597687546789D+02 -.204958713516870D+01 -.518227485501685D+01 -.246373524844343D+02
 0.239726183240914D+03 0.000000000000000D+00 0.000000000000000D+00 0.239726183240914D+03
 0.239726183240914D+03 0.000000000000000D+00 0.000000000000000D+00 -.239726183240914D+03
 0.213174279546701D+03 -.484423626442675D+02 -.107762234242313D+03 -.125932171555966D+03
 0.194479110306755D+03 0.880145909709496D+01 0.149904517804708D+03 0.834148839309085D+02
 0.000000000000000D+00 -.000000000000000D+00 -.000000000000000D+00 -.000000000000000D+00
 0.717989766283716D+02 0.396409035471725D+02 -.421422835623953D+02 0.425172876250576D+02
 0.240053584711064D+03 0.000000000000000D+00 0.000000000000000D+00 0.240053584711064D+03
 0.264690937195498D+03 0.000000000000000D+00 0.000000000000000D+00 -.264690937195498D+03
 0.211816821745779D+03 -.475340066364168D+02 -.105465503150419D+03 -.125932171555966D+03
 0.196150150763320D+03 0.963637172245614D+01 0.152015551110052D+03 0.834148839309085D+02
 0.252597687546789D+02 -.204958713516870D+01 -.518227485501685D+01 -.246373524844343D+02
 0.715177806427838D+02 0.399472220491294D+02 -.413677731046162D+02 0.425172876250576D+02
0.394526723282D-04 0.000000000000D+00 0.000000000000D+00 0.209876324496D-05 0.000000000000D+00  6 2 -2 25 23 21 21 2 0.31608495D+00 0.43032880D-02 0.41115531D+05 0.41115531D+05 0.41115531D+05 0.12007890D+01  1  2  2  2  6  2       -2 0.978682466807D-02 0.100000000000D+01
0.140483008131D-05 0.208197471778D-05 -.151508649867D-06 0.209876324496D-05 0.000000000000D+00  6 2 -2 25 23 21 21 4 0.31608495D+00 0.43032880D-02 0.41115531D+05 0.41115531D+05 0.41115531D+05 0.12007890D+01  1  2  3  2  6  2       -2 0.502484436900D-03 0.100000000000D+01
0.151199949530D-05 0.000000000000D+00 0.000000000000D+00 0.209876324496D-05 0.000000000000D+00  6 2 -2 25 23 21 21 4 0.31608495D+00 0.43032880D-02 0.41115531D+05 0.41115531D+05 0.41115531D+05 0.12007890D+01  1  2 15  2  6  2       -2 0.540817160096D-03 0.100000000000D+01
0.188745892152D-02 0.000000000000D+00 0.000000000000D+00 0.209471563630D-05 0.000000000000D+00  6 2 -2 25 23 21 21 4 0.31608495D+00 0.47640056D-02 0.42214961D+05 0.42214961D+05 0.42214961D+05 0.11996306D+01  1  2 12  2  6  2       -2 0.576649941352D+00 0.100000000000D+01
-.319300615434D-02 0.000000000000D+00 0.000000000000D+00 0.209876324496D-05 0.000000000000D+00  6 2 -2 25 23 21 21 4 0.31608495D+00 0.43032880D-02 0.41115531D+05 0.41115531D+05 0.41115531D+05 0.12007890D+01  1  2  4  2  6  2       -2 -.114208538159D+01 0.100000000000D+01
-.333170055221D-02 0.000000000000D+00 -.825152828932D-04 0.209876324496D-05 0.000000000000D+00  6 2 -2 25 23 21 21 4 0.31608495D+00 0.47565183D-02 0.41115531D+05 0.41115531D+05 0.41115531D+05 0.12007890D+01  1  2  5  2  6  2       -2 -.102456256708D+01 0.100000000000D+01
0.332369749614D-02 0.000000000000D+00 0.821033003685D-04 0.209876324496D-05 0.000000000000D+00  6 2 -2 25 23 21 21 4 0.31608495D+00 0.43032880D-02 0.41115531D+05 0.41115531D+05 0.41115531D+05 0.12007890D+01  1  2  6  2  6  2       -2 0.118883150852D+01 0.100000000000D+01
0.115500932009D-02 0.000000000000D+00 0.000000000000D+00 0.209876324496D-05 0.270949639302D-06  6 2 -2 25 23 21 21 4 0.31651663D+00 0.47514265D-02 0.42214961D+05 0.42214961D+05 0.42214961D+05 0.11996306D+01  1  2 11  2  6  2       -2 0.353096016595D+00 0.100000000000D+01
0.311757378993D-04 0.000000000000D+00 0.000000000000D+00 0.209471563630D-05 0.000000000000D+00  6 2 21 25 23 2 21 4 0.31608495D+00 0.47640056D-02 0.42214961D+05 0.42214961D+05 0.42214961D+05 0.11996306D+01  3  4 12  5  5  2       -2 0.169443926481D+00 0.100000000000D+01
-.539648878484D-04 0.000000000000D+00 -.134181862299D-05 0.209876324496D-05 0.000000000000D+00  6 2 21 25 23 2 21 4 0.31608495D+00 0.47565183D-02 0.41115531D+05 0.41115531D+05 0.41115531D+05 0.12007890D+01  3  4  5  5  5  2       -2 -.295478438019D+00 0.100000000000D+01
0.182004101740D-04 0.000000000000D+00 0.000000000000D+00 0.209876324496D-05 0.852564557115D-08  6 2 21 25 23 2 21 4 0.31651663D+00 0.47514265D-02 0.42214961D+05 0.42214961D+05 0.42214961D+05 0.11996306D+01  3  4 11  5  5  2       -2 0.990308201649D-01 0.100000000000D+01
  </mgrwgt>
  </event>
  <event>
  5     66 0.43206592E-03 0.42865347E+02 0.75467711E-02 0.11760561E+00
        2 -1    0    0  502    0 0.00000000E+00 0.00000000E+00 0.14392115E+04 0.14392115E+04 0.32000000E+00 0.0000E+00 0.9000E+01
       -2 -1    0    0    0  501 0.00000000E+00 0.00000000E+00 -.26484189E+03 0.26484209E+03 0.32000000E+00 0.0000E+00 0.9000E+01
       25  1    1    2    0    0 0.58225307E+02 -.61896121E+02 0.69679773E+03 0.71300308E+03 0.12500000E+03 0.0000E+00 0.9000E+01
       23  1    1    2    0    0 -.15371630E+02 0.62895516E+02 0.72822240E+03 0.73675996E+03 0.91188000E+02 0.0000E+00 0.9000E+01
       21  1    1    2  502  501 -.42853677E+02 -.99939486E+00 -.25065053E+03 0.25429056E+03 0.75000000E+00 0.0000E+00 0.9000E+01
#aMCatNLO 1  0  0  1  5 0.27515293D+02 0.00000000D+00  -5  6  0 0.00000000D+00 0.00000000D+00 0.00000000D+00 0.00000000D+00 0.00000000D+00
  <mgrwgt>
 0.4295410583D+00    9    4    0
 0.617384552896096D+03 0.000000000000000D+00 0.000000000000000D+00 0.617384552896096D+03
 0.617384552896096D+03 0.000000000000000D+00 0.000000000000000D+00 -.617384552896096D+03
 0.321272646623151D+03 0.582253164083575D+02 -.618961210338146D+02 0.283495672274477D+03
 0.324171032701524D+03 -.153716209868380D+02 0.628955163173299D+02 0.304268753562021D+03
 0.589325426467518D+03 -.428536954215196D+02 -.999395283515330D+00 -.587764425836499D+03
 0.000000000000000D+00 0.000000000000000D+00 0.000000000000000D+00 0.000000000000000D+00
 0.658685912826032D+03 0.000000000000000D+00 0.000000000000000D+00 0.658685912826032D+03
 0.622137615927236D+03 0.000000000000000D+00 0.000000000000000D+00 -.622137615927236D+03
 0.320956986970430D+03 0.521051885264259D+02 -.656021388020563D+02 0.283495672274477D+03
 0.323818539489783D+03 -.215466382089156D+02 0.591562605393942D+02 0.304268753562021D+03
 0.590300113312050D+03 -.540949380839724D+02 -.780648262676515D+01 -.587764425836499D+03
 0.457478889810040D+02 0.235363877664621D+02 0.142523608894273D+02 0.365482968987958D+02
 0.617384552896096D+03 0.000000000000000D+00 0.000000000000000D+00 0.617384552896096D+03
 0.617384552896096D+03 0.000000000000000D+00 0.000000000000000D+00 -.617384552896096D+03
 0.321272646623151D+03 0.582253164083575D+02 -.618961210338146D+02 0.283495672274477D+03
 0.324171032701524D+03 -.153716209868380D+02 0.628955163173299D+02 0.304268753562021D+03
 0.000000000000000D+00 0.000000000000000D+00 0.000000000000000D+00 0.000000000000000D+00
 0.589325426467518D+03 -.428536954215196D+02 -.999395283515330D+00 -.587764425836499D+03
 0.658685912826032D+03 0.000000000000000D+00 0.000000000000000D+00 0.658685912826032D+03
 0.622137615927236D+03 0.000000000000000D+00 0.000000000000000D+00 -.622137615927236D+03
 0.320956986970430D+03 0.521051885264259D+02 -.656021388020563D+02 0.283495672274477D+03
 0.323818539489783D+03 -.215466382089156D+02 0.591562605393942D+02 0.304268753562021D+03
 0.457478889810040D+02 0.235363877664621D+02 0.142523608894273D+02 0.365482968987958D+02
 0.590300113312050D+03 -.540949380839724D+02 -.780648262676515D+01 -.587764425836499D+03
0.100768878494D-01 0.000000000000D+00 0.000000000000D+00 0.716569648942D-04 0.000000000000D+00  6 2 -2 25 23 21 21 2 0.22141717D+00 0.40744924D-01 0.23386323D+05 0.23386323D+05 0.23386323D+05 0.12264167D+01  1  2  2  1  6  1        2 0.135190649957D+00 0.100000000000D+01
0.281201987375D-02 0.531771981424D-03 -.386979026472D-04 0.716569648942D-04 0.000000000000D+00  6 2 -2 25 23 21 21 4 0.22141717D+00 0.40744924D-01 0.23386323D+05 0.23386323D+05 0.23386323D+05 0.12264167D+01  1  2  3  1  6  1        2 0.567433181557D-01 0.100000000000D+01
0.320933414023D-03 0.000000000000D+00 0.000000000000D+00 0.716569648942D-04 0.000000000000D+00  6 2 -2 25 23 21 21 4 0.22141717D+00 0.40744924D-01 0.23386323D+05 0.23386323D+05 0.23386323D+05 0.12264167D+01  1  2 15  1  6  1        2 0.647606618598D-02 0.100000000000D+01
0.156098360806D+00 0.000000000000D+00 0.000000000000D+00 0.704077097999D-04 0.000000000000D+00  6 2 -2 25 23 21 21 4 0.23709030D+00 0.40744924D-01 0.29491023D+05 0.29491023D+05 0.29491023D+05 0.12156791D+01  1  2 12  1  6  1        2 0.266601457787D+01 0.100000000000D+01
-.151098001691D+00 0.000000000000D+00 0.000000000000D+00 0.716569648942D-04 0.000000000000D+00  6 2 -2 25 23 21 21 4 0.22141717D+00 0.40744924D-01 0.23386323D+05 0.23386323D+05 0.23386323D+05 0.12264167D+01  1  2  4  1  6  1        2 -.304898342387D+01 0.100000000000D+01
-.249538874348D+00 0.000000000000D+00 -.377220449417D-01 0.716569648942D-04 0.000000000000D+00  6 2 -2 25 23 21 21 4 0.23698932D+00 0.40744924D-01 0.23386323D+05 0.23386323D+05 0.23386323D+05 0.12264167D+01  1  2  5  1  6  1        2 -.445613149022D+01 0.100000000000D+01
0.251608301442D+00 0.000000000000D+00 0.376350847839D-01 0.716569648942D-04 0.000000000000D+00  6 2 -2 25 23 21 21 4 0.22141717D+00 0.40744924D-01 0.23386323D+05 0.23386323D+05 0.23386323D+05 0.12264167D+01  1  2  6  1  6  1        2 0.507716536167D+01 0.100000000000D+01
0.214885152278D-02 0.000000000000D+00 0.000000000000D+00 0.704077097999D-04 0.000000000000D+00  6 21 -2 25 23 -2 21 4 0.23709030D+00 0.40744924D-01 0.29491023D+05 0.29491023D+05 0.29491023D+05 0.12156791D+01  3  4 12  4  5  1        2 0.176779101116D-01 0.100000000000D+01
-.282000245969D-02 0.000000000000D+00 -.435350924832D-03 0.716569648942D-04 0.000000000000D+00  6 21 -2 25 23 -2 21 4 0.23698932D+00 0.40744924D-01 0.23386323D+05 0.23386323D+05 0.23386323D+05 0.12264167D+01  3  4  5  4  5  1        2 -.246119115402D-01 0.100000000000D+01
  </mgrwgt>
  </event>
  <event>
  5     66 0.43206592E-03 0.79788740E+02 0.75467711E-02 0.11255292E+00
        2 -1    0    0  502    0 0.00000000E+00 0.00000000E+00 0.95660535E+03 0.95660540E+03 0.32000000E+00 0.0000E+00 0.9000E+01
       -2 -1    0    0    0  501 0.00000000E+00 0.00000000E+00 -.30665758E+02 0.30667428E+02 0.32000000E+00 0.0000E+00 0.9000E+01
       25  1    1    2    0    0 0.69553215E+02 -.53665990E+02 0.28381209E+03 0.32232281E+03 0.12500000E+03 0.0000E+00 0.9000E+01
       23  1    1    2    0    0 -.30805203E+00 0.14030276E+02 0.31509949E+03 0.32832893E+03 0.91188000E+02 0.0000E+00 0.9000E+01
       21  1    1    2  502  501 -.69245163E+02 0.39635714E+02 0.32702800E+03 0.33662109E+03 0.75000000E+00 0.0000E+00 0.9000E+01
#aMCatNLO 1  0  0  1  5 0.11788253D+03 0.00000000D+00  -5  6  0 0.00000000D+00 0.00000000D+00 0.00000000D+00 0.00000000D+00 0.00000000D+00
  <mgrwgt>
 0.2800189094D-01    3    2    0
 0.171277198687201D+03 0.000000000000000D+00 0.000000000000000D+00 0.171277198687201D+03
 0.171277198687201D+03 0.000000000000000D+00 0.000000000000000D+00 -.171277198687201D+03
 0.161807952926438D+03 0.695544531646981D+02 -.536666984141565D+02 -.532811144452533D+02
 0.945458234970463D+02 -.307328602722873D+00 0.140298619901866D+02 0.206574422037411D+02
 0.862006209509182D+02 -.692471245619752D+02 0.396368364239699D+02 0.326236722415123D+02
 0.000000000000000D+00 0.000000000000000D+00 0.000000000000000D+00 -.000000000000000D+00
 0.205072110553002D+03 0.000000000000000D+00 0.000000000000000D+00 0.205072110553002D+03
 0.326269562447183D+03 0.000000000000000D+00 0.000000000000000D+00 -.326269562447183D+03
 0.187325462941293D+03 0.642204314155013D+02 -.111815419770480D+03 -.532811144452533D+02
 0.951892521569301D+02 -.320608012327975D+01 -.175708142679225D+02 0.206574422037411D+02
 0.797556335719431D+02 -.717825858807953D+02 0.119965603489784D+02 0.326236722415123D+02
 0.169071324330018D+03 0.107682345885738D+02 0.117389673689424D+03 -.121197451894181D+03
0.338981007478D-04 0.000000000000D+00 0.000000000000D+00 0.221280705409D-05 0.000000000000D+00  6 2 -2 25 23 21 21 2 0.14717019D+00 0.47179415D-02 0.26379312D+05 0.26379312D+05 0.26379312D+05 0.12208050D+01  1  2  2  1  6  1        2 0.295947409105D-01 0.100000000000D+01
-.173562836969D-05 0.178885192239D-05 -.130177632447D-06 0.221280705409D-05 0.000000000000D+00  6 2 -2 25 23 21 21 4 0.14717019D+00 0.47179415D-02 0.26379312D+05 0.26379312D+05 0.26379312D+05 0.12208050D+01  1  2  3  1  6  1        2 -.225833560100D-02 0.100000000000D+01
0.511454430354D-06 0.000000000000D+00 0.000000000000D+00 0.221280705409D-05 0.000000000000D+00  6 2 -2 25 23 21 21 4 0.14717019D+00 0.47179415D-02 0.26379312D+05 0.26379312D+05 0.26379312D+05 0.12208050D+01  1  2 15  1  6  1        2 0.665485635364D-03 0.100000000000D+01
  </mgrwgt>
  </event>
  <event>
  5     66 0.43206592E-03 0.21202796E+02 0.75467711E-02 0.12373736E+00
        2 -1    0    0  502    0 0.00000000E+00 0.00000000E+00 0.47321537E+03 0.47321548E+03 0.32000000E+00 0.0000E+00 0.9000E+01
       -2 -1    0    0    0  501 0.00000000E+00 0.00000000E+00 -.40048544E+02 0.40049822E+02 0.32000000E+00 0.0000E+00 0.9000E+01
       25  1    1    2    0    0 0.33050573E+02 0.24944803E+02 0.19039124E+03 0.23149170E+03 0.12500000E+03 0.0000E+00 0.9000E+01
       23  1    1    2    0    0 -.22648471E+02 -.64727066E+01 0.24294334E+03 0.26056010E+03 0.91188000E+02 0.0000E+00 0.9000E+01
       21  1    1    2  502  501 -.10402102E+02 -.18472096E+02 -.16774642E+00 0.21213503E+02 0.75000000E+00 0.0000E+00 0.9000E+01
#aMCatNLO 1  0  0  5  2 0.56291763D+00 0.00000000D+00  -5  6  0 0.00000000D+00 0.00000000D+00 0.00000000D+00 0.00000000D+00 0.00000000D+00
  <mgrwgt>
 0.8728595273D+00   25    2    0
 0.137666053991100D+03 0.000000000000000D+00 0.000000000000000D+00 0.137666053991100D+03
 0.137666053991100D+03 -.000000000000000D+00 -.000000000000000D+00 -.137666053991100D+03
 0.132006311664106D+03 0.330514584347857D+02 0.249463749008183D+02 -.927069543251685D+01
 0.103517376946710D+03 -.226477764044143D+02 -.647147370565917D+01 0.429627075257119D+02
 0.398084193713839D+02 -.104036820303714D+02 -.184749011951592D+02 -.336920120931951D+02
 0.000000000000000D+00 -.000000000000000D+00 0.000000000000000D+00 0.000000000000000D+00
 0.137666053991100D+03 0.000000000000000D+00 0.000000000000000D+00 0.137666053991100D+03
 0.137666053991100D+03 -.000000000000000D+00 -.000000000000000D+00 -.137666053991100D+03
 0.132005595081668D+03 0.330494591641481D+02 0.249428245878248D+02 -.927717001048871D+01
 0.103515786960373D+03 -.226493441947868D+02 -.647425779422911D+01 0.429576302836322D+02
 0.189982509599504D+02 -.443646912474954D+01 -.875941224440208D+01 -.162641931363046D+02
 0.208124749802088D+02 -.596364584461180D+01 -.970915454919368D+01 -.174162671368389D+02
0.130270667924D-04 0.000000000000D+00 0.000000000000D+00 0.323686681436D-04 0.000000000000D+00  6 2 -2 25 23 21 21 2 0.72802472D-01 0.61614211D-02 0.15260171D+05 0.15260171D+05 0.15260171D+05 0.12469721D+01  1  2  2  3  6  5       21 0.180535684988D-01 0.100000000000D+01
0.176468686446D-05 0.687457201457D-06 -.500273665884D-07 0.323686681436D-04 0.000000000000D+00  6 2 -2 25 23 21 21 4 0.72802472D-01 0.61614211D-02 0.15260171D+05 0.15260171D+05 0.15260171D+05 0.12469721D+01  1  2  3  3  6  5       21 0.380274771498D-02 0.100000000000D+01
0.775318732221D-06 0.000000000000D+00 0.000000000000D+00 0.323686681436D-04 0.000000000000D+00  6 2 -2 25 23 21 21 4 0.72802472D-01 0.61614211D-02 0.15260171D+05 0.15260171D+05 0.15260171D+05 0.12469721D+01  1  2 15  3  6  5       21 0.167074487644D-02 0.100000000000D+01
0.273950990212D-11 0.000000000000D+00 0.000000000000D+00 0.323684635822D-04 0.000000000000D+00  6 2 -2 25 23 21 21 4 0.72802472D-01 0.61614211D-02 0.15261388D+05 0.15261388D+05 0.15261388D+05 0.12469681D+01  1  2 12  3  6  5       21 0.590334887339D-08 0.100000000000D+01
0.273760120106D-11 0.000000000000D+00 0.000000000000D+00 0.323684635822D-04 0.000000000000D+00  6 2 -2 25 23 21 21 4 0.72802472D-01 0.61614211D-02 0.15261388D+05 0.15261388D+05 0.15261388D+05 0.12469681D+01  1  2 12  3  6  5       21 0.589923582812D-08 0.100000000000D+01
-.642286359619D-02 0.000000000000D+00 0.000000000000D+00 0.323686681436D-04 0.000000000000D+00  6 2 -2 25 23 21 21 4 0.72802472D-01 0.61614211D-02 0.15260171D+05 0.15260171D+05 0.15260171D+05 0.12469721D+01  1  2  4  3  6  5       21 -.138407160816D+02 0.100000000000D+01
-.277502293837D-02 0.000000000000D+00 0.000000000000D+00 0.323686681436D-04 0.000000000000D+00  6 2 -2 25 23 21 21 4 0.72802472D-01 0.61614211D-02 0.15260171D+05 0.15260171D+05 0.15260171D+05 0.12469721D+01  1  2  5  3  6  5       21 -.597993465604D+01 0.100000000000D+01
0.679203730278D-02 0.000000000000D+00 -.000000000000D+00 0.323686681436D-04 0.000000000000D+00  6 2 -2 25 23 21 21 4 0.72802472D-01 0.61614211D-02 0.15260171D+05 0.15260171D+05 0.15260171D+05 0.12469721D+01  1  2  6  3  6  5       21 0.146362535208D+02 0.100000000000D+01
0.279829478951D-02 0.000000000000D+00 0.000000000000D+00 0.323686681436D-04 0.531305996663D-03  6 2 -2 25 23 21 21 4 0.72802472D-01 0.61614211D-02 0.15261388D+05 0.15261388D+05 0.15261388D+05 0.12469681D+01  1  2 11  3  6  5       21 0.603002397630D+01 0.100000000000D+01
0.133992194560D-12 0.000000000000D+00 0.000000000000D+00 0.323684635822D-04 0.000000000000D+00  6 2 -2 25 23 1 -1 4 0.72802472D-01 0.61614211D-02 0.15261388D+05 0.15261388D+05 0.15261388D+05 0.12469681D+01  1  2 12  6  6  5       21 0.288738752208D-09 0.100000000000D+01
0.133992194560D-12 0.000000000000D+00 0.000000000000D+00 0.323684635822D-04 0.000000000000D+00  6 2 -2 25 23 3 -3 4 0.72802472D-01 0.61614211D-02 0.15261388D+05 0.15261388D+05 0.15261388D+05 0.12469681D+01  1  2 12  6  6  5       21 0.288738752208D-09 0.100000000000D+01
0.133899231894D-12 0.000000000000D+00 0.000000000000D+00 0.323684635822D-04 0.000000000000D+00  6 2 -2 25 23 1 -1 4 0.72802472D-01 0.61614211D-02 0.15261388D+05 0.15261388D+05 0.15261388D+05 0.12469681D+01  1  2 12  6  6  5       21 0.288538427672D-09 0.100000000000D+01
0.133899231894D-12 0.000000000000D+00 0.000000000000D+00 0.323684635822D-04 0.000000000000D+00  6 2 -2 25 23 3 -3 4 0.72802472D-01 0.61614211D-02 0.15261388D+05 0.15261388D+05 0.15261388D+05 0.12469681D+01  1  2 12  6  6  5       21 0.288538427672D-09 0.100000000000D+01
-.134331972521D-03 0.000000000000D+00 0.000000000000D+00 0.323686681436D-04 0.000000000000D+00  6 2 -2 25 23 1 -1 4 0.72802472D-01 0.61614211D-02 0.15260171D+05 0.15260171D+05 0.15260171D+05 0.12469721D+01  1  2  5  6  6  5       21 -.289473793815D+00 0.100000000000D+01
-.134331972521D-03 0.000000000000D+00 0.000000000000D+00 0.323686681436D-04 0.000000000000D+00  6 2 -2 25 23 3 -3 4 0.72802472D-01 0.61614211D-02 0.15260171D+05 0.15260171D+05 0.15260171D+05 0.12469721D+01  1  2  5  6  6  5       21 -.289473793815D+00 0.100000000000D+01
0.134771136519D-03 0.000000000000D+00 0.000000000000D+00 0.323686681436D-04 0.232111808613D-04  6 2 -2 25 23 1 -1 4 0.72802472D-01 0.61614211D-02 0.15261388D+05 0.15261388D+05 0.15261388D+05 0.12469681D+01  1  2 11  6  6  5       21 0.290417288259D+00 0.100000000000D+01
0.134771136519D-03 0.000000000000D+00 0.000000000000D+00 0.323686681436D-04 0.232111808613D-04  6 2 -2 25 23 3 -3 4 0.72802472D-01 0.61614211D-02 0.15261388D+05 0.15261388D+05 0.15261388D+05 0.12469681D+01  1  2 11  6  6  5       21 0.290417288259D+00 0.100000000000D+01
0.133992194560D-12 0.000000000000D+00 0.000000000000D+00 0.323684635822D-04 0.000000000000D+00  6 2 -2 25 23 2 -2 4 0.72802472D-01 0.61614211D-02 0.15261388D+05 0.15261388D+05 0.15261388D+05 0.12469681D+01  1  2 12  7  6  5       21 0.288738752208D-09 0.100000000000D+01
0.133899231894D-12 0.000000000000D+00 0.000000000000D+00 0.323684635822D-04 0.000000000000D+00  6 2 -2 25 23 2 -2 4 0.72802472D-01 0.61614211D-02 0.15261388D+05 0.15261388D+05 0.15261388D+05 0.12469681D+01  1  2 12  7  6  5       21 0.288538427672D-09 0.100000000000D+01
-.134331972521D-03 0.000000000000D+00 0.000000000000D+00 0.323686681436D-04 0.000000000000D+00  6 2 -2 25 23 2 -2 4 0.72802472D-01 0.61614211D-02 0.15260171D+05 0.15260171D+05 0.15260171D+05 0.12469721D+01  1  2  5  7  6  5       21 -.289473793815D+00 0.100000000000D+01
0.134735413749D-03 0.000000000000D+00 0.000000000000D+00 0.323686681436D-04 0.232062248475D-04  6 2 -2 25 23 2 -2 4 0.72802472D-01 0.61614211D-02 0.15261388D+05 0.15261388D+05 0.15261388D+05 0.12469681D+01  1  2 11  7  6  5       21 0.290340309536D+00 0.100000000000D+01
0.133992194560D-12 0.000000000000D+00 0.000000000000D+00 0.323684635822D-04 0.000000000000D+00  6 2 -2 25 23 4 -4 4 0.72802472D-01 0.61614211D-02 0.15261388D+05 0.15261388D+05 0.15261388D+05 0.12469681D+01  1  2 12  8  6  5       21 0.288738752208D-09 0.100000000000D+01
0.133899231894D-12 0.000000000000D+00 0.000000000000D+00 0.323684635822D-04 0.000000000000D+00  6 2 -2 25 23 4 -4 4 0.72802472D-01 0.61614211D-02 0.15261388D+05 0.15261388D+05 0.15261388D+05 0.12469681D+01  1  2 12  8  6  5       21 0.288538427672D-09 0.100000000000D+01
-.134331972521D-03 0.000000000000D+00 0.000000000000D+00 0.323686681436D-04 0.000000000000D+00  6 2 -2 25 23 4 -4 4 0.72802472D-01 0.61614211D-02 0.15260171D+05 0.15260171D+05 0.15260171D+05 0.12469721D+01  1  2  5  8  6  5       21 -.289473793815D+00 0.100000000000D+01
0.134775170891D-03 0.000000000000D+00 0.000000000000D+00 0.323686681436D-04 0.232118756877D-04  6 2 -2 25 23 4 -4 4 0.72802472D-01 0.61614211D-02 0.15261388D+05 0.15261388D+05 0.15261388D+05 0.12469681D+01  1  2 11  8  6  5       21 0.290425981897D+00 0.100000000000D+01
  </mgrwgt>
  </event>
  <event>
  6     66 -.43206592E-03 0.11252183E+02 0.75467711E-02 0.12375089E+00
        2 -1    0    0  502    0 0.00000000E+00 0.00000000E+00 0.38599143E+03 0.38599157E+03 0.32000000E+00 0.0000E+00 0.9000E+01
       -2 -1    0    0    0  501 0.00000000E+00 0.00000000E+00 -.66040164E+02 0.66040939E+02 0.32000000E+00 0.0000E+00 0.9000E+01
       25  1    1    2    0    0 -.21175659E+02 0.11832151E+02 0.95981933E+02 0.15945513E+03 0.12500000E+03 0.0000E+00 0.9000E+01
       23  1    1    2    0    0 0.17695757E+02 0.66748136E+01 0.21656066E+03 0.23573601E+03 0.91188000E+02 0.0000E+00 0.9000E+01
       21  1    1    2  502  503 -.94283933E+01 -.15389435E+02 -.19649610E+02 0.26690803E+02 0.75000000E+00 0.0000E+00 0.9000E+01
       21  1    1    2  503  501 0.12908296E+02 -.31175304E+01 0.27058282E+02 0.30150559E+02 0.75000000E+00 0.0000E+00 0.9000E+01
#aMCatNLO 2  0  0  5  1 0.14841911D+02 0.00000000D+00  -5  6  0 0.00000000D+00 0.00000000D+00 0.00000000D+00 0.00000000D+00 0.00000000D+00
  <mgrwgt>
 -.2359481154D+00    2    2    0
 0.159659458428641D+03 0.000000000000000D+00 0.000000000000000D+00 0.159659458428641D+03
 0.159659458428641D+03 -.000000000000000D+00 -.000000000000000D+00 -.159659458428641D+03
 0.128698887565999D+03 -.218424608126896D+02 0.153783634948194D+02 -.149938821721707D+02
 0.121995807799628D+03 0.170793968630863D+02 0.995276356380685D+01 0.785936541771660D+02
 0.686242214916546D+02 0.476306394960336D+01 -.253311270586262D+02 -.635997720049953D+02
 0.000000000000000D+00 0.000000000000000D+00 0.000000000000000D+00 0.000000000000000D+00
 0.159659458428641D+03 0.000000000000000D+00 0.000000000000000D+00 0.159659458428641D+03
 0.159659458428641D+03 -.000000000000000D+00 -.000000000000000D+00 -.159659458428641D+03
 0.129573103405176D+03 -.211657217448700D+02 0.117793013168062D+02 -.240301770604192D+02
 0.116648443893651D+03 0.177047062039255D+02 0.662721712325072D+01 0.702440850908048D+02
 0.572825027786821D+02 -.970061565896139D+01 -.151935392290450D+02 -.543722313881113D+02
 0.158148667797722D+02 0.131616311999059D+02 -.321297921101198D+01 0.815832335772565D+01
-.191129915061D-03 0.000000000000D+00 0.000000000000D+00 0.208994082278D-04 0.000000000000D+00  6 2 -2 25 23 21 21 4 0.59383367D-01 0.10160095D-01 0.15879358D+05 0.15879358D+05 0.15879358D+05 0.12450118D+01  1  2 13  3  6  5       21 -.235936926859D+00 0.100000000000D+01
-.901570274394D-08 0.000000000000D+00 0.000000000000D+00 0.209674327425D-04 0.000000000000D+00  6 2 -2 25 23 21 21 4 0.59383367D-01 0.10160095D-01 0.15240341D+05 0.15240341D+05 0.15240341D+05 0.12470363D+01  1  2  8  3  6  5       21 -.111884944281D-04 0.100000000000D+01
  </mgrwgt>
  </event>
  <event>
  5     66 0.43206592E-03 0.21661797E+02 0.75467711E-02 0.11724804E+00
        2 -1    0    0  502    0 0.00000000E+00 0.00000000E+00 0.41229019E+03 0.41229032E+03 0.32000000E+00 0.0000E+00 0.9000E+01
       -2 -1    0    0    0  501 0.00000000E+00 0.00000000E+00 -.91559774E+02 0.91560333E+02 0.32000000E+00 0.0000E+00 0.9000E+01
       25  1    1    2    0    0 -.13153825E+03 -.16892815E+02 0.10453191E+03 0.21009426E+03 0.12500000E+03 0.0000E+00 0.9000E+01
       23  1    1    2    0    0 0.11182887E+03 0.25871808E+02 0.22646873E+03 0.26977469E+03 0.91188000E+02 0.0000E+00 0.9000E+01
       21  1    1    2  502  501 0.19709382E+02 -.89789935E+01 -.10270222E+02 0.23981702E+02 0.75000000E+00 0.0000E+00 0.9000E+01
#aMCatNLO 1  0  0  5  1 0.25069972D+01 0.00000000D+00  -5  6  0 0.00000000D+00 0.00000000D+00 0.00000000D+00 0.00000000D+00 0.00000000D+00
  <mgrwgt>
 0.3817230326D+00   20    2    0
 0.194291968591494D+03 0.000000000000000D+00 0.000000000000000D+00 0.194291968591494D+03
 0.194291968591494D+03 -.000000000000000D+00 -.000000000000000D+00 -.194291968591494D+03
 0.186136821998960D+03 -.131539942980472D+03 -.168920422179281D+02 -.378658000611938D+02
 0.162875516986852D+03 0.111827380894139D+03 0.258724845815309D+02 0.709819280779964D+02
 0.395715981971763D+02 0.197125620863328D+02 -.898044236360278D+01 -.331161280168025D+02
 0.000000000000000D+00 0.000000000000000D+00 0.000000000000000D+00 -.000000000000000D+00
 0.194291968591494D+03 0.000000000000000D+00 0.000000000000000D+00 0.194291968591494D+03
 0.194291968591494D+03 -.000000000000000D+00 -.000000000000000D+00 -.194291968591494D+03
 0.186006035440244D+03 -.131130296052059D+03 -.170786648707284D+02 -.385539866126734D+02
 0.162834825491605D+03 0.112185915899397D+03 0.257091469628108D+02 0.703796070260382D+02
 0.274393886239834D+01 0.272382071649837D+01 0.246773823014416D+00 0.221593919656648D+00
 0.369991373887397D+02 0.162205594361632D+02 -.887725591509682D+01 -.320472143330214D+02
0.495305759373D-03 0.000000000000D+00 0.000000000000D+00 0.191152212524D-04 0.000000000000D+00  6 2 -2 25 23 21 21 2 0.63429313D-01 0.14086172D-01 0.30712753D+05 0.30712753D+05 0.30712753D+05 0.12138296D+01  1  2  2  3  6  5       21 0.210299630593D+00 0.100000000000D+01
0.109044158784D-03 0.261380030232D-04 -.190210453299D-05 0.191152212524D-04 0.000000000000D+00  6 2 -2 25 23 21 21 4 0.63429313D-01 0.14086172D-01 0.30712753D+05 0.30712753D+05 0.30712753D+05 0.12138296D+01  1  2  3  3  6  5       21 0.682154862332D-01 0.100000000000D+01
-.500446924131D-05 0.000000000000D+00 0.000000000000D+00 0.191152212524D-04 0.000000000000D+00  6 2 -2 25 23 21 21 4 0.63429313D-01 0.14086172D-01 0.30712753D+05 0.30712753D+05 0.30712753D+05 0.12138296D+01  1  2 15  3  6  5       21 -.313067940953D-02 0.100000000000D+01
0.547919393189D-07 0.000000000000D+00 0.000000000000D+00 0.191190559438D-04 0.000000000000D+00  6 2 -2 25 23 21 21 4 0.63429313D-01 0.14086172D-01 0.30630618D+05 0.30630618D+05 0.30630618D+05 0.12139513D+01  1  2 12  3  6  5       21 0.342886635684D-04 0.100000000000D+01
0.356515428369D-07 0.000000000000D+00 0.000000000000D+00 0.191190559438D-04 0.000000000000D+00  6 2 -2 25 23 21 21 4 0.63429313D-01 0.14086172D-01 0.30630618D+05 0.30630618D+05 0.30630618D+05 0.12139513D+01  1  2 12  3  6  5       21 0.223106495814D-04 0.100000000000D+01
-.251925981827D-03 0.000000000000D+00 0.000000000000D+00 0.191152212524D-04 0.000000000000D+00  6 2 -2 25 23 21 21 4 0.63429313D-01 0.14086172D-01 0.30712753D+05 0.30712753D+05 0.30712753D+05 0.12138296D+01  1  2  4  3  6  5       21 -.157599027190D+00 0.100000000000D+01
-.131599693506D-04 0.000000000000D+00 0.000000000000D+00 0.191152212524D-04 0.000000000000D+00  6 2 -2 25 23 21 21 4 0.63429313D-01 0.14086172D-01 0.30712753D+05 0.30712753D+05 0.30712753D+05 0.12138296D+01  1  2  5  3  6  5       21 -.823257034647D-02 0.100000000000D+01
0.505401581040D-03 0.000000000000D+00 -.000000000000D+00 0.191152212524D-04 0.000000000000D+00  6 2 -2 25 23 21 21 4 0.63429313D-01 0.14086172D-01 0.30712753D+05 0.30712753D+05 0.30712753D+05 0.12138296D+01  1  2  6  3  6  5       21 0.316167458927D+00 0.100000000000D+01
0.545983189093D-07 0.000000000000D+00 0.000000000000D+00 0.191190559438D-04 0.000000000000D+00  6 2 -2 25 23 1 -1 4 0.63429313D-01 0.14086172D-01 0.30630618D+05 0.30630618D+05 0.30630618D+05 0.12139513D+01  1  2 12  6  6  5       21 0.341674963826D-04 0.100000000000D+01
0.545983189093D-07 0.000000000000D+00 0.000000000000D+00 0.191190559438D-04 0.000000000000D+00  6 2 -2 25 23 3 -3 4 0.63429313D-01 0.14086172D-01 0.30630618D+05 0.30630618D+05 0.30630618D+05 0.12139513D+01  1  2 12  6  6  5       21 0.341674963826D-04 0.100000000000D+01
0.496029300607D-07 0.000000000000D+00 0.000000000000D+00 0.191190559438D-04 0.000000000000D+00  6 2 -2 25 23 1 -1 4 0.63429313D-01 0.14086172D-01 0.30630618D+05 0.30630618D+05 0.30630618D+05 0.12139513D+01  1  2 12  6  6  5       21 0.310413940809D-04 0.100000000000D+01
0.496029300607D-07 0.000000000000D+00 0.000000000000D+00 0.191190559438D-04 0.000000000000D+00  6 2 -2 25 23 3 -3 4 0.63429313D-01 0.14086172D-01 0.30630618D+05 0.30630618D+05 0.30630618D+05 0.12139513D+01  1  2 12  6  6  5       21 0.310413940809D-04 0.100000000000D+01
-.177095391655D-04 0.000000000000D+00 0.000000000000D+00 0.191152212524D-04 0.000000000000D+00  6 2 -2 25 23 1 -1 4 0.63429313D-01 0.14086172D-01 0.30712753D+05 0.30712753D+05 0.30712753D+05 0.12138296D+01  1  2  5  6  6  5       21 -.110786752689D-01 0.100000000000D+01
-.177095391655D-04 0.000000000000D+00 0.000000000000D+00 0.191152212524D-04 0.000000000000D+00  6 2 -2 25 23 3 -3 4 0.63429313D-01 0.14086172D-01 0.30712753D+05 0.30712753D+05 0.30712753D+05 0.12138296D+01  1  2  5  6  6  5       21 -.110786752689D-01 0.100000000000D+01
0.545983189093D-07 0.000000000000D+00 0.000000000000D+00 0.191190559438D-04 0.000000000000D+00  6 2 -2 25 23 2 -2 4 0.63429313D-01 0.14086172D-01 0.30630618D+05 0.30630618D+05 0.30630618D+05 0.12139513D+01  1  2 12  7  6  5       21 0.341674963826D-04 0.100000000000D+01
0.496029300607D-07 0.000000000000D+00 0.000000000000D+00 0.191190559438D-04 0.000000000000D+00  6 2 -2 25 23 2 -2 4 0.63429313D-01 0.14086172D-01 0.30630618D+05 0.30630618D+05 0.30630618D+05 0.12139513D+01  1  2 12  7  6  5       21 0.310413940809D-04 0.100000000000D+01
-.177095391655D-04 0.000000000000D+00 0.000000000000D+00 0.191152212524D-04 0.000000000000D+00  6 2 -2 25 23 2 -2 4 0.63429313D-01 0.14086172D-01 0.30712753D+05 0.30712753D+05 0.30712753D+05 0.12138296D+01  1  2  5  7  6  5       21 -.110786752689D-01 0.100000000000D+01
0.545983189093D-07 0.000000000000D+00 0.000000000000D+00 0.191190559438D-04 0.000000000000D+00  6 2 -2 25 23 4 -4 4 0.63429313D-01 0.14086172D-01 0.30630618D+05 0.30630618D+05 0.30630618D+05 0.12139513D+01  1  2 12  8  6  5       21 0.341674963826D-04 0.100000000000D+01
0.496029300607D-07 0.000000000000D+00 0.000000000000D+00 0.191190559438D-04 0.000000000000D+00  6 2 -2 25 23 4 -4 4 0.63429313D-01 0.14086172D-01 0.30630618D+05 0.30630618D+05 0.30630618D+05 0.12139513D+01  1  2 12  8  6  5       21 0.310413940809D-04 0.100000000000D+01
-.177095391655D-04 0.000000000000D+00 0.000000000000D+00 0.191152212524D-04 0.000000000000D+00  6 2 -2 25 23 4 -4 4 0.63429313D-01 0.14086172D-01 0.30712753D+05 0.30712753D+05 0.30712753D+05 0.12138296D+01  1  2  5  8  6  5       21 -.110786752689D-01 0.100000000000D+01
  </mgrwgt>
  </event>
  <event>
  5     66 -.43206592E-03 0.20108044E+02 0.75467711E-02 0.11555734E+00
        2 -1    0    0  502    0 0.00000000E+00 0.00000000E+00 0.46240597E+03 0.46240608E+03 0.32000000E+00 0.0000E+00 0.9000E+01
       -2 -1    0    0    0  501 0.00000000E+00 0.00000000E+00 -.85057443E+02 0.85058045E+02 0.32000000E+00 0.0000E+00 0.9000E+01
       25  1    1    2    0    0 0.14161408E+03 -.54596466E+02 0.22296142E+03 0.29727448E+03 0.12500000E+03 0.0000E+00 0.9000E+01
       23  1    1    2    0    0 -.13890651E+03 0.34680578E+02 0.11226031E+03 0.20350771E+03 0.91188000E+02 0.0000E+00 0.9000E+01
       21  1    1    2  502  501 -.27075685E+01 0.19915888E+02 0.42126795E+02 0.46681933E+02 0.75000000E+00 0.0000E+00 0.9000E+01
#aMCatNLO 1  0  0  5  1 0.12937005D+01 0.00000000D+00  -5  6  0 0.00000000D+00 0.00000000D+00 0.00000000D+00 0.00000000D+00 0.00000000D+00
  <mgrwgt>
 -.4795154905D+00   18    2    0
 0.198321114293767D+03 0.000000000000000D+00 0.000000000000000D+00 0.198321114293767D+03
 0.198321114293767D+03 -.000000000000000D+00 -.000000000000000D+00 -.198321114293767D+03
 0.198197465134184D+03 0.141614717396714D+03 -.546011884180101D+02 0.249242296893180D+02
 0.174090527436252D+03 -.138905943063030D+03 0.346764305611112D+02 -.386645127260550D+02
 0.243542360170983D+02 -.270877433368398D+01 0.199247578568990D+02 0.137402830367371D+02
 0.000000000000000D+00 0.000000000000000D+00 0.000000000000000D+00 0.000000000000000D+00
 0.198321114293767D+03 0.000000000000000D+00 0.000000000000000D+00 0.198321114293767D+03
 0.198321114293767D+03 -.000000000000000D+00 -.000000000000000D+00 -.198321114293767D+03
 0.198098429730851D+03 0.141567420197737D+03 -.542532874410992D+02 0.251641451716464D+02
 0.174138153768674D+03 -.138947503526910D+03 0.349821342031357D+02 -.384536968859356D+02
 0.229704887293212D+02 -.347510064386323D+01 0.191882064782345D+02 0.121400065950368D+02
 0.143515635868862D+01 0.855183973035948D+00 0.829467597290692D-01 0.114954511925252D+01
0.936201050359D-04 0.000000000000D+00 0.000000000000D+00 0.220872740656D-04 0.000000000000D+00  6 2 -2 25 23 21 21 2 0.71139435D-01 0.13085815D-01 0.37340682D+05 0.37340682D+05 0.37340682D+05 0.12050462D+01  1  2  2  3  6  5       21 0.391117337038D-01 0.100000000000D+01
0.318714573870D-04 0.494046867446D-05 -.359525854078D-06 0.220872740656D-04 0.000000000000D+00  6 2 -2 25 23 21 21 4 0.71139435D-01 0.13085815D-01 0.37340682D+05 0.37340682D+05 0.37340682D+05 0.12050462D+01  1  2  3  3  6  5       21 0.193351376255D-01 0.100000000000D+01
-.117284955490D-05 0.000000000000D+00 0.000000000000D+00 0.220872740656D-04 0.000000000000D+00  6 2 -2 25 23 21 21 4 0.71139435D-01 0.13085815D-01 0.37340682D+05 0.37340682D+05 0.37340682D+05 0.12050462D+01  1  2 15  3  6  5       21 -.711520884740D-03 0.100000000000D+01
-.990245509704D-03 0.000000000000D+00 0.000000000000D+00 0.220872740656D-04 0.000000000000D+00  6 2 -2 25 23 21 21 4 0.71139435D-01 0.13085815D-01 0.37340682D+05 0.37340682D+05 0.37340682D+05 0.12050462D+01  1  2  4  3  6  5       21 -.600742318767D+00 0.100000000000D+01
-.826878686246D-03 0.000000000000D+00 0.000000000000D+00 0.220872740656D-04 0.000000000000D+00  6 2 -2 25 23 21 21 4 0.71139435D-01 0.13085815D-01 0.37340682D+05 0.37340682D+05 0.37340682D+05 0.12050462D+01  1  2  5  3  6  5       21 -.501634205302D+00 0.100000000000D+01
0.946553841104D-03 0.000000000000D+00 -.000000000000D+00 0.220872740656D-04 0.000000000000D+00  6 2 -2 25 23 21 21 4 0.71139435D-01 0.13085815D-01 0.37340682D+05 0.37340682D+05 0.37340682D+05 0.12050462D+01  1  2  6  3  6  5       21 0.574236332071D+00 0.100000000000D+01
0.138409417694D-09 0.000000000000D+00 0.000000000000D+00 0.220854381333D-04 0.000000000000D+00  6 2 -2 25 23 1 -1 4 0.71139435D-01 0.13085815D-01 0.37382784D+05 0.37382784D+05 0.37382784D+05 0.12049961D+01  1  2 12  6  6  5       21 0.839549836253D-07 0.100000000000D+01
0.138409417694D-09 0.000000000000D+00 0.000000000000D+00 0.220854381333D-04 0.000000000000D+00  6 2 -2 25 23 3 -3 4 0.71139435D-01 0.13085815D-01 0.37382784D+05 0.37382784D+05 0.37382784D+05 0.12049961D+01  1  2 12  6  6  5       21 0.839549836253D-07 0.100000000000D+01
0.140287121898D-09 0.000000000000D+00 0.000000000000D+00 0.220854381333D-04 0.000000000000D+00  6 2 -2 25 23 1 -1 4 0.71139435D-01 0.13085815D-01 0.37382784D+05 0.37382784D+05 0.37382784D+05 0.12049961D+01  1  2 12  6  6  5       21 0.850939424353D-07 0.100000000000D+01
0.140287121898D-09 0.000000000000D+00 0.000000000000D+00 0.220854381333D-04 0.000000000000D+00  6 2 -2 25 23 3 -3 4 0.71139435D-01 0.13085815D-01 0.37382784D+05 0.37382784D+05 0.37382784D+05 0.12049961D+01  1  2 12  6  6  5       21 0.850939424353D-07 0.100000000000D+01
-.375470836013D-05 0.000000000000D+00 0.000000000000D+00 0.220872740656D-04 0.000000000000D+00  6 2 -2 25 23 1 -1 4 0.71139435D-01 0.13085815D-01 0.37340682D+05 0.37340682D+05 0.37340682D+05 0.12050462D+01  1  2  5  6  6  5       21 -.227783128977D-02 0.100000000000D+01
-.375470836013D-05 0.000000000000D+00 0.000000000000D+00 0.220872740656D-04 0.000000000000D+00  6 2 -2 25 23 3 -3 4 0.71139435D-01 0.13085815D-01 0.37340682D+05 0.37340682D+05 0.37340682D+05 0.12050462D+01  1  2  5  6  6  5       21 -.227783128977D-02 0.100000000000D+01
0.138409417694D-09 0.000000000000D+00 0.000000000000D+00 0.220854381333D-04 0.000000000000D+00  6 2 -2 25 23 2 -2 4 0.71139435D-01 0.13085815D-01 0.37382784D+05 0.37382784D+05 0.37382784D+05 0.12049961D+01  1  2 12  7  6  5       21 0.839549836253D-07 0.100000000000D+01
0.140287121898D-09 0.000000000000D+00 0.000000000000D+00 0.220854381333D-04 0.000000000000D+00  6 2 -2 25 23 2 -2 4 0.71139435D-01 0.13085815D-01 0.37382784D+05 0.37382784D+05 0.37382784D+05 0.12049961D+01  1  2 12  7  6  5       21 0.850939424353D-07 0.100000000000D+01
-.375470836013D-05 0.000000000000D+00 0.000000000000D+00 0.220872740656D-04 0.000000000000D+00  6 2 -2 25 23 2 -2 4 0.71139435D-01 0.13085815D-01 0.37340682D+05 0.37340682D+05 0.37340682D+05 0.12050462D+01  1  2  5  7  6  5       21 -.227783128977D-02 0.100000000000D+01
0.138409417694D-09 0.000000000000D+00 0.000000000000D+00 0.220854381333D-04 0.000000000000D+00  6 2 -2 25 23 4 -4 4 0.71139435D-01 0.13085815D-01 0.37382784D+05 0.37382784D+05 0.37382784D+05 0.12049961D+01  1  2 12  8  6  5       21 0.839549836253D-07 0.100000000000D+01
0.140287121898D-09 0.000000000000D+00 0.000000000000D+00 0.220854381333D-04 0.000000000000D+00  6 2 -2 25 23 4 -4 4 0.71139435D-01 0.13085815D-01 0.37382784D+05 0.37382784D+05 0.37382784D+05 0.12049961D+01  1  2 12  8  6  5       21 0.850939424353D-07 0.100000000000D+01
-.375470836013D-05 0.000000000000D+00 0.000000000000D+00 0.220872740656D-04 0.000000000000D+00  6 2 -2 25 23 4 -4 4 0.71139435D-01 0.13085815D-01 0.37340682D+05 0.37340682D+05 0.37340682D+05 0.12050462D+01  1  2  5  8  6  5       21 -.227783128977D-02 0.100000000000D+01
  </mgrwgt>
  </event>
  <event>
  5     66 0.43206592E-03 0.53397609E+02 0.75467711E-02 0.12071479E+00
        2 -1    0    0  502    0 0.00000000E+00 0.00000000E+00 0.47956615E+03 0.47956626E+03 0.32000000E+00 0.0000E+00 0.9000E+01
       -2 -1    0    0    0  501 0.00000000E+00 0.00000000E+00 -.55123468E+02 0.55124396E+02 0.32000000E+00 0.0000E+00 0.9000E+01
       25  1    1    2    0    0 0.51122880E+02 -.43100440E+02 0.30024135E+03 0.33202570E+03 0.12500000E+03 0.0000E+00 0.9000E+01
       23  1    1    2    0    0 -.13168677E+02 0.17496246E+01 0.11232627E+03 0.14528908E+03 0.91188000E+02 0.0000E+00 0.9000E+01
       21  1    1    2  502  501 -.37954203E+02 0.41350815E+02 0.11875069E+02 0.57375876E+02 0.75000000E+00 0.0000E+00 0.9000E+01
#aMCatNLO 1  0  0  5  1 0.72420657D+01 0.00000000D+00  -5  6  0 0.00000000D+00 0.00000000D+00 0.00000000D+00 0.00000000D+00 0.00000000D+00
  <mgrwgt>
 0.6340379659D-01   25    2    0
 0.162590362239831D+03 0.000000000000000D+00 0.000000000000000D+00 0.162590362239831D+03
 0.162590362239831D+03 -.000000000000000D+00 -.000000000000000D+00 -.162590362239831D+03
 0.154056220248790D+03 0.511236936554761D+02 -.431013259304146D+02 0.603072354482014D+02
 0.922828771101462D+02 -.131681894548608D+02 0.174909363734553D+01 -.494140887349279D+01
 0.788416271207258D+02 -.379555042006153D+02 0.413522322930690D+02 -.553658265747086D+02
 0.000000000000000D+00 0.000000000000000D+00 0.000000000000000D+00 0.000000000000000D+00
 0.162590362239831D+03 0.000000000000000D+00 0.000000000000000D+00 0.162590362239831D+03
 0.162590362239831D+03 -.000000000000000D+00 -.000000000000000D+00 -.162590362239831D+03
 0.153213625115801D+03 0.504222057917910D+02 -.423370602540438D+02 0.592839726508013D+02
 0.923887677713141D+02 -.135897892948888D+02 0.220842344699334D+01 -.555639803299742D+01
 0.684707194105350D+02 -.338337671565890D+02 0.296427736133614D+02 -.516219099714156D+02
 0.111076121820117D+02 -.299864934031323D+01 0.104858631936891D+02 -.210566464638829D+01
0.232526079366D-04 0.000000000000D+00 0.000000000000D+00 0.495221567385D-05 0.000000000000D+00  6 2 -2 25 23 21 21 2 0.73779487D-01 0.84806131D-02 0.21031171D+05 0.21031171D+05 0.21031171D+05 0.12314296D+01  1  2  2  3  6  5       21 0.191624730537D-01 0.100000000000D+01
-.392224670347D-06 0.122707383276D-05 -.892961370288D-07 0.495221567385D-05 0.000000000000D+00  6 2 -2 25 23 21 21 4 0.73779487D-01 0.84806131D-02 0.21031171D+05 0.21031171D+05 0.21031171D+05 0.12314296D+01  1  2  3  3  6  5       21 -.490155596435D-03 0.100000000000D+01
0.100642639030D-05 0.000000000000D+00 0.000000000000D+00 0.495221567385D-05 0.000000000000D+00  6 2 -2 25 23 21 21 4 0.73779487D-01 0.84806131D-02 0.21031171D+05 0.21031171D+05 0.21031171D+05 0.12314296D+01  1  2 15  3  6  5       21 0.125771162526D-02 0.100000000000D+01
0.708575388153D-04 0.000000000000D+00 0.000000000000D+00 0.495393982646D-05 0.000000000000D+00  6 2 -2 25 23 21 21 4 0.73779487D-01 0.84806131D-02 0.20936556D+05 0.20936556D+05 0.20936556D+05 0.12316439D+01  1  2 12  3  6  5       21 0.886004586430D-01 0.100000000000D+01
0.573984732312D-04 0.000000000000D+00 0.000000000000D+00 0.495393982646D-05 0.000000000000D+00  6 2 -2 25 23 21 21 4 0.73779487D-01 0.84806131D-02 0.20936556D+05 0.20936556D+05 0.20936556D+05 0.12316439D+01  1  2 12  3  6  5       21 0.717712065465D-01 0.100000000000D+01
-.119739926735D-03 0.000000000000D+00 0.000000000000D+00 0.495221567385D-05 0.000000000000D+00  6 2 -2 25 23 21 21 4 0.73779487D-01 0.84806131D-02 0.21031171D+05 0.21031171D+05 0.21031171D+05 0.12314296D+01  1  2  4  3  6  5       21 -.149636674189D+00 0.100000000000D+01
-.156908132946D-03 0.000000000000D+00 0.000000000000D+00 0.495221567385D-05 0.000000000000D+00  6 2 -2 25 23 21 21 4 0.73779487D-01 0.84806131D-02 0.21031171D+05 0.21031171D+05 0.21031171D+05 0.12314296D+01  1  2  5  3  6  5       21 -.196085063751D+00 0.100000000000D+01
0.179115035773D-03 0.000000000000D+00 -.000000000000D+00 0.495221567385D-05 0.000000000000D+00  6 2 -2 25 23 21 21 4 0.73779487D-01 0.84806131D-02 0.21031171D+05 0.21031171D+05 0.21031171D+05 0.12314296D+01  1  2  6  3  6  5       21 0.223836601384D+00 0.100000000000D+01
0.381024274065D-05 0.000000000000D+00 0.000000000000D+00 0.495221567385D-05 0.599636016349D-06  6 2 -2 25 23 21 21 4 0.73779487D-01 0.84806131D-02 0.20936556D+05 0.20936556D+05 0.20936556D+05 0.12316439D+01  1  2 11  3  6  5       21 0.476433785320D-02 0.100000000000D+01
0.812994436186D-06 0.000000000000D+00 0.000000000000D+00 0.495393982646D-05 0.000000000000D+00  6 2 -2 25 23 1 -1 4 0.73779487D-01 0.84806131D-02 0.20936556D+05 0.20936556D+05 0.20936556D+05 0.12316439D+01  1  2 12  6  6  5       21 0.101657044719D-02 0.100000000000D+01
0.812994436186D-06 0.000000000000D+00 0.000000000000D+00 0.495393982646D-05 0.000000000000D+00  6 2 -2 25 23 3 -3 4 0.73779487D-01 0.84806131D-02 0.20936556D+05 0.20936556D+05 0.20936556D+05 0.12316439D+01  1  2 12  6  6  5       21 0.101657044719D-02 0.100000000000D+01
0.739865928573D-06 0.000000000000D+00 0.000000000000D+00 0.495393982646D-05 0.000000000000D+00  6 2 -2 25 23 1 -1 4 0.73779487D-01 0.84806131D-02 0.20936556D+05 0.20936556D+05 0.20936556D+05 0.12316439D+01  1  2 12  6  6  5       21 0.925130363006D-03 0.100000000000D+01
0.739865928573D-06 0.000000000000D+00 0.000000000000D+00 0.495393982646D-05 0.000000000000D+00  6 2 -2 25 23 3 -3 4 0.73779487D-01 0.84806131D-02 0.20936556D+05 0.20936556D+05 0.20936556D+05 0.12316439D+01  1  2 12  6  6  5       21 0.925130363006D-03 0.100000000000D+01
-.154434565837D-05 0.000000000000D+00 0.000000000000D+00 0.495221567385D-05 0.000000000000D+00  6 2 -2 25 23 1 -1 4 0.73779487D-01 0.84806131D-02 0.21031171D+05 0.21031171D+05 0.21031171D+05 0.12314296D+01  1  2  5  6  6  5       21 -.192993894701D-02 0.100000000000D+01
-.154434565837D-05 0.000000000000D+00 0.000000000000D+00 0.495221567385D-05 0.000000000000D+00  6 2 -2 25 23 3 -3 4 0.73779487D-01 0.84806131D-02 0.21031171D+05 0.21031171D+05 0.21031171D+05 0.12314296D+01  1  2  5  6  6  5       21 -.192993894701D-02 0.100000000000D+01
0.351177488535D-07 0.000000000000D+00 0.000000000000D+00 0.495221567385D-05 0.955402226515D-08  6 2 -2 25 23 1 -1 4 0.73779487D-01 0.84806131D-02 0.20936556D+05 0.20936556D+05 0.20936556D+05 0.12316439D+01  1  2 11  6  6  5       21 0.439113283773D-04 0.100000000000D+01
0.351177488535D-07 0.000000000000D+00 0.000000000000D+00 0.495221567385D-05 0.955402226515D-08  6 2 -2 25 23 3 -3 4 0.73779487D-01 0.84806131D-02 0.20936556D+05 0.20936556D+05 0.20936556D+05 0.12316439D+01  1  2 11  6  6  5       21 0.439113283773D-04 0.100000000000D+01
0.812994436186D-06 0.000000000000D+00 0.000000000000D+00 0.495393982646D-05 0.000000000000D+00  6 2 -2 25 23 2 -2 4 0.73779487D-01 0.84806131D-02 0.20936556D+05 0.20936556D+05 0.20936556D+05 0.12316439D+01  1  2 12  7  6  5       21 0.101657044719D-02 0.100000000000D+01
0.739865928573D-06 0.000000000000D+00 0.000000000000D+00 0.495393982646D-05 0.000000000000D+00  6 2 -2 25 23 2 -2 4 0.73779487D-01 0.84806131D-02 0.20936556D+05 0.20936556D+05 0.20936556D+05 0.12316439D+01  1  2 12  7  6  5       21 0.925130363006D-03 0.100000000000D+01
-.154434565837D-05 0.000000000000D+00 0.000000000000D+00 0.495221567385D-05 0.000000000000D+00  6 2 -2 25 23 2 -2 4 0.73779487D-01 0.84806131D-02 0.21031171D+05 0.21031171D+05 0.21031171D+05 0.12314296D+01  1  2  5  7  6  5       21 -.192993894701D-02 0.100000000000D+01
0.353829932401D-07 0.000000000000D+00 0.000000000000D+00 0.495221567385D-05 0.102766982846D-07  6 2 -2 25 23 2 -2 4 0.73779487D-01 0.84806131D-02 0.20936556D+05 0.20936556D+05 0.20936556D+05 0.12316439D+01  1  2 11  7  6  5       21 0.442429906775D-04 0.100000000000D+01
0.812994436186D-06 0.000000000000D+00 0.000000000000D+00 0.495393982646D-05 0.000000000000D+00  6 2 -2 25 23 4 -4 4 0.73779487D-01 0.84806131D-02 0.20936556D+05 0.20936556D+05 0.20936556D+05 0.12316439D+01  1  2 12  8  6  5       21 0.101657044719D-02 0.100000000000D+01
0.739865928573D-06 0.000000000000D+00 0.000000000000D+00 0.495393982646D-05 0.000000000000D+00  6 2 -2 25 23 4 -4 4 0.73779487D-01 0.84806131D-02 0.20936556D+05 0.20936556D+05 0.20936556D+05 0.12316439D+01  1  2 12  8  6  5       21 0.925130363006D-03 0.100000000000D+01
-.154434565837D-05 0.000000000000D+00 0.000000000000D+00 0.495221567385D-05 0.000000000000D+00  6 2 -2 25 23 4 -4 4 0.73779487D-01 0.84806131D-02 0.21031171D+05 0.21031171D+05 0.21031171D+05 0.12314296D+01  1  2  5  8  6  5       21 -.192993894701D-02 0.100000000000D+01
0.350190512511D-07 0.000000000000D+00 0.000000000000D+00 0.495221567385D-05 0.952717091158D-08  6 2 -2 25 23 4 -4 4 0.73779487D-01 0.84806131D-02 0.20936556D+05 0.20936556D+05 0.20936556D+05 0.12316439D+01  1  2 11  8  6  5       21 0.437879166277D-04 0.100000000000D+01
  </mgrwgt>
  </event>
  <event>
  5     66 0.43206592E-03 0.27958883E+02 0.75467711E-02 0.12206741E+00
        2 -1    0    0  502    0 0.00000000E+00 0.00000000E+00 0.16273877E+04 0.16273877E+04 0.32000000E+00 0.0000E+00 0.9000E+01
       -2 -1    0    0    0  501 0.00000000E+00 0.00000000E+00 -.46793719E+03 0.46793730E+03 0.32000000E+00 0.0000E+00 0.9000E+01
       25  1    1    2    0    0 -.52643565E+02 0.19067693E+02 0.15956530E+04 0.16015206E+04 0.12500000E+03 0.0000E+00 0.9000E+01
       23  1    1    2    0    0 0.49415853E+02 0.87042433E+01 -.67523293E+02 0.12406586E+03 0.91188000E+02 0.0000E+00 0.9000E+01
       21  1    1    2  502  501 0.32277122E+01 -.27771937E+02 -.36867917E+03 0.36973855E+03 0.75000000E+00 0.0000E+00 0.9000E+01
#aMCatNLO 1  0  0  5  1 0.24914814D+01 0.00000000D+00  -5  6  0 0.00000000D+00 0.00000000D+00 0.00000000D+00 0.00000000D+00 0.00000000D+00
  <mgrwgt>
 0.5170535206D+01   25    2    0
 0.872648482968926D+03 0.000000000000000D+00 0.000000000000000D+00 0.872648482968926D+03
 0.872648482968926D+03 -.000000000000000D+00 -.000000000000000D+00 -.872648482968926D+03
 0.862676088178569D+03 -.526435657678204D+02 0.190677014410240D+02 0.851733591482738D+03
 0.193805495167138D+03 0.494158524166856D+02 0.870424512523791D+01 -.163485865626701D+03
 0.688815382592145D+03 0.322771335113493D+01 -.277719465662629D+02 -.688247725856037D+03
 0.000000000000000D+00 0.000000000000000D+00 -.000000000000000D+00 0.000000000000000D+00
 0.872648482968926D+03 0.000000000000000D+00 0.000000000000000D+00 0.872648482968926D+03
 0.872648482968926D+03 -.000000000000000D+00 -.000000000000000D+00 -.872648482968926D+03
 0.862664509462748D+03 -.526435108343888D+02 0.190672287818494D+02 0.851721877986127D+03
 0.193807713403948D+03 0.494158647579727D+02 0.870413893812363D+01 -.163488497168561D+03
 0.513155438447246D+03 0.427840855161031D+01 -.190483720451490D+02 -.512783929887317D+03
 0.175669304623910D+03 -.105076247519415D+01 -.872299567482512D+01 -.175449450930249D+03
0.114250760915D-02 0.000000000000D+00 0.000000000000D+00 0.290743305594D-05 0.000000000000D+00  6 2 -2 25 23 21 21 2 0.25036735D+00 0.71990348D-01 0.18091214D+05 0.18091214D+05 0.18091214D+05 0.12386509D+01  1  2  2  3  6  5       21 0.400673322013D-02 0.100000000000D+01
0.426680635674D-03 0.602917829579D-04 -.438753004829D-05 0.290743305594D-05 0.000000000000D+00  6 2 -2 25 23 21 21 4 0.25036735D+00 0.71990348D-01 0.18091214D+05 0.18091214D+05 0.18091214D+05 0.12386509D+01  1  2  3  3  6  5       21 0.229578968087D-02 0.100000000000D+01
0.240380623866D-04 0.000000000000D+00 0.000000000000D+00 0.290743305594D-05 0.000000000000D+00  6 2 -2 25 23 21 21 4 0.25036735D+00 0.71990348D-01 0.18091214D+05 0.18091214D+05 0.18091214D+05 0.12386509D+01  1  2 15  3  6  5       21 0.129338739472D-03 0.100000000000D+01
0.164092517747D-01 0.000000000000D+00 0.000000000000D+00 0.290684236425D-05 0.000000000000D+00  6 2 -2 25 23 21 21 4 0.25036735D+00 0.71990348D-01 0.18138324D+05 0.18138324D+05 0.18138324D+05 0.12385251D+01  1  2 12  3  6  5       21 0.882439905465D-01 0.100000000000D+01
0.153835137730D-01 0.000000000000D+00 0.000000000000D+00 0.290684236425D-05 0.000000000000D+00  6 2 -2 25 23 21 21 4 0.25036735D+00 0.71990348D-01 0.18138324D+05 0.18138324D+05 0.18138324D+05 0.12385251D+01  1  2 12  3  6  5       21 0.827278819650D-01 0.100000000000D+01
-.635232484995D+01 0.000000000000D+00 0.000000000000D+00 0.290743305594D-05 0.000000000000D+00  6 2 -2 25 23 21 21 4 0.25036735D+00 0.71990348D-01 0.18091214D+05 0.18091214D+05 0.18091214D+05 0.12386509D+01  1  2  4  3  6  5       21 -.341791977904D+02 0.100000000000D+01
-.662631327982D+01 0.000000000000D+00 0.000000000000D+00 0.290743305594D-05 0.000000000000D+00  6 2 -2 25 23 21 21 4 0.25036735D+00 0.71990348D-01 0.18091214D+05 0.18091214D+05 0.18091214D+05 0.12386509D+01  1  2  5  3  6  5       21 -.356534147043D+02 0.100000000000D+01
0.841376615144D+01 0.000000000000D+00 -.000000000000D+00 0.290743305594D-05 0.000000000000D+00  6 2 -2 25 23 21 21 4 0.25036735D+00 0.71990348D-01 0.18091214D+05 0.18091214D+05 0.18091214D+05 0.12386509D+01  1  2  6  3  6  5       21 0.452709494941D+02 0.100000000000D+01
0.551415346501D+01 0.000000000000D+00 0.000000000000D+00 0.290743305594D-05 0.243452247254D-05  6 2 -2 25 23 21 21 4 0.25036735D+00 0.71990348D-01 0.18138324D+05 0.18138324D+05 0.18138324D+05 0.12385251D+01  1  2 11  3  6  5       21 0.296534487323D+02 0.100000000000D+01
0.275174140818D-03 0.000000000000D+00 0.000000000000D+00 0.290684236425D-05 0.000000000000D+00  6 2 -2 25 23 1 -1 4 0.25036735D+00 0.71990348D-01 0.18138324D+05 0.18138324D+05 0.18138324D+05 0.12385251D+01  1  2 12  6  6  5       21 0.147980326064D-02 0.100000000000D+01
0.275174140818D-03 0.000000000000D+00 0.000000000000D+00 0.290684236425D-05 0.000000000000D+00  6 2 -2 25 23 3 -3 4 0.25036735D+00 0.71990348D-01 0.18138324D+05 0.18138324D+05 0.18138324D+05 0.12385251D+01  1  2 12  6  6  5       21 0.147980326064D-02 0.100000000000D+01
0.262624490592D-03 0.000000000000D+00 0.000000000000D+00 0.290684236425D-05 0.000000000000D+00  6 2 -2 25 23 1 -1 4 0.25036735D+00 0.71990348D-01 0.18138324D+05 0.18138324D+05 0.18138324D+05 0.12385251D+01  1  2 12  6  6  5       21 0.141231503930D-02 0.100000000000D+01
0.262624490592D-03 0.000000000000D+00 0.000000000000D+00 0.290684236425D-05 0.000000000000D+00  6 2 -2 25 23 3 -3 4 0.25036735D+00 0.71990348D-01 0.18138324D+05 0.18138324D+05 0.18138324D+05 0.12385251D+01  1  2 12  6  6  5       21 0.141231503930D-02 0.100000000000D+01
-.118773334830D+00 0.000000000000D+00 0.000000000000D+00 0.290743305594D-05 0.000000000000D+00  6 2 -2 25 23 1 -1 4 0.25036735D+00 0.71990348D-01 0.18091214D+05 0.18091214D+05 0.18091214D+05 0.12386509D+01  1  2  5  6  6  5       21 -.639069537417D+00 0.100000000000D+01
-.118773334830D+00 0.000000000000D+00 0.000000000000D+00 0.290743305594D-05 0.000000000000D+00  6 2 -2 25 23 3 -3 4 0.25036735D+00 0.71990348D-01 0.18091214D+05 0.18091214D+05 0.18091214D+05 0.12386509D+01  1  2  5  6  6  5       21 -.639069537417D+00 0.100000000000D+01
0.112029322256D+00 0.000000000000D+00 0.000000000000D+00 0.290743305594D-05 0.859209564653D-07  6 2 -2 25 23 1 -1 4 0.25036735D+00 0.71990348D-01 0.18138324D+05 0.18138324D+05 0.18138324D+05 0.12385251D+01  1  2 11  6  6  5       21 0.602459794622D+00 0.100000000000D+01
0.112029322256D+00 0.000000000000D+00 0.000000000000D+00 0.290743305594D-05 0.859209564653D-07  6 2 -2 25 23 3 -3 4 0.25036735D+00 0.71990348D-01 0.18138324D+05 0.18138324D+05 0.18138324D+05 0.12385251D+01  1  2 11  6  6  5       21 0.602459794622D+00 0.100000000000D+01
0.275174140818D-03 0.000000000000D+00 0.000000000000D+00 0.290684236425D-05 0.000000000000D+00  6 2 -2 25 23 2 -2 4 0.25036735D+00 0.71990348D-01 0.18138324D+05 0.18138324D+05 0.18138324D+05 0.12385251D+01  1  2 12  7  6  5       21 0.147980326064D-02 0.100000000000D+01
0.262624490592D-03 0.000000000000D+00 0.000000000000D+00 0.290684236425D-05 0.000000000000D+00  6 2 -2 25 23 2 -2 4 0.25036735D+00 0.71990348D-01 0.18138324D+05 0.18138324D+05 0.18138324D+05 0.12385251D+01  1  2 12  7  6  5       21 0.141231503930D-02 0.100000000000D+01
-.118773334830D+00 0.000000000000D+00 0.000000000000D+00 0.290743305594D-05 0.000000000000D+00  6 2 -2 25 23 2 -2 4 0.25036735D+00 0.71990348D-01 0.18091214D+05 0.18091214D+05 0.18091214D+05 0.12386509D+01  1  2  5  7  6  5       21 -.639069537417D+00 0.100000000000D+01
0.118769267884D+00 0.000000000000D+00 0.000000000000D+00 0.290743305594D-05 0.933535773672D-07  6 2 -2 25 23 2 -2 4 0.25036735D+00 0.71990348D-01 0.18138324D+05 0.18138324D+05 0.18138324D+05 0.12385251D+01  1  2 11  7  6  5       21 0.638705182675D+00 0.100000000000D+01
0.275174140818D-03 0.000000000000D+00 0.000000000000D+00 0.290684236425D-05 0.000000000000D+00  6 2 -2 25 23 4 -4 4 0.25036735D+00 0.71990348D-01 0.18138324D+05 0.18138324D+05 0.18138324D+05 0.12385251D+01  1  2 12  8  6  5       21 0.147980326064D-02 0.100000000000D+01
0.262624490592D-03 0.000000000000D+00 0.000000000000D+00 0.290684236425D-05 0.000000000000D+00  6 2 -2 25 23 4 -4 4 0.25036735D+00 0.71990348D-01 0.18138324D+05 0.18138324D+05 0.18138324D+05 0.12385251D+01  1  2 12  8  6  5       21 0.141231503930D-02 0.100000000000D+01
-.118773334830D+00 0.000000000000D+00 0.000000000000D+00 0.290743305594D-05 0.000000000000D+00  6 2 -2 25 23 4 -4 4 0.25036735D+00 0.71990348D-01 0.18091214D+05 0.18091214D+05 0.18091214D+05 0.12386509D+01  1  2  5  8  6  5       21 -.639069537417D+00 0.100000000000D+01
0.112023901661D+00 0.000000000000D+00 0.000000000000D+00 0.290743305594D-05 0.859167991367D-07  6 2 -2 25 23 4 -4 4 0.25036735D+00 0.71990348D-01 0.18138324D+05 0.18138324D+05 0.18138324D+05 0.12385251D+01  1  2 11  8  6  5       21 0.602430644302D+00 0.100000000000D+01
  </mgrwgt>
  </event>
  <event>
  5     66 0.43206592E-03 0.31379517E+02 0.75467711E-02 0.11062845E+00
        2 -1    0    0  502    0 0.00000000E+00 0.00000000E+00 0.13631412E+04 0.13631412E+04 0.32000000E+00 0.0000E+00 0.9000E+01
       -2 -1    0    0    0  501 0.00000000E+00 0.00000000E+00 -.60888197E+02 0.60889038E+02 0.32000000E+00 0.0000E+00 0.9000E+01
       25  1    1    2    0    0 0.17874287E+03 0.10787646E+03 0.83624727E+03 0.87093102E+03 0.12500000E+03 0.0000E+00 0.9000E+01
       23  1    1    2    0    0 -.15511025E+03 -.87233328E+02 0.47905067E+03 0.51910850E+03 0.91188000E+02 0.0000E+00 0.9000E+01
       21  1    1    2  502  501 -.23632621E+02 -.20643128E+02 -.13044925E+02 0.33990765E+02 0.75000000E+00 0.0000E+00 0.9000E+01
#aMCatNLO 1  0  0  2  5 0.52061872D+02 0.00000000D+00  -5  6  0 0.00000000D+00 0.00000000D+00 0.00000000D+00 0.00000000D+00 0.00000000D+00
  <mgrwgt>
 0.4222055380D-01    7    4    0
 0.288096921954983D+03 0.000000000000000D+00 0.000000000000000D+00 0.288096921954983D+03
 0.288096921954983D+03 0.000000000000000D+00 0.000000000000000D+00 -.288096921954983D+03
 0.262458542747142D+03 0.178743106445557D+03 0.107876661393598D+03 0.983514844103371D+02
 0.200246775479769D+03 -.155110070991587D+03 -.872331710376879D+02 0.107125857634380D+02
 0.113488525683054D+03 -.236330354539696D+02 -.206434903559100D+02 -.109064070173775D+03
 0.000000000000000D+00 -.000000000000000D+00 -.000000000000000D+00 -.000000000000000D+00
 0.294571974136361D+03 0.000000000000000D+00 0.000000000000000D+00 0.294571974136361D+03
 0.417086858180852D+03 0.000000000000000D+00 0.000000000000000D+00 -.417086858180852D+03
 0.282380954754114D+03 0.199339565498820D+03 0.121263047746911D+03 0.983514844103371D+02
 0.185016176692648D+03 -.140546052311682D+03 -.777674866498079D+02 0.107125857634380D+02
 0.111143951139960D+03 -.151412986541653D+02 -.151244023748708D+02 -.109064070173775D+03
 0.133117749730492D+03 -.436522145329729D+02 -.283711587222326D+02 -.122514884044491D+03
 0.288096921954983D+03 0.000000000000000D+00 0.000000000000000D+00 0.288096921954983D+03
 0.288096921954983D+03 0.000000000000000D+00 0.000000000000000D+00 -.288096921954983D+03
 0.262458542747142D+03 0.178743106445557D+03 0.107876661393598D+03 0.983514844103371D+02
 0.200246775479769D+03 -.155110070991587D+03 -.872331710376879D+02 0.107125857634380D+02
 0.000000000000000D+00 -.000000000000000D+00 -.000000000000000D+00 -.000000000000000D+00
 0.113488525683054D+03 -.236330354539696D+02 -.206434903559100D+02 -.109064070173775D+03
 0.294571974136361D+03 0.000000000000000D+00 0.000000000000000D+00 0.294571974136361D+03
 0.417086858180852D+03 0.000000000000000D+00 0.000000000000000D+00 -.417086858180852D+03
 0.282380954754114D+03 0.199339565498820D+03 0.121263047746911D+03 0.983514844103371D+02
 0.185016176692648D+03 -.140546052311682D+03 -.777674866498079D+02 0.107125857634380D+02
 0.133117749730492D+03 -.436522145329729D+02 -.283711587222326D+02 -.122514884044491D+03
 0.111143951139960D+03 -.151412986541653D+02 -.151244023748708D+02 -.109064070173775D+03
0.255411419260D-03 0.000000000000D+00 0.000000000000D+00 0.898549607047D-05 0.000000000000D+00  6 2 -2 25 23 21 21 2 0.20971410D+00 0.93674825D-02 0.56328761D+05 0.56328761D+05 0.56328761D+05 0.11871894D+01  1  2  2  2  6  2       -2 0.430659418094D-01 0.100000000000D+01
0.517079078946D-04 0.134784308933D-04 -.980847101331D-06 0.898549607047D-05 0.000000000000D+00  6 2 -2 25 23 21 21 4 0.20971410D+00 0.93674825D-02 0.56328761D+05 0.56328761D+05 0.56328761D+05 0.11871894D+01  1  2  3  2  6  2       -2 0.122882668105D-01 0.100000000000D+01
0.312085375353D-05 0.000000000000D+00 0.000000000000D+00 0.898549607047D-05 0.000000000000D+00  6 2 -2 25 23 21 21 4 0.20971410D+00 0.93674825D-02 0.56328761D+05 0.56328761D+05 0.56328761D+05 0.11871894D+01  1  2 15  2  6  2       -2 0.741663802722D-03 0.100000000000D+01
-.224923345076D-03 0.000000000000D+00 0.000000000000D+00 0.898549607047D-05 0.000000000000D+00  6 2 -2 25 23 21 21 4 0.20971410D+00 0.93674825D-02 0.56328761D+05 0.56328761D+05 0.56328761D+05 0.11871894D+01  1  2  4  2  6  2       -2 -.534525218433D-01 0.100000000000D+01
-.163917504036D-02 0.000000000000D+00 -.168334698675D-03 0.898549607047D-05 0.000000000000D+00  6 2 -2 25 23 21 21 4 0.20971410D+00 0.13822023D-01 0.56328761D+05 0.56328761D+05 0.56328761D+05 0.11871894D+01  1  2  5  2  6  2       -2 -.208213306064D+00 0.100000000000D+01
0.159446256734D-02 0.000000000000D+00 0.156353790287D-03 0.898549607047D-05 0.000000000000D+00  6 2 -2 25 23 21 21 4 0.20971410D+00 0.93674825D-02 0.56328761D+05 0.56328761D+05 0.56328761D+05 0.11871894D+01  1  2  6  2  6  2       -2 0.378920405883D+00 0.100000000000D+01
-.709195816953D-04 0.000000000000D+00 -.785107507417D-05 0.898549607047D-05 0.000000000000D+00  6 2 21 25 23 2 21 4 0.20971410D+00 0.13822023D-01 0.56328761D+05 0.56328761D+05 0.56328761D+05 0.11871894D+01  3  4  5  5  5  2       -2 -.131129896599D+00 0.100000000000D+01
  </mgrwgt>
  </event>
  <event>
  5     66 0.43206592E-03 0.23206094E+02 0.75467711E-02 0.11467248E+00
        2 -1    0    0  502    0 0.00000000E+00 0.00000000E+00 0.38457808E+02 0.38459139E+02 0.32000000E+00 0.0000E+00 0.9000E+01
       -2 -1    0    0    0  501 0.00000000E+00 0.00000000E+00 -.75127607E+03 0.75127613E+03 0.32000000E+00 0.0000E+00 0.9000E+01
       25  1    1    2    0    0 -.32223144E+02 -.43837154E+02 -.14743676E+03 0.20080494E+03 0.12500000E+03 0.0000E+00 0.9000E+01
       23  1    1    2    0    0 0.46880721E+02 0.25852498E+02 -.55220485E+03 0.56223803E+03 0.91188000E+02 0.0000E+00 0.9000E+01
       21  1    1    2  502  501 -.14657576E+02 0.17984656E+02 -.13176650E+02 0.26692303E+02 0.75000000E+00 0.0000E+00 0.9000E+01
#aMCatNLO 1  0  0  1  1 0.12085125D+03 0.00000000D+00  -5  6  0 0.00000000D+00 0.00000000D+00 0.00000000D+00 0.00000000D+00 0.00000000D+00
  <mgrwgt>
 0.1095329270D+00    3    2    0
 0.169979361575519D+03 0.000000000000000D+00 0.000000000000000D+00 0.169979361575519D+03
 0.169979361575519D+03 0.000000000000000D+00 0.000000000000000D+00 -.169979361575519D+03
 0.157333024353231D+03 -.322215295278335D+02 -.438391358249901D+02 0.785403320411837D+02
 0.148247952520171D+03 0.468822422852950D+02 0.258506312155053D+02 -.103903822386310D+03
 0.343777462776366D+02 -.146607127574616D+02 0.179885046094848D+02 0.253634903451261D+02
 0.000000000000000D+00 0.000000000000000D+00 0.000000000000000D+00 -.000000000000000D+00
 0.212815866919337D+03 0.000000000000000D+00 0.000000000000000D+00 0.212815866919337D+03
 0.293038911823570D+03 0.000000000000000D+00 0.000000000000000D+00 -.293038911823570D+03
 0.184779040862966D+03 -.457875089520727D+02 -.101258156259445D+03 0.785403320411837D+02
 0.144561090631323D+03 0.352713058159423D+02 -.232935239942330D+02 -.103903822386310D+03
 0.314603087001609D+02 -.172714295078232D+02 0.693845110802195D+01 0.253634903451261D+02
 0.145054338548458D+03 0.277876326439535D+02 0.117613229145656D+03 -.802230449042328D+02
0.771254108631D-03 0.000000000000D+00 0.000000000000D+00 0.144746947966D-04 0.000000000000D+00  6 2 -2 25 23 21 21 2 0.59166935D-02 0.11558104D+00 0.17592792D+05 0.17592792D+05 0.17592792D+05 0.12400051D+01  1  2  2  1  6  1        2 0.884543383435D-01 0.100000000000D+01
0.100366896593D-03 0.407001974872D-04 -.296181885301D-05 0.144746947966D-04 0.000000000000D+00  6 2 -2 25 23 21 21 4 0.59166935D-02 0.11558104D+00 0.17592792D+05 0.17592792D+05 0.17592792D+05 0.12400051D+01  1  2  3  1  6  1        2 0.176994230412D-01 0.100000000000D+01
0.191620013265D-04 0.000000000000D+00 0.000000000000D+00 0.144746947966D-04 0.000000000000D+00  6 2 -2 25 23 21 21 4 0.59166935D-02 0.11558104D+00 0.17592792D+05 0.17592792D+05 0.17592792D+05 0.12400051D+01  1  2 15  1  6  1        2 0.337916563436D-02 0.100000000000D+01
  </mgrwgt>
  </event>
  <event>
  6     66 0.43206592E-03 0.39711289E+02 0.75467711E-02 0.11990006E+00
       21 -1    0    0  502  503 0.00000000E+00 0.00000000E+00 0.23610868E+03 0.23610987E+03 0.75000000E+00 0.0000E+00 0.9000E+01
       -2 -1    0    0    0  501 0.00000000E+00 0.00000000E+00 -.13487901E+03 0.13487939E+03 0.32000000E+00 0.0000E+00 0.9000E+01
       25  1    1    2    0    0 -.67804887E+02 0.49985522E+02 -.42820085E+02 0.15669912E+03 0.12500000E+03 0.0000E+00 0.9000E+01
       23  1    1    2    0    0 0.56749456E+02 -.12556501E+02 0.77564599E+02 0.13307774E+03 0.91188000E+02 0.0000E+00 0.9000E+01
       -2  1    1    2    0  503 0.13045084E+02 -.38859306E+02 0.67050552E+02 0.78588160E+02 0.32000000E+00 0.0000E+00 0.9000E+01
       21  1    1    2  502  501 -.19896541E+01 0.14302855E+01 -.56539131E+00 0.26242346E+01 0.75000000E+00 0.0000E+00 0.9000E+01
#aMCatNLO 2  0  0  1  5 0.84696778D+02 0.00000000D+00  -5  6  0 0.00000000D+00 0.00000000D+00 0.00000000D+00 0.00000000D+00 0.00000000D+00
  <mgrwgt>
 0.5501121281D-02    1    2    0
 0.143744538116005D+03 0.000000000000000D+00 0.000000000000000D+00 0.143744538116005D+03
 0.143744538116005D+03 0.000000000000000D+00 0.000000000000000D+00 -.143744538116005D+03
 0.154599375397742D+03 -.605880291342168D+02 0.286093019005812D+02 -.615350749066300D+02
 0.130437999662529D+03 0.625546201835589D+02 -.297465451696487D+02 0.624570488905998D+02
 0.000000000000000D+00 0.000000000000000D+00 -.000000000000000D+00 0.000000000000000D+00
 0.245170117173956D+01 -.196659104934211D+01 0.113724326906751D+01 -.921973983969792D+00
 0.209949122724900D+03 0.000000000000000D+00 0.000000000000000D+00 0.209949122724900D+03
 0.151685556581494D+03 0.000000000000000D+00 0.000000000000000D+00 -.151685556581494D+03
 0.162779219726307D+03 -.677524747099182D+02 0.499510870914994D+02 -.615350749066300D+02
 0.124897935187532D+03 0.567907141203945D+02 -.125767525093643D+02 0.624570488905998D+02
 0.712380731334632D+02 0.130450842752929D+02 -.388593064821306D+02 0.582635661434056D+02
 0.271945125909258D+01 -.208332368576919D+01 0.148497189999543D+01 -.921973983969792D+00
0.210610204178D-05 0.000000000000D+00 0.000000000000D+00 0.185116137560D-02 0.411319406045D-06  6 21 -2 25 23 -2 21 4 0.36324450D-01 0.20750690D-01 0.22862810D+05 0.22862810D+05 0.22862810D+05 0.12274806D+01  1  2  1  4  5  1        2 0.550112128085D-02 0.100000000000D+01
  </mgrwgt>
  </event>
  <event>
  6     66 0.43206592E-03 0.17342501E+02 0.75467711E-02 0.11927602E+00
        2 -1    0    0  502    0 0.00000000E+00 0.00000000E+00 0.11840360E+04 0.11840360E+04 0.32000000E+00 0.0000E+00 0.9000E+01
       -2 -1    0    0    0  501 0.00000000E+00 0.00000000E+00 -.49598723E+02 0.49599756E+02 0.32000000E+00 0.0000E+00 0.9000E+01
       25  1    1    2    0    0 -.66943321E+02 0.37376188E+02 0.12549576E+03 0.19300926E+03 0.12500000E+03 0.0000E+00 0.9000E+01
       23  1    1    2    0    0 0.57324340E+02 -.69434866E+02 0.96155430E+03 0.97005629E+03 0.91188000E+02 0.0000E+00 0.9000E+01
       21  1    1    2  502  503 0.14846952E+02 0.19536204E+02 0.37105122E+01 0.24827921E+02 0.75000000E+00 0.0000E+00 0.9000E+01
       21  1    1    2  503  501 -.52279711E+01 0.12522474E+02 0.43676702E+02 0.45742330E+02 0.75000000E+00 0.0000E+00 0.9000E+01
#aMCatNLO 2  0  0  5  1 0.14107043D+02 0.00000000D+00  -5  6  0 0.00000000D+00 0.00000000D+00 0.00000000D+00 0.00000000D+00 0.00000000D+00
  <mgrwgt>
 0.4510964696D-01    3    2    0
 0.242337238989190D+03 0.000000000000000D+00 0.000000000000000D+00 0.242337238989190D+03
 0.242337238989190D+03 -.000000000000000D+00 -.000000000000000D+00 -.242337238989190D+03
 0.194458139081153D+03 -.678609903125515D+02 0.343177288154752D+02 -.128086483821097D+03
 0.223175461825700D+03 0.562904769906655D+02 -.728805830499693D+02 0.181691601984170D+03
 0.670408770715282D+02 0.115705133218860D+02 0.385628542344940D+02 -.536051181630727D+02
 0.000000000000000D+00 0.000000000000000D+00 0.000000000000000D+00 0.000000000000000D+00
 0.242337238989190D+03 0.000000000000000D+00 0.000000000000000D+00 0.242337238989190D+03
 0.242337238989190D+03 -.000000000000000D+00 -.000000000000000D+00 -.242337238989190D+03
 0.197573249504371D+03 -.669295607476457D+02 0.374220493881172D+02 -.132401710855399D+03
 0.218372517713577D+03 0.573395533004763D+02 -.693841628229107D+02 0.176831328460859D+03
 0.542723543342786D+02 0.148997127712007D+02 0.191605975966002D+02 -.485423372332067D+02
 0.144563564261545D+02 -.530970532403120D+01 0.128015158381933D+02 0.411271962774734D+01
-.922401665649D-04 0.000000000000D+00 0.000000000000D+00 0.285901848530D-05 0.000000000000D+00  6 2 -2 25 23 21 21 4 0.18215947D+00 0.76306556D-02 0.24477622D+05 0.24477622D+05 0.24477622D+05 0.12242821D+01  1  2 13  3  6  5       21 -.429374560657D-01 0.100000000000D+01
-.661291276751D-04 0.000000000000D+00 0.000000000000D+00 0.285449821422D-05 0.000000000000D+00  6 2 -2 25 23 21 21 4 0.18215947D+00 0.76306556D-02 0.24991286D+05 0.24991286D+05 0.24991286D+05 0.12233139D+01  1  2  8  3  6  5       21 -.306883916998D-01 0.100000000000D+01
0.255072908699D-03 0.000000000000D+00 0.000000000000D+00 0.285449821422D-05 0.177321992136D-06  6 2 -2 25 23 21 21 4 0.18215947D+00 0.76306556D-02 0.24477622D+05 0.24477622D+05 0.24477622D+05 0.12242821D+01  1  2  1  3  6  5       21 0.118735494727D+00 0.100000000000D+01
  </mgrwgt>
  </event>
  <event>
  5     66 -.43206592E-03 0.45054002E+02 0.75467711E-02 0.11924279E+00
        2 -1    0    0  502    0 0.00000000E+00 0.00000000E+00 0.55175062E+03 0.55175071E+03 0.32000000E+00 0.0000E+00 0.9000E+01
       -2 -1    0    0    0  501 0.00000000E+00 0.00000000E+00 -.68802947E+02 0.68803691E+02 0.32000000E+00 0.0000E+00 0.9000E+01
       25  1    1    2    0    0 -.68538378E+02 0.25253231E+02 0.27403614E+03 0.30992909E+03 0.12500000E+03 0.0000E+00 0.9000E+01
       23  1    1    2    0    0 0.49877642E+02 -.66260119E+02 0.22994483E+03 0.26089856E+03 0.91188000E+02 0.0000E+00 0.9000E+01
       21  1    1    2  502  501 0.18660736E+02 0.41006887E+02 -.21033297E+02 0.49726753E+02 0.75000000E+00 0.0000E+00 0.9000E+01
#aMCatNLO 1  0  0  1  1 0.44037618D+00 0.00000000D+00  -5  6  0 0.00000000D+00 0.00000000D+00 0.00000000D+00 0.00000000D+00 0.00000000D+00
  <mgrwgt>
 -.1372072999D-01    9    4    0
 0.194839236260946D+03 0.000000000000000D+00 0.000000000000000D+00 0.194839236260946D+03
 0.194839236260946D+03 0.000000000000000D+00 0.000000000000000D+00 -.194839236260946D+03
 0.153929154714018D+03 -.685385652212590D+02 0.252528202538218D+02 0.522871381662018D+02
 0.130493680977174D+03 0.498774830154742D+02 -.662604671542159D+02 0.428384945057432D+02
 0.105255636830700D+03 0.186610822057848D+02 0.410076469003941D+02 -.951256326719450D+02
 0.000000000000000D+00 0.000000000000000D+00 0.000000000000000D+00 0.000000000000000D+00
 0.195898374272835D+03 0.000000000000000D+00 0.000000000000000D+00 0.195898374272835D+03
 0.194885141766448D+03 0.000000000000000D+00 0.000000000000000D+00 -.194885141766448D+03
 0.153979576548592D+03 -.686857730648150D+02 0.251600825706302D+02 0.522871381662018D+02
 0.130485985930143D+03 0.497527114514466D+02 -.663390704779016D+02 0.428384945057432D+02
 0.105213158877941D+03 0.185604593445068D+02 0.409442567249414D+02 -.951256326719450D+02
 0.110479468260783D+01 0.372602268861563D+00 0.234731182330051D+00 0.101323250638720D+01
 0.194839236260946D+03 0.000000000000000D+00 0.000000000000000D+00 0.194839236260946D+03
 0.194839236260946D+03 0.000000000000000D+00 0.000000000000000D+00 -.194839236260946D+03
 0.153929154714018D+03 -.685385652212590D+02 0.252528202538218D+02 0.522871381662018D+02
 0.130493680977174D+03 0.498774830154742D+02 -.662604671542159D+02 0.428384945057432D+02
 0.000000000000000D+00 0.000000000000000D+00 0.000000000000000D+00 0.000000000000000D+00
 0.105255636830700D+03 0.186610822057848D+02 0.410076469003941D+02 -.951256326719450D+02
 0.195898374272835D+03 0.000000000000000D+00 0.000000000000000D+00 0.195898374272835D+03
 0.194885141766448D+03 0.000000000000000D+00 0.000000000000000D+00 -.194885141766448D+03
 0.153979576548592D+03 -.686857730648150D+02 0.251600825706302D+02 0.522871381662018D+02
 0.130485985930143D+03 0.497527114514466D+02 -.663390704779016D+02 0.428384945057432D+02
 0.110479468260783D+01 0.372602268861563D+00 0.234731182330051D+00 0.101323250638720D+01
 0.105213158877941D+03 0.185604593445068D+02 0.409442567249414D+02 -.951256326719450D+02
0.138104934237D-04 0.000000000000D+00 0.000000000000D+00 0.763315894479D-05 0.000000000000D+00  6 2 -2 25 23 21 21 2 0.84884775D-01 0.10585133D-01 0.24506695D+05 0.24506695D+05 0.24506695D+05 0.12242267D+01  1  2  2  1  6  1        2 0.682556136196D-02 0.100000000000D+01
0.575627541646D-06 0.728799760610D-06 -.530359311333D-07 0.763315894479D-05 0.000000000000D+00  6 2 -2 25 23 21 21 4 0.84884775D-01 0.10585133D-01 0.24506695D+05 0.24506695D+05 0.24506695D+05 0.12242267D+01  1  2  3  1  6  1        2 0.426377645462D-03 0.100000000000D+01
0.441175921263D-06 0.000000000000D+00 0.000000000000D+00 0.763315894479D-05 0.000000000000D+00  6 2 -2 25 23 21 21 4 0.84884775D-01 0.10585133D-01 0.24506695D+05 0.24506695D+05 0.24506695D+05 0.12242267D+01  1  2 15  1  6  1        2 0.326786918509D-03 0.100000000000D+01
-.954050843426D-02 0.000000000000D+00 0.000000000000D+00 0.763315894479D-05 0.000000000000D+00  6 2 -2 25 23 21 21 4 0.84884775D-01 0.10585133D-01 0.24506695D+05 0.24506695D+05 0.24506695D+05 0.12242267D+01  1  2  4  1  6  1        2 -.706682573090D+01 0.100000000000D+01
-.153279294386D-01 0.000000000000D+00 -.720766398618D-03 0.763315894479D-05 0.000000000000D+00  6 2 -2 25 23 21 21 4 0.85356529D-01 0.10585133D-01 0.24506695D+05 0.24506695D+05 0.24506695D+05 0.12242267D+01  1  2  5  1  6  1        2 -.112831798310D+02 0.100000000000D+01
0.153316996703D-01 0.000000000000D+00 0.720755329264D-03 0.763315894479D-05 0.000000000000D+00  6 2 -2 25 23 21 21 4 0.84884775D-01 0.10585133D-01 0.24506695D+05 0.24506695D+05 0.24506695D+05 0.12242267D+01  1  2  6  1  6  1        2 0.113564649594D+02 0.100000000000D+01
0.948906643969D-02 0.000000000000D+00 0.000000000000D+00 0.763315894479D-05 0.171463753051D-03  6 2 -2 25 23 21 21 4 0.85346205D-01 0.10587627D-01 0.24567240D+05 0.24567240D+05 0.24567240D+05 0.12241115D+01  1  2 11  1  6  1        2 0.698112356047D+01 0.100000000000D+01
-.157883433136D-04 0.000000000000D+00 -.742804167742D-06 0.763315894479D-05 0.000000000000D+00  6 21 -2 25 23 -2 21 4 0.85356529D-01 0.10585133D-01 0.24506695D+05 0.24506695D+05 0.24506695D+05 0.12242267D+01  3  4  5  4  5  1        2 -.201788916132D-01 0.100000000000D+01
0.884307516312D-05 0.000000000000D+00 0.000000000000D+00 0.763315894479D-05 0.316791872879D-06  6 21 -2 25 23 -2 21 4 0.85346205D-01 0.10587627D-01 0.24567240D+05 0.24567240D+05 0.24567240D+05 0.12241115D+01  3  4 11  4  5  1        2 0.112964777214D-01 0.100000000000D+01
  </mgrwgt>
  </event>
  <event>
  5     66 0.43206592E-03 0.41820900E+02 0.75467711E-02 0.12000651E+00
        2 -1    0    0  502    0 0.00000000E+00 0.00000000E+00 0.10381311E+03 0.10381361E+03 0.32000000E+00 0.0000E+00 0.9000E+01
       -2 -1    0    0    0  501 -.00000000E+00 -.00000000E+00 -.27162487E+03 0.27162506E+03 0.32000000E+00 0.0000E+00 0.9000E+01
       25  1    1    2    0    0 0.55193535E+02 -.41635969E+02 -.10084763E+03 0.17485744E+03 0.12500000E+03 0.0000E+00 0.9000E+01
       23  1    1    2    0    0 -.17244971E+02 0.59205124E+02 0.12493403E+02 0.11078796E+03 0.91188000E+02 0.0000E+00 0.9000E+01
       21  1    1    2  502  501 -.37948564E+02 -.17569155E+02 -.79457535E+02 0.89793269E+02 0.75000000E+00 0.0000E+00 0.9000E+01
#aMCatNLO 1  0  0  5  1 0.56588183D+01 0.00000000D+00  -5  6  0 0.00000000D+00 0.00000000D+00 0.00000000D+00 0.00000000D+00 0.00000000D+00
  <mgrwgt>
 0.6485205188D-01   14    2    0
 0.167923649077578D+03 0.000000000000000D+00 0.000000000000000D+00 0.167923649077578D+03
 0.167923649077578D+03 -.000000000000000D+00 -.000000000000000D+00 -.167923649077578D+03
 0.145080356152967D+03 0.551947878905425D+02 -.416353894487119D+02 -.253641376089102D+02
 0.130091523535984D+03 -.172438478734604D+02 0.592056439923923D+02 0.693245597308522D+02
 0.606754184662059D+02 -.379509400170821D+02 -.175702545436803D+02 -.439604221219420D+02
 0.000000000000000D+00 0.000000000000000D+00 0.000000000000000D+00 0.000000000000000D+00
 0.167923649077578D+03 0.000000000000000D+00 0.000000000000000D+00 0.167923649077578D+03
 0.167923649077578D+03 -.000000000000000D+00 -.000000000000000D+00 -.167923649077578D+03
 0.145030476253438D+03 0.516980309325201D+02 -.432542929541899D+02 -.294146014936865D+02
 0.128006496184285D+03 -.203547487620021D+02 0.577653813678766D+02 0.657210517234547D+02
 0.553155734978924D+02 -.388156358274101D+02 -.141702406227515D+02 -.367744934350962D+02
 0.749475221954050D+01 0.747235365689205D+01 -.340847790935213D+00 0.468043205328044D+00
0.120724115714D-03 0.000000000000D+00 0.000000000000D+00 0.662259386210D-05 0.000000000000D+00  6 2 -2 25 23 21 21 2 0.15971301D-01 0.41788494D-01 0.21719132D+05 0.21719132D+05 0.21719132D+05 0.12299028D+01  1  2  2  3  6  5       21 0.352032298758D-01 0.100000000000D+01
0.405122121605D-05 0.637078661370D-05 -.463612391731D-06 0.662259386210D-05 0.000000000000D+00  6 2 -2 25 23 21 21 4 0.15971301D-01 0.41788494D-01 0.21719132D+05 0.21719132D+05 0.21719132D+05 0.12299028D+01  1  2  3  3  6  5       21 0.178696482617D-02 0.100000000000D+01
0.448782105222D-05 0.000000000000D+00 0.000000000000D+00 0.662259386210D-05 0.000000000000D+00  6 2 -2 25 23 21 21 4 0.15971301D-01 0.41788494D-01 0.21719132D+05 0.21719132D+05 0.21719132D+05 0.12299028D+01  1  2 15  3  6  5       21 0.197954590449D-02 0.100000000000D+01
0.832513013579D-04 0.000000000000D+00 0.000000000000D+00 0.660239066346D-05 0.000000000000D+00  6 2 -2 25 23 21 21 4 0.15971301D-01 0.41788494D-01 0.22599843D+05 0.22599843D+05 0.22599843D+05 0.12280253D+01  1  2 12  3  6  5       21 0.365300715682D-01 0.100000000000D+01
-.567293298396D-04 0.000000000000D+00 0.000000000000D+00 0.662259386210D-05 0.000000000000D+00  6 2 -2 25 23 21 21 4 0.15971301D-01 0.41788494D-01 0.21719132D+05 0.21719132D+05 0.21719132D+05 0.12299028D+01  1  2  4  3  6  5       21 -.250229033738D-01 0.100000000000D+01
0.278216512465D-04 0.000000000000D+00 0.000000000000D+00 0.662259386210D-05 0.283411314914D-06  6 2 -2 25 23 21 21 4 0.15971301D-01 0.41788494D-01 0.22599843D+05 0.22599843D+05 0.22599843D+05 0.12280253D+01  1  2 11  3  6  5       21 0.122079402316D-01 0.100000000000D+01
0.730655695596D-06 0.000000000000D+00 0.000000000000D+00 0.660239066346D-05 0.000000000000D+00  6 2 -2 25 23 1 -1 4 0.15971301D-01 0.41788494D-01 0.22599843D+05 0.22599843D+05 0.22599843D+05 0.12280253D+01  1  2 12  6  6  5       21 0.320606457995D-03 0.100000000000D+01
0.730655695596D-06 0.000000000000D+00 0.000000000000D+00 0.660239066346D-05 0.000000000000D+00  6 2 -2 25 23 3 -3 4 0.15971301D-01 0.41788494D-01 0.22599843D+05 0.22599843D+05 0.22599843D+05 0.12280253D+01  1  2 12  6  6  5       21 0.320606457995D-03 0.100000000000D+01
0.523684005655D-06 0.000000000000D+00 0.000000000000D+00 0.660239066346D-05 0.528662068714D-08  6 2 -2 25 23 1 -1 4 0.15971301D-01 0.41788494D-01 0.22599843D+05 0.22599843D+05 0.22599843D+05 0.12280253D+01  1  2 11  6  6  5       21 0.229788770790D-03 0.100000000000D+01
0.523684005655D-06 0.000000000000D+00 0.000000000000D+00 0.660239066346D-05 0.528662068714D-08  6 2 -2 25 23 3 -3 4 0.15971301D-01 0.41788494D-01 0.22599843D+05 0.22599843D+05 0.22599843D+05 0.12280253D+01  1  2 11  6  6  5       21 0.229788770790D-03 0.100000000000D+01
0.730655695596D-06 0.000000000000D+00 0.000000000000D+00 0.660239066346D-05 0.000000000000D+00  6 2 -2 25 23 2 -2 4 0.15971301D-01 0.41788494D-01 0.22599843D+05 0.22599843D+05 0.22599843D+05 0.12280253D+01  1  2 12  7  6  5       21 0.320606457995D-03 0.100000000000D+01
0.441672696958D-06 0.000000000000D+00 0.000000000000D+00 0.660239066346D-05 0.625397820298D-08  6 2 -2 25 23 2 -2 4 0.15971301D-01 0.41788494D-01 0.22599843D+05 0.22599843D+05 0.22599843D+05 0.12280253D+01  1  2 11  7  6  5       21 0.193802799073D-03 0.100000000000D+01
0.730655695596D-06 0.000000000000D+00 0.000000000000D+00 0.660239066346D-05 0.000000000000D+00  6 2 -2 25 23 4 -4 4 0.15971301D-01 0.41788494D-01 0.22599843D+05 0.22599843D+05 0.22599843D+05 0.12280253D+01  1  2 12  8  6  5       21 0.320606457995D-03 0.100000000000D+01
0.527348386859D-06 0.000000000000D+00 0.000000000000D+00 0.660239066346D-05 0.532361282986D-08  6 2 -2 25 23 4 -4 4 0.15971301D-01 0.41788494D-01 0.22599843D+05 0.22599843D+05 0.22599843D+05 0.12280253D+01  1  2 11  8  6  5       21 0.231396674876D-03 0.100000000000D+01
  </mgrwgt>
  </event>
  <event>
  6     66 0.43206592E-03 0.49254115E+02 0.75467711E-02 0.11826731E+00
        2 -1    0    0  502    0 0.00000000E+00 0.00000000E+00 0.49460637E+03 0.49460647E+03 0.32000000E+00 0.0000E+00 0.9000E+01
       21 -1    0    0  503  501 0.00000000E+00 0.00000000E+00 -.34776912E+03 0.34776993E+03 0.75000000E+00 0.0000E+00 0.9000E+01
       25  1    1    2    0    0 0.47851717E+02 -.76996745E+02 0.26879067E+03 0.30998663E+03 0.12500000E+03 0.0000E+00 0.9000E+01
       23  1    1    2    0    0 -.77075608E+02 0.36489002E+02 0.18279975E+03 0.22136643E+03 0.91188000E+02 0.0000E+00 0.9000E+01
        2  1    1    2  503    0 0.30507994E+02 0.39677584E+02 -.30518845E+03 0.30926549E+03 0.32000000E+00 0.0000E+00 0.9000E+01
       21  1    1    2  502  501 -.12841031E+01 0.83015930E+00 0.43526901E+00 0.17578522E+01 0.75000000E+00 0.0000E+00 0.9000E+01
#aMCatNLO 2  0  0  2  2 0.91719909D+02 0.00000000D+00  -5  6  0 0.00000000D+00 0.00000000D+00 0.00000000D+00 0.00000000D+00 0.00000000D+00
  <mgrwgt>
 0.1722483147D+00    1    2    0
 0.139081784776215D+03 0.000000000000000D+00 0.000000000000000D+00 0.139081784776215D+03
 0.139081784776215D+03 0.000000000000000D+00 0.000000000000000D+00 -.139081784776215D+03
 0.151595606807025D+03 0.645432813278359D+02 -.553469024303476D+02 0.112744503188185D+02
 0.123929732718990D+03 -.635027508639180D+02 0.540934521230592D+02 -.919925964008724D+01
 0.000000000000000D+00 0.000000000000000D+00 0.000000000000000D+00 -.000000000000000D+00
 0.263823002641465D+01 -.104053046391791D+01 0.125345030728847D+01 -.207519067873125D+01
 0.141900084225204D+03 0.000000000000000D+00 0.000000000000000D+00 0.141900084225204D+03
 0.121218496641412D+04 0.000000000000000D+00 0.000000000000000D+00 -.121218496641412D+04
 0.154845916613412D+03 0.478724282712709D+02 -.770284056258999D+02 0.112744503188185D+02
 0.125168694369356D+03 -.770540582332976D+02 0.364691162215792D+02 -.919925964008724D+01
 0.107145451484413D+04 0.305079938935409D+02 0.396775836754324D+02 -.107028488218892D+04
 0.261592481242662D+01 -.132636393151423D+01 0.881705728888215D+00 -.207519067873125D+01
0.295427713269D-03 0.000000000000D+00 0.000000000000D+00 0.430202679438D-02 0.172727019699D-04  6 2 21 25 23 2 21 4 0.76093345D-01 0.53503003D-01 0.27375068D+05 0.27375068D+05 0.27375068D+05 0.12190943D+01  1  2  1  5  5  2       -2 0.172248314670D+00 0.100000000000D+01
  </mgrwgt>
  </event>
  <event>
  6     66 0.43206592E-03 0.77433823E+02 0.75467711E-02 0.11804228E+00
        2 -1    0    0  502    0 0.00000000E+00 0.00000000E+00 0.14786194E+04 0.14786194E+04 0.32000000E+00 0.0000E+00 0.9000E+01
       21 -1    0    0  503  501 0.00000000E+00 0.00000000E+00 -.40423569E+02 0.40430525E+02 0.75000000E+00 0.0000E+00 0.9000E+01
       25  1    1    2    0    0 -.36242772E+02 0.60585105E+02 0.66447228E+03 0.67980329E+03 0.12500000E+03 0.0000E+00 0.9000E+01
       23  1    1    2    0    0 -.80264211E+01 0.10053372E+02 0.70234053E+03 0.70835228E+03 0.91188000E+02 0.0000E+00 0.9000E+01
        2  1    1    2  503    0 0.56771344E+02 -.62958635E+02 0.35108748E+02 0.91757843E+02 0.32000000E+00 0.0000E+00 0.9000E+01
       21  1    1    2  502  501 -.12502151E+02 -.76798423E+01 0.36274278E+02 0.39136550E+02 0.75000000E+00 0.0000E+00 0.9000E+01
#aMCatNLO 2  0  0  2  1 0.45515918D+02 0.00000000D+00  -5  6  0 0.00000000D+00 0.00000000D+00 0.00000000D+00 0.00000000D+00 0.00000000D+00
  <mgrwgt>
 0.5329445649D-01    1    2    0
 0.123817051809592D+03 0.000000000000000D+00 0.000000000000000D+00 0.123817051809592D+03
 0.123817051809592D+03 0.000000000000000D+00 0.000000000000000D+00 -.123817051809592D+03
 0.129600546379990D+03 -.562916103273030D+01 0.266437107780387D+02 -.207298539318487D+02
 0.989053970349630D+02 0.138917435682794D+02 -.142469477866227D+02 0.327272082225491D+02
 0.000000000000000D+00 0.000000000000000D+00 -.000000000000000D+00 -.000000000000000D+00
 0.191281602042301D+02 -.826258253554908D+01 -.123967629914161D+02 -.119973542907004D+02
 0.136737524161563D+03 0.000000000000000D+00 0.000000000000000D+00 0.136737524161563D+03
 0.437161009799131D+03 0.000000000000000D+00 0.000000000000000D+00 -.437161009799131D+03
 0.145048959401832D+03 -.362395277594502D+02 0.605901840836506D+02 -.207298539318487D+02
 0.977336264979363D+02 -.802416196372515D+01 0.100574883134876D+02 0.327272082225491D+02
 0.312155483528490D+03 0.567713436925391D+02 -.629586349091417D+02 -.300423485637568D+03
 0.189604645324355D+02 -.125076539693638D+02 -.768903748799643D+01 -.119973542907004D+02
0.721205037100D-05 0.000000000000D+00 0.000000000000D+00 0.616567911130D-04 0.308779513381D-07  6 2 21 25 23 2 21 4 0.22748031D+00 0.62195448D-02 0.28074363D+05 0.28074363D+05 0.28074363D+05 0.12179339D+01  1  2  1  5  5  2       -2 0.532944564872D-01 0.100000000000D+01
  </mgrwgt>
  </event>
  <event>
  5     66 0.43206592E-03 0.31142644E+02 0.75467711E-02 0.11762090E+00
        2 -1    0    0  502    0 0.00000000E+00 0.00000000E+00 0.89094042E+03 0.89094048E+03 0.32000000E+00 0.0000E+00 0.9000E+01
       -2 -1    0    0    0  501 0.00000000E+00 0.00000000E+00 -.48849426E+02 0.48850474E+02 0.32000000E+00 0.0000E+00 0.9000E+01
       25  1    1    2    0    0 -.12468680E+03 0.23233184E+02 0.16395073E+03 0.24205665E+03 0.12500000E+03 0.0000E+00 0.9000E+01
       23  1    1    2    0    0 0.93594853E+02 -.24908630E+02 0.55375968E+03 0.56951336E+03 0.91188000E+02 0.0000E+00 0.9000E+01
       21  1    1    2  502  501 0.31091952E+02 0.16754462E+01 0.12438059E+03 0.12822094E+03 0.75000000E+00 0.0000E+00 0.9000E+01
#aMCatNLO 1  0  0  5  1 0.85024727D+01 0.00000000D+00  -5  6  0 0.00000000D+00 0.00000000D+00 0.00000000D+00 0.00000000D+00 0.00000000D+00
  <mgrwgt>
 0.1260487418D+00   25    2    0
 0.208620342278457D+03 0.000000000000000D+00 0.000000000000000D+00 0.208620342278457D+03
 0.208620342278457D+03 -.000000000000000D+00 -.000000000000000D+00 -.208620342278457D+03
 0.214318686503820D+03 -.124689953704236D+03 0.232330142578192D+02 -.119248236374606D+03
 0.165148055121957D+03 0.935924268864336D+02 -.249087608427517D+02 0.978705268676491D+02
 0.377739429311362D+02 0.310975268178028D+02 0.167574658493256D+01 0.213777095069574D+02
 0.000000000000000D+00 0.000000000000000D+00 0.000000000000000D+00 0.000000000000000D+00
 0.208620342278457D+03 0.000000000000000D+00 0.000000000000000D+00 0.208620342278457D+03
 0.208620342278457D+03 -.000000000000000D+00 -.000000000000000D+00 -.208620342278457D+03
 0.211478442496349D+03 -.121714424619250D+03 0.233933560345703D+02 -.117202736204094D+03
 0.167401656994202D+03 0.959163301568220D+02 -.247835331038424D+02 0.994680728502508D+02
 0.292044891837832D+02 0.271661411615713D+02 -.351625425842688D+01 0.101261502490034D+02
 0.915609588257889D+01 -.136804669914309D+01 0.490643132769892D+01 0.760851310483964D+01
0.113895760015D-03 0.000000000000D+00 0.000000000000D+00 0.682899261594D-05 0.000000000000D+00  6 2 -2 25 23 21 21 2 0.13706784D+00 0.75153813D-02 0.29283037D+05 0.29283037D+05 0.29283037D+05 0.12160025D+01  1  2  2  3  6  5       21 0.534455123266D-01 0.100000000000D+01
0.167404947697D-04 0.601044438361D-05 -.437389707899D-06 0.682899261594D-05 0.000000000000D+00  6 2 -2 25 23 21 21 4 0.13706784D+00 0.75153813D-02 0.29283037D+05 0.29283037D+05 0.29283037D+05 0.12160025D+01  1  2  3  3  6  5       21 0.116155803255D-01 0.100000000000D+01
0.514596480230D-05 0.000000000000D+00 0.000000000000D+00 0.682899261594D-05 0.000000000000D+00  6 2 -2 25 23 21 21 4 0.13706784D+00 0.75153813D-02 0.29283037D+05 0.29283037D+05 0.29283037D+05 0.12160025D+01  1  2 15  3  6  5       21 0.357058547765D-02 0.100000000000D+01
0.361672323301D-04 0.000000000000D+00 0.000000000000D+00 0.682624811645D-05 0.000000000000D+00  6 2 -2 25 23 21 21 4 0.13706784D+00 0.75153813D-02 0.29440061D+05 0.29440061D+05 0.29440061D+05 0.12157581D+01  1  2 12  3  6  5       21 0.250765356784D-01 0.100000000000D+01
0.420009663619D-04 0.000000000000D+00 0.000000000000D+00 0.682624811645D-05 0.000000000000D+00  6 2 -2 25 23 21 21 4 0.13706784D+00 0.75153813D-02 0.29440061D+05 0.29440061D+05 0.29440061D+05 0.12157581D+01  1  2 12  3  6  5       21 0.291213527728D-01 0.100000000000D+01
-.750173168137D-04 0.000000000000D+00 0.000000000000D+00 0.682899261594D-05 0.000000000000D+00  6 2 -2 25 23 21 21 4 0.13706784D+00 0.75153813D-02 0.29283037D+05 0.29283037D+05 0.29283037D+05 0.12160025D+01  1  2  4  3  6  5       21 -.520516078671D-01 0.100000000000D+01
-.142249911231D-03 0.000000000000D+00 0.000000000000D+00 0.682899261594D-05 0.000000000000D+00  6 2 -2 25 23 21 21 4 0.13706784D+00 0.75153813D-02 0.29283037D+05 0.29283037D+05 0.29283037D+05 0.12160025D+01  1  2  5  3  6  5       21 -.987016986611D-01 0.100000000000D+01
0.217734661101D-03 0.000000000000D+00 -.000000000000D+00 0.682899261594D-05 0.000000000000D+00  6 2 -2 25 23 21 21 4 0.13706784D+00 0.75153813D-02 0.29283037D+05 0.29283037D+05 0.29283037D+05 0.12160025D+01  1  2  6  3  6  5       21 0.151077640205D+00 0.100000000000D+01
0.223731706012D-06 0.000000000000D+00 0.000000000000D+00 0.682899261594D-05 0.970312412200D-06  6 2 -2 25 23 21 21 4 0.13706784D+00 0.75153813D-02 0.29440061D+05 0.29440061D+05 0.29440061D+05 0.12157581D+01  1  2 11  3  6  5       21 0.155124286453D-03 0.100000000000D+01
0.135538107110D-05 0.000000000000D+00 0.000000000000D+00 0.682624811645D-05 0.000000000000D+00  6 2 -2 25 23 1 -1 4 0.13706784D+00 0.75153813D-02 0.29440061D+05 0.29440061D+05 0.29440061D+05 0.12157581D+01  1  2 12  6  6  5       21 0.939752908845D-03 0.100000000000D+01
0.135538107110D-05 0.000000000000D+00 0.000000000000D+00 0.682624811645D-05 0.000000000000D+00  6 2 -2 25 23 3 -3 4 0.13706784D+00 0.75153813D-02 0.29440061D+05 0.29440061D+05 0.29440061D+05 0.12157581D+01  1  2 12  6  6  5       21 0.939752908845D-03 0.100000000000D+01
0.147984233650D-05 0.000000000000D+00 0.000000000000D+00 0.682624811645D-05 0.000000000000D+00  6 2 -2 25 23 1 -1 4 0.13706784D+00 0.75153813D-02 0.29440061D+05 0.29440061D+05 0.29440061D+05 0.12157581D+01  1  2 12  6  6  5       21 0.102604807608D-02 0.100000000000D+01
0.147984233650D-05 0.000000000000D+00 0.000000000000D+00 0.682624811645D-05 0.000000000000D+00  6 2 -2 25 23 3 -3 4 0.13706784D+00 0.75153813D-02 0.29440061D+05 0.29440061D+05 0.29440061D+05 0.12157581D+01  1  2 12  6  6  5       21 0.102604807608D-02 0.100000000000D+01
-.184953473962D-05 0.000000000000D+00 0.000000000000D+00 0.682899261594D-05 0.000000000000D+00  6 2 -2 25 23 1 -1 4 0.13706784D+00 0.75153813D-02 0.29283037D+05 0.29283037D+05 0.29283037D+05 0.12160025D+01  1  2  5  6  6  5       21 -.128332045310D-02 0.100000000000D+01
-.184953473962D-05 0.000000000000D+00 0.000000000000D+00 0.682899261594D-05 0.000000000000D+00  6 2 -2 25 23 3 -3 4 0.13706784D+00 0.75153813D-02 0.29283037D+05 0.29283037D+05 0.29283037D+05 0.12160025D+01  1  2  5  6  6  5       21 -.128332045310D-02 0.100000000000D+01
0.353472202050D-08 0.000000000000D+00 0.000000000000D+00 0.682899261594D-05 0.165152803155D-07  6 2 -2 25 23 1 -1 4 0.13706784D+00 0.75153813D-02 0.29440061D+05 0.29440061D+05 0.29440061D+05 0.12157581D+01  1  2 11  6  6  5       21 0.245079806083D-05 0.100000000000D+01
0.353472202050D-08 0.000000000000D+00 0.000000000000D+00 0.682899261594D-05 0.165152803155D-07  6 2 -2 25 23 3 -3 4 0.13706784D+00 0.75153813D-02 0.29440061D+05 0.29440061D+05 0.29440061D+05 0.12157581D+01  1  2 11  6  6  5       21 0.245079806083D-05 0.100000000000D+01
0.135538107110D-05 0.000000000000D+00 0.000000000000D+00 0.682624811645D-05 0.000000000000D+00  6 2 -2 25 23 2 -2 4 0.13706784D+00 0.75153813D-02 0.29440061D+05 0.29440061D+05 0.29440061D+05 0.12157581D+01  1  2 12  7  6  5       21 0.939752908845D-03 0.100000000000D+01
0.147984233650D-05 0.000000000000D+00 0.000000000000D+00 0.682624811645D-05 0.000000000000D+00  6 2 -2 25 23 2 -2 4 0.13706784D+00 0.75153813D-02 0.29440061D+05 0.29440061D+05 0.29440061D+05 0.12157581D+01  1  2 12  7  6  5       21 0.102604807608D-02 0.100000000000D+01
-.184953473962D-05 0.000000000000D+00 0.000000000000D+00 0.682899261594D-05 0.000000000000D+00  6 2 -2 25 23 2 -2 4 0.13706784D+00 0.75153813D-02 0.29283037D+05 0.29283037D+05 0.29283037D+05 0.12160025D+01  1  2  5  7  6  5       21 -.128332045310D-02 0.100000000000D+01
0.351937410211D-08 0.000000000000D+00 0.000000000000D+00 0.682899261594D-05 0.169987950591D-07  6 2 -2 25 23 2 -2 4 0.13706784D+00 0.75153813D-02 0.29440061D+05 0.29440061D+05 0.29440061D+05 0.12157581D+01  1  2 11  7  6  5       21 0.244015658792D-05 0.100000000000D+01
0.135538107110D-05 0.000000000000D+00 0.000000000000D+00 0.682624811645D-05 0.000000000000D+00  6 2 -2 25 23 4 -4 4 0.13706784D+00 0.75153813D-02 0.29440061D+05 0.29440061D+05 0.29440061D+05 0.12157581D+01  1  2 12  8  6  5       21 0.939752908845D-03 0.100000000000D+01
0.147984233650D-05 0.000000000000D+00 0.000000000000D+00 0.682624811645D-05 0.000000000000D+00  6 2 -2 25 23 4 -4 4 0.13706784D+00 0.75153813D-02 0.29440061D+05 0.29440061D+05 0.29440061D+05 0.12157581D+01  1  2 12  8  6  5       21 0.102604807608D-02 0.100000000000D+01
-.184953473962D-05 0.000000000000D+00 0.000000000000D+00 0.682899261594D-05 0.000000000000D+00  6 2 -2 25 23 4 -4 4 0.13706784D+00 0.75153813D-02 0.29283037D+05 0.29283037D+05 0.29283037D+05 0.12160025D+01  1  2  5  8  6  5       21 -.128332045310D-02 0.100000000000D+01
0.353838737012D-08 0.000000000000D+00 0.000000000000D+00 0.682899261594D-05 0.165324059271D-07  6 2 -2 25 23 4 -4 4 0.13706784D+00 0.75153813D-02 0.29440061D+05 0.29440061D+05 0.29440061D+05 0.12157581D+01  1  2 11  8  6  5       21 0.245333942948D-05 0.100000000000D+01
  </mgrwgt>
  </event>
  <event>
  5     66 0.43206592E-03 0.42864009E+02 0.75467711E-02 0.10595249E+00
        2 -1    0    0  502    0 0.00000000E+00 0.00000000E+00 0.11851847E+04 0.11851847E+04 0.32000000E+00 0.0000E+00 0.9000E+01
       -2 -1    0    0    0  501 0.00000000E+00 0.00000000E+00 -.15917129E+03 0.15917161E+03 0.32000000E+00 0.0000E+00 0.9000E+01
       25  1    1    2    0    0 -.26359690E+03 0.17912942E+03 0.52817283E+03 0.62941419E+03 0.12500000E+03 0.0000E+00 0.9000E+01
       23  1    1    2    0    0 0.26461544E+03 -.13627778E+03 0.55924718E+03 0.64005127E+03 0.91188000E+02 0.0000E+00 0.9000E+01
       21  1    1    2  502  501 -.10185377E+01 -.42851640E+02 -.61406652E+02 0.74890853E+02 0.75000000E+00 0.0000E+00 0.9000E+01
#aMCatNLO 1  0  0  1  1 0.21508834D+02 0.00000000D+00  -5  6  0 0.00000000D+00 0.00000000D+00 0.00000000D+00 0.00000000D+00 0.00000000D+00
  <mgrwgt>
 0.3423398267D+00    4    2    0
 0.434335830513403D+03 0.000000000000000D+00 0.000000000000000D+00 0.434335830513403D+03
 0.434335830513403D+03 0.000000000000000D+00 0.000000000000000D+00 -.434335830513403D+03
 0.350241321448707D+03 -.263596895223817D+03 0.179129560475385D+03 0.739814885116266D+02
 0.330000394065828D+03 0.264615439222683D+03 -.136277654743944D+03 0.109508350741296D+03
 0.188429945512271D+03 -.101854399886588D+01 -.428519057314412D+02 -.183489839252923D+03
 0.000000000000000D+00 -.000000000000000D+00 -.000000000000000D+00 -.000000000000000D+00
 0.436122380515851D+03 0.000000000000000D+00 0.000000000000000D+00 0.436122380515851D+03
 0.504419092393107D+03 0.000000000000000D+00 0.000000000000000D+00 -.504419092393107D+03
 0.350607134699873D+03 -.258958439091610D+03 0.186460797711732D+03 0.739814885116266D+02
 0.330753200475714D+03 0.268988533770570D+03 -.129365830491703D+03 0.109508350741296D+03
 0.187577570892589D+03 0.147000306851074D+01 -.389186726890765D+02 -.183489839252923D+03
 0.716035668407816D+02 -.115000977474712D+02 -.181762945309534D+02 -.682967118772560D+02
0.667783178358D-02 0.000000000000D+00 0.000000000000D+00 0.445884325551D-05 0.000000000000D+00  6 2 -2 25 23 21 21 2 0.18233613D+00 0.24487919D-01 0.12127925D+06 0.12127925D+06 0.12127925D+06 0.11559524D+01  1  2  2  1  6  1        2 0.267538522124D+00 0.100000000000D+01
0.156150569497D-02 0.352398864832D-03 -.256446323624D-04 0.445884325551D-05 0.000000000000D+00  6 2 -2 25 23 21 21 4 0.18233613D+00 0.24487919D-01 0.12127925D+06 0.12127925D+06 0.12127925D+06 0.11559524D+01  1  2  3  1  6  1        2 0.835938541030D-01 0.100000000000D+01
0.136207692470D-03 0.000000000000D+00 0.000000000000D+00 0.445884325551D-05 0.000000000000D+00  6 2 -2 25 23 21 21 4 0.18233613D+00 0.24487919D-01 0.12127925D+06 0.12127925D+06 0.12127925D+06 0.11559524D+01  1  2 15  1  6  1        2 0.729176077210D-02 0.100000000000D+01
-.300449624768D-03 0.000000000000D+00 0.000000000000D+00 0.445884325551D-05 0.000000000000D+00  6 2 -2 25 23 21 21 4 0.18233613D+00 0.24487919D-01 0.12127925D+06 0.12127925D+06 0.12127925D+06 0.11559524D+01  1  2  4  1  6  1        2 -.160843102776D-01 0.100000000000D+01
  </mgrwgt>
  </event>
  <event>
  5     66 0.43206592E-03 0.33831279E+02 0.75467711E-02 0.12046974E+00
        2 -1    0    0  502    0 0.00000000E+00 0.00000000E+00 0.89563068E+02 0.89563640E+02 0.32000000E+00 0.0000E+00 0.9000E+01
       -2 -1    0    0    0  501 -.00000000E+00 -.00000000E+00 -.72927721E+03 0.72927728E+03 0.32000000E+00 0.0000E+00 0.9000E+01
       25  1    1    2    0    0 -.63759801E+02 0.30992608E+02 0.17440692E+02 0.14475853E+03 0.12500000E+03 0.0000E+00 0.9000E+01
       23  1    1    2    0    0 0.42932007E+02 -.57648974E+02 -.52177073E+03 0.53453391E+03 0.91188000E+02 0.0000E+00 0.9000E+01
       21  1    1    2  502  501 0.20827795E+02 0.26656366E+02 -.13538410E+03 0.13954848E+03 0.75000000E+00 0.0000E+00 0.9000E+01
#aMCatNLO 1  0  0  5  1 0.41234587D+01 0.00000000D+00  -5  6  0 0.00000000D+00 0.00000000D+00 0.00000000D+00 0.00000000D+00 0.00000000D+00
  <mgrwgt>
 0.8254970457D-01   25    2    0
 0.255571060865364D+03 0.000000000000000D+00 0.000000000000000D+00 0.255571060865364D+03
 0.255571060865364D+03 -.000000000000000D+00 -.000000000000000D+00 -.255571060865364D+03
 0.253730136642383D+03 -.637607945175312D+02 0.309913370534866D+02 0.209112602084840D+03
 0.203296713169738D+03 0.429312110772613D+02 -.576499926869979D+02 -.166876276625072D+03
 0.541152719186068D+02 0.208295834402699D+02 0.266586556335112D+02 -.422363254597680D+02
 0.000000000000000D+00 0.000000000000000D+00 0.000000000000000D+00 0.000000000000000D+00
 0.255571060865364D+03 0.000000000000000D+00 0.000000000000000D+00 0.255571060865364D+03
 0.255571060865364D+03 -.000000000000000D+00 -.000000000000000D+00 -.255571060865364D+03
 0.253500871946930D+03 -.636309129668513D+02 0.311575654153092D+02 0.208849240147647D+03
 0.203454382633639D+03 0.430353637457084D+02 -.575166933279682D+02 -.167087467886512D+03
 0.199767289190632D+02 0.581914445296872D+01 0.689090563986761D+01 -.178247770141357D+02
 0.342101382310945D+02 0.147764047681741D+02 0.194682222727913D+02 -.239369952469993D+02
0.215949049648D-03 0.000000000000D+00 0.000000000000D+00 0.301060511201D-05 0.000000000000D+00  6 2 -2 25 23 21 21 2 0.13778983D-01 0.11219654D+00 0.21557128D+05 0.21557128D+05 0.21557128D+05 0.12302574D+01  1  2  2  3  6  5       21 0.919571078840D-02 0.100000000000D+01
0.857126853609D-05 0.113959444358D-04 -.829301211338D-06 0.301060511201D-05 0.000000000000D+00  6 2 -2 25 23 21 21 4 0.13778983D-01 0.11219654D+00 0.21557128D+05 0.21557128D+05 0.21557128D+05 0.12302574D+01  1  2  3  3  6  5       21 0.552422145779D-03 0.100000000000D+01
0.177378821017D-05 0.000000000000D+00 0.000000000000D+00 0.301060511201D-05 0.000000000000D+00  6 2 -2 25 23 21 21 4 0.13778983D-01 0.11219654D+00 0.21557128D+05 0.21557128D+05 0.21557128D+05 0.12302574D+01  1  2 15  3  6  5       21 0.114321454881D-03 0.100000000000D+01
0.577757431372D-04 0.000000000000D+00 0.000000000000D+00 0.301126975510D-05 0.000000000000D+00  6 2 -2 25 23 21 21 4 0.13778983D-01 0.11219654D+00 0.21495451D+05 0.21495451D+05 0.21495451D+05 0.12303932D+01  1  2 12  3  6  5       21 0.372525863315D-02 0.100000000000D+01
0.570213496838D-04 0.000000000000D+00 0.000000000000D+00 0.301126975510D-05 0.000000000000D+00  6 2 -2 25 23 21 21 4 0.13778983D-01 0.11219654D+00 0.21495451D+05 0.21495451D+05 0.21495451D+05 0.12303932D+01  1  2 12  3  6  5       21 0.367661692693D-02 0.100000000000D+01
-.269520864258D-02 0.000000000000D+00 0.000000000000D+00 0.301060511201D-05 0.000000000000D+00  6 2 -2 25 23 21 21 4 0.13778983D-01 0.11219654D+00 0.21557128D+05 0.21557128D+05 0.21557128D+05 0.12302574D+01  1  2  4  3  6  5       21 -.173707419781D+00 0.100000000000D+01
-.940528716740D-03 0.000000000000D+00 0.000000000000D+00 0.301060511201D-05 0.000000000000D+00  6 2 -2 25 23 21 21 4 0.13778983D-01 0.11219654D+00 0.21557128D+05 0.21557128D+05 0.21557128D+05 0.12302574D+01  1  2  5  3  6  5       21 -.606175024946D-01 0.100000000000D+01
0.335069391203D-02 0.000000000000D+00 -.000000000000D+00 0.301060511201D-05 0.000000000000D+00  6 2 -2 25 23 21 21 4 0.13778983D-01 0.11219654D+00 0.21557128D+05 0.21557128D+05 0.21557128D+05 0.12302574D+01  1  2  6  3  6  5       21 0.215953742779D+00 0.100000000000D+01
0.124039873031D-02 0.000000000000D+00 0.000000000000D+00 0.301060511201D-05 0.157050461465D-05  6 2 -2 25 23 21 21 4 0.13778983D-01 0.11219654D+00 0.21495451D+05 0.21495451D+05 0.21495451D+05 0.12303932D+01  1  2 11  3  6  5       21 0.799783062537D-01 0.100000000000D+01
0.251950679247D-05 0.000000000000D+00 0.000000000000D+00 0.301126975510D-05 0.000000000000D+00  6 2 -2 25 23 1 -1 4 0.13778983D-01 0.11219654D+00 0.21495451D+05 0.21495451D+05 0.21495451D+05 0.12303932D+01  1  2 12  6  6  5       21 0.162452508965D-03 0.100000000000D+01
0.251950679247D-05 0.000000000000D+00 0.000000000000D+00 0.301126975510D-05 0.000000000000D+00  6 2 -2 25 23 3 -3 4 0.13778983D-01 0.11219654D+00 0.21495451D+05 0.21495451D+05 0.21495451D+05 0.12303932D+01  1  2 12  6  6  5       21 0.162452508965D-03 0.100000000000D+01
0.248501529650D-05 0.000000000000D+00 0.000000000000D+00 0.301126975510D-05 0.000000000000D+00  6 2 -2 25 23 1 -1 4 0.13778983D-01 0.11219654D+00 0.21495451D+05 0.21495451D+05 0.21495451D+05 0.12303932D+01  1  2 12  6  6  5       21 0.160228569710D-03 0.100000000000D+01
0.248501529650D-05 0.000000000000D+00 0.000000000000D+00 0.301126975510D-05 0.000000000000D+00  6 2 -2 25 23 3 -3 4 0.13778983D-01 0.11219654D+00 0.21495451D+05 0.21495451D+05 0.21495451D+05 0.12303932D+01  1  2 12  6  6  5       21 0.160228569710D-03 0.100000000000D+01
-.100141593486D-04 0.000000000000D+00 0.000000000000D+00 0.301060511201D-05 0.000000000000D+00  6 2 -2 25 23 1 -1 4 0.13778983D-01 0.11219654D+00 0.21557128D+05 0.21557128D+05 0.21557128D+05 0.12302574D+01  1  2  5  6  6  5       21 -.645417113256D-03 0.100000000000D+01
-.100141593486D-04 0.000000000000D+00 0.000000000000D+00 0.301060511201D-05 0.000000000000D+00  6 2 -2 25 23 3 -3 4 0.13778983D-01 0.11219654D+00 0.21557128D+05 0.21557128D+05 0.21557128D+05 0.12302574D+01  1  2  5  6  6  5       21 -.645417113256D-03 0.100000000000D+01
0.192987276608D-04 0.000000000000D+00 0.000000000000D+00 0.301060511201D-05 0.119843348846D-07  6 2 -2 25 23 1 -1 4 0.13778983D-01 0.11219654D+00 0.21495451D+05 0.21495451D+05 0.21495451D+05 0.12303932D+01  1  2 11  6  6  5       21 0.124434144718D-02 0.100000000000D+01
0.192987276608D-04 0.000000000000D+00 0.000000000000D+00 0.301060511201D-05 0.119843348846D-07  6 2 -2 25 23 3 -3 4 0.13778983D-01 0.11219654D+00 0.21495451D+05 0.21495451D+05 0.21495451D+05 0.12303932D+01  1  2 11  6  6  5       21 0.124434144718D-02 0.100000000000D+01
0.251950679247D-05 0.000000000000D+00 0.000000000000D+00 0.301126975510D-05 0.000000000000D+00  6 2 -2 25 23 2 -2 4 0.13778983D-01 0.11219654D+00 0.21495451D+05 0.21495451D+05 0.21495451D+05 0.12303932D+01  1  2 12  7  6  5       21 0.162452508965D-03 0.100000000000D+01
0.248501529650D-05 0.000000000000D+00 0.000000000000D+00 0.301126975510D-05 0.000000000000D+00  6 2 -2 25 23 2 -2 4 0.13778983D-01 0.11219654D+00 0.21495451D+05 0.21495451D+05 0.21495451D+05 0.12303932D+01  1  2 12  7  6  5       21 0.160228569710D-03 0.100000000000D+01
-.100141593486D-04 0.000000000000D+00 0.000000000000D+00 0.301060511201D-05 0.000000000000D+00  6 2 -2 25 23 2 -2 4 0.13778983D-01 0.11219654D+00 0.21557128D+05 0.21557128D+05 0.21557128D+05 0.12302574D+01  1  2  5  7  6  5       21 -.645417113256D-03 0.100000000000D+01
0.191553744553D-04 0.000000000000D+00 0.000000000000D+00 0.301060511201D-05 0.119176616196D-07  6 2 -2 25 23 2 -2 4 0.13778983D-01 0.11219654D+00 0.21495451D+05 0.21495451D+05 0.21495451D+05 0.12303932D+01  1  2 11  7  6  5       21 0.123509833342D-02 0.100000000000D+01
0.251950679247D-05 0.000000000000D+00 0.000000000000D+00 0.301126975510D-05 0.000000000000D+00  6 2 -2 25 23 4 -4 4 0.13778983D-01 0.11219654D+00 0.21495451D+05 0.21495451D+05 0.21495451D+05 0.12303932D+01  1  2 12  8  6  5       21 0.162452508965D-03 0.100000000000D+01
0.248501529650D-05 0.000000000000D+00 0.000000000000D+00 0.301126975510D-05 0.000000000000D+00  6 2 -2 25 23 4 -4 4 0.13778983D-01 0.11219654D+00 0.21495451D+05 0.21495451D+05 0.21495451D+05 0.12303932D+01  1  2 12  8  6  5       21 0.160228569710D-03 0.100000000000D+01
-.100141593486D-04 0.000000000000D+00 0.000000000000D+00 0.301060511201D-05 0.000000000000D+00  6 2 -2 25 23 4 -4 4 0.13778983D-01 0.11219654D+00 0.21557128D+05 0.21557128D+05 0.21557128D+05 0.12302574D+01  1  2  5  8  6  5       21 -.645417113256D-03 0.100000000000D+01
0.193153120133D-04 0.000000000000D+00 0.000000000000D+00 0.301060511201D-05 0.119946336171D-07  6 2 -2 25 23 4 -4 4 0.13778983D-01 0.11219654D+00 0.21495451D+05 0.21495451D+05 0.21495451D+05 0.12303932D+01  1  2 11  8  6  5       21 0.124541077142D-02 0.100000000000D+01
  </mgrwgt>
  </event>
  <event>
  6     66 -.43206592E-03 0.21914981E+02 0.75467711E-02 0.12040442E+00
        2 -1    0    0  502    0 0.00000000E+00 0.00000000E+00 0.18906277E+04 0.18906277E+04 0.32000000E+00 0.0000E+00 0.9000E+01
       -2 -1    0    0    0  501 0.00000000E+00 0.00000000E+00 -.11979682E+02 0.11983955E+02 0.32000000E+00 0.0000E+00 0.9000E+01
       25  1    1    2    0    0 -.15148142E+02 -.51136396E+02 0.78785766E+03 0.79949302E+03 0.12500000E+03 0.0000E+00 0.9000E+01
       23  1    1    2    0    0 0.85376113E+01 0.38341581E+02 0.79867191E+03 0.80481988E+03 0.91188000E+02 0.0000E+00 0.9000E+01
       21  1    1    2  503  501 0.30757560E+02 0.15186723E+02 0.13376662E+03 0.13809683E+03 0.75000000E+00 0.0000E+00 0.9000E+01
       21  1    1    2  502  503 -.24147029E+02 -.23919077E+01 0.15835180E+03 0.16020192E+03 0.75000000E+00 0.0000E+00 0.9000E+01
#aMCatNLO 2  0  0  5  1 0.23005415D+02 0.00000000D+00  -5  6  0 0.00000000D+00 0.00000000D+00 0.00000000D+00 0.00000000D+00 0.00000000D+00
  <mgrwgt>
 -.9867227555D-01    2    2    0
 0.150509827285604D+03 0.000000000000000D+00 0.000000000000000D+00 0.150509827285604D+03
 0.150509827285604D+03 -.000000000000000D+00 -.000000000000000D+00 -.150509827285604D+03
 0.141994442821411D+03 -.215913859572500D+02 -.636074248526674D+02 0.503282706043411D+01
 0.102423535704299D+03 0.379384788797851D+01 0.291599309247224D+02 0.362026859340307D+02
 0.566016760454993D+02 0.177975380692715D+02 0.344474939279450D+02 -.412355129944648D+02
 0.000000000000000D+00 -.000000000000000D+00 0.000000000000000D+00 0.000000000000000D+00
 0.150509827285604D+03 0.000000000000000D+00 0.000000000000000D+00 0.150509827285604D+03
 0.150509827285604D+03 -.000000000000000D+00 -.000000000000000D+00 -.150509827285604D+03
 0.136197690802013D+03 -.150516207934442D+02 -.509495774642499D+02 -.101193007419201D+02
 0.102457003555813D+03 0.861019763857487D+01 0.384820730177899D+02 0.250435777498765D+02
 0.375780440495986D+02 0.311517439790772D+02 0.143708441641736D+02 -.153348322346425D+02
 0.247869161637843D+02 -.247103208242080D+02 -.190333971771364D+01 0.410555226686053D+00
-.712242414737D-04 0.000000000000D+00 0.000000000000D+00 0.970077489860D-05 0.000000000000D+00  6 2 -2 25 23 21 21 4 0.29086613D+00 0.18433587D-02 0.21647335D+05 0.21647335D+05 0.21647335D+05 0.12300596D+01  1  2 13  3  6  5       21 -.119120028375D+00 0.100000000000D+01
0.122261193593D-04 0.000000000000D+00 0.000000000000D+00 0.979476115964D-05 0.427235344094D-07  6 2 -2 25 23 21 21 4 0.29086613D+00 0.18433587D-02 0.21647335D+05 0.21647335D+05 0.21647335D+05 0.12300596D+01  1  2  1  3  6  5       21 0.204477528278D-01 0.100000000000D+01
  </mgrwgt>
  </event>
  <event>
  6     66 0.43206592E-03 0.45355429E+02 0.75467711E-02 0.11869163E+00
        2 -1    0    0  502    0 0.00000000E+00 0.00000000E+00 0.11903701E+04 0.11903701E+04 0.32000000E+00 0.0000E+00 0.9000E+01
       -2 -1    0    0    0  503 0.00000000E+00 0.00000000E+00 -.95326042E+02 0.95326579E+02 0.32000000E+00 0.0000E+00 0.9000E+01
       25  1    1    2    0    0 -.36512988E+02 -.88795564E+02 0.85769782E+03 0.87205986E+03 0.12500000E+03 0.0000E+00 0.9000E+01
       23  1    1    2    0    0 -.45889239E+01 0.72322309E+02 0.30059637E+03 0.32237401E+03 0.91188000E+02 0.0000E+00 0.9000E+01
       21  1    1    2  502  501 -.19508589E+01 -.13670077E+01 0.67319925E+01 0.71803053E+01 0.75000000E+00 0.0000E+00 0.9000E+01
       21  1    1    2  501  503 0.43052771E+02 0.17840263E+02 -.69982118E+02 0.84082551E+02 0.75000000E+00 0.0000E+00 0.9000E+01
#aMCatNLO 2  0  0  2  5 0.17515905D+00 0.00000000D+00  -5  6  0 0.00000000D+00 0.00000000D+00 0.00000000D+00 0.00000000D+00 0.00000000D+00
  <mgrwgt>
 0.1137197238D+00    1    2    0
 0.145274577235124D+03 0.000000000000000D+00 0.000000000000000D+00 0.145274577235124D+03
 0.145274577235124D+03 0.000000000000000D+00 0.000000000000000D+00 -.145274577235124D+03
 0.156527886126434D+03 -.127722651195610D+02 -.789409121358108D+02 0.498114521981821D+02
 0.131693434414265D+03 0.144436828397268D+02 0.802233162310994D+02 -.488211929671391D+02
 0.232783392954985D+01 -.167141772016584D+01 -.128240409528865D+01 -.990259231043012D+00
 0.000000000000000D+00 0.000000000000000D+00 0.000000000000000D+00 -.000000000000000D+00
 0.148007810094949D+03 0.000000000000000D+00 0.000000000000000D+00 0.148007810094949D+03
 0.766671017371708D+03 0.000000000000000D+00 0.000000000000000D+00 -.766671017371708D+03
 0.165268250793899D+03 -.364622975708195D+02 -.887576182997284D+02 0.498114521981821D+02
 0.126310607633070D+03 -.455009436080682D+01 0.723526503675476D+02 -.488211929671391D+02
 0.268399558055482D+01 -.204037927722750D+01 -.143529486058870D+01 -.990259231043012D+00
 0.620415973459133D+03 0.430527712088538D+02 0.178402627927695D+02 -.618663207276760D+03
0.701412957994D-03 0.000000000000D+00 0.000000000000D+00 0.219844750383D-02 0.744531090716D-05  6 2 -2 25 23 21 21 4 0.18313363D+00 0.14665567D-01 0.26110433D+05 0.26110433D+05 0.26110433D+05 0.12212793D+01  1  2  1  2  6  2       -2 0.113719723757D+00 0.100000000000D+01
  </mgrwgt>
  </event>
  <event>
  5     66 0.43206592E-03 0.55200574E+02 0.75467711E-02 0.10140161E+00
        2 -1    0    0  502    0 0.00000000E+00 0.00000000E+00 0.16033241E+04 0.16033241E+04 0.32000000E+00 0.0000E+00 0.9000E+01
       -2 -1    0    0    0  501 0.00000000E+00 0.00000000E+00 -.38138412E+02 0.38139755E+02 0.32000000E+00 0.0000E+00 0.9000E+01
       25  1    1    2    0    0 0.17863919E+03 -.83378625E+02 0.64389001E+03 0.68489656E+03 0.12500000E+03 0.0000E+00 0.9000E+01
       23  1    1    2    0    0 -.13563502E+03 0.11798030E+03 0.69545046E+03 0.72407376E+03 0.91188000E+02 0.0000E+00 0.9000E+01
       21  1    1    2  502  501 -.43004176E+02 -.34601671E+02 0.22584521E+03 0.23249356E+03 0.75000000E+00 0.0000E+00 0.9000E+01
#aMCatNLO 1  0  0  1  1 0.37985688D+03 0.00000000D+00  -5  6  0 0.00000000D+00 0.00000000D+00 0.00000000D+00 0.00000000D+00 0.00000000D+00
  <mgrwgt>
 0.1916413043D+00    5    4    0
 0.247283972244870D+03 0.000000000000000D+00 0.000000000000000D+00 0.247283972244870D+03
 0.247283972244870D+03 0.000000000000000D+00 0.000000000000000D+00 -.247283972244870D+03
 0.235409511378006D+03 0.178640971529986D+03 -.833771938827302D+02 -.304677678587706D+02
 0.202260662236039D+03 -.135633488847571D+03 0.117981525617194D+03 0.166745452782399D+02
 0.568977708756952D+02 -.430074826824150D+02 -.346043317344638D+02 0.137932225805307D+02
 0.000000000000000D+00 -.000000000000000D+00 -.000000000000000D+00 0.000000000000000D+00
 0.995277302754076D+03 0.000000000000000D+00 0.000000000000000D+00 0.995277302754076D+03
 0.364583435119561D+03 0.000000000000000D+00 0.000000000000000D+00 -.364583435119561D+03
 0.339669324057230D+03 0.307973292524174D+03 0.630429688309427D+02 -.304677678587706D+02
 0.253984632517980D+03 -.330262300209514D+02 0.234145616832048D+03 0.166745452782399D+02
 0.299554602637879D+02 -.234746303551117D+02 -.124907301688164D+02 0.137932225805307D+02
 0.736251321034639D+03 -.251472432148111D+03 -.284697855494175D+03 0.630693867634515D+03
 0.247283972244870D+03 0.000000000000000D+00 0.000000000000000D+00 0.247283972244870D+03
 0.247283972244870D+03 0.000000000000000D+00 0.000000000000000D+00 -.247283972244870D+03
 0.235409511378006D+03 0.178640971529986D+03 -.833771938827302D+02 -.304677678587706D+02
 0.202260662236039D+03 -.135633488847571D+03 0.117981525617194D+03 0.166745452782399D+02
 0.000000000000000D+00 -.000000000000000D+00 -.000000000000000D+00 0.000000000000000D+00
 0.568977708756952D+02 -.430074826824150D+02 -.346043317344638D+02 0.137932225805307D+02
 0.995277302754076D+03 0.000000000000000D+00 0.000000000000000D+00 0.995277302754076D+03
 0.364583435119561D+03 0.000000000000000D+00 0.000000000000000D+00 -.364583435119561D+03
 0.339669324057230D+03 0.307973292524174D+03 0.630429688309427D+02 -.304677678587706D+02
 0.253984632517980D+03 -.330262300209514D+02 0.234145616832048D+03 0.166745452782399D+02
 0.736251321034639D+03 -.251472432148111D+03 -.284697855494175D+03 0.630693867634515D+03
 0.299554602637879D+02 -.234746303551117D+02 -.124907301688164D+02 0.137932225805307D+02
0.616048424084D-03 0.000000000000D+00 0.000000000000D+00 0.272079328856D-05 0.000000000000D+00  6 2 -2 25 23 21 21 2 0.24666535D+00 0.58675537D-02 0.60074568D+05 0.60074568D+05 0.60074568D+05 0.11844663D+01  1  2  2  1  6  1        2 0.159306009810D+00 0.100000000000D+01
0.735691301101D-04 0.325097684944D-04 -.236578815776D-05 0.272079328856D-05 0.000000000000D+00  6 2 -2 25 23 21 21 4 0.24666535D+00 0.58675537D-02 0.60074568D+05 0.60074568D+05 0.60074568D+05 0.11844663D+01  1  2  3  1  6  1        2 0.266906020605D-01 0.100000000000D+01
0.155589005978D-04 0.000000000000D+00 0.000000000000D+00 0.272079328856D-05 0.000000000000D+00  6 2 -2 25 23 21 21 4 0.24666535D+00 0.58675537D-02 0.60074568D+05 0.60074568D+05 0.60074568D+05 0.11844663D+01  1  2 15  1  6  1        2 0.564471027093D-02 0.100000000000D+01
-.335285382833D-03 0.000000000000D+00 -.416092819768D-03 0.272079328856D-05 0.000000000000D+00  6 2 -2 25 23 21 21 4 0.99372463D+00 0.58675537D-02 0.60074568D+05 0.60074568D+05 0.60074568D+05 0.11844663D+01  1  2  5  1  6  1        2 -.177823831281D-07 0.100000000000D+01
-.514378138564D-04 0.000000000000D+00 -.692565704368D-04 0.272079328856D-05 0.000000000000D+00  6 21 -2 25 23 -2 21 4 0.99372463D+00 0.58675537D-02 0.60074568D+05 0.60074568D+05 0.60074568D+05 0.11844663D+01  3  4  5  4  5  1        2 -.121253167643D-10 0.100000000000D+01
  </mgrwgt>
  </event>
  <event>
  5     66 0.43206592E-03 0.20383173E+02 0.75467711E-02 0.10647288E+00
        2 -1    0    0  502    0 0.00000000E+00 0.00000000E+00 0.68205638E+03 0.68205646E+03 0.32000000E+00 0.0000E+00 0.9000E+01
       -2 -1    0    0    0  501 0.00000000E+00 0.00000000E+00 -.12769126E+03 0.12769166E+03 0.32000000E+00 0.0000E+00 0.9000E+01
       25  1    1    2    0    0 0.72848291E+02 -.15052090E+03 0.54598652E+03 0.58454229E+03 0.12500000E+03 0.0000E+00 0.9000E+01
       23  1    1    2    0    0 -.54564290E+02 0.15950148E+03 -.17278976E+02 0.19243648E+03 0.91188000E+02 0.0000E+00 0.9000E+01
       21  1    1    2  502  501 -.18284001E+02 -.89805824E+01 0.25657581E+02 0.32769338E+02 0.75000000E+00 0.0000E+00 0.9000E+01
#aMCatNLO 1  0  0  2  5 0.22210301D+03 0.00000000D+00  -5  6  0 0.00000000D+00 0.00000000D+00 0.00000000D+00 0.00000000D+00 0.00000000D+00
  <mgrwgt>
 0.7972729832D+00    3    2    0
 0.295114941100201D+03 0.000000000000000D+00 0.000000000000000D+00 0.295114941100201D+03
 0.295114941100201D+03 0.000000000000000D+00 0.000000000000000D+00 -.295114941100201D+03
 0.289134038366861D+03 0.728540864322219D+02 -.150518052800174D+03 0.200025223443694D+03
 0.280237936235937D+03 -.545586721878954D+02 0.159504240948615D+03 -.204449988922173D+03
 0.208579075976049D+02 -.182954142443265D+02 -.898618814844100D+01 0.442476547847912D+01
 0.000000000000000D+00 0.000000000000000D+00 -.000000000000000D+00 0.000000000000000D+00
 0.430494432405275D+03 0.000000000000000D+00 0.000000000000000D+00 0.430494432405275D+03
 0.422391768228136D+03 0.000000000000000D+00 0.000000000000000D+00 -.422391768228136D+03
 0.252138544012936D+03 0.723157899629133D+02 -.520498019717967D+02 0.200025223443694D+03
 0.359554922938025D+03 -.551949472337660D+02 0.275895290091285D+03 -.204449988922173D+03
 0.189419748626867D+02 -.183349952925908D+02 -.174579774882149D+01 0.442476547847912D+01
 0.222250758819764D+03 0.121415256344342D+01 -.222099690370667D+03 0.810266417713914D+01
0.374540930893D-02 0.000000000000D+00 0.000000000000D+00 0.981839426106D-05 0.000000000000D+00  6 2 -2 25 23 21 21 2 0.10493179D+00 0.19644845D-01 0.44272661D+05 0.44272661D+05 0.44272661D+05 0.11975500D+01  1  2  2  2  6  2       -2 0.505375247999D+00 0.100000000000D+01
0.148469183595D-02 0.197650679378D-03 -.143833579352D-04 0.981839426106D-05 0.000000000000D+00  6 2 -2 25 23 21 21 4 0.10493179D+00 0.19644845D-01 0.44272661D+05 0.44272661D+05 0.44272661D+05 0.11975500D+01  1  2  3  2  6  2       -2 0.287301762757D+00 0.100000000000D+01
0.237506470452D-04 0.000000000000D+00 0.000000000000D+00 0.981839426106D-05 0.000000000000D+00  6 2 -2 25 23 21 21 4 0.10493179D+00 0.19644845D-01 0.44272661D+05 0.44272661D+05 0.44272661D+05 0.11975500D+01  1  2 15  2  6  2       -2 0.459597244186D-02 0.100000000000D+01
  </mgrwgt>
  </event>
  <event>
  5     66 0.43206592E-03 0.20448461E+02 0.75467711E-02 0.11638502E+00
        2 -1    0    0  502    0 0.00000000E+00 0.00000000E+00 0.57920649E+03 0.57920658E+03 0.32000000E+00 0.0000E+00 0.9000E+01
       -2 -1    0    0    0  501 0.00000000E+00 0.00000000E+00 -.43142590E+02 0.43143777E+02 0.32000000E+00 0.0000E+00 0.9000E+01
       25  1    1    2    0    0 0.20338644E+02 -.54095124E+02 0.33848564E+03 0.36542779E+03 0.12500000E+03 0.0000E+00 0.9000E+01
       23  1    1    2    0    0 -.40659020E+02 0.56366694E+02 0.20522418E+03 0.23507994E+03 0.91188000E+02 0.0000E+00 0.9000E+01
       21  1    1    2  502  501 0.20320377E+02 -.22715698E+01 -.76459226E+01 0.21842627E+02 0.75000000E+00 0.0000E+00 0.9000E+01
#aMCatNLO 1  0  0  1  5 0.90941085D+02 0.00000000D+00  -5  6  0 0.00000000D+00 0.00000000D+00 0.00000000D+00 0.00000000D+00 0.00000000D+00
  <mgrwgt>
 0.1176364293D+00    7    4    0
 0.158078667968519D+03 0.000000000000000D+00 0.000000000000000D+00 0.158078667968519D+03
 0.158078667968519D+03 0.000000000000000D+00 0.000000000000000D+00 -.158078667968519D+03
 0.145416061886056D+03 0.203378041684354D+02 -.540950302161659D+02 0.467004548368405D+02
 0.114781197158879D+03 -.406596830235519D+02 0.563667678958339D+02 0.538976164843498D+01
 0.559600768921034D+02 0.203218788551165D+02 -.227173767966793D+01 -.520902164852755D+02
 0.000000000000000D+00 0.000000000000000D+00 -.000000000000000D+00 0.000000000000000D+00
 0.256554221724086D+03 0.000000000000000D+00 0.000000000000000D+00 0.256554221724086D+03
 0.186945928872256D+03 0.000000000000000D+00 0.000000000000000D+00 -.186945928872256D+03
 0.137951442780804D+03 -.132067822805716D+02 -.324075451882919D+02 0.467004548368405D+02
 0.138059905656890D+03 -.705906034416748D+02 0.757179198149461D+02 0.538976164843498D+01
 0.529654623025870D+02 0.742744986857251D+01 0.606486041832221D+01 -.520902164852755D+02
 0.114523339856062D+03 0.763699358536740D+02 -.493752350449764D+02 0.696082928518294D+02
 0.158078667968519D+03 0.000000000000000D+00 0.000000000000000D+00 0.158078667968519D+03
 0.158078667968519D+03 0.000000000000000D+00 0.000000000000000D+00 -.158078667968519D+03
 0.145416061886056D+03 0.203378041684354D+02 -.540950302161659D+02 0.467004548368405D+02
 0.114781197158879D+03 -.406596830235519D+02 0.563667678958339D+02 0.538976164843498D+01
 0.000000000000000D+00 0.000000000000000D+00 -.000000000000000D+00 0.000000000000000D+00
 0.559600768921034D+02 0.203218788551165D+02 -.227173767966793D+01 -.520902164852755D+02
 0.256554221724086D+03 0.000000000000000D+00 0.000000000000000D+00 0.256554221724086D+03
 0.186945928872256D+03 0.000000000000000D+00 0.000000000000000D+00 -.186945928872256D+03
 0.137951442780804D+03 -.132067822805716D+02 -.324075451882919D+02 0.467004548368405D+02
 0.138059905656890D+03 -.705906034416748D+02 0.757179198149461D+02 0.538976164843498D+01
 0.114523339856062D+03 0.763699358536740D+02 -.493752350449764D+02 0.696082928518294D+02
 0.529654623025870D+02 0.742744986857251D+01 0.606486041832221D+01 -.520902164852755D+02
0.848476941117D-04 0.000000000000D+00 0.000000000000D+00 0.329136619861D-04 0.000000000000D+00  6 2 -2 25 23 21 21 2 0.89108789D-01 0.66374197D-02 0.18607163D+05 0.18607163D+05 0.18607163D+05 0.12372924D+01  1  2  2  1  6  1        2 0.832000498660D-01 0.100000000000D+01
0.140128879135D-04 0.447753583163D-05 -.325837486300D-06 0.329136619861D-04 0.000000000000D+00  6 2 -2 25 23 21 21 4 0.89108789D-01 0.66374197D-02 0.18607163D+05 0.18607163D+05 0.18607163D+05 0.12372924D+01  1  2  3  1  6  1        2 0.210356470035D-01 0.100000000000D+01
-.874714600039D-06 0.000000000000D+00 0.000000000000D+00 0.329136619861D-04 0.000000000000D+00  6 2 -2 25 23 21 21 4 0.89108789D-01 0.66374197D-02 0.18607163D+05 0.18607163D+05 0.18607163D+05 0.12372924D+01  1  2 15  1  6  1        2 -.131309032577D-02 0.100000000000D+01
-.735379118814D-04 0.000000000000D+00 0.000000000000D+00 0.329136619861D-04 0.000000000000D+00  6 2 -2 25 23 21 21 4 0.89108789D-01 0.66374197D-02 0.18607163D+05 0.18607163D+05 0.18607163D+05 0.12372924D+01  1  2  4  1  6  1        2 -.110392487635D+00 0.100000000000D+01
-.120788476842D-03 0.000000000000D+00 -.644013151309D-04 0.329136619861D-04 0.000000000000D+00  6 2 -2 25 23 21 21 4 0.16093295D+00 0.66374197D-02 0.18607163D+05 0.18607163D+05 0.18607163D+05 0.12372924D+01  1  2  5  1  6  1        2 -.869285186223D-01 0.100000000000D+01
0.142961900814D-03 0.000000000000D+00 0.545836503468D-04 0.329136619861D-04 0.000000000000D+00  6 2 -2 25 23 21 21 4 0.89108789D-01 0.66374197D-02 0.18607163D+05 0.18607163D+05 0.18607163D+05 0.12372924D+01  1  2  6  1  6  1        2 0.214609301027D+00 0.100000000000D+01
-.438419527728D-05 0.000000000000D+00 -.417219823816D-05 0.329136619861D-04 0.000000000000D+00  6 21 -2 25 23 -2 21 4 0.16093295D+00 0.66374197D-02 0.18607163D+05 0.18607163D+05 0.18607163D+05 0.12372924D+01  3  4  5  4  5  1        2 -.257447197896D-02 0.100000000000D+01
  </mgrwgt>
  </event>
</LesHouchesEvents>
