<event>
 5    0  0.1257040E+001  0.2863252E+03  0.7546771E-02  0.1092284E+00
         21   -1    0    0  503  501  0.00000000000E+00  0.00000000000E+00  0.15342143569E+03  0.15342143569E+03  0.00000000000E+00 0. -1.
         21   -1    0    0  504  502 -0.00000000000E+00 -0.00000000000E+00 -0.21106303742E+04  0.21106303742E+04  0.00000000000E+00 0.  1.
         25    1    1    2    0    0  0.53564054171E+02  0.39414505217E+03 -0.81439780083E+03  0.91492524724E+03  0.12500000000E+03 0.  0.
         21    1    1    2  503  502 -0.23707222982E+02 -0.22562476529E+03 -0.11554540892E+04  0.11775154859E+04  0.00000000000E+00 0. -1.
         21    1    1    2  504  501 -0.29856831189E+02 -0.16852028688E+03  0.12642951522E+02  0.17161107680E+03  0.00000000000E+00 0. -1.
<mgrwt>
<rscale>  4 0.28632524E+03</rscale>
<asrwt>0</asrwt>
<pdfrwt beam="1">  1       21 0.23603301E-01 0.28632524E+03</pdfrwt>
<pdfrwt beam="2">  1       21 0.32471232E+00 0.28632524E+03</pdfrwt>
<totfact> 0.36979863E+02</totfact>
</mgrwt>
</event>
<event>
 5    0  0.1257040E+001  0.2313396E+03  0.7546771E-02  0.1125700E+00
         21   -1    0    0  504  501  0.00000000000E+00  0.00000000000E+00  0.14449353715E+04  0.14449353715E+04  0.00000000000E+00 0.  1.
         21   -1    0    0  503  502 -0.00000000000E+00 -0.00000000000E+00 -0.57305954008E+02  0.57305954008E+02  0.00000000000E+00 0.  1.
         25    1    1    2    0    0 -0.20888249303E+03 -0.11211006915E+03  0.41590915214E+03  0.49477872461E+03  0.12500000000E+03 0.  0.
         21    1    1    2  503  501  0.64949565244E+02 -0.36593773790E+01  0.12596033044E+03  0.14176685759E+03  0.00000000000E+00 0.  1.
         21    1    1    2  504  502  0.14393292779E+03  0.11576944653E+03  0.84575993490E+03  0.86569574328E+03  0.00000000000E+00 0.  1.
<mgrwt>
<rscale>  4 0.23133956E+03</rscale>
<asrwt>0</asrwt>
<pdfrwt beam="1">  1       21 0.22229772E+00 0.23133956E+03</pdfrwt>
<pdfrwt beam="2">  1       21 0.88163017E-02 0.23133956E+03</pdfrwt>
<totfact> 0.95483812E+03</totfact>
</mgrwt>
</event>
<event>
 5    0  0.1257040E+001  0.2420541E+03  0.7546771E-02  0.1118432E+00
         21   -1    0    0  502  501  0.00000000000E+00  0.00000000000E+00  0.88747911620E+02  0.88747911620E+02  0.00000000000E+00 0.  1.
         21   -1    0    0  504  502 -0.00000000000E+00 -0.00000000000E+00 -0.67781783830E+03  0.67781783830E+03  0.00000000000E+00 0.  1.
         25    1    1    2    0    0 -0.17678635995E+03  0.10822102842E+03 -0.40236713817E+03  0.46956311816E+03  0.12500000000E+03 0.  0.
         21    1    1    2  503  501  0.89296509947E+02 -0.11218511794E+02 -0.34388357081E+02  0.96344594028E+02  0.00000000000E+00 0.  1.
         21    1    1    2  504  503  0.87489849998E+02 -0.97002516630E+02 -0.15231443142E+03  0.20065803773E+03  0.00000000000E+00 0.  1.
<mgrwt>
<rscale>  4 0.24205414E+03</rscale>
<asrwt>0</asrwt>
<pdfrwt beam="1">  1       21 0.13653524E-01 0.24205414E+03</pdfrwt>
<pdfrwt beam="2">  1       21 0.10427967E+00 0.24205414E+03</pdfrwt>
<totfact> 0.33680648E+04</totfact>
</mgrwt>
</event>
<event>
 5    0  0.1257040E+001  0.2311602E+03  0.7546771E-02  0.1125826E+00
         21   -1    0    0  504  501  0.00000000000E+00  0.00000000000E+00  0.90816077299E+02  0.90816077299E+02  0.00000000000E+00 0.  1.
         21   -1    0    0  503  502 -0.00000000000E+00 -0.00000000000E+00 -0.16115429673E+04  0.16115429673E+04  0.00000000000E+00 0.  1.
         25    1    1    2    0    0 -0.16449670770E+03  0.12477735868E+03 -0.12081163440E+03  0.26990555216E+03  0.12500000000E+03 0.  0.
         21    1    1    2  503  501  0.17069749939E+03 -0.91279501188E+02 -0.13789119390E+04  0.13924323033E+04  0.00000000000E+00 0.  1.
         21    1    1    2  504  502 -0.62007916947E+01 -0.33497857488E+02 -0.21003316562E+02  0.40021189144E+02  0.00000000000E+00 0.  1.
<mgrwt>
<rscale>  4 0.23116023E+03</rscale>
<asrwt>0</asrwt>
<pdfrwt beam="1">  1       21 0.13971705E-01 0.23116023E+03</pdfrwt>
<pdfrwt beam="2">  1       21 0.24792967E+00 0.23116023E+03</pdfrwt>
<totfact> 0.29343071E+03</totfact>
</mgrwt>
</event>
<event>
 5    0  0.1257040E+001  0.2449022E+03  0.7546771E-02  0.1116570E+00
         21   -1    0    0  502  501  0.00000000000E+00  0.00000000000E+00  0.21014336522E+03  0.21014336522E+03  0.00000000000E+00 0.  1.
         21   -1    0    0  504  502 -0.00000000000E+00 -0.00000000000E+00 -0.58674734463E+03  0.58674734463E+03  0.00000000000E+00 0.  1.
         25    1    1    2    0    0 -0.70054650227E+02 -0.28258223960E+03 -0.14488118121E+03  0.34839048900E+03  0.12500000000E+03 0.  0.
         21    1    1    2  503  501  0.16630433124E+02  0.10248210002E+03  0.45717777003E+02  0.11344279292E+03  0.00000000000E+00 0.  1.
         21    1    1    2  504  503  0.53424217102E+02  0.18010013957E+03 -0.27744057520E+03  0.33505742794E+03  0.00000000000E+00 0.  1.
<mgrwt>
<rscale>  4 0.24490217E+03</rscale>
<asrwt>0</asrwt>
<pdfrwt beam="1">  1       21 0.32329749E-01 0.24490217E+03</pdfrwt>
<pdfrwt beam="2">  1       21 0.90268822E-01 0.24490217E+03</pdfrwt>
<totfact> 0.92843999E+03</totfact>
</mgrwt>
</event>
<event>
 5    0  0.1257040E+001  0.3652336E+03  0.7546771E-02  0.1056531E+00
         21   -1    0    0  503  501  0.00000000000E+00  0.00000000000E+00  0.19038369141E+04  0.19038369141E+04  0.00000000000E+00 0.  1.
         21   -1    0    0  504  502 -0.00000000000E+00 -0.00000000000E+00 -0.26878281899E+03  0.26878281899E+03  0.00000000000E+00 0.  1.
         25    1    1    2    0    0 -0.24197529581E+03 -0.32059618135E+03  0.15817302994E+04  0.16367130767E+04  0.12500000000E+03 0.  0.
         21    1    1    2  503  502  0.10079979394E+03  0.13679210691E+03 -0.15071158210E+03  0.22712696879E+03  0.00000000000E+00 0.  1.
         21    1    1    2  504  501  0.14117550187E+03  0.18380407443E+03  0.20403537779E+03  0.30877968763E+03  0.00000000000E+00 0.  1.
<mgrwt>
<rscale>  4 0.36523357E+03</rscale>
<asrwt>0</asrwt>
<pdfrwt beam="1">  1       21 0.29289798E+00 0.36523357E+03</pdfrwt>
<pdfrwt beam="2">  1       21 0.41351204E-01 0.36523357E+03</pdfrwt>
<totfact> 0.17518687E+02</totfact>
</mgrwt>
</event>
<event>
 5    0  0.1257040E+001  0.2773183E+03  0.7546771E-02  0.1097163E+00
         21   -1    0    0  502  501  0.00000000000E+00  0.00000000000E+00  0.40318779533E+03  0.40318779533E+03  0.00000000000E+00 0. -1.
         21   -1    0    0  504  502 -0.00000000000E+00 -0.00000000000E+00 -0.37624991936E+03  0.37624991936E+03  0.00000000000E+00 0. -1.
         25    1    1    2    0    0 -0.20196015985E+03  0.26851919591E+02  0.33382174331E+02  0.24134684857E+03  0.12500000000E+03 0.  0.
         21    1    1    2  503  501  0.27478874525E+03 -0.51371799392E+02  0.18268318896E+03  0.33394769623E+03  0.00000000000E+00 0. -1.
         21    1    1    2  504  503 -0.72828585394E+02  0.24519879801E+02 -0.18912748731E+03  0.20414316989E+03  0.00000000000E+00 0. -1.
<mgrwt>
<rscale>  4 0.27731826E+03</rscale>
<asrwt>0</asrwt>
<pdfrwt beam="1">  1       21 0.62028892E-01 0.27731826E+03</pdfrwt>
<pdfrwt beam="2">  1       21 0.57884603E-01 0.27731826E+03</pdfrwt>
<totfact> 0.63957967E+03</totfact>
</mgrwt>
</event>
<event>
 5    0  0.1257040E+001  0.2274885E+03  0.7546771E-02  0.1128420E+00
         21   -1    0    0  503  501  0.00000000000E+00  0.00000000000E+00  0.41763137955E+03  0.41763137955E+03  0.00000000000E+00 0. -1.
         21   -1    0    0  501  502 -0.00000000000E+00 -0.00000000000E+00 -0.26217504666E+03  0.26217504666E+03  0.00000000000E+00 0. -1.
         25    1    1    2    0    0 -0.16435121459E+03 -0.15972850848E+03 -0.11559814350E+03  0.28550385101E+03  0.12500000000E+03 0.  0.
         21    1    1    2  503  504  0.61924595068E+01  0.63326921920E+02 -0.28010093904E+01  0.63690589950E+02  0.00000000000E+00 0.  1.
         21    1    1    2  504  502  0.15815875509E+03  0.96401586561E+02  0.27385548577E+03  0.33061198525E+03  0.00000000000E+00 0. -1.
<mgrwt>
<rscale>  4 0.22748846E+03</rscale>
<asrwt>0</asrwt>
<pdfrwt beam="1">  1       21 0.64250982E-01 0.22748846E+03</pdfrwt>
<pdfrwt beam="2">  1       21 0.40334622E-01 0.22748846E+03</pdfrwt>
<totfact> 0.12952802E+04</totfact>
</mgrwt>
</event>
<event>
 5    0  0.1257040E+001  0.2400176E+03  0.7546771E-02  0.1119781E+00
         21   -1    0    0  504  501  0.00000000000E+00  0.00000000000E+00  0.11369172775E+04  0.11369172775E+04  0.00000000000E+00 0. -1.
         21   -1    0    0  503  502 -0.00000000000E+00 -0.00000000000E+00 -0.98852000793E+02  0.98852000793E+02  0.00000000000E+00 0. -1.
         25    1    1    2    0    0 -0.69059294767E+02 -0.22420926077E+03  0.84920804960E+03  0.88984172206E+03  0.12500000000E+03 0.  0.
         21    1    1    2  503  501  0.59929562572E+02  0.19123770659E+03  0.55072206123E+02  0.20783734212E+03  0.00000000000E+00 0. -1.
         21    1    1    2  504  502  0.91297321945E+01  0.32971554176E+02  0.13378502098E+03  0.13809021411E+03  0.00000000000E+00 0. -1.
<mgrwt>
<rscale>  4 0.24001757E+03</rscale>
<asrwt>0</asrwt>
<pdfrwt beam="1">  1       21 0.17491034E+00 0.24001757E+03</pdfrwt>
<pdfrwt beam="2">  1       21 0.15208001E-01 0.24001757E+03</pdfrwt>
<totfact> 0.72748308E+03</totfact>
</mgrwt>
</event>
<event>
 5    0  0.1257040E+001  0.2109252E+03  0.7546771E-02  0.1140835E+00
         21   -1    0    0  502  501  0.00000000000E+00  0.00000000000E+00  0.57708443486E+03  0.57708443486E+03  0.00000000000E+00 0.  1.
         21   -1    0    0  504  502 -0.00000000000E+00 -0.00000000000E+00 -0.19229600026E+03  0.19229600026E+03  0.00000000000E+00 0.  1.
         25    1    1    2    0    0  0.21521683720E+03 -0.16365134136E+03  0.23116089337E+03  0.37704165177E+03  0.12500000000E+03 0.  0.
         21    1    1    2  503  501 -0.10105977776E+03  0.97606504665E+02  0.20690428566E+03  0.25009896413E+03  0.00000000000E+00 0.  1.
         21    1    1    2  504  503 -0.11415705944E+03  0.66044836696E+02 -0.53276744436E+02  0.14223981922E+03  0.00000000000E+00 0.  1.
<mgrwt>
<rscale>  4 0.21092521E+03</rscale>
<asrwt>0</asrwt>
<pdfrwt beam="1">  1       21 0.88782220E-01 0.21092521E+03</pdfrwt>
<pdfrwt beam="2">  1       21 0.29584000E-01 0.21092521E+03</pdfrwt>
<totfact> 0.11727504E+04</totfact>
</mgrwt>
</event>
<event>
 5    0  0.1257040E+001  0.2350969E+03  0.7546771E-02  0.1123103E+00
         21   -1    0    0  503  501  0.00000000000E+00  0.00000000000E+00  0.14155731764E+03  0.14155731764E+03  0.00000000000E+00 0. -1.
         21   -1    0    0  504  502 -0.00000000000E+00 -0.00000000000E+00 -0.43980868133E+03  0.43980868133E+03  0.00000000000E+00 0. -1.
         25    1    1    2    0    0  0.16820512573E+03 -0.11505238481E+03 -0.18184407168E+03  0.30037024150E+03  0.12500000000E+03 0.  0.
         21    1    1    2  503  502 -0.14841581652E+03  0.12767977902E+03 -0.14527262908E+03  0.24378990407E+03  0.00000000000E+00 0. -1.
         21    1    1    2  504  501 -0.19789309208E+02 -0.12627394211E+02  0.28865337064E+02  0.37205853401E+02  0.00000000000E+00 0. -1.
<mgrwt>
<rscale>  4 0.23509694E+03</rscale>
<asrwt>0</asrwt>
<pdfrwt beam="1">  1       21 0.21778049E-01 0.23509694E+03</pdfrwt>
<pdfrwt beam="2">  1       21 0.67662873E-01 0.23509694E+03</pdfrwt>
<totfact> 0.38467477E+04</totfact>
</mgrwt>
</event>
<event>
 5    0  0.1257040E+001  0.2791167E+03  0.7546771E-02  0.1096172E+00
         21   -1    0    0  502  501  0.00000000000E+00  0.00000000000E+00  0.40541042296E+03  0.40541042296E+03  0.00000000000E+00 0. -1.
         21   -1    0    0  504  502 -0.00000000000E+00 -0.00000000000E+00 -0.19741388035E+03  0.19741388035E+03  0.00000000000E+00 0. -1.
         25    1    1    2    0    0  0.17234706021E+03 -0.19159703050E+03  0.61811283413E+02  0.29301632381E+03  0.12500000000E+03 0.  0.
         21    1    1    2  503  501 -0.17557187482E+03  0.17082439535E+03  0.15162860180E+03  0.28809319701E+03  0.00000000000E+00 0. -1.
         21    1    1    2  504  503  0.32248146097E+01  0.20772635145E+02 -0.54433426014E+01  0.21714782495E+02  0.00000000000E+00 0.  1.
<mgrwt>
<rscale>  4 0.27911673E+03</rscale>
<asrwt>0</asrwt>
<pdfrwt beam="1">  1       21 0.62370834E-01 0.27911673E+03</pdfrwt>
<pdfrwt beam="2">  1       21 0.30371366E-01 0.27911673E+03</pdfrwt>
<totfact> 0.23754124E+04</totfact>
</mgrwt>
</event>
<event>
 5    0  0.1257040E+001  0.2502117E+03  0.7546771E-02  0.1113171E+00
         21   -1    0    0  503  501  0.00000000000E+00  0.00000000000E+00  0.19946791873E+03  0.19946791873E+03  0.00000000000E+00 0.  1.
         21   -1    0    0  504  502 -0.00000000000E+00 -0.00000000000E+00 -0.34629078392E+03  0.34629078392E+03  0.00000000000E+00 0.  1.
         25    1    1    2    0    0 -0.20176228531E+03  0.11385642258E+03 -0.60343128266E+02  0.27006961671E+03  0.12500000000E+03 0.  0.
         21    1    1    2  503  502  0.18734067887E+03 -0.90673589167E+02 -0.11367756160E+03  0.23715146583E+03  0.00000000000E+00 0.  1.
         21    1    1    2  504  501  0.14421606439E+02 -0.23182833417E+02  0.27197824674E+02  0.38537620120E+02  0.00000000000E+00 0.  1.
<mgrwt>
<rscale>  4 0.25021170E+03</rscale>
<asrwt>0</asrwt>
<pdfrwt beam="1">  1       21 0.30687372E-01 0.25021170E+03</pdfrwt>
<pdfrwt beam="2">  1       21 0.53275505E-01 0.25021170E+03</pdfrwt>
<totfact> 0.33066653E+04</totfact>
</mgrwt>
</event>
<event>
 5    0  0.1257040E+001  0.2835716E+03  0.7546771E-02  0.1093754E+00
         21   -1    0    0  504  501  0.00000000000E+00  0.00000000000E+00  0.25205504498E+03  0.25205504498E+03  0.00000000000E+00 0.  1.
         21   -1    0    0  503  502 -0.00000000000E+00 -0.00000000000E+00 -0.71001114636E+03  0.71001114636E+03  0.00000000000E+00 0.  1.
         25    1    1    2    0    0 -0.10666216964E+03  0.27137959157E+03  0.78204806389E+01  0.31734817010E+03  0.12500000000E+03 0.  0.
         21    1    1    2  503  501  0.84722030366E+02 -0.23322811947E+03 -0.51923105079E+03  0.57547724737E+03  0.00000000000E+00 0.  1.
         21    1    1    2  504  502  0.21940139269E+02 -0.38151472099E+02  0.53454468771E+02  0.69240773870E+02  0.00000000000E+00 0. -1.
<mgrwt>
<rscale>  4 0.28357160E+03</rscale>
<asrwt>0</asrwt>
<pdfrwt beam="1">  1       21 0.38777700E-01 0.28357160E+03</pdfrwt>
<pdfrwt beam="2">  1       21 0.10923248E+00 0.28357160E+03</pdfrwt>
<totfact> 0.39992221E+03</totfact>
</mgrwt>
</event>
<event>
 5    0  0.1257040E+001  0.2403878E+03  0.7546771E-02  0.1119535E+00
         21   -1    0    0  502  501  0.00000000000E+00  0.00000000000E+00  0.15966546971E+03  0.15966546971E+03  0.00000000000E+00 0.  1.
         21   -1    0    0  504  502 -0.00000000000E+00 -0.00000000000E+00 -0.13534430296E+04  0.13534430296E+04  0.00000000000E+00 0.  1.
         25    1    1    2    0    0  0.19668804387E+03  0.11314430506E+03 -0.95916861893E+03  0.99353774962E+03  0.12500000000E+03 0.  0.
         21    1    1    2  503  501 -0.17997594757E+03 -0.95462828700E+02  0.68919841935E+02  0.21506844952E+03  0.00000000000E+00 0.  1.
         21    1    1    2  504  503 -0.16712096299E+02 -0.17681476358E+02 -0.30352878286E+03  0.30450230014E+03  0.00000000000E+00 0.  1.
<mgrwt>
<rscale>  4 0.24038783E+03</rscale>
<asrwt>0</asrwt>
<pdfrwt beam="1">  1       21 0.24563918E-01 0.24038783E+03</pdfrwt>
<pdfrwt beam="2">  1       21 0.20822200E+00 0.24038783E+03</pdfrwt>
<totfact> 0.17801428E+03</totfact>
</mgrwt>
</event>
<event>
 5    0  0.1257040E+001  0.2446604E+03  0.7546771E-02  0.1116727E+00
         21   -1    0    0  502  501  0.00000000000E+00  0.00000000000E+00  0.21405152721E+04  0.21405152721E+04  0.00000000000E+00 0.  1.
         21   -1    0    0  504  502 -0.00000000000E+00 -0.00000000000E+00 -0.64936207323E+02  0.64936207323E+02  0.00000000000E+00 0.  1.
         25    1    1    2    0    0  0.16822799783E+02 -0.21471571764E+03  0.23336843723E+03  0.34127946538E+03  0.12500000000E+03 0.  0.
         21    1    1    2  503  501 -0.59653189955E+02  0.20157743254E+03  0.17389675655E+04  0.17516278595E+04  0.00000000000E+00 0.  1.
         21    1    1    2  504  503  0.42830390171E+02  0.13138285100E+02  0.10324306206E+03  0.11254415454E+03  0.00000000000E+00 0. -1.
<mgrwt>
<rscale>  4 0.24466040E+03</rscale>
<asrwt>0</asrwt>
<pdfrwt beam="1">  1       21 0.32930999E+00 0.24466040E+03</pdfrwt>
<pdfrwt beam="2">  1       21 0.99901874E-02 0.24466040E+03</pdfrwt>
<totfact> 0.17650293E+03</totfact>
</mgrwt>
</event>
<event>
 5    0  0.1257040E+001  0.2268116E+03  0.7546771E-02  0.1128904E+00
         21   -1    0    0  502  501  0.00000000000E+00  0.00000000000E+00  0.72630944139E+03  0.72630944139E+03  0.00000000000E+00 0.  1.
         21   -1    0    0  504  502 -0.00000000000E+00 -0.00000000000E+00 -0.27623429853E+03  0.27623429853E+03  0.00000000000E+00 0. -1.
         25    1    1    2    0    0  0.77525367261E+02  0.18886281396E+03  0.51904664109E+03  0.57158880385E+03  0.12500000000E+03 0.  0.
         21    1    1    2  503  501  0.25170934275E+02 -0.30800732234E+02  0.14233758595E+03  0.14779123591E+03  0.00000000000E+00 0. -1.
         21    1    1    2  504  503 -0.10269630154E+03 -0.15806208172E+03 -0.21130908418E+03  0.28316370016E+03  0.00000000000E+00 0. -1.
<mgrwt>
<rscale>  4 0.22681156E+03</rscale>
<asrwt>0</asrwt>
<pdfrwt beam="1">  1       21 0.11173991E+00 0.22681156E+03</pdfrwt>
<pdfrwt beam="2">  1       21 0.42497585E-01 0.22681156E+03</pdfrwt>
<totfact> 0.32577232E+03</totfact>
</mgrwt>
</event>
<event>
 5    0  0.1257040E+001  0.2565693E+03  0.7546771E-02  0.1109222E+00
         21   -1    0    0  502  501  0.00000000000E+00  0.00000000000E+00  0.18775328337E+03  0.18775328337E+03  0.00000000000E+00 0.  1.
         21   -1    0    0  504  502 -0.00000000000E+00 -0.00000000000E+00 -0.31575205789E+03  0.31575205789E+03  0.00000000000E+00 0.  1.
         25    1    1    2    0    0 -0.66067379971E+02 -0.21409786328E+03 -0.56082812097E+02  0.26262725596E+03  0.12500000000E+03 0.  0.
         21    1    1    2  503  501  0.44422013662E+02  0.89294579678E+02 -0.11041715113E+02  0.10034319474E+03  0.00000000000E+00 0.  1.
         21    1    1    2  504  503  0.21645366308E+02  0.12480328361E+03 -0.60874247305E+02  0.14053489057E+03  0.00000000000E+00 0.  1.
<mgrwt>
<rscale>  4 0.25656928E+03</rscale>
<asrwt>0</asrwt>
<pdfrwt beam="1">  1       21 0.28885121E-01 0.25656928E+03</pdfrwt>
<pdfrwt beam="2">  1       21 0.48577239E-01 0.25656928E+03</pdfrwt>
<totfact> 0.45098876E+04</totfact>
</mgrwt>
</event>
<event>
 5    0  0.1257040E+001  0.2552052E+03  0.7546771E-02  0.1110059E+00
         21   -1    0    0  503  501  0.00000000000E+00  0.00000000000E+00  0.15485066429E+04  0.15485066429E+04  0.00000000000E+00 0.  1.
         21   -1    0    0  504  502 -0.00000000000E+00 -0.00000000000E+00 -0.22911718562E+03  0.22911718562E+03  0.00000000000E+00 0.  1.
         25    1    1    2    0    0  0.46017565504E+02 -0.33336027434E+03  0.11689443182E+04  0.12228256245E+04  0.12500000000E+03 0.  0.
         21    1    1    2  503  502 -0.70066513063E+02  0.20518674038E+03 -0.12483572012E+03  0.25018967144E+03  0.00000000000E+00 0.  1.
         21    1    1    2  504  501  0.24048947559E+02  0.12817353396E+03  0.27528085923E+03  0.30460853262E+03  0.00000000000E+00 0.  1.
<mgrwt>
<rscale>  4 0.25520525E+03</rscale>
<asrwt>0</asrwt>
<pdfrwt beam="1">  1       21 0.23823178E+00 0.25520525E+03</pdfrwt>
<pdfrwt beam="2">  1       21 0.35248799E-01 0.25520525E+03</pdfrwt>
<totfact> 0.56482470E+02</totfact>
</mgrwt>
</event>
<event>
 5    0  0.1257040E+001  0.2546227E+03  0.7546771E-02  0.1110418E+00
         21   -1    0    0  502  501  0.00000000000E+00  0.00000000000E+00  0.21402809783E+03  0.21402809783E+03  0.00000000000E+00 0.  1.
         21   -1    0    0  504  502 -0.00000000000E+00 -0.00000000000E+00 -0.30813817487E+03  0.30813817487E+03  0.00000000000E+00 0.  1.
         25    1    1    2    0    0  0.14961631784E+03  0.17283758316E+03 -0.10831543114E+03  0.28216148805E+03  0.12500000000E+03 0.  0.
         21    1    1    2  503  501 -0.12971754163E+03 -0.17592900800E+03  0.18674680884E+02  0.21937730095E+03  0.00000000000E+00 0.  1.
         21    1    1    2  504  503 -0.19898776204E+02  0.30914248432E+01 -0.44693267819E+01  0.20627483701E+02  0.00000000000E+00 0. -1.
<mgrwt>
<rscale>  4 0.25462273E+03</rscale>
<asrwt>0</asrwt>
<pdfrwt beam="1">  1       21 0.32927400E-01 0.25462273E+03</pdfrwt>
<pdfrwt beam="2">  1       21 0.47405873E-01 0.25462273E+03</pdfrwt>
<totfact> 0.36699038E+04</totfact>
</mgrwt>
</event>
<event>
 5    0  0.1257040E+001  0.2512881E+03  0.7546771E-02  0.1112493E+00
         21   -1    0    0  502  501  0.00000000000E+00  0.00000000000E+00  0.28791161346E+03  0.28791161346E+03  0.00000000000E+00 0. -1.
         21   -1    0    0  504  502 -0.00000000000E+00 -0.00000000000E+00 -0.10927554619E+04  0.10927554619E+04  0.00000000000E+00 0. -1.
         25    1    1    2    0    0  0.13678588802E+03 -0.15910817149E+03  0.14742749796E+03  0.28528171437E+03  0.12500000000E+03 0.  0.
         21    1    1    2  503  501  0.32051760502E+02  0.20262438240E+02  0.53810883405E+02  0.65829271054E+02  0.00000000000E+00 0. -1.
         21    1    1    2  504  503 -0.16883764852E+03  0.13884573325E+03 -0.10060822298E+04  0.10295560899E+04  0.00000000000E+00 0. -1.
<mgrwt>
<rscale>  4 0.25128809E+03</rscale>
<asrwt>0</asrwt>
<pdfrwt beam="1">  1       21 0.44294094E-01 0.25128809E+03</pdfrwt>
<pdfrwt beam="2">  1       21 0.16811623E+00 0.25128809E+03</pdfrwt>
<totfact> 0.10185945E+03</totfact>
</mgrwt>
</event>
<event>
 5    0  0.1257040E+001  0.3246868E+03  0.7546771E-02  0.1073512E+00
         21   -1    0    0  502  501  0.00000000000E+00  0.00000000000E+00  0.12226767667E+04  0.12226767667E+04  0.00000000000E+00 0. -1.
         21   -1    0    0  504  502 -0.00000000000E+00 -0.00000000000E+00 -0.91398475620E+02  0.91398475620E+02  0.00000000000E+00 0. -1.
         25    1    1    2    0    0  0.15212777877E+03  0.24759200798E+03  0.49636816917E+03  0.58860090286E+03  0.12500000000E+03 0.  0.
         21    1    1    2  503  501  0.18898590169E+02  0.94060229481E+01  0.14420581890E+03  0.14574274659E+03  0.00000000000E+00 0.  1.
         21    1    1    2  504  503 -0.17102636894E+03 -0.25699803093E+03  0.49070430300E+03  0.57973159285E+03  0.00000000000E+00 0. -1.
<mgrwt>
<rscale>  4 0.32468681E+03</rscale>
<asrwt>0</asrwt>
<pdfrwt beam="1">  1       21 0.18810411E+00 0.32468681E+03</pdfrwt>
<pdfrwt beam="2">  1       21 0.14061305E-01 0.32468681E+03</pdfrwt>
<totfact> 0.64787325E+03</totfact>
</mgrwt>
</event>
<event>
 5    0  0.1257040E+001  0.2705790E+03  0.7546771E-02  0.1100949E+00
         21   -1    0    0  504  501  0.00000000000E+00  0.00000000000E+00  0.34962533687E+03  0.34962533687E+03  0.00000000000E+00 0.  1.
         21   -1    0    0  503  502 -0.00000000000E+00 -0.00000000000E+00 -0.36135271193E+03  0.36135271193E+03  0.00000000000E+00 0.  1.
         25    1    1    2    0    0  0.25941554898E+03  0.19690266068E+01  0.18311325807E+03  0.34125616390E+03  0.12500000000E+03 0.  0.
         21    1    1    2  503  501 -0.23551136590E+03 -0.19842281032E+02 -0.22569106045E+03  0.32679622756E+03  0.00000000000E+00 0.  1.
         21    1    1    2  504  502 -0.23904183081E+02  0.17873254425E+02  0.30850427310E+02  0.42925657336E+02  0.00000000000E+00 0.  1.
<mgrwt>
<rscale>  4 0.27057897E+03</rscale>
<asrwt>0</asrwt>
<pdfrwt beam="1">  1       21 0.53788513E-01 0.27057897E+03</pdfrwt>
<pdfrwt beam="2">  1       21 0.55592725E-01 0.27057897E+03</pdfrwt>
<totfact> 0.95126527E+03</totfact>
</mgrwt>
</event>
<event>
 5    0  0.1257040E+001  0.2129131E+03  0.7546771E-02  0.1139280E+00
         21   -1    0    0  504  501  0.00000000000E+00  0.00000000000E+00  0.17884908436E+03  0.17884908436E+03  0.00000000000E+00 0. -1.
         21   -1    0    0  501  502 -0.00000000000E+00 -0.00000000000E+00 -0.33490657761E+03  0.33490657761E+03  0.00000000000E+00 0. -1.
         25    1    1    2    0    0  0.86250360644E+02  0.18213488610E+03 -0.83448738396E+02  0.25139795820E+03  0.12500000000E+03 0.  0.
         21    1    1    2  503  502 -0.92552690320E+01 -0.43375131869E+02  0.46258603128E+02  0.64085259092E+02  0.00000000000E+00 0. -1.
         21    1    1    2  504  503 -0.76995091612E+02 -0.13875975423E+03 -0.11886735798E+03  0.19827244468E+03  0.00000000000E+00 0. -1.
<mgrwt>
<rscale>  4 0.21291307E+03</rscale>
<asrwt>0</asrwt>
<pdfrwt beam="1">  1       21 0.27515244E-01 0.21291307E+03</pdfrwt>
<pdfrwt beam="2">  1       21 0.51524089E-01 0.21291307E+03</pdfrwt>
<totfact> 0.44647046E+04</totfact>
</mgrwt>
</event>
<event>
 5    0  0.1257040E+001  0.2606492E+03  0.7546771E-02  0.1106754E+00
         21   -1    0    0  502  501  0.00000000000E+00  0.00000000000E+00  0.35262930673E+03  0.35262930673E+03  0.00000000000E+00 0. -1.
         21   -1    0    0  504  502 -0.00000000000E+00 -0.00000000000E+00 -0.17926972253E+03  0.17926972253E+03  0.00000000000E+00 0. -1.
         25    1    1    2    0    0  0.21436441871E+03 -0.79755116133E+02  0.85007679891E+02  0.27416106251E+03  0.12500000000E+03 0.  0.
         21    1    1    2  503  501 -0.16782488662E+03  0.57516963202E+02  0.10165828513E+03  0.20446955901E+03  0.00000000000E+00 0. -1.
         21    1    1    2  504  503 -0.46539532082E+02  0.22238152931E+02 -0.13306380820E+02  0.53268407736E+02  0.00000000000E+00 0.  1.
<mgrwt>
<rscale>  4 0.26064916E+03</rscale>
<asrwt>0</asrwt>
<pdfrwt beam="1">  1       21 0.54250662E-01 0.26064916E+03</pdfrwt>
<pdfrwt beam="2">  1       21 0.27579957E-01 0.26064916E+03</pdfrwt>
<totfact> 0.39033895E+04</totfact>
</mgrwt>
</event>
<event>
 5    0  0.1257040E+001  0.3180739E+03  0.7546771E-02  0.1076539E+00
         21   -1    0    0  502  501  0.00000000000E+00  0.00000000000E+00  0.37630753396E+03  0.37630753396E+03  0.00000000000E+00 0.  1.
         21   -1    0    0  504  502 -0.00000000000E+00 -0.00000000000E+00 -0.73855171017E+03  0.73855171017E+03  0.00000000000E+00 0. -1.
         25    1    1    2    0    0  0.12617172828E+03  0.23036497405E+03 -0.55782065669E+03  0.62910747199E+03  0.12500000000E+03 0.  0.
         21    1    1    2  503  501 -0.12380358030E+03 -0.26866438518E+03  0.27096412129E+03  0.40116010941E+03  0.00000000000E+00 0.  1.
         21    1    1    2  504  503 -0.23681479785E+01  0.38299411126E+02 -0.75387640799E+02  0.84591662725E+02  0.00000000000E+00 0. -1.
<mgrwt>
<rscale>  4 0.31807386E+03</rscale>
<asrwt>0</asrwt>
<pdfrwt beam="1">  1       21 0.57893467E-01 0.31807386E+03</pdfrwt>
<pdfrwt beam="2">  1       21 0.11362334E+00 0.31807386E+03</pdfrwt>
<totfact> 0.15386459E+03</totfact>
</mgrwt>
</event>
<event>
 5    0  0.1257040E+001  0.1939877E+03  0.7546771E-02  0.1154913E+00
         21   -1    0    0  504  501  0.00000000000E+00  0.00000000000E+00  0.87747229492E+03  0.87747229492E+03  0.00000000000E+00 0. -1.
         21   -1    0    0  503  502 -0.00000000000E+00 -0.00000000000E+00 -0.11431795860E+03  0.11431795860E+03  0.00000000000E+00 0. -1.
         25    1    1    2    0    0  0.24405217544E+03  0.42605084024E+02  0.36605686632E+03  0.45934658691E+03  0.12500000000E+03 0.  0.
         21    1    1    2  503  501 -0.11733912262E+03 -0.59564476142E+02  0.18551733338E+02  0.13289305220E+03  0.00000000000E+00 0. -1.
         21    1    1    2  504  502 -0.12671305283E+03  0.16959392117E+02  0.37854573666E+03  0.39955061441E+03  0.00000000000E+00 0. -1.
<mgrwt>
<rscale>  4 0.19398769E+03</rscale>
<asrwt>0</asrwt>
<pdfrwt beam="1">  1       21 0.13499573E+00 0.19398769E+03</pdfrwt>
<pdfrwt beam="2">  1       21 0.17587379E-01 0.19398769E+03</pdfrwt>
<totfact> 0.11502166E+04</totfact>
</mgrwt>
</event>
<event>
 5    0  0.1257040E+001  0.2521038E+03  0.7546771E-02  0.1111982E+00
         21   -1    0    0  503  501  0.00000000000E+00  0.00000000000E+00  0.66261845396E+03  0.66261845396E+03  0.00000000000E+00 0.  1.
         21   -1    0    0  504  502 -0.00000000000E+00 -0.00000000000E+00 -0.10335252064E+03  0.10335252064E+03  0.00000000000E+00 0. -1.
         25    1    1    2    0    0 -0.23154202691E+02  0.20539701778E+03  0.34829701268E+03  0.42386302157E+03  0.12500000000E+03 0.  0.
         21    1    1    2  503  502  0.30636383689E+02 -0.23587770984E+03  0.18384297929E+03  0.30062455495E+03  0.00000000000E+00 0. -1.
         21    1    1    2  504  501 -0.74821809985E+01  0.30480692059E+02  0.27125941352E+02  0.41483398067E+02  0.00000000000E+00 0. -1.
<mgrwt>
<rscale>  4 0.25210383E+03</rscale>
<asrwt>0</asrwt>
<pdfrwt beam="1">  1       21 0.10194130E+00 0.25210383E+03</pdfrwt>
<pdfrwt beam="2">  1       21 0.15900388E-01 0.25210383E+03</pdfrwt>
<totfact> 0.26797186E+04</totfact>
</mgrwt>
</event>
<event>
 5    0  0.1257040E+001  0.2869338E+03  0.7546771E-02  0.1091961E+00
         21   -1    0    0  502  501  0.00000000000E+00  0.00000000000E+00  0.78965141690E+03  0.78965141690E+03  0.00000000000E+00 0. -1.
         21   -1    0    0  504  502 -0.00000000000E+00 -0.00000000000E+00 -0.11805233534E+03  0.11805233534E+03  0.00000000000E+00 0. -1.
         25    1    1    2    0    0 -0.23585921025E+03 -0.84976824812E+02  0.19677949705E+03  0.34234163970E+03  0.12500000000E+03 0.  0.
         21    1    1    2  503  501 -0.89128906916E+01 -0.33496579156E+02  0.61824536007E+02  0.70878301956E+02  0.00000000000E+00 0. -1.
         21    1    1    2  504  503  0.24477210094E+03  0.11847340397E+03  0.41299504850E+03  0.49448381059E+03  0.00000000000E+00 0. -1.
<mgrwt>
<rscale>  4 0.28693382E+03</rscale>
<asrwt>0</asrwt>
<pdfrwt beam="1">  1       21 0.12148483E+00 0.28693382E+03</pdfrwt>
<pdfrwt beam="2">  1       21 0.18161898E-01 0.28693382E+03</pdfrwt>
<totfact> 0.13395050E+04</totfact>
</mgrwt>
</event>
<event>
 5    0  0.1257040E+001  0.1958591E+03  0.7546771E-02  0.1153280E+00
         21   -1    0    0  503  501  0.00000000000E+00  0.00000000000E+00  0.51976423687E+03  0.51976423687E+03  0.00000000000E+00 0. -1.
         21   -1    0    0  504  502 -0.00000000000E+00 -0.00000000000E+00 -0.53578062754E+03  0.53578062754E+03  0.00000000000E+00 0. -1.
         25    1    1    2    0    0 -0.10827212595E+03 -0.21872692912E+03 -0.72526770829E+02  0.28363613181E+03  0.12500000000E+03 0.  0.
         21    1    1    2  503  502  0.45581282507E+02  0.13114010965E+03 -0.33670630258E+03  0.36420669388E+03  0.00000000000E+00 0. -1.
         21    1    1    2  504  501  0.62690843444E+02  0.87586819468E+02  0.39321668274E+03  0.40770203872E+03  0.00000000000E+00 0. -1.
<mgrwt>
<rscale>  4 0.19585908E+03</rscale>
<asrwt>0</asrwt>
<pdfrwt beam="1">  1       21 0.79963729E-01 0.19585908E+03</pdfrwt>
<pdfrwt beam="2">  1       21 0.82427789E-01 0.19585908E+03</pdfrwt>
<totfact> 0.17642819E+03</totfact>
</mgrwt>
</event>
<event>
 5    0  0.1257040E+001  0.3138360E+03  0.7546771E-02  0.1078522E+00
         21   -1    0    0  504  501  0.00000000000E+00  0.00000000000E+00  0.45361448552E+03  0.45361448552E+03  0.00000000000E+00 0. -1.
         21   -1    0    0  503  502 -0.00000000000E+00 -0.00000000000E+00 -0.78824557813E+03  0.78824557813E+03  0.00000000000E+00 0.  1.
         25    1    1    2    0    0 -0.65790407624E+02 -0.25776608200E+03 -0.66579107593E+03  0.72778739173E+03  0.12500000000E+03 0.  0.
         21    1    1    2  503  501  0.96383807145E+01 -0.26201283784E+02 -0.36616177553E+02  0.46045087830E+02  0.00000000000E+00 0. -1.
         21    1    1    2  504  502  0.56152026910E+02  0.28396736578E+03  0.36777616088E+03  0.46802758409E+03  0.00000000000E+00 0. -1.
<mgrwt>
<rscale>  4 0.31383598E+03</rscale>
<asrwt>0</asrwt>
<pdfrwt beam="1">  1       21 0.69786844E-01 0.31383598E+03</pdfrwt>
<pdfrwt beam="2">  1       21 0.12126855E+00 0.31383598E+03</pdfrwt>
<totfact> 0.87005350E+02</totfact>
</mgrwt>
</event>
<event>
 5    0  0.1257040E+001  0.2177640E+03  0.7546771E-02  0.1135561E+00
         21   -1    0    0  502  501  0.00000000000E+00  0.00000000000E+00  0.17655686632E+04  0.17655686632E+04  0.00000000000E+00 0.  1.
         21   -1    0    0  504  502 -0.00000000000E+00 -0.00000000000E+00 -0.16990730648E+03  0.16990730648E+03  0.00000000000E+00 0. -1.
         25    1    1    2    0    0 -0.25477686053E+03  0.12350138567E+02  0.25122800315E+03  0.37921535326E+03  0.12500000000E+03 0.  0.
         21    1    1    2  503  501  0.92903365176E+02  0.60188933836E+01  0.13852000056E+04  0.13883250044E+04  0.00000000000E+00 0.  1.
         21    1    1    2  504  503  0.16187349535E+03 -0.18369031950E+02 -0.40766652102E+02  0.16793561194E+03  0.00000000000E+00 0. -1.
<mgrwt>
<rscale>  4 0.21776395E+03</rscale>
<asrwt>0</asrwt>
<pdfrwt beam="1">  1       21 0.27162594E+00 0.21776395E+03</pdfrwt>
<pdfrwt beam="2">  1       21 0.26139587E-01 0.21776395E+03</pdfrwt>
<totfact> 0.67018573E+02</totfact>
</mgrwt>
</event>
<event>
 5    0  0.1257040E+001  0.2919157E+03  0.7546771E-02  0.1089353E+00
         21   -1    0    0  503  501  0.00000000000E+00  0.00000000000E+00  0.14748631338E+04  0.14748631338E+04  0.00000000000E+00 0.  1.
         21   -1    0    0  504  502 -0.00000000000E+00 -0.00000000000E+00 -0.17319517924E+03  0.17319517924E+03  0.00000000000E+00 0.  1.
         25    1    1    2    0    0 -0.12733428071E+03 -0.36679301529E+03  0.35173490636E+03  0.53860336006E+03  0.12500000000E+03 0.  0.
         21    1    1    2  503  502  0.96501339769E+02  0.12505800147E+03  0.33897056067E+02  0.16155810942E+03  0.00000000000E+00 0.  1.
         21    1    1    2  504  501  0.30832940939E+02  0.24173501383E+03  0.91603599215E+03  0.94789684358E+03  0.00000000000E+00 0.  1.
<mgrwt>
<rscale>  4 0.29191575E+03</rscale>
<asrwt>0</asrwt>
<pdfrwt beam="1">  1       21 0.22690201E+00 0.29191575E+03</pdfrwt>
<pdfrwt beam="2">  1       21 0.26645413E-01 0.29191575E+03</pdfrwt>
<totfact> 0.11142307E+03</totfact>
</mgrwt>
</event>
<event>
 5    0  0.1257040E+001  0.3279551E+03  0.7546771E-02  0.1072045E+00
         21   -1    0    0  503  501  0.00000000000E+00  0.00000000000E+00  0.32710996065E+03  0.32710996065E+03  0.00000000000E+00 0. -1.
         21   -1    0    0  504  502 -0.00000000000E+00 -0.00000000000E+00 -0.78695358513E+03  0.78695358513E+03  0.00000000000E+00 0. -1.
         25    1    1    2    0    0  0.22376691410E+03  0.59103998139E+02 -0.73218786756E+02  0.27304011642E+03  0.12500000000E+03 0.  0.
         21    1    1    2  503  502  0.10731805170E+03  0.11844314417E+03 -0.43387438581E+03  0.46237747056E+03  0.00000000000E+00 0. -1.
         21    1    1    2  504  501 -0.33108496580E+03 -0.17754714231E+03  0.47249548088E+02  0.37864595880E+03  0.00000000000E+00 0. -1.
<mgrwt>
<rscale>  4 0.32795507E+03</rscale>
<asrwt>0</asrwt>
<pdfrwt beam="1">  1       21 0.50324610E-01 0.32795507E+03</pdfrwt>
<pdfrwt beam="2">  1       21 0.12106978E+00 0.32795507E+03</pdfrwt>
<totfact> 0.17616806E+03</totfact>
</mgrwt>
</event>
<event>
 5    0  0.1257040E+001  0.2203136E+03  0.7546771E-02  0.1133649E+00
         21   -1    0    0  502  501  0.00000000000E+00  0.00000000000E+00  0.51548297038E+02  0.51548297038E+02  0.00000000000E+00 0. -1.
         21   -1    0    0  504  502 -0.00000000000E+00 -0.00000000000E+00 -0.17481885824E+04  0.17481885824E+04  0.00000000000E+00 0. -1.
         25    1    1    2    0    0 -0.16673029636E+03  0.16052290506E+03 -0.99963508936E+03  0.10336643104E+04  0.12500000000E+03 0.  0.
         21    1    1    2  503  501  0.88949235326E+02 -0.24790794045E+02 -0.59956658317E+02  0.11009700637E+03  0.00000000000E+00 0. -1.
         21    1    1    2  504  503  0.77781061038E+02 -0.13573211102E+03 -0.63704853765E+03  0.65597556261E+03  0.00000000000E+00 0. -1.
<mgrwt>
<rscale>  4 0.22031363E+03</rscale>
<asrwt>0</asrwt>
<pdfrwt beam="1">  1       21 0.79305095E-02 0.22031363E+03</pdfrwt>
<pdfrwt beam="2">  1       21 0.26895201E+00 0.22031363E+03</pdfrwt>
<totfact> 0.61084482E+03</totfact>
</mgrwt>
</event>
<event>
 5    0  0.1257040E+001  0.2522199E+03  0.7546771E-02  0.1111910E+00
         21   -1    0    0  503  501  0.00000000000E+00  0.00000000000E+00  0.40458526781E+03  0.40458526781E+03  0.00000000000E+00 0. -1.
         21   -1    0    0  501  502 -0.00000000000E+00 -0.00000000000E+00 -0.14672753411E+03  0.14672753411E+03  0.00000000000E+00 0. -1.
         25    1    1    2    0    0  0.16601663380E+02  0.21843589523E+03  0.75784294816E+02  0.26335928860E+03  0.12500000000E+03 0.  0.
         21    1    1    2  503  504 -0.33543200777E+01 -0.20173488113E+03  0.16415022552E+03  0.26010288400E+03  0.00000000000E+00 0. -1.
         21    1    1    2  504  502 -0.13247343303E+02 -0.16701014096E+02  0.17923213361E+02  0.27850629322E+02  0.00000000000E+00 0.  1.
<mgrwt>
<rscale>  4 0.25221986E+03</rscale>
<asrwt>0</asrwt>
<pdfrwt beam="1">  1       21 0.62243887E-01 0.25221986E+03</pdfrwt>
<pdfrwt beam="2">  1       21 0.22573467E-01 0.25221986E+03</pdfrwt>
<totfact> 0.42828282E+04</totfact>
</mgrwt>
</event>
