<event>
 5    0  0.1911311E+001  0.2714048E+03  0.7546771E-02  0.1100478E+00
         21   -1    0    0  504  501  0.00000000000E+00  0.00000000000E+00  0.11196322796E+04  0.11196322796E+04  0.00000000000E+00 0.  1.
         21   -1    0    0  501  502 -0.00000000000E+00 -0.00000000000E+00 -0.71888922175E+02  0.71888922175E+02  0.00000000000E+00 0.  1.
         25    1    1    2    0    0 -0.16027716879E+03  0.17985211430E+03  0.78365517002E+03  0.82932260270E+03  0.12500000000E+03 0.  0.
         21    1    1    2  503  502  0.42538119273E+02 -0.72264865919E+02  0.59652531899E+02  0.10290834271E+03  0.00000000000E+00 0.  1.
         21    1    1    2  504  503  0.11773904952E+03 -0.10758724838E+03  0.20443565546E+03  0.25929025631E+03  0.00000000000E+00 0.  1.
<mgrwt>
<rscale>  4 0.27140478E+03</rscale>
<asrwt>0</asrwt>
<pdfrwt beam="1">  1       21 0.17225111E+00 0.27140478E+03</pdfrwt>
<pdfrwt beam="2">  1       21 0.11059835E-01 0.27140478E+03</pdfrwt>
<totfact> 0.13266085E+04</totfact>
</mgrwt>
</event>
<event>
 5    0  0.3996580E+001  0.2819613E+03  0.7546771E-02  0.1094623E+00
         21   -1    0    0  502  501  0.00000000000E+00  0.00000000000E+00  0.16200405443E+04  0.16200405443E+04  0.00000000000E+00 0. -1.
         21   -1    0    0  504  502 -0.00000000000E+00 -0.00000000000E+00 -0.57795258582E+02  0.57795258582E+02  0.00000000000E+00 0. -1.
         25    1    1    2    0    0 -0.11766859373E+03  0.20631626928E+03  0.94559087702E+03  0.98294425459E+03  0.12500000000E+03 0.  0.
         21    1    1    2  503  501 -0.53186916935E+02 -0.75425019354E+01  0.15463262626E+03  0.16369785146E+03  0.00000000000E+00 0.  1.
         21    1    1    2  504  503  0.17085551066E+03 -0.19877376735E+03  0.46202178240E+03  0.53119369680E+03  0.00000000000E+00 0. -1.
<mgrwt>
<rscale>  4 0.28196128E+03</rscale>
<asrwt>0</asrwt>
<pdfrwt beam="1">  1       21 0.24923697E+00 0.28196128E+03</pdfrwt>
<pdfrwt beam="2">  1       21 0.88915795E-02 0.28196128E+03</pdfrwt>
<totfact> 0.62188698E+03</totfact>
</mgrwt>
</event>
<event>
 5    0  0.1911311E+001  0.2162853E+03  0.7546771E-02  0.1136683E+00
         21   -1    0    0  502  501  0.00000000000E+00  0.00000000000E+00  0.23797119887E+03  0.23797119887E+03  0.00000000000E+00 0.  1.
         21   -1    0    0  504  502 -0.00000000000E+00 -0.00000000000E+00 -0.29453087676E+03  0.29453087676E+03  0.00000000000E+00 0.  1.
         25    1    1    2    0    0  0.10318316423E+03  0.17543138025E+03 -0.20258727899E+02  0.23970471546E+03  0.12500000000E+03 0.  0.
         21    1    1    2  503  501 -0.34530617834E+02 -0.16358645687E+03  0.56746764887E+02  0.17655902062E+03  0.00000000000E+00 0.  1.
         21    1    1    2  504  503 -0.68652546394E+02 -0.11844923386E+02 -0.93047714878E+02  0.11623833955E+03  0.00000000000E+00 0.  1.
<mgrwt>
<rscale>  4 0.21628528E+03</rscale>
<asrwt>0</asrwt>
<pdfrwt beam="1">  1       21 0.36610954E-01 0.21628528E+03</pdfrwt>
<pdfrwt beam="2">  1       21 0.45312442E-01 0.21628528E+03</pdfrwt>
<totfact> 0.33199104E+04</totfact>
</mgrwt>
</event>
