<LesHouchesEvents version="3.0">
  <!--
  <scalesfunctionalform>
    muR  H_T/2 := sum_i mT(i)/2, i=final state
    muF1 H_T/2 := sum_i mT(i)/2, i=final state
    muF2 H_T/2 := sum_i mT(i)/2, i=final state
    QES  H_T/2 := sum_i mT(i)/2, i=final state
  </scalesfunctionalform>
HERWIG6   
  -->
  <header>
       23
  </header>
  <init>
   2212   2212 0.65000000D+04 0.65000000D+04 -1 -1   244800   244800 -4   1
 0.48530205D-04 0.20731922D-05 0.24873396D-05     66
  </init>
  <event>
  6     66 0.24873396E-05 0.84092997E+01 0.75467711E-02 0.93240796E-01
        1 -1    0    0  503    0 0.00000000E+00 0.00000000E+00 0.10013085E+04 0.10013085E+04 0.32000000E+00 0.0000E+00 0.9000E+01
       -1 -1    0    0    0  501 0.00000000E+00 0.00000000E+00 -.38001350E+03 0.38001363E+03 0.32000000E+00 0.0000E+00 0.9000E+01
       25  1    1    2    0    0 0.75700070E+02 -.55345381E+03 0.44887536E+03 0.72743090E+03 0.12500000E+03 0.0000E+00 0.9000E+01
        1  1    1    2  502    0 -.53175430E+02 0.35620168E+03 0.38106570E+02 0.36215946E+03 0.32000000E+00 0.0000E+00 0.9000E+01
       -1  1    1    2    0  502 -.25703098E+02 0.18333063E+03 0.31324639E+02 0.18775543E+03 0.32000000E+00 0.0000E+00 0.9000E+01
       21  1    1    2  503  501 0.31784575E+01 0.13921504E+02 0.10298841E+03 0.10397637E+03 0.75000000E+00 0.0000E+00 0.9000E+01
#aMCatNLO 2  0  0  1  2 0.11370054D+03 0.00000000D+00  -5  6  0 0.00000000D+00 0.00000000D+00 0.00000000D+00 0.00000000D+00 0.00000000D+00
  <mgrwgt>
 0.1622337028D-04    1    2    0
 0.583687986497033D+03 0.000000000000000D+00 0.000000000000000D+00 0.583687986497033D+03
 0.583687986497033D+03 0.000000000000000D+00 0.000000000000000D+00 -.583687986497033D+03
 0.590265382131676D+03 0.773158114941027D+02 -.546377173164527D+03 0.168173931632709D+03
 0.383532208862629D+03 -.521468213654465D+02 0.360818229724781D+03 -.119112842946521D+03
 0.193578381999760D+03 -.251689901286562D+02 0.185558943439745D+03 -.490610886861880D+02
 0.000000000000000D+00 0.000000000000000D+00 0.000000000000000D+00 0.000000000000000D+00
 0.651009580564339D+03 0.000000000000000D+00 0.000000000000000D+00 0.651009580564339D+03
 0.584489371753813D+03 0.000000000000000D+00 0.000000000000000D+00 -.584489371753813D+03
 0.596614833523927D+03 0.757000907235030D+02 -.553453958847918D+03 0.168173931632709D+03
 0.379399957954094D+03 -.531854142514215D+02 0.356269238710937D+03 -.119112842946521D+03
 0.191448515516365D+03 -.256931339700907D+02 0.183263216541511D+03 -.490610886861880D+02
 0.680356453237663D+02 0.317845749800915D+01 0.139215035954701D+02 0.665202088105260D+02
0.253754865238D-05 0.000000000000D+00 0.000000000000D+00 0.336065790395D-07 0.103526892067D-08  6 1 -1 25 1 -1 21 2 0.15404693D+00 0.58463423D-01 0.32034148D+06 0.32034148D+06 0.32034148D+06 0.10824502D+01  1  2  1  1  6  1        1 0.162233702844D-04 0.100000000000D+01
  </mgrwgt>
  </event>
  <event>
  7     66 0.24873396E-05 0.36766371E+02 0.75467711E-02 0.90159007E-01
        1 -1    0    0  503    0 0.00000000E+00 0.00000000E+00 0.15189604E+04 0.15189604E+04 0.32000000E+00 0.0000E+00 0.9000E+01
       -1 -1    0    0    0  501 0.00000000E+00 0.00000000E+00 -.40836061E+03 0.40836073E+03 0.32000000E+00 0.0000E+00 0.9000E+01
       23  2    1    2    0    0 0.49927464E+03 -.47989933E+03 0.26788250E+03 0.74816966E+03 0.91751210E+02 0.0000E+00 0.0000E+00
       25  1    1    2    0    0 -.56566640E+03 0.47509482E+03 0.71763439E+03 0.10374573E+04 0.12500000E+03 0.0000E+00 0.9000E+01
        1  1    3    3  502    0 0.17071136E+03 -.11591916E+03 0.10467259E+03 0.23137864E+03 0.32000000E+00 0.0000E+00 0.9000E+01
       -1  1    3    3    0  502 0.32856328E+03 -.36398016E+03 0.16320990E+03 0.51679102E+03 0.32000000E+00 0.0000E+00 0.9000E+01
       21  1    1    2  503  501 0.66391757E+02 0.48045036E+01 0.12508290E+03 0.14169419E+03 0.75000000E+00 0.0000E+00 0.9000E+01
#aMCatNLO 2  0  0  1  2 0.11370054D+03 0.00000000D+00  -5  6  0 0.00000000D+00 0.00000000D+00 0.00000000D+00 0.00000000D+00 0.00000000D+00
  <mgrwgt>
 0.2309690712D-04    1    2    0
 0.743772347873290D+03 0.000000000000000D+00 0.000000000000000D+00 0.743772347873290D+03
 0.743772347873290D+03 0.000000000000000D+00 0.000000000000000D+00 -.743772347873290D+03
 0.746194700452590D+03 -.531867332435935D+03 0.477540723583566D+03 0.173935416147192D+03
 0.215637631172200D+03 0.180162677060921D+03 -.115232054677257D+03 -.276146943973217D+02
 0.525712364121790D+03 0.351704655375014D+03 -.362308668906309D+03 -.146320721749870D+03
 0.000000000000000D+00 0.000000000000000D+00 0.000000000000000D+00 0.000000000000000D+00
 0.816189305492089D+03 0.000000000000000D+00 0.000000000000000D+00 0.816189305492089D+03
 0.759972156494545D+03 0.000000000000000D+00 0.000000000000000D+00 -.759972156494545D+03
 0.769137237755893D+03 -.565666396310178D+03 0.475094821691339D+03 0.173935416147192D+03
 0.208184621761187D+03 0.170709437782432D+03 -.115916147465299D+03 -.276146943973217D+02
 0.511711441150570D+03 0.328565201520095D+03 -.363983177827012D+03 -.146320721749870D+03
 0.871281613189834D+02 0.663917570076515D+02 0.480450360097210D+01 0.562171489975434D+02
0.102570908210D-04 0.000000000000D+00 0.000000000000D+00 0.451867851264D-04 0.619485571819D-07  6 1 -1 25 1 -1 21 2 0.23368574D+00 0.62824590D-01 0.57188985D+06 0.57188985D+06 0.57188985D+06 0.10644113D+01  1  2  1  1  6  1        1 0.230969071160D-04 0.100000000000D+01
  </mgrwgt>
  </event>
  <event>
  7     66 0.24873396E-05 0.55170715E+02 0.75467711E-02 0.94813308E-01
       21 -1    0    0  501  503 0.00000000E+00 0.00000000E+00 0.28865963E+03 0.28866060E+03 0.75000000E+00 0.0000E+00 0.9000E+01
       -1 -1    0    0    0  501 0.00000000E+00 0.00000000E+00 -.98021958E+03 0.98021963E+03 0.32000000E+00 0.0000E+00 0.9000E+01
       23  2    1    2    0    0 -.54069446E+02 -.44872193E+03 -.25430007E+03 0.52664526E+03 0.91716025E+02 0.0000E+00 0.0000E+00
       25  1    1    2    0    0 0.94928031E+02 0.46210530E+03 -.47791124E+03 0.68306426E+03 0.12500000E+03 0.0000E+00 0.9000E+01
        1  1    3    3  502    0 -.20055783E+02 -.26434266E+03 -.98295117E+02 0.28273894E+03 0.32000000E+00 0.0000E+00 0.9000E+01
       -1  1    3    3    0  502 -.34013663E+02 -.18437926E+03 -.15600495E+03 0.24390632E+03 0.32000000E+00 0.0000E+00 0.9000E+01
       -1  1    1    2    0  503 -.40858585E+02 -.13383369E+02 0.40651356E+02 0.59170717E+02 0.32000000E+00 0.0000E+00 0.9000E+01
#aMCatNLO 2  0  0  1  2 0.11370054D+03 0.00000000D+00  -5  6  0 0.00000000D+00 0.00000000D+00 0.00000000D+00 0.00000000D+00 0.00000000D+00
  <mgrwgt>
 0.8388163178D-04    1    2    0
 0.480992511111584D+03 0.000000000000000D+00 0.000000000000000D+00 0.480992511111584D+03
 0.480992511111584D+03 0.000000000000000D+00 0.000000000000000D+00 -.480992511111584D+03
 0.484741618736377D+03 0.741382143368974D+02 0.455295519745128D+03 -.809873558656727D+02
 0.285261752193113D+03 -.320634644195953D+02 -.268276848029162D+03 0.915081107073904D+02
 0.191981651293678D+03 -.420747499173021D+02 -.187018671715966D+03 -.105207548417177D+02
 0.000000000000000D+00 -.000000000000000D+00 -.000000000000000D+00 0.000000000000000D+00
 0.582125321746402D+03 0.000000000000000D+00 0.000000000000000D+00 0.582125321746402D+03
 0.486064048904820D+03 0.000000000000000D+00 0.000000000000000D+00 -.486064048904820D+03
 0.494708587633394D+03 0.949280311894714D+02 0.462105295103405D+03 -.809873558656727D+02
 0.280452348012029D+03 -.200556130171490D+02 -.264343635381543D+03 0.915081107073904D+02
 0.187784401078831D+03 -.340138330638436D+02 -.184378290930361D+03 -.105207548417177D+02
 0.105244033926969D+03 -.408585851084788D+02 -.133833687915008D+02 0.960612728415821D+02
0.362893747898D-05 0.000000000000D+00 0.000000000000D+00 0.663853236819D-04 0.324677283458D-08  6 21 -1 25 1 -1 -1 2 0.44409231D-01 0.15080302D+00 0.24187801D+06 0.24187801D+06 0.24187801D+06 0.10915398D+01  1  2  1  5  6  1        1 0.838816317769D-04 0.100000000000D+01
  </mgrwgt>
  </event>
  <event>
  7     66 0.24873396E-05 0.20422895E+02 0.75467711E-02 0.92420182E-01
        1 -1    0    0  501    0 0.00000000E+00 0.00000000E+00 0.97586675E+03 0.97586680E+03 0.32000000E+00 0.0000E+00 0.9000E+01
       21 -1    0    0  503  501 0.00000000E+00 0.00000000E+00 -.44702921E+03 0.44702984E+03 0.75000000E+00 0.0000E+00 0.9000E+01
       23  2    1    2    0    0 0.37765986E+03 -.46829509E+03 0.46923587E+03 0.76844501E+03 0.91641534E+02 0.0000E+00 0.0000E+00
       25  1    1    2    0    0 -.36606620E+03 0.44418617E+03 0.10830592E+03 0.59888312E+03 0.12500000E+03 0.0000E+00 0.9000E+01
        1  1    3    3  502    0 0.59111648E+02 -.42038814E+02 0.30187020E+02 0.78567216E+02 0.32000000E+00 0.0000E+00 0.9000E+01
        1  1    1    2  503    0 -.11593656E+02 0.24108925E+02 -.48704250E+02 0.55568512E+02 0.32000000E+00 0.0000E+00 0.9000E+01
       -1  1    3    3    0  502 0.31854821E+03 -.42625628E+03 0.43904885E+03 0.68987780E+03 0.32000000E+00 0.0000E+00 0.9000E+01
#aMCatNLO 2  0  0  2  4 0.20070845D+02 0.00000000D+00  -5  6  0 0.00000000D+00 0.00000000D+00 0.00000000D+00 0.00000000D+00 0.00000000D+00
  <mgrwgt>
 0.3550375852D-04    1    2    0
 0.619539352680956D+03 0.000000000000000D+00 0.000000000000000D+00 0.619539352680956D+03
 0.619539352680956D+03 0.000000000000000D+00 0.000000000000000D+00 -.619539352680956D+03
 0.622455563395925D+03 -.371832524520872D+03 0.456177186700704D+03 -.159589712841411D+03
 0.712520551232091D+02 0.584355460854428D+02 -.406347581846508D+02 -.331039880556341D+01
 0.000000000000000D+00 -.000000000000000D+00 0.000000000000000D+00 -.000000000000000D+00
 0.545371086842778D+03 0.313396978435430D+03 -.415542428516053D+03 0.162900111646974D+03
 0.621870548109238D+03 0.000000000000000D+00 0.000000000000000D+00 0.621870548109238D+03
 0.701498087442705D+03 0.000000000000000D+00 0.000000000000000D+00 -.701498087442705D+03
 0.610245600070075D+03 -.366066204619796D+03 0.444186165695578D+03 -.159589712841411D+03
 0.726060579350918D+02 0.591084844462106D+02 -.420341286943611D+02 -.331039880556341D+01
 0.840011794630581D+02 -.115936561496680D+02 0.241089250686418D+02 -.796275393334666D+02
 0.556515798083718D+03 0.318551376323253D+03 -.426260962069859D+03 0.162900111646974D+03
0.925186456935D-06 0.000000000000D+00 0.000000000000D+00 0.154110377949D-04 0.132203851569D-08  6 1 21 25 1 1 -1 2 0.15013333D+00 0.68773743D-01 0.37236293D+06 0.37236293D+06 0.37236293D+06 0.10776763D+01  1  2  1  6  5  2       -1 0.355037585156D-04 0.100000000000D+01
  </mgrwgt>
  </event>
  <event>
  7     66 0.24873396E-05 0.57406356E+02 0.75467711E-02 0.90348625E-01
        1 -1    0    0  501    0 0.00000000E+00 0.00000000E+00 0.60261038E+03 0.60261047E+03 0.32000000E+00 0.0000E+00 0.9000E+01
       -1 -1    0    0    0  503 0.00000000E+00 0.00000000E+00 -.12938025E+04 0.12938025E+04 0.32000000E+00 0.0000E+00 0.9000E+01
       23  2    1    2    0    0 0.55748046E+03 -.42381085E+03 -.12934698E+03 0.71798196E+03 0.91473236E+02 0.0000E+00 0.0000E+00
       25  1    1    2    0    0 -.48888433E+03 0.47510449E+03 -.90026900E+02 0.69890057E+03 0.12500000E+03 0.0000E+00 0.9000E+01
        1  1    3    3  502    0 0.12658282E+03 -.14702772E+03 -.40623584E+02 0.19821892E+03 0.32000000E+00 0.0000E+00 0.9000E+01
       -1  1    3    3    0  502 0.43089764E+03 -.27678313E+03 -.88723391E+02 0.51976304E+03 0.32000000E+00 0.0000E+00 0.9000E+01
       21  1    1    2  501  503 -.68596126E+02 -.51293638E+02 -.47181825E+03 0.47953049E+03 0.75000000E+00 0.0000E+00 0.9000E+01
#aMCatNLO 2  0  0  2  4 0.20070845D+02 0.00000000D+00  -5  6  0 0.00000000D+00 0.00000000D+00 0.00000000D+00 0.00000000D+00 0.00000000D+00
  <mgrwgt>
 0.8080888280D-04    1    2    0
 0.698586918080000D+03 0.000000000000000D+00 0.000000000000000D+00 0.698586918080000D+03
 0.698586918080000D+03 0.000000000000000D+00 0.000000000000000D+00 -.698586918080000D+03
 0.701184177946383D+03 -.523084813412596D+03 0.449530635907941D+03 0.184048026247807D+02
 0.193815820759753D+03 0.117061283064829D+03 -.154143203852215D+03 -.100549037870651D+02
 0.502173837453864D+03 0.406023530347766D+03 -.295387432055726D+03 -.834989883771565D+01
 0.000000000000000D+00 -.000000000000000D+00 -.000000000000000D+00 -.000000000000000D+00
 0.704405591523650D+03 0.000000000000000D+00 0.000000000000000D+00 0.704405591523650D+03
 0.110683134768272D+04 0.000000000000000D+00 0.000000000000000D+00 -.110683134768272D+04
 0.693322364014003D+03 -.488884331237191D+03 0.475104487826702D+03 0.184048026247807D+02
 0.194267993881641D+03 0.126579096847580D+03 -.147026135764636D+03 -.100549037870651D+02
 0.512206482433086D+03 0.430901359892119D+03 -.276784713954723D+03 -.834989883771565D+01
 0.411440098877637D+03 -.685961255025074D+02 -.512936381073434D+02 -.402425756159067D+03
0.125238348951D-03 0.000000000000D+00 0.000000000000D+00 0.446740653410D-04 0.405885923494D-07  6 1 -1 25 1 -1 21 2 0.92709254D-01 0.19904645D+00 0.55121510D+06 0.55121510D+06 0.55121510D+06 0.10655301D+01  1  2  1  2  6  2       -1 0.808088827960D-04 0.100000000000D+01
  </mgrwgt>
  </event>
  <event>
  7     66 0.24873396E-05 0.13509462E+03 0.75467711E-02 0.89679392E-01
        1 -1    0    0  501    0 0.00000000E+00 0.00000000E+00 0.17815968E+04 0.17815968E+04 0.32000000E+00 0.0000E+00 0.9000E+01
       21 -1    0    0  503  501 0.00000000E+00 0.00000000E+00 -.43394876E+03 0.43394941E+03 0.75000000E+00 0.0000E+00 0.9000E+01
       23  2    1    2    0    0 0.39144064E+03 -.59851480E+03 0.87123579E+03 0.11308621E+04 0.91386270E+02 0.0000E+00 0.0000E+00
       25  1    1    2    0    0 -.24805163E+03 0.65817705E+03 0.56054435E+03 0.90805375E+03 0.12500000E+03 0.0000E+00 0.9000E+01
        1  1    3    3  502    0 0.33318105E+03 -.49596022E+03 0.77536710E+03 0.97886690E+03 0.32000000E+00 0.0000E+00 0.9000E+01
        1  1    1    2  503    0 -.14338900E+03 -.59662246E+02 -.84132121E+02 0.17663042E+03 0.32000000E+00 0.0000E+00 0.9000E+01
       -1  1    3    3    0  502 0.58259592E+02 -.10255458E+03 0.95868687E+02 0.15199516E+03 0.32000000E+00 0.0000E+00 0.9000E+01
#aMCatNLO 2  0  0  2  1 0.63147465D+02 0.00000000D+00  -5  6  0 0.00000000D+00 0.00000000D+00 0.00000000D+00 0.00000000D+00 0.00000000D+00
  <mgrwgt>
 0.1374471019D-04    1    2    0
 0.721641062728420D+03 0.000000000000000D+00 0.000000000000000D+00 0.721641062728420D+03
 0.721641062728420D+03 0.000000000000000D+00 0.000000000000000D+00 -.721641062728420D+03
 0.724160857572942D+03 -.319709795794999D+03 0.628361044504220D+03 -.108314319750733D+03
 0.601057891567768D+03 0.273192019433164D+03 -.520927079145797D+03 0.123578670273432D+03
 0.000000000000000D+00 -.000000000000000D+00 -.000000000000000D+00 -.000000000000000D+00
 0.118063376316131D+03 0.465177763618345D+02 -.107433965358423D+03 -.152643505226991D+02
 0.745150584696966D+03 0.000000000000000D+00 0.000000000000000D+00 0.745150584696966D+03
 0.103753836218953D+04 0.000000000000000D+00 0.000000000000000D+00 -.103753836218953D+04
 0.722553548025874D+03 -.248051633653133D+03 0.658177046807108D+03 -.108314319750733D+03
 0.610135124093643D+03 0.333184416803007D+03 -.495965045447615D+03 0.123578670273432D+03
 0.331074919765649D+03 -.143389004134103D+03 -.596622457188786D+02 -.292387777492565D+03
 0.118925355001332D+03 0.582562209842288D+02 -.102549755640614D+03 -.152643505226991D+02
0.131596929097D-05 0.000000000000D+00 0.000000000000D+00 0.428666279136D-04 0.263395927135D-09  6 1 21 25 1 1 -1 2 0.27409184D+00 0.66761394D-01 0.62815600D+06 0.62815600D+06 0.62815600D+06 0.10615764D+01  1  2  1  6  5  2       -1 0.137447101896D-04 0.100000000000D+01
  </mgrwgt>
  </event>
  <event>
  7     66 0.24873396E-05 0.65735738E+02 0.75467711E-02 0.91106385E-01
        1 -1    0    0  503    0 0.00000000E+00 0.00000000E+00 0.92216376E+03 0.92216382E+03 0.32000000E+00 0.0000E+00 0.9000E+01
       -1 -1    0    0    0  501 0.00000000E+00 0.00000000E+00 -.68131959E+03 0.68131966E+03 0.32000000E+00 0.0000E+00 0.9000E+01
       23  2    1    2    0    0 -.75544216E+02 0.66618648E+03 0.26789995E+03 0.72741132E+03 0.88574820E+02 0.0000E+00 0.0000E+00
       25  1    1    2    0    0 0.64115561E+02 -.67720684E+03 -.18610860E+03 0.71622714E+03 0.12500000E+03 0.0000E+00 0.9000E+01
        1  1    3    3  502    0 -.15988227E+01 0.27533801E+03 0.14433241E+03 0.31087863E+03 0.32000000E+00 0.0000E+00 0.9000E+01
       -1  1    3    3    0  502 -.73945393E+02 0.39084847E+03 0.12356755E+03 0.41653269E+03 0.32000000E+00 0.0000E+00 0.9000E+01
       21  1    1    2  503  501 0.11428655E+02 0.11020363E+02 0.15905283E+03 0.15984501E+03 0.75000000E+00 0.0000E+00 0.9000E+01
#aMCatNLO 2  0  0  1  1 0.65079946D+02 0.00000000D+00  -5  6  0 0.00000000D+00 0.00000000D+00 0.00000000D+00 0.00000000D+00 0.00000000D+00
  <mgrwgt>
 0.7990405982D-03    1    2    0
 0.720616080846380D+03 0.000000000000000D+00 0.000000000000000D+00 0.720616080846380D+03
 0.720616080846380D+03 0.000000000000000D+00 0.000000000000000D+00 -.720616080846380D+03
 0.723314987191175D+03 0.698694557589829D+02 -.671658505927723D+03 -.227052155379007D+03
 0.305297961689401D+03 0.814624008445556D+00 0.277662819582580D+03 0.126923364361647D+03
 0.412619212812184D+03 -.706840797674285D+02 0.393995686345142D+03 0.100128791017360D+03
 0.000000000000000D+00 0.000000000000000D+00 0.000000000000000D+00 0.000000000000000D+00
 0.871315793096136D+03 0.000000000000000D+00 0.000000000000000D+00 0.871315793096136D+03
 0.721078077999071D+03 0.000000000000000D+00 0.000000000000000D+00 -.721078077999071D+03
 0.727940651662752D+03 0.641155608408623D+02 -.677206841326194D+03 -.227052155379007D+03
 0.303186880168828D+03 -.159787847945966D+01 0.275336504426843D+03 0.126923364361647D+03
 0.410192074103756D+03 -.739463373295054D+02 0.390849973855051D+03 0.100128791017360D+03
 0.151074265159870D+03 0.114286549681028D+02 0.110203630442989D+02 0.150237715097065D+03
0.375310804433D-03 0.000000000000D+00 0.000000000000D+00 0.113855536769D-04 0.280568654134D-06  6 1 -1 25 1 -1 21 2 0.14187118D+00 0.10481827D+00 0.47653205D+06 0.47653205D+06 0.47653205D+06 0.10699891D+01  1  2  1  1  6  1        1 0.799040598158D-03 0.100000000000D+01
  </mgrwgt>
  </event>
  <event>
  7     66 0.24873396E-05 0.62926353E+02 0.75467711E-02 0.93244574E-01
        1 -1    0    0  501    0 0.00000000E+00 0.00000000E+00 0.37143568E+03 0.37143582E+03 0.32000000E+00 0.0000E+00 0.9000E+01
       -1 -1    0    0    0  503 0.00000000E+00 0.00000000E+00 -.92067407E+03 0.92067412E+03 0.32000000E+00 0.0000E+00 0.9000E+01
       23  2    1    2    0    0 0.24860416E+03 -.46116473E+03 -.11232616E+03 0.54373596E+03 0.92491525E+02 0.0000E+00 0.0000E+00
       25  1    1    2    0    0 -.26983519E+03 0.48500712E+03 -.38337212E+03 0.68603362E+03 0.12500000E+03 0.0000E+00 0.9000E+01
        1  1    3    3  502    0 0.18174315E+03 -.24886603E+03 -.46686033E+02 0.31168022E+03 0.32000000E+00 0.0000E+00 0.9000E+01
       -1  1    3    3    0  502 0.66861014E+02 -.21229870E+03 -.65640129E+02 0.23205573E+03 0.32000000E+00 0.0000E+00 0.9000E+01
       21  1    1    2  501  503 0.21231026E+02 -.23842391E+02 -.53540104E+02 0.62340367E+02 0.75000000E+00 0.0000E+00 0.9000E+01
#aMCatNLO 2  0  0  2  1 0.10474757D+03 0.00000000D+00  -5  6  0 0.00000000D+00 0.00000000D+00 0.00000000D+00 0.00000000D+00 0.00000000D+00
  <mgrwgt>
 0.2225690145D-03    1    2    0
 0.562493820861569D+03 0.000000000000000D+00 0.000000000000000D+00 0.562493820861569D+03
 0.562493820861569D+03 0.000000000000000D+00 0.000000000000000D+00 -.562493820861569D+03
 0.565636218857201D+03 -.259019709211149D+03 0.472861365196610D+03 -.116748668633272D+03
 0.328844633152209D+03 0.187865973688919D+03 -.255740842325033D+03 0.862658115930505D+02
 0.230506789713728D+03 0.711537355222302D+02 -.217120522871576D+03 0.304828570402215D+02
 0.000000000000000D+00 0.000000000000000D+00 -.000000000000000D+00 -.000000000000000D+00
 0.569463194524675D+03 0.000000000000000D+00 0.000000000000000D+00 0.569463194524675D+03
 0.600508624989119D+03 0.000000000000000D+00 0.000000000000000D+00 -.600508624989119D+03
 0.580773785629710D+03 -.269835189055782D+03 0.485007122828369D+03 -.116748668633272D+03
 0.320011534207732D+03 0.181744524318553D+03 -.248866469530150D+03 0.862658115930505D+02
 0.224655220614154D+03 0.668596387074113D+02 -.212298262564191D+03 0.304828570402215D+02
 0.445312790621990D+02 0.212310260298172D+02 -.238423907340280D+02 -.310454304644435D+02
0.555656176739D-04 0.000000000000D+00 0.000000000000D+00 0.294955755590D-04 0.181281777158D-06  6 1 -1 25 1 -1 21 2 0.57143651D-01 0.14164140D+00 0.32012161D+06 0.32012161D+06 0.32012161D+06 0.10824721D+01  1  2  1  2  6  2       -1 0.222569014470D-03 0.100000000000D+01
  </mgrwgt>
  </event>
  <event>
  7     66 0.24873396E-05 0.11228717E+03 0.75467711E-02 0.85465918E-01
        1 -1    0    0  503    0 0.00000000E+00 0.00000000E+00 0.12411216E+04 0.12411217E+04 0.32000000E+00 0.0000E+00 0.9000E+01
       -1 -1    0    0    0  501 0.00000000E+00 0.00000000E+00 -.17173909E+04 0.17173909E+04 0.32000000E+00 0.0000E+00 0.9000E+01
       23  2    1    2    0    0 -.10256407E+04 0.54462856E+03 0.33340366E+03 0.12118278E+04 0.93857943E+02 0.0000E+00 0.0000E+00
       25  1    1    2    0    0 0.10540662E+04 -.39372500E+03 -.99414728E+03 0.15066614E+04 0.12500000E+03 0.0000E+00 0.9000E+01
        1  1    3    3  502    0 -.56076879E+03 0.34144016E+03 0.16093066E+03 0.67597470E+03 0.32000000E+00 0.0000E+00 0.9000E+01
       -1  1    3    3    0  502 -.46487195E+03 0.20318840E+03 0.17247300E+03 0.53585305E+03 0.32000000E+00 0.0000E+00 0.9000E+01
       21  1    1    2  503  501 -.28425417E+02 -.15090356E+03 0.18447436E+03 0.24002342E+03 0.75000000E+00 0.0000E+00 0.9000E+01
#aMCatNLO 2  0  0  1  4 0.75437210D+02 0.00000000D+00  -5  6  0 0.00000000D+00 0.00000000D+00 0.00000000D+00 0.00000000D+00 0.00000000D+00
  <mgrwgt>
 0.3751250827D-04    1    2    0
 0.131624669023804D+04 0.000000000000000D+00 0.000000000000000D+00 0.131624669023804D+04
 0.131624669023804D+04 0.000000000000000D+00 0.000000000000000D+00 -.131624669023804D+04
 0.131754122085861D+04 0.103992386031718D+04 -.468802973856949D+03 -.647357710317472D+03
 0.724933824384754D+03 -.568657180219465D+03 0.299570145545845D+03 0.335284638806484D+03
 0.590018335232728D+03 -.471266680097715D+03 0.169232828311104D+03 0.312073071510988D+03
 0.000000000000000D+00 -.000000000000000D+00 -.000000000000000D+00 0.000000000000000D+00
 0.159047711677289D+04 0.000000000000000D+00 0.000000000000000D+00 0.159047711677289D+04
 0.134015734738822D+04 0.000000000000000D+00 0.000000000000000D+00 -.134015734738822D+04
 0.130413643554027D+04 0.105406615525788D+04 -.393725002680876D+03 -.647357710317472D+03
 0.737198178545525D+03 -.560769901637672D+03 0.341441770802170D+03 0.335284638806484D+03
 0.595633585607233D+03 -.464870836916689D+03 0.203186789249213D+03 0.312073071510988D+03
 0.293666264468080D+03 -.284254167035207D+02 -.150903557370506D+03 0.250319769384669D+03
0.789633772066D-03 0.000000000000D+00 0.000000000000D+00 0.704515007149D-05 0.174630306336D-08  6 1 -1 25 1 -1 21 2 0.19094173D+00 0.26421390D+00 0.15000808D+07 0.15000808D+07 0.15000808D+07 0.10363380D+01  1  2  1  1  6  1        1 0.375125082679D-04 0.100000000000D+01
  </mgrwgt>
  </event>
  <event>
  7     66 0.24873396E-05 0.33327218E+02 0.75467711E-02 0.94209461E-01
        1 -1    0    0  503    0 0.00000000E+00 0.00000000E+00 0.13673037E+04 0.13673037E+04 0.32000000E+00 0.0000E+00 0.9000E+01
       -1 -1    0    0    0  501 0.00000000E+00 0.00000000E+00 -.23499098E+03 0.23499119E+03 0.32000000E+00 0.0000E+00 0.9000E+01
       23  2    1    2    0    0 0.10012216E+03 0.47278318E+03 0.42081072E+03 0.64820156E+03 0.97648469E+02 0.0000E+00 0.0000E+00
       25  1    1    2    0    0 -.11509000E+03 -.49365634E+03 0.44396835E+03 0.68532852E+03 0.12500000E+03 0.0000E+00 0.9000E+01
        1  1    3    3  502    0 0.53050084E+02 0.39732498E+03 0.31388133E+03 0.50911987E+03 0.32000000E+00 0.0000E+00 0.9000E+01
       -1  1    3    3    0  502 0.47072074E+02 0.75458194E+02 0.10692939E+03 0.13908169E+03 0.32000000E+00 0.0000E+00 0.9000E+01
       21  1    1    2  503  501 0.14967837E+02 0.20873159E+02 0.26753364E+03 0.26876483E+03 0.75000000E+00 0.0000E+00 0.9000E+01
#aMCatNLO 2  0  0  1  4 0.75437210D+02 0.00000000D+00  -5  6  0 0.00000000D+00 0.00000000D+00 0.00000000D+00 0.00000000D+00 0.00000000D+00
  <mgrwgt>
 0.5689003016D-03    1    2    0
 0.507395290262918D+03 0.000000000000000D+00 0.000000000000000D+00 0.507395290262918D+03
 0.507395290262918D+03 0.000000000000000D+00 0.000000000000000D+00 -.507395290262918D+03
 0.510395800538217D+03 -.107476870013953D+03 -.483039575420170D+03 -.603487327026154D+00
 0.410507937047274D+03 0.590370644894729D+02 0.405677393218123D+03 -.213832651160414D+02
 0.938868429403446D+02 0.484398055244805D+02 0.773621822020469D+02 0.219867524430675D+02
 0.000000000000000D+00 0.000000000000000D+00 0.000000000000000D+00 0.000000000000000D+00
 0.631379961681912D+03 0.000000000000000D+00 0.000000000000000D+00 0.631379961681912D+03
 0.508889792412845D+03 0.000000000000000D+00 0.000000000000000D+00 -.508889792412845D+03
 0.522080120958347D+03 -.115089995959510D+03 -.493656339301916D+03 -.603487327026154D+00
 0.401424279754339D+03 0.530501527397000D+02 0.397328440516862D+03 -.213832651160414D+02
 0.916111824843656D+02 0.470720062365675D+02 0.754547394273915D+02 0.219867524430675D+02
 0.125154170897706D+03 0.149678369832420D+02 0.208731593576627D+02 0.122490169269068D+03
0.675182190856D-04 0.000000000000D+00 0.000000000000D+00 0.912393475405D-06 0.892934420687D-08  6 1 -1 25 1 -1 21 2 0.21035397D+00 0.36152398D-01 0.26912899D+06 0.26912899D+06 0.26912899D+06 0.10880584D+01  1  2  1  1  6  1        1 0.568900301597D-03 0.100000000000D+01
  </mgrwgt>
  </event>
  <event>
  7     66 0.24873396E-05 0.46347034E+02 0.75467711E-02 0.95192704E-01
        1 -1    0    0  501    0 0.00000000E+00 0.00000000E+00 0.17522494E+04 0.17522494E+04 0.32000000E+00 0.0000E+00 0.9000E+01
       -1 -1    0    0    0  503 0.00000000E+00 0.00000000E+00 -.19209998E+03 0.19210024E+03 0.32000000E+00 0.0000E+00 0.9000E+01
       23  2    1    2    0    0 0.35630318E+03 -.29705924E+03 0.92073554E+03 0.10349963E+04 0.90925013E+02 0.0000E+00 0.0000E+00
       25  1    1    2    0    0 -.35663684E+03 0.28034521E+03 0.70169821E+03 0.84486013E+03 0.12500000E+03 0.0000E+00 0.9000E+01
        1  1    3    3  502    0 0.25547892E+03 -.22363221E+03 0.75263880E+03 0.82567918E+03 0.32000000E+00 0.0000E+00 0.9000E+01
       -1  1    3    3    0  502 0.10082427E+03 -.73427026E+02 0.16809674E+03 0.20931717E+03 0.32000000E+00 0.0000E+00 0.9000E+01
       21  1    1    2  501  503 0.33365442E+00 0.16714030E+02 -.62284334E+02 0.64493185E+02 0.75000000E+00 0.0000E+00 0.9000E+01
#aMCatNLO 2  0  0  2  1 0.40749455D+02 0.00000000D+00  -5  6  0 0.00000000D+00 0.00000000D+00 0.00000000D+00 0.00000000D+00 0.00000000D+00
  <mgrwgt>
 0.9358580832D-03    1    2    0
 0.474681381075430D+03 0.000000000000000D+00 0.000000000000000D+00 0.474681381075430D+03
 0.474681381075430D+03 0.000000000000000D+00 0.000000000000000D+00 -.474681381075430D+03
 0.478556423517156D+03 -.356469521043618D+03 0.288726802884825D+03 -.543834933814756D+02
 0.344864790049162D+03 0.255602694463681D+03 -.217529625842383D+03 0.792454912246203D+02
 0.125941548584541D+03 0.100866826579937D+03 -.711971770424415D+02 -.248619978431447D+02
 0.000000000000000D+00 0.000000000000000D+00 0.000000000000000D+00 -.000000000000000D+00
 0.475053791225663D+03 0.000000000000000D+00 0.000000000000000D+00 0.475053791225663D+03
 0.708565036258729D+03 0.000000000000000D+00 0.000000000000000D+00 -.708565036258729D+03
 0.473672707370183D+03 -.356636838979545D+03 0.280345205840415D+03 -.543834933814756D+02
 0.348658144792137D+03 0.255480834270361D+03 -.223634070237483D+03 0.792454912246203D+02
 0.127179086841664D+03 0.100822350286484D+03 -.734251651400021D+02 -.248619978431447D+02
 0.234108888480409D+03 0.333654422700311D+00 0.167140295370707D+02 -.233511245033066D+03
0.140213762032D-03 0.000000000000D+00 0.000000000000D+00 0.645934533803D-04 0.159538656325D-05  6 1 -1 25 1 -1 21 2 0.26957651D+00 0.29553828D-01 0.22634570D+06 0.22634570D+06 0.22634570D+06 0.10937215D+01  1  2  1  2  6  2       -1 0.935858083188D-03 0.100000000000D+01
  </mgrwgt>
  </event>
  <event>
  7     66 0.24873396E-05 0.93366863E+02 0.75467711E-02 0.90169221E-01
        1 -1    0    0  501    0 0.00000000E+00 0.00000000E+00 0.85202725E+03 0.85202731E+03 0.32000000E+00 0.0000E+00 0.9000E+01
       -1 -1    0    0    0  503 0.00000000E+00 0.00000000E+00 -.72184188E+03 0.72184195E+03 0.32000000E+00 0.0000E+00 0.9000E+01
       23  2    1    2    0    0 0.34631551E+03 -.65582392E+03 0.25971735E+03 0.79576723E+03 0.12551070E+03 0.0000E+00 0.0000E+00
       25  1    1    2    0    0 -.33282621E+03 0.65722287E+03 -.11145066E+03 0.75548755E+03 0.12500000E+03 0.0000E+00 0.9000E+01
        1  1    3    3  502    0 0.18189943E+03 -.22680328E+03 0.12913139E+03 0.31812285E+03 0.32000000E+00 0.0000E+00 0.9000E+01
       -1  1    3    3    0  502 0.16441608E+03 -.42902064E+03 0.13058596E+03 0.47764438E+03 0.32000000E+00 0.0000E+00 0.9000E+01
       21  1    1    2  501  503 -.13489300E+02 -.13989507E+01 -.18081314E+02 0.22614480E+02 0.75000000E+00 0.0000E+00 0.9000E+01
#aMCatNLO 2  0  0  2  1 0.40749455D+02 0.00000000D+00  -5  6  0 0.00000000D+00 0.00000000D+00 0.00000000D+00 0.00000000D+00 0.00000000D+00
  <mgrwgt>
 0.1042649070D-02    1    2    0
 0.772046705873170D+03 0.000000000000000D+00 0.000000000000000D+00 0.772046705873170D+03
 0.772046705873170D+03 0.000000000000000D+00 0.000000000000000D+00 -.772046705873170D+03
 0.772005286099842D+03 -.339560141516685D+03 0.656524515586846D+03 -.184503746554712D+03
 0.305814197669598D+03 0.179221958243872D+03 -.227079680647742D+03 0.991797954043652D+02
 0.466273927976900D+03 0.160338183272813D+03 -.429444834939104D+03 0.853239511503467D+02
 0.000000000000000D+00 -.000000000000000D+00 -.000000000000000D+00 -.000000000000000D+00
 0.774130117984587D+03 0.000000000000000D+00 0.000000000000000D+00 0.774130117984587D+03
 0.794465840484873D+03 0.000000000000000D+00 0.000000000000000D+00 -.794465840484873D+03
 0.769663454412183D+03 -.332826212554604D+03 0.657222879091657D+03 -.184503746554712D+03
 0.307185952746752D+03 0.181899511052835D+03 -.226801996523880D+03 0.991797954043652D+02
 0.467303558861181D+03 0.164416001231863D+03 -.429021931867525D+03 0.853239511503467D+02
 0.244429924493435D+02 -.134892997300934D+02 -.139895070025269D+01 -.203357225002858D+02
0.500712002032D-03 0.000000000000D+00 0.000000000000D+00 0.580515008799D-07 0.190588830849D-08  6 1 -1 25 1 -1 21 2 0.13108015D+00 0.11105178D+00 0.57075443D+06 0.57075443D+06 0.57075443D+06 0.10644716D+01  1  2  1  2  6  2       -1 0.104264906989D-02 0.100000000000D+01
  </mgrwgt>
  </event>
  <event>
  7     66 0.24873396E-05 0.71211130E+02 0.75467711E-02 0.93018522E-01
        1 -1    0    0  503    0 0.00000000E+00 0.00000000E+00 0.57036455E+03 0.57036464E+03 0.32000000E+00 0.0000E+00 0.9000E+01
       -1 -1    0    0    0  501 0.00000000E+00 0.00000000E+00 -.61638857E+03 0.61638866E+03 0.32000000E+00 0.0000E+00 0.9000E+01
       23  2    1    2    0    0 -.14599996E+03 0.53602734E+03 0.30849995E+02 0.56384872E+03 0.91281737E+02 0.0000E+00 0.0000E+00
       25  1    1    2    0    0 0.11900252E+03 -.54394148E+03 -.10815785E+03 0.58082446E+03 0.12500000E+03 0.0000E+00 0.9000E+01
        1  1    3    3  502    0 -.82395701E+02 0.24686184E+03 0.57655106E+02 0.26655963E+03 0.32000000E+00 0.0000E+00 0.9000E+01
       -1  1    3    3    0  502 -.63604255E+02 0.28916550E+03 -.26805111E+02 0.29728909E+03 0.32000000E+00 0.0000E+00 0.9000E+01
       21  1    1    2  503  501 0.26997436E+02 0.79141412E+01 0.31283837E+02 0.42080116E+02 0.75000000E+00 0.0000E+00 0.9000E+01
#aMCatNLO 2  0  0  1  5 0.19810679D+02 0.00000000D+00  -5  6  0 0.00000000D+00 0.00000000D+00 0.00000000D+00 0.00000000D+00 0.00000000D+00
  <mgrwgt>
 0.2108940933D-03    1    2    0
 0.570856525196813D+03 0.000000000000000D+00 0.000000000000000D+00 0.570856525196813D+03
 0.570856525196813D+03 0.000000000000000D+00 0.000000000000000D+00 -.570856525196813D+03
 0.574050254342908D+03 0.132583942750119D+03 -.539960167369870D+03 -.690884237039215D+02
 0.270917209965607D+03 -.759888488441910D+02 0.248739523261553D+03 0.758319132984183D+02
 0.296745586085110D+03 -.565950939059282D+02 0.291220644108318D+03 -.674348959449684D+01
 0.000000000000000D+00 0.000000000000000D+00 0.000000000000000D+00 0.000000000000000D+00
 0.610275455022506D+03 0.000000000000000D+00 0.000000000000000D+00 0.610275455022506D+03
 0.576071742273603D+03 0.000000000000000D+00 0.000000000000000D+00 -.576071742273603D+03
 0.574832276701056D+03 0.119002519746277D+03 -.543941482460627D+03 -.690884237039215D+02
 0.271072097493465D+03 -.823959321179459D+02 0.246861324098010D+03 0.758319132984183D+02
 0.296155249742572D+03 -.636040237426367D+02 0.289166017128432D+03 -.674348959449684D+01
 0.442875733590145D+02 0.269974361143054D+02 0.791414123418469D+01 0.342037127489030D+02
0.360707357929D-04 0.000000000000D+00 0.000000000000D+00 0.766167708636D-04 0.604620496568D-06  6 1 -1 25 1 -1 21 2 0.87747925D-01 0.94828505D-01 0.33357928D+06 0.33357928D+06 0.33357928D+06 0.10811592D+01  1  2  1  1  6  1        1 0.210894093331D-03 0.100000000000D+01
  </mgrwgt>
  </event>
  <event>
  7     66 0.24873396E-05 0.43894749E+02 0.75467711E-02 0.94147976E-01
        1 -1    0    0  503    0 0.00000000E+00 0.00000000E+00 0.14950515E+04 0.14950516E+04 0.32000000E+00 0.0000E+00 0.9000E+01
       -1 -1    0    0    0  501 0.00000000E+00 0.00000000E+00 -.20396550E+03 0.20396575E+03 0.32000000E+00 0.0000E+00 0.9000E+01
       23  2    1    2    0    0 0.26345881E+03 0.41114876E+03 0.55898897E+03 0.74707761E+03 0.84867146E+02 0.0000E+00 0.0000E+00
       25  1    1    2    0    0 -.23399691E+03 -.43707917E+03 0.49511318E+03 0.71172664E+03 0.12500000E+03 0.0000E+00 0.9000E+01
        1  1    3    3  502    0 0.19615416E+03 0.24780983E+03 0.39653018E+03 0.50707243E+03 0.32000000E+00 0.0000E+00 0.9000E+01
       -1  1    3    3    0  502 0.67304653E+02 0.16333893E+03 0.16245879E+03 0.24000517E+03 0.32000000E+00 0.0000E+00 0.9000E+01
       21  1    1    2  503  501 -.29461903E+02 0.25930408E+02 0.23698390E+03 0.24021307E+03 0.75000000E+00 0.0000E+00 0.9000E+01
#aMCatNLO 2  0  0  1  5 0.19810679D+02 0.00000000D+00  -5  6  0 0.00000000D+00 0.00000000D+00 0.00000000D+00 0.00000000D+00 0.00000000D+00
  <mgrwgt>
 0.3987524678D-03    1    2    0
 0.503844746298142D+03 0.000000000000000D+00 0.000000000000000D+00 0.503844746298142D+03
 0.503844746298142D+03 0.000000000000000D+00 0.000000000000000D+00 -.503844746298142D+03
 0.508023894626547D+03 -.248903128815536D+03 -.423959708388905D+03 -.277250002733253D+02
 0.319924791635548D+03 0.186818782719321D+03 0.256029023631509D+03 0.435861650597549D+02
 0.179740806334190D+03 0.620843460962159D+02 0.167930684757396D+03 -.158611647864296D+02
 0.000000000000000D+00 -.000000000000000D+00 0.000000000000000D+00 0.000000000000000D+00
 0.599976977943530D+03 0.000000000000000D+00 0.000000000000000D+00 0.599976977943530D+03
 0.508248656569814D+03 0.000000000000000D+00 0.000000000000000D+00 -.508248656569814D+03
 0.512041434668723D+03 -.233996911674737D+03 -.437079169606758D+03 -.277250002733253D+02
 0.319041117939064D+03 0.196155993111784D+03 0.247811031872112D+03 0.435861650597549D+02
 0.177370968015277D+03 0.673028213243338D+02 0.163337729836309D+03 -.158611647864296D+02
 0.997721138902802D+02 -.294619027613806D+02 0.259304078983372D+02 0.917283213737167D+02
0.453910593319D-04 0.000000000000D+00 0.000000000000D+00 0.256004956190D-05 0.106466231502D-07  6 1 -1 25 1 -1 21 2 0.23000732D+00 0.31379243D-01 0.27209173D+06 0.27209173D+06 0.27209173D+06 0.10877033D+01  1  2  1  1  6  1        1 0.398752467777D-03 0.100000000000D+01
  </mgrwgt>
  </event>
  <event>
  6     66 0.24873396E-05 0.20539538E+02 0.75467711E-02 0.95074209E-01
        1 -1    0    0  501    0 0.00000000E+00 0.00000000E+00 0.20452549E+04 0.20452549E+04 0.32000000E+00 0.0000E+00 0.9000E+01
       -1 -1    0    0    0  501 0.00000000E+00 0.00000000E+00 -.11397616E+03 0.11397661E+03 0.32000000E+00 0.0000E+00 0.9000E+01
       23  2    1    2    0    0 0.46771312E+03 0.32494525E+02 0.10573890E+04 0.11596717E+04 0.83400518E+02 0.0000E+00 0.0000E+00
       25  1    1    2    0    0 -.46771312E+03 -.32494525E+02 0.87388974E+03 0.99955978E+03 0.12500000E+03 0.0000E+00 0.9000E+01
        1  1    3    3  502    0 0.20106150E+02 -.16356967E+02 0.55536495E+02 0.61287946E+02 0.32000000E+00 0.0000E+00 0.9000E+01
       -1  1    3    3    0  502 0.44760697E+03 0.48851492E+02 0.10018525E+04 0.10983838E+04 0.32000000E+00 0.0000E+00 0.9000E+01
#aMCatNLO 1  0  0  4  5 0.40397617D+00 0.00000000D+00  -5  6  0 0.00000000D+00 0.00000000D+00 0.00000000D+00 0.00000000D+00 0.00000000D+00
  <mgrwgt>
 0.4297087517D-03    7    2    0
 0.482815508007117D+03 0.000000000000000D+00 0.000000000000000D+00 0.482815508007117D+03
 0.482815508007117D+03 -.000000000000000D+00 -.000000000000000D+00 -.482815508007117D+03
 0.487304465829351D+03 -.467713124023562D+03 -.324945245703063D+02 -.450464416607924D+02
 0.259647336475319D+02 0.200998565269543D+02 -.163579269469870D+02 0.160666953047634D+01
 0.452361816537352D+03 0.447613267496607D+03 0.488524515172933D+02 0.434397721303161D+02
 0.000000000000000D+00 0.000000000000000D+00 -.000000000000000D+00 0.000000000000000D+00
 0.482815508007117D+03 0.000000000000000D+00 0.000000000000000D+00 0.482815508007117D+03
 0.482815508007117D+03 -.000000000000000D+00 -.000000000000000D+00 -.482815508007117D+03
 0.487299458939645D+03 -.467707639502144D+03 -.324989880549367D+02 -.450460032589840D+02
 0.171744536193345D+02 0.135117692854055D+02 -.105288123170665D+02 0.124018510418088D+01
 0.452366446027755D+03 0.447618358797193D+03 0.488483080487601D+02 0.434401791002619D+02
 0.879065742749937D+01 0.657751141954606D+01 -.582050767675683D+01 0.365639054541249D+00
0.247799568671D-06 0.000000000000D+00 0.000000000000D+00 0.298540516405D-06 0.000000000000D+00  6 1 -1 25 1 -1 21 0 0.31465463D+00 0.17534831D-01 0.23107450D+06 0.23107450D+06 0.23107450D+06 0.10930404D+01  1  2  2  3  6  4        1 0.207878306505D-05 0.100000000000D+01
0.795912769980D-07 0.000000000000D+00 -.951615590822D-09 0.298540516405D-06 0.000000000000D+00  6 1 -1 25 1 -1 21 2 0.31465463D+00 0.17534831D-01 0.23107450D+06 0.23107450D+06 0.23107450D+06 0.10930404D+01  1  2  3  3  6  4        1 0.797712757837D-06 0.100000000000D+01
-.742141807332D-07 0.000000000000D+00 0.000000000000D+00 0.298540516405D-06 0.000000000000D+00  6 1 -1 25 1 -1 21 2 0.31465463D+00 0.17534831D-01 0.23107450D+06 0.23107450D+06 0.23107450D+06 0.10930404D+01  1  2 15  3  6  4        1 -.743820190055D-06 0.100000000000D+01
-.403877146755D-03 0.000000000000D+00 0.000000000000D+00 0.298540516405D-06 0.000000000000D+00  6 1 -1 25 1 -1 21 2 0.31465463D+00 0.17534831D-01 0.23107450D+06 0.23107450D+06 0.23107450D+06 0.10930404D+01  1  2  4  3  6  4        1 -.404790530718D-02 0.100000000000D+01
-.189989275210D-03 0.000000000000D+00 0.000000000000D+00 0.298540516405D-06 0.000000000000D+00  6 1 -1 25 1 -1 21 2 0.31465463D+00 0.17534831D-01 0.23107450D+06 0.23107450D+06 0.23107450D+06 0.10930404D+01  1  2  5  3  6  4        1 -.190418943387D-02 0.100000000000D+01
0.463879282677D-03 0.000000000000D+00 -.000000000000D+00 0.298540516405D-06 0.000000000000D+00  6 1 -1 25 1 -1 21 2 0.31465463D+00 0.17534831D-01 0.23107450D+06 0.23107450D+06 0.23107450D+06 0.10930404D+01  1  2  6  3  6  4        1 0.464928363817D-02 0.100000000000D+01
0.172648170893D-03 0.000000000000D+00 0.000000000000D+00 0.298540516405D-06 0.503499508159D-05  6 1 -1 25 1 -1 21 2 0.31465463D+00 0.17534831D-01 0.23107321D+06 0.23107321D+06 0.23107321D+06 0.10930406D+01  1  2 11  3  6  4        1 0.173038717899D-02 0.100000000000D+01
  </mgrwgt>
  </event>
  <event>
  7     66 0.24873396E-05 0.31059638E+02 0.75467711E-02 0.93664233E-01
        1 -1    0    0  503    0 0.00000000E+00 0.00000000E+00 0.42562007E+03 0.42562019E+03 0.32000000E+00 0.0000E+00 0.9000E+01
       -1 -1    0    0    0  501 0.00000000E+00 0.00000000E+00 -.10354614E+04 0.10354614E+04 0.32000000E+00 0.0000E+00 0.9000E+01
       23  2    1    2    0    0 0.39740686E+03 0.33489247E+03 -.64314292E+03 0.83368498E+03 0.10636092E+03 0.0000E+00 0.0000E+00
       25  1    1    2    0    0 -.35730435E+03 -.35636157E+03 -.60250787E+02 0.52336902E+03 0.12500000E+03 0.0000E+00 0.9000E+01
        1  1    3    3  502    0 0.33562263E+03 0.24739141E+03 -.45469923E+03 0.61692507E+03 0.32000000E+00 0.0000E+00 0.9000E+01
       -1  1    3    3    0  502 0.61784229E+02 0.87501061E+02 -.18844370E+03 0.21675990E+03 0.32000000E+00 0.0000E+00 0.9000E+01
       21  1    1    2  503  501 -.40102504E+02 0.21469104E+02 0.93552394E+02 0.10402762E+03 0.75000000E+00 0.0000E+00 0.9000E+01
#aMCatNLO 2  0  0  1  5 0.19810679D+02 0.00000000D+00  -5  6  0 0.00000000D+00 0.00000000D+00 0.00000000D+00 0.00000000D+00 0.00000000D+00
  <mgrwgt>
 0.4286676490D-04    1    2    0
 0.579819734425537D+03 0.000000000000000D+00 0.000000000000000D+00 0.579819734425537D+03
 0.579819734425537D+03 0.000000000000000D+00 0.000000000000000D+00 -.579819734425537D+03
 0.581679090441898D+03 -.377304990587032D+03 -.345654122258230D+03 0.246758457000617D+03
 0.439121974535218D+03 0.320329748595599D+03 0.255581310375743D+03 -.157781983987422D+03
 0.138838403873957D+03 0.569752419914331D+02 0.900728118824870D+02 -.889764730131951D+02
 0.000000000000000D+00 -.000000000000000D+00 0.000000000000000D+00 0.000000000000000D+00
 0.755659844626873D+03 0.000000000000000D+00 0.000000000000000D+00 0.755659844626873D+03
 0.583214896577270D+03 0.000000000000000D+00 0.000000000000000D+00 -.583214896577270D+03
 0.575477811581736D+03 -.357304355167842D+03 -.356361576632037D+03 0.246758457000617D+03
 0.445805545817153D+03 0.335625092447435D+03 0.247392860709386D+03 -.157781983987422D+03
 0.139247913602960D+03 0.617817665355070D+02 0.874996115229188D+02 -.889764730131951D+02
 0.178343470202295D+03 -.401025038150999D+02 0.214691043997326D+02 0.172444948049603D+03
0.179163848946D-04 0.000000000000D+00 0.000000000000D+00 0.264166008929D-06 0.821771964477D-09  6 1 -1 25 1 -1 21 2 0.65479935D-01 0.15930155D+00 0.29671996D+06 0.29671996D+06 0.29671996D+06 0.10849053D+01  1  2  1  1  6  1        1 0.428667648982D-04 0.100000000000D+01
  </mgrwgt>
  </event>
  <event>
  7     66 0.24873396E-05 0.46432673E+02 0.75467711E-02 0.93166475E-01
        1 -1    0    0  501    0 0.00000000E+00 0.00000000E+00 0.51313248E+03 0.51313258E+03 0.32000000E+00 0.0000E+00 0.9000E+01
       21 -1    0    0  503  501 0.00000000E+00 0.00000000E+00 -.15235266E+04 0.15235268E+04 0.75000000E+00 0.0000E+00 0.9000E+01
       23  2    1    2    0    0 0.57424297E+02 0.55309699E+03 0.56586242E+02 0.56667990E+03 0.93328874E+02 0.0000E+00 0.0000E+00
       25  1    1    2    0    0 -.84916279E+02 -.51417610E+03 -.15657323E+03 0.55832608E+03 0.12500000E+03 0.0000E+00 0.9000E+01
        1  1    3    3  502    0 0.19535425E+02 0.20148870E+03 0.65968714E+02 0.21291149E+03 0.32000000E+00 0.0000E+00 0.9000E+01
        1  1    1    2  503    0 0.27491981E+02 -.38920886E+02 -.91040712E+03 0.91165338E+03 0.32000000E+00 0.0000E+00 0.9000E+01
       -1  1    3    3    0  502 0.37888873E+02 0.35160829E+03 -.93824715E+01 0.35376841E+03 0.32000000E+00 0.0000E+00 0.9000E+01
#aMCatNLO 2  0  0  2  1 0.22421277D+02 0.00000000D+00  -5  6  0 0.00000000D+00 0.00000000D+00 0.00000000D+00 0.00000000D+00 0.00000000D+00
  <mgrwgt>
 0.5499686362D-04    1    2    0
 0.559770133384625D+03 0.000000000000000D+00 0.000000000000000D+00 0.559770133384625D+03
 0.559770133384625D+03 0.000000000000000D+00 0.000000000000000D+00 -.559770133384625D+03
 0.562858330289500D+03 -.713005676966474D+02 -.533452103372426D+03 -.107375893150906D+03
 0.213316084088499D+03 0.248487719392901D+02 0.193964426538503D+03 0.852296398065252D+02
 0.000000000000000D+00 0.000000000000000D+00 -.000000000000000D+00 -.000000000000000D+00
 0.343365852391251D+03 0.464517957573573D+02 0.339487676833923D+03 0.221462533443807D+02
 0.560958125040548D+03 0.000000000000000D+00 0.000000000000000D+00 0.560958125040548D+03
 0.139363554366539D+04 0.000000000000000D+00 0.000000000000000D+00 -.139363554366539D+04
 0.546573341868818D+03 -.849162787192011D+02 -.514176099425261D+03 -.107375893150906D+03
 0.219642208233297D+03 0.195352090214373D+02 0.201486931944822D+03 0.852296398065252D+02
 0.834039763997058D+03 0.274919814059541D+02 -.389208864097315D+02 -.832677418624838D+03
 0.354338354606761D+03 0.378890882918098D+02 0.351610053890171D+03 0.221462533443807D+02
0.178683258738D-04 0.000000000000D+00 0.000000000000D+00 0.176511015359D-04 0.346114915039D-08  6 1 21 25 1 1 -1 2 0.78943476D-01 0.23438872D+00 0.32470112D+06 0.32470112D+06 0.32470112D+06 0.10820187D+01  1  2  1  6  5  2       -1 0.549968636203D-04 0.100000000000D+01
  </mgrwgt>
  </event>
  <event>
  6     66 0.24873396E-05 0.15100597E+02 0.75467711E-02 0.95339253E-01
        1 -1    0    0  501    0 0.00000000E+00 0.00000000E+00 0.30373376E+03 0.30373393E+03 0.32000000E+00 0.0000E+00 0.9000E+01
       -1 -1    0    0    0  501 -.00000000E+00 -.00000000E+00 -.73847886E+03 0.73847893E+03 0.32000000E+00 0.0000E+00 0.9000E+01
       23  2    1    2    0    0 -.38440708E+03 -.25254264E+03 -.18515816E+03 0.50419312E+03 0.91545493E+02 0.0000E+00 0.0000E+00
       25  1    1    2    0    0 0.38440708E+03 0.25254264E+03 -.24958694E+03 0.53801973E+03 0.12500000E+03 0.0000E+00 0.9000E+01
        1  1    3    3  502    0 -.54570233E+01 -.14084600E+02 -.23959132E+02 0.28324856E+02 0.32000000E+00 0.0000E+00 0.9000E+01
       -1  1    3    3    0  502 -.37895006E+03 -.23845804E+03 -.16119902E+03 0.47586827E+03 0.32000000E+00 0.0000E+00 0.9000E+01
#aMCatNLO 1  0  0  5  1 0.84034172D-01 0.00000000D+00  -5  6  0 0.00000000D+00 0.00000000D+00 0.00000000D+00 0.00000000D+00 0.00000000D+00
  <mgrwgt>
 0.8056949601D-04    6    2    0
 0.473604353332612D+03 0.000000000000000D+00 0.000000000000000D+00 0.473604353332612D+03
 0.473604353332612D+03 -.000000000000000D+00 -.000000000000000D+00 -.473604353332612D+03
 0.477428443417256D+03 0.384407080743787D+03 0.252542637618610D+03 -.276826848860256D+02
 0.201639228545299D+02 -.545245959660939D+01 -.140818578686130D+02 -.133624753769261D+02
 0.449616340393439D+03 -.378954621147177D+03 -.238460779749997D+03 0.410451602629517D+02
 0.000000000000000D+00 0.000000000000000D+00 0.000000000000000D+00 0.000000000000000D+00
 0.473604353332612D+03 0.000000000000000D+00 0.000000000000000D+00 0.473604353332612D+03
 0.473604353332612D+03 -.000000000000000D+00 -.000000000000000D+00 -.473604353332612D+03
 0.465034358771524D+03 0.373565054034389D+03 0.245720189760958D+03 -.265083682290199D+02
 0.204675181577852D+02 -.591988087591478D+01 -.143759871297828D+02 -.133118482562927D+02
 0.365619640346372D+03 -.335467533774625D+03 -.144787142322618D+03 0.132641851702649D+02
 0.960871893895434D+02 -.321776393838493D+02 -.865570603085568D+02 0.265560313150477D+02
0.363544248509D-05 0.000000000000D+00 0.000000000000D+00 0.360607997198D-05 0.000000000000D+00  6 1 -1 25 1 -1 21 0 0.46728289D-01 0.11361215D+00 0.22064850D+06 0.22064850D+06 0.22064850D+06 0.10945631D+01  1  2  2  4  6  5       -1 0.289741801396D-04 0.100000000000D+01
0.124622938383D-05 0.000000000000D+00 -.139610563767D-07 0.360607997198D-05 0.000000000000D+00  6 1 -1 25 1 -1 21 2 0.46728289D-01 0.11361215D+00 0.22064850D+06 0.22064850D+06 0.22064850D+06 0.10945631D+01  1  2  3  4  6  5       -1 0.118996304107D-04 0.100000000000D+01
-.109926978736D-05 0.000000000000D+00 0.000000000000D+00 0.360607997198D-05 0.000000000000D+00  6 1 -1 25 1 -1 21 2 0.46728289D-01 0.11361215D+00 0.22064850D+06 0.22064850D+06 0.22064850D+06 0.10945631D+01  1  2 15  4  6  5       -1 -.104963856260D-04 0.100000000000D+01
-.941950738157D-06 0.000000000000D+00 0.000000000000D+00 0.360607997198D-05 0.000000000000D+00  6 1 -1 25 1 -1 21 2 0.46728289D-01 0.11361215D+00 0.22064850D+06 0.22064850D+06 0.22064850D+06 0.10945631D+01  1  2  4  4  6  5       -1 -.899422353107D-05 0.100000000000D+01
-.262758373282D-04 0.000000000000D+00 0.000000000000D+00 0.360607997198D-05 0.000000000000D+00  6 1 -1 25 1 -1 21 2 0.46728289D-01 0.11361215D+00 0.22064850D+06 0.22064850D+06 0.22064850D+06 0.10945631D+01  1  2  5  4  6  5       -1 -.250895025421D-03 0.100000000000D+01
0.324743239135D-04 0.000000000000D+00 -.000000000000D+00 0.360607997198D-05 0.000000000000D+00  6 1 -1 25 1 -1 21 2 0.46728289D-01 0.11361215D+00 0.22064850D+06 0.22064850D+06 0.22064850D+06 0.10945631D+01  1  2  6  4  6  5       -1 0.310081320038D-03 0.100000000000D+01
  </mgrwgt>
  </event>
  <event>
  7     66 0.24873396E-05 0.58957688E+02 0.75467711E-02 0.89142711E-01
        1 -1    0    0  501    0 0.00000000E+00 0.00000000E+00 0.11621182E+04 0.11621183E+04 0.32000000E+00 0.0000E+00 0.9000E+01
       -1 -1    0    0    0  503 0.00000000E+00 0.00000000E+00 -.68581047E+03 0.68581054E+03 0.32000000E+00 0.0000E+00 0.9000E+01
       23  2    1    2    0    0 -.82150753E+03 -.51575343E+02 0.55041768E+03 0.99390730E+03 0.85775610E+02 0.0000E+00 0.0000E+00
       25  1    1    2    0    0 0.82316743E+03 0.63558399E+02 -.62703176E+02 0.83737744E+03 0.12500000E+03 0.0000E+00 0.9000E+01
        1  1    3    3  502    0 -.52328782E+03 -.10160898E+02 0.30737200E+03 0.60696873E+03 0.32000000E+00 0.0000E+00 0.9000E+01
       -1  1    3    3    0  502 -.29821971E+03 -.41414445E+02 0.24304569E+03 0.38693857E+03 0.32000000E+00 0.0000E+00 0.9000E+01
       21  1    1    2  501  503 -.16598995E+01 -.11983056E+02 -.11406742E+02 0.16644073E+02 0.75000000E+00 0.0000E+00 0.9000E+01
#aMCatNLO 2  0  0  2  1 0.15495720D+02 0.00000000D+00  -5  6  0 0.00000000D+00 0.00000000D+00 0.00000000D+00 0.00000000D+00 0.00000000D+00
  <mgrwgt>
 0.1658050730D-02    1    2    0
 0.882551984886397D+03 0.000000000000000D+00 0.000000000000000D+00 0.882551984886397D+03
 0.882551984886397D+03 0.000000000000000D+00 0.000000000000000D+00 -.882551984886397D+03
 0.884893927612391D+03 0.822334733251753D+03 0.575470208292924D+02 -.296422316984947D+03
 0.545360694227806D+03 -.523803536856626D+03 -.138608524448820D+02 0.151182070215434D+03
 0.334849347932597D+03 -.298531196395127D+03 -.436861683844105D+02 0.145240246769513D+03
 0.000000000000000D+00 -.000000000000000D+00 -.000000000000000D+00 -.000000000000000D+00
 0.884559077475745D+03 0.000000000000000D+00 0.000000000000000D+00 0.884559077475745D+03
 0.900991900286977D+03 0.000000000000000D+00 0.000000000000000D+00 -.900991900286977D+03
 0.886078711108136D+03 0.823167432651430D+03 0.635583990860662D+02 -.296422316984947D+03
 0.544786819654360D+03 -.523290956842389D+03 -.101604626599998D+02 0.151182070215434D+03
 0.334279894693176D+03 -.298216576334681D+03 -.414148803406843D+02 0.145240246769513D+03
 0.204055523070496D+02 -.165989947436049D+01 -.119830560853821D+02 -.164328228112318D+02
0.125651898177D-02 0.000000000000D+00 0.000000000000D+00 0.215982181256D-05 0.881887148028D-07  6 1 -1 25 1 -1 21 2 0.17878604D+00 0.10550849D+00 0.69855510D+06 0.69855510D+06 0.69855510D+06 0.10583952D+01  1  2  1  2  6  2       -1 0.165805073045D-02 0.100000000000D+01
  </mgrwgt>
  </event>
  <event>
  6     66 0.24873396E-05 0.31320460E+02 0.75467711E-02 0.95199150E-01
        1 -1    0    0  501    0 0.00000000E+00 0.00000000E+00 0.27278571E+04 0.27278571E+04 0.32000000E+00 0.0000E+00 0.9000E+01
       -1 -1    0    0    0  501 0.00000000E+00 0.00000000E+00 -.91340191E+02 0.91340752E+02 0.32000000E+00 0.0000E+00 0.9000E+01
       25  1    1    2    0    0 0.39880024E+03 0.22974890E+03 0.97766319E+03 0.10877851E+04 0.12500000E+03 0.0000E+00 0.9000E+01
        1  1    1    2  503    0 -.88547002E+02 -.15371926E+02 0.46878210E+03 0.47731921E+03 0.32000000E+00 0.0000E+00 0.9000E+01
       -1  1    1    2    0  502 -.28029974E+03 -.16363809E+03 0.10963690E+04 0.11434030E+04 0.32000000E+00 0.0000E+00 0.9000E+01
       21  1    1    2  502  503 -.29953500E+02 -.50738892E+02 0.93702683E+02 0.11069057E+03 0.75000000E+00 0.0000E+00 0.9000E+01
#aMCatNLO 2  0  0  4  5 0.40397617D+00 0.00000000D+00  -5  6  0 0.00000000D+00 0.00000000D+00 0.00000000D+00 0.00000000D+00 0.00000000D+00
  <mgrwgt>
 0.1746509608D-01    1    2    0
 0.499163107196844D+03 0.000000000000000D+00 0.000000000000000D+00 0.499163107196844D+03
 0.499163107196844D+03 -.000000000000000D+00 -.000000000000000D+00 -.499163107196844D+03
 0.506959324956018D+03 0.413712852279445D+03 0.238068584885485D+03 -.116394939362883D+03
 0.163595028573377D+03 -.138227072951736D+03 -.770157062131198D+02 0.415354146917305D+02
 0.327771860864294D+03 -.275485779327710D+03 -.161052878672365D+03 0.748595246711527D+02
 0.000000000000000D+00 0.000000000000000D+00 -.000000000000000D+00 0.000000000000000D+00
 0.499163107196844D+03 0.000000000000000D+00 0.000000000000000D+00 0.499163107196844D+03
 0.499163107196844D+03 -.000000000000000D+00 -.000000000000000D+00 -.499163107196844D+03
 0.490445169731071D+03 0.399295583922930D+03 0.230035743847690D+03 -.112062740126349D+03
 0.105536204809860D+03 -.849050404030075D+02 -.144059315799933D+02 0.610040472029927D+02
 0.339175689981882D+03 -.285126363334990D+03 -.166424303891554D+03 0.777563931793404D+02
 0.631691498708756D+02 -.292641801849326D+02 -.492055083761420D+02 -.266977002559838D+02
0.358428437872D-02 0.000000000000D+00 0.000000000000D+00 0.343517924687D-07 0.135787040801D-07  6 1 -1 25 1 -1 21 2 0.41967037D+00 0.14052382D-01 0.22609168D+06 0.22609168D+06 0.22609168D+06 0.10937586D+01  1  2  1  3  6  4        1 0.174650960796D-01 0.100000000000D+01
  </mgrwgt>
  </event>
  <event>
  7     66 0.24873396E-05 0.44658049E+02 0.75467711E-02 0.95124386E-01
        1 -1    0    0  503    0 0.00000000E+00 0.00000000E+00 0.35427400E+04 0.35427400E+04 0.32000000E+00 0.0000E+00 0.9000E+01
       -1 -1    0    0    0  501 0.00000000E+00 0.00000000E+00 -.68599797E+02 0.68600543E+02 0.32000000E+00 0.0000E+00 0.9000E+01
       23  2    1    2    0    0 0.46080883E+03 0.31039913E+02 0.17306318E+04 0.17935678E+04 0.92145080E+02 0.0000E+00 0.0000E+00
       25  1    1    2    0    0 -.45838547E+03 -.40824760E+02 0.14983554E+04 0.15724115E+04 0.12500000E+03 0.0000E+00 0.9000E+01
        1  1    3    3  502    0 0.36047372E+03 0.60853134E+02 0.13029881E+04 0.13533006E+04 0.32000000E+00 0.0000E+00 0.9000E+01
       -1  1    3    3    0  502 0.10033511E+03 -.29813221E+02 0.42764368E+03 0.44026717E+03 0.32000000E+00 0.0000E+00 0.9000E+01
       21  1    1    2  503  501 -.24233623E+01 0.97848470E+01 0.24515294E+03 0.24536125E+03 0.75000000E+00 0.0000E+00 0.9000E+01
#aMCatNLO 2  0  0  1  5 0.77433743D+02 0.00000000D+00  -5  6  0 0.00000000D+00 0.00000000D+00 0.00000000D+00 0.00000000D+00 0.00000000D+00
  <mgrwgt>
 0.1727616708D-03    1    2    0
 0.475225297780345D+03 0.000000000000000D+00 0.000000000000000D+00 0.475225297780345D+03
 0.475225297780345D+03 0.000000000000000D+00 0.000000000000000D+00 -.475225297780345D+03
 0.478978404119986D+03 -.459605697670849D+03 -.358978284991045D+02 -.356266780779469D+02
 0.365694631099107D+03 0.359544128963588D+03 0.646203320128869D+02 0.168758772533655D+02
 0.105777560341597D+03 0.100061568707261D+03 -.287225035137824D+02 0.187508008245815D+02
 0.000000000000000D+00 -.000000000000000D+00 0.000000000000000D+00 0.000000000000000D+00
 0.510595695084759D+03 0.000000000000000D+00 0.000000000000000D+00 0.510595695084759D+03
 0.475970795648052D+03 0.000000000000000D+00 0.000000000000000D+00 -.475970795648052D+03
 0.478203053469585D+03 -.458385469986210D+03 -.408247604069764D+02 -.356266780779469D+02
 0.365966664089114D+03 0.360476860538243D+03 0.608542275272279D+02 0.168758772533655D+02
 0.106334333204490D+03 0.100331971777331D+03 -.298143141083828D+02 0.187508008245815D+02
 0.360624399696217D+02 -.242336232936439D+01 0.978484698813129D+01 0.346248994367066D+02
0.950130088701D-04 0.000000000000D+00 0.000000000000D+00 0.228541852184D-04 0.143817078594D-05  6 1 -1 25 1 -1 21 2 0.54503252D+00 0.10553787D-01 0.22905794D+06 0.22905794D+06 0.22905794D+06 0.10933290D+01  1  2  1  1  6  1        1 0.172761670842D-03 0.100000000000D+01
  </mgrwgt>
  </event>
  <event>
  7     66 0.24873396E-05 0.61262126E+02 0.75467711E-02 0.91360644E-01
        1 -1    0    0  503    0 0.00000000E+00 0.00000000E+00 0.10265060E+04 0.10265061E+04 0.32000000E+00 0.0000E+00 0.9000E+01
       -1 -1    0    0    0  501 0.00000000E+00 0.00000000E+00 -.65223437E+03 0.65223445E+03 0.32000000E+00 0.0000E+00 0.9000E+01
       23  2    1    2    0    0 0.59696025E+03 -.17520546E+03 0.29008941E+03 0.69254078E+03 0.91664507E+02 0.0000E+00 0.0000E+00
       25  1    1    2    0    0 -.64166079E+03 0.15827835E+03 -.19709140E+03 0.70089273E+03 0.12500000E+03 0.0000E+00 0.9000E+01
        1  1    3    3  502    0 0.31009773E+03 -.13262287E+03 0.13143320E+03 0.36197267E+03 0.32000000E+00 0.0000E+00 0.9000E+01
       -1  1    3    3    0  502 0.28686251E+03 -.42582592E+02 0.15865621E+03 0.33056811E+03 0.32000000E+00 0.0000E+00 0.9000E+01
       21  1    1    2  503  501 0.44700541E+02 0.16927112E+02 0.28127364E+03 0.28530701E+03 0.75000000E+00 0.0000E+00 0.9000E+01
#aMCatNLO 2  0  0  1  5 0.77433743D+02 0.00000000D+00  -5  6  0 0.00000000D+00 0.00000000D+00 0.00000000D+00 0.00000000D+00 0.00000000D+00
  <mgrwgt>
 0.6065734224D-03    1    2    0
 0.694752412634103D+03 0.000000000000000D+00 0.000000000000000D+00 0.694752412634103D+03
 0.694752412634103D+03 0.000000000000000D+00 0.000000000000000D+00 -.694752412634103D+03
 0.697351402613041D+03 -.618939416706566D+03 0.166882430261414D+03 -.244414057785872D+03
 0.362560094592176D+03 0.321620367877237D+03 -.128260702685688D+03 0.107514433002139D+03
 0.329593328062989D+03 0.297319048829329D+03 -.386217275757261D+02 0.136899624783733D+03
 0.000000000000000D+00 0.000000000000000D+00 0.000000000000000D+00 0.000000000000000D+00
 0.960136895284792D+03 0.000000000000000D+00 0.000000000000000D+00 0.960136895284792D+03
 0.697318908598879D+03 0.000000000000000D+00 0.000000000000000D+00 -.697318908598879D+03
 0.715642251531587D+03 -.641660786887089D+03 0.158278346924922D+03 -.244414057785872D+03
 0.353990463869908D+03 0.310098015710883D+03 -.132623964121246D+03 0.107514433002139D+03
 0.320693981801083D+03 0.286862229969754D+03 -.425814949747671D+02 0.136899624783733D+03
 0.267129106681093D+03 0.447005412064512D+02 0.169271121710914D+02 0.262817986685913D+03
0.309502051095D-03 0.000000000000D+00 0.000000000000D+00 0.404431787603D-04 0.113090492703D-06  6 1 -1 25 1 -1 21 2 0.15792389D+00 0.10034368D+00 0.45406228D+06 0.45406228D+06 0.45406228D+06 0.10714811D+01  1  2  1  1  6  1        1 0.606573422384D-03 0.100000000000D+01
  </mgrwgt>
  </event>
  <event>
  7     66 0.24873396E-05 0.26015641E+02 0.75467711E-02 0.95207604E-01
        3 -1    0    0  501    0 0.00000000E+00 0.00000000E+00 0.70988416E+03 0.70988433E+03 0.50000000E+00 0.0000E+00 0.9000E+01
       21 -1    0    0  503  501 0.00000000E+00 0.00000000E+00 -.44651746E+03 0.44651809E+03 0.75000000E+00 0.0000E+00 0.9000E+01
       23  2    1    2    0    0 0.40778298E+03 -.78697512E+02 0.17839374E+03 0.46094322E+03 0.90355245E+02 0.0000E+00 0.0000E+00
       25  1    1    2    0    0 -.45683628E+03 0.88733196E+02 0.23584918E+03 0.53649120E+03 0.12500000E+03 0.0000E+00 0.9000E+01
        3  1    3    3  502    0 0.32273908E+03 -.41052403E+02 0.17126617E+03 0.36766583E+03 0.50000000E+00 0.0000E+00 0.9000E+01
        3  1    1    2  503    0 0.49053298E+02 -.10035684E+02 -.15087623E+03 0.15896801E+03 0.50000000E+00 0.0000E+00 0.9000E+01
       -3  1    3    3    0  502 0.85043903E+02 -.37645109E+02 0.71275710E+01 0.93277393E+02 0.50000000E+00 0.0000E+00 0.9000E+01
#aMCatNLO 2  0  0  2  1 0.33540805D+03 0.00000000D+00  -5  6  0 0.00000000D+00 0.00000000D+00 0.00000000D+00 0.00000000D+00 0.00000000D+00
  <mgrwgt>
 0.4781529176D-04    1    2    0
 0.452982140893840D+03 0.000000000000000D+00 0.000000000000000D+00 0.452982140893840D+03
 0.452982140893840D+03 0.000000000000000D+00 0.000000000000000D+00 -.452982140893840D+03
 0.457099814178114D+03 -.431429725726701D+03 0.835353364917344D+02 0.143345539959514D+02
 0.344414039569962D+03 0.340881894592684D+03 -.447628089067237D+02 0.204170402013158D+02
 0.000000000000000D+00 0.000000000000000D+00 -.000000000000000D+00 -.000000000000000D+00
 0.104450428039603D+03 0.905478311340168D+02 -.387725275850106D+02 -.347515941972672D+02
 0.456273616569175D+03 0.000000000000000D+00 0.000000000000000D+00 0.456273616569175D+03
 0.694705483585203D+03 0.000000000000000D+00 0.000000000000000D+00 -.694705483585203D+03
 0.482082405495621D+03 -.456836279481143D+03 0.887331955922276D+02 0.143345539959514D+02
 0.325986771235306D+03 0.322746357228419D+03 -.410525076654665D+02 0.204170402013158D+02
 0.243632297167968D+03 0.490532982671284D+02 -.100356835197460D+02 -.238431867016028D+03
 0.992776262554825D+02 0.850366239855955D+02 -.376450044070151D+02 -.347515941972672D+02
0.450190060754D-05 0.000000000000D+00 0.000000000000D+00 0.403566266346D-04 0.279219412744D-08  6 3 21 25 3 3 -3 2 0.10921295D+00 0.68695018D-01 0.22575897D+06 0.22575897D+06 0.22575897D+06 0.10938071D+01  1  2  1  6  5  2       -3 0.478152917608D-04 0.100000000000D+01
  </mgrwgt>
  </event>
</LesHouchesEvents>
