<event>
 5    0  0.1531977E+001  0.2385016E+03  0.7546771E-02  0.1120795E+00
         21   -1    0    0  502  501  0.00000000000E+00  0.00000000000E+00  0.11601637835E+03  0.11601637835E+03  0.00000000000E+00 0.  1.
         21   -1    0    0  504  502 -0.00000000000E+00 -0.00000000000E+00 -0.10477828988E+04  0.10477828988E+04  0.00000000000E+00 0.  1.
         25    1    1    2    0    0 -0.33783817377E+02 -0.21932935346E+03 -0.65112991144E+03  0.69917227718E+03  0.12500000000E+03 0.  0.
         21    1    1    2  503  501  0.19653032296E+02  0.19914982419E+03 -0.18096664511E+02  0.20093377869E+03  0.00000000000E+00 0.  1.
         21    1    1    2  504  503  0.14130785080E+02  0.20179529268E+02 -0.26253994445E+03  0.26369322123E+03  0.00000000000E+00 0. -1.
<mgrwt>
<rscale>  4 0.23850162E+03</rscale>
<asrwt>0</asrwt>
<pdfrwt beam="1">  1       21 0.17848674E-01 0.23850162E+03</pdfrwt>
<pdfrwt beam="2">  1       21 0.16119736E+00 0.23850162E+03</pdfrwt>
<totfact> 0.67940283E+03</totfact>
</mgrwt>
</event>
<event>
 5    0  0.1531977E+001  0.7419103E+03  0.7546771E-02  0.9648128E-01
         21   -1    0    0  502  501  0.00000000000E+00  0.00000000000E+00  0.18591185481E+04  0.18591185481E+04  0.00000000000E+00 0.  1.
         21   -1    0    0  504  502 -0.00000000000E+00 -0.00000000000E+00 -0.84479555162E+03  0.84479555162E+03  0.00000000000E+00 0. -1.
         25    1    1    2    0    0  0.26925116497E+03  0.69100903298E+03  0.89736440523E+03  0.11708448015E+04  0.12500000000E+03 0.  0.
         21    1    1    2  503  501  0.42218613785E+02 -0.31121442047E+02  0.63564396924E+03  0.63780421066E+03  0.00000000000E+00 0. -1.
         21    1    1    2  504  503 -0.31146977876E+03 -0.65988759093E+03 -0.51868537794E+03  0.89526508758E+03  0.00000000000E+00 0. -1.
<mgrwt>
<rscale>  4 0.74191035E+03</rscale>
<asrwt>0</asrwt>
<pdfrwt beam="1">  1       21 0.28601824E+00 0.74191035E+03</pdfrwt>
<pdfrwt beam="2">  1       21 0.12996855E+00 0.74191035E+03</pdfrwt>
<totfact> 0.11174632E+01</totfact>
</mgrwt>
</event>
<event>
 5    0  0.1531977E+001  0.2709494E+03  0.7546771E-02  0.1100737E+00
         21   -1    0    0  503  501  0.00000000000E+00  0.00000000000E+00  0.25252323386E+03  0.25252323386E+03  0.00000000000E+00 0. -1.
         21   -1    0    0  504  502 -0.00000000000E+00 -0.00000000000E+00 -0.38125000463E+03  0.38125000463E+03  0.00000000000E+00 0. -1.
         25    1    1    2    0    0  0.22012704255E+03 -0.71889393485E+02 -0.17453938381E+03  0.31577364719E+03  0.12500000000E+03 0.  0.
         21    1    1    2  503  502  0.45252656120E+01 -0.22199518303E+02 -0.51076495040E+02  0.55875799657E+02  0.00000000000E+00 0.  1.
         21    1    1    2  504  501 -0.22465230817E+03  0.94088911788E+02  0.96889108070E+02  0.26212379165E+03  0.00000000000E+00 0. -1.
<mgrwt>
<rscale>  4 0.27094936E+03</rscale>
<asrwt>0</asrwt>
<pdfrwt beam="1">  1       21 0.38849728E-01 0.27094936E+03</pdfrwt>
<pdfrwt beam="2">  1       21 0.58653847E-01 0.27094936E+03</pdfrwt>
<totfact> 0.16657090E+04</totfact>
</mgrwt>
</event>
<event>
 5    0  0.1531977E+001  0.3187747E+03  0.7546771E-02  0.1076215E+00
         21   -1    0    0  502  501  0.00000000000E+00  0.00000000000E+00  0.29225094186E+03  0.29225094186E+03  0.00000000000E+00 0. -1.
         21   -1    0    0  504  502 -0.00000000000E+00 -0.00000000000E+00 -0.43711045605E+03  0.43711045605E+03  0.00000000000E+00 0. -1.
         25    1    1    2    0    0  0.28627603012E+03  0.12527400051E+03 -0.43986237642E+02  0.33942205251E+03  0.12500000000E+03 0.  0.
         21    1    1    2  503  501 -0.27155524253E+02 -0.12754571915E+02  0.58386479932E+02  0.65643603200E+02  0.00000000000E+00 0. -1.
         21    1    1    2  504  503 -0.25912050587E+03 -0.11251942859E+03 -0.15925975648E+03  0.32429574220E+03  0.00000000000E+00 0. -1.
<mgrwt>
<rscale>  4 0.31877468E+03</rscale>
<asrwt>0</asrwt>
<pdfrwt beam="1">  1       21 0.44961683E-01 0.31877468E+03</pdfrwt>
<pdfrwt beam="2">  1       21 0.67247762E-01 0.31877468E+03</pdfrwt>
<totfact> 0.89572654E+03</totfact>
</mgrwt>
</event>
<event>
 5    0  0.1531977E+001  0.4666506E+03  0.7546771E-02  0.1022870E+00
         21   -1    0    0  502  501  0.00000000000E+00  0.00000000000E+00  0.81235306237E+03  0.81235306237E+03  0.00000000000E+00 0. -1.
         21   -1    0    0  504  502 -0.00000000000E+00 -0.00000000000E+00 -0.33113957993E+03  0.33113957993E+03  0.00000000000E+00 0.  1.
         25    1    1    2    0    0  0.17165697581E+03  0.44210480203E+03  0.33694790910E+03  0.59504761723E+03  0.12500000000E+03 0.  0.
         21    1    1    2  503  501 -0.10802440350E+02 -0.35898137390E+02  0.10299357067E+03  0.10960403544E+03  0.00000000000E+00 0.  1.
         21    1    1    2  504  503 -0.16085453546E+03 -0.40620666464E+03  0.41272002673E+02  0.43884098963E+03  0.00000000000E+00 0.  1.
<mgrwt>
<rscale>  4 0.46665061E+03</rscale>
<asrwt>0</asrwt>
<pdfrwt beam="1">  1       21 0.12497739E+00 0.46665061E+03</pdfrwt>
<pdfrwt beam="2">  1       21 0.50944551E-01 0.46665061E+03</pdfrwt>
<totfact> 0.14855425E+03</totfact>
</mgrwt>
</event>
<event>
 5    0  0.1531977E+001  0.2372495E+03  0.7546771E-02  0.1121639E+00
         21   -1    0    0  503  501  0.00000000000E+00  0.00000000000E+00  0.40763008769E+03  0.40763008769E+03  0.00000000000E+00 0.  1.
         21   -1    0    0  504  502 -0.00000000000E+00 -0.00000000000E+00 -0.44061066896E+03  0.44061066896E+03  0.00000000000E+00 0.  1.
         25    1    1    2    0    0  0.13858630217E+03 -0.21150239119E+03 -0.29856793180E+03  0.41073986236E+03  0.12500000000E+03 0.  0.
         21    1    1    2  503  502 -0.76116069688E+02  0.11878026845E+03 -0.86580995087E+01  0.14134132773E+03  0.00000000000E+00 0. -1.
         21    1    1    2  504  501 -0.62470232487E+02  0.92722122736E+02  0.27424545004E+03  0.29615956655E+03  0.00000000000E+00 0.  1.
<mgrwt>
<rscale>  4 0.23724952E+03</rscale>
<asrwt>0</asrwt>
<pdfrwt beam="1">  1       21 0.62712321E-01 0.23724952E+03</pdfrwt>
<pdfrwt beam="2">  1       21 0.67786257E-01 0.23724952E+03</pdfrwt>
<totfact> 0.45332957E+03</totfact>
</mgrwt>
</event>
<event>
 5    0  0.1531977E+001  0.3045523E+03  0.7546771E-02  0.1082987E+00
         21   -1    0    0  504  501  0.00000000000E+00  0.00000000000E+00  0.53520409148E+03  0.53520409148E+03  0.00000000000E+00 0. -1.
         21   -1    0    0  501  502 -0.00000000000E+00 -0.00000000000E+00 -0.22136363482E+03  0.22136363482E+03  0.00000000000E+00 0. -1.
         25    1    1    2    0    0 -0.13610648559E+03  0.24207879359E+03 -0.29906074226E+02  0.30601714168E+03  0.12500000000E+03 0.  0.
         21    1    1    2  503  502  0.17601464402E+02 -0.37643237688E+02  0.11248754453E+03  0.11991777419E+03  0.00000000000E+00 0. -1.
         21    1    1    2  504  503  0.11850502119E+03 -0.20443555590E+03  0.23125898636E+03  0.33063281044E+03  0.00000000000E+00 0. -1.
<mgrwt>
<rscale>  4 0.30455232E+03</rscale>
<asrwt>0</asrwt>
<pdfrwt beam="1">  1       21 0.82339090E-01 0.30455232E+03</pdfrwt>
<pdfrwt beam="2">  1       21 0.34055944E-01 0.30455232E+03</pdfrwt>
<totfact> 0.10050889E+04</totfact>
</mgrwt>
</event>
<event>
 5    0  0.1531977E+001  0.1987636E+03  0.7546771E-02  0.1150786E+00
         21   -1    0    0  502  501  0.00000000000E+00  0.00000000000E+00  0.16491896614E+03  0.16491896614E+03  0.00000000000E+00 0. -1.
         21   -1    0    0  504  502 -0.00000000000E+00 -0.00000000000E+00 -0.97005477319E+03  0.97005477319E+03  0.00000000000E+00 0. -1.
         25    1    1    2    0    0  0.19962669429E+03 -0.57651498952E+02  0.29483098386E+02  0.24427190894E+03  0.12500000000E+03 0.  0.
         21    1    1    2  503  501 -0.47902488752E+02  0.71344400344E+02 -0.69377653927E+02  0.11044424274E+03  0.00000000000E+00 0. -1.
         21    1    1    2  504  503 -0.15172420554E+03 -0.13692901392E+02 -0.76524125150E+03  0.78025758766E+03  0.00000000000E+00 0. -1.
<mgrwt>
<rscale>  4 0.19876362E+03</rscale>
<asrwt>0</asrwt>
<pdfrwt beam="1">  1       21 0.25372148E-01 0.19876362E+03</pdfrwt>
<pdfrwt beam="2">  1       21 0.14923920E+00 0.19876362E+03</pdfrwt>
<totfact> 0.44373658E+03</totfact>
</mgrwt>
</event>
<event>
 5    0  0.1531977E+001  0.3050093E+03  0.7546771E-02  0.1082763E+00
         21   -1    0    0  504  501  0.00000000000E+00  0.00000000000E+00  0.15075561449E+03  0.15075561449E+03  0.00000000000E+00 0. -1.
         21   -1    0    0  503  502 -0.00000000000E+00 -0.00000000000E+00 -0.14341539794E+04  0.14341539794E+04  0.00000000000E+00 0. -1.
         25    1    1    2    0    0  0.14634622652E+03 -0.16065794670E+03 -0.31819090632E+02  0.25271653762E+03  0.12500000000E+03 0.  0.
         21    1    1    2  503  501 -0.19711195228E+03  0.20916422912E+03 -0.12231150345E+04  0.12564287422E+04  0.00000000000E+00 0. -1.
         21    1    1    2  504  502  0.50765725761E+02 -0.48506282414E+02 -0.28464239737E+02  0.75764314090E+02  0.00000000000E+00 0.  1.
<mgrwt>
<rscale>  4 0.30500926E+03</rscale>
<asrwt>0</asrwt>
<pdfrwt beam="1">  1       21 0.23193171E-01 0.30500926E+03</pdfrwt>
<pdfrwt beam="2">  1       21 0.22063908E+00 0.30500926E+03</pdfrwt>
<totfact> 0.15777885E+03</totfact>
</mgrwt>
</event>
<event>
 5    0  0.1531977E+001  0.3787382E+03  0.7546771E-02  0.1051401E+00
         21   -1    0    0  504  501  0.00000000000E+00  0.00000000000E+00  0.68081650789E+03  0.68081650789E+03  0.00000000000E+00 0.  1.
         21   -1    0    0  503  502 -0.00000000000E+00 -0.00000000000E+00 -0.28511612399E+03  0.28511612399E+03  0.00000000000E+00 0.  1.
         25    1    1    2    0    0 -0.36438285548E+03 -0.10417278921E+03  0.39990133255E+03  0.56495390180E+03  0.12500000000E+03 0.  0.
         21    1    1    2  503  501  0.33756922533E+03  0.94724173788E+02 -0.42615876801E+02  0.35318800085E+03  0.00000000000E+00 0.  1.
         21    1    1    2  504  502  0.26813630144E+02  0.94486154253E+01  0.38414928150E+02  0.47790729223E+02  0.00000000000E+00 0. -1.
<mgrwt>
<rscale>  4 0.37873816E+03</rscale>
<asrwt>0</asrwt>
<pdfrwt beam="1">  1       21 0.10474100E+00 0.37873816E+03</pdfrwt>
<pdfrwt beam="2">  1       21 0.43864019E-01 0.37873816E+03</pdfrwt>
<totfact> 0.32833187E+03</totfact>
</mgrwt>
</event>
<event>
 5    0  0.1531977E+001  0.2509125E+03  0.7546771E-02  0.1112730E+00
         21   -1    0    0  504  501  0.00000000000E+00  0.00000000000E+00  0.43675263576E+02  0.43675263576E+02  0.00000000000E+00 0. -1.
         21   -1    0    0  503  502 -0.00000000000E+00 -0.00000000000E+00 -0.27294029471E+04  0.27294029471E+04  0.00000000000E+00 0. -1.
         25    1    1    2    0    0 -0.19590021229E+03 -0.10950717236E+03 -0.43411703763E+03  0.50443167658E+03  0.12500000000E+03 0.  0.
         21    1    1    2  503  501  0.17870674528E+03  0.12247791841E+03 -0.22190909563E+04  0.22296415886E+04  0.00000000000E+00 0. -1.
         21    1    1    2  504  502  0.17193467012E+02 -0.12970746050E+02 -0.32519689540E+02  0.39004945439E+02  0.00000000000E+00 0. -1.
<mgrwt>
<rscale>  4 0.25091247E+03</rscale>
<asrwt>0</asrwt>
<pdfrwt beam="1">  1       21 0.67192724E-02 0.25091247E+03</pdfrwt>
<pdfrwt beam="2">  1       21 0.41990808E+00 0.25091247E+03</pdfrwt>
<totfact> 0.97846055E+02</totfact>
</mgrwt>
</event>
<event>
 5    0  0.1531977E+001  0.2470116E+03  0.7546771E-02  0.1115208E+00
         21   -1    0    0  503  501  0.00000000000E+00  0.00000000000E+00  0.14349874402E+04  0.14349874402E+04  0.00000000000E+00 0. -1.
         21   -1    0    0  501  502 -0.00000000000E+00 -0.00000000000E+00 -0.41393119133E+02  0.41393119133E+02  0.00000000000E+00 0. -1.
         25    1    1    2    0    0 -0.18760957515E+03 -0.10095723647E+03  0.61307900111E+03  0.66096942281E+03  0.12500000000E+03 0.  0.
         21    1    1    2  503  504  0.10004451347E+03  0.66017179411E+02  0.25833144066E+03  0.28478466582E+03  0.00000000000E+00 0. -1.
         21    1    1    2  504  502  0.87565061683E+02  0.34940057055E+02  0.52218387928E+03  0.53062647069E+03  0.00000000000E+00 0. -1.
<mgrwt>
<rscale>  4 0.24701157E+03</rscale>
<asrwt>0</asrwt>
<pdfrwt beam="1">  1       21 0.22076726E+00 0.24701157E+03</pdfrwt>
<pdfrwt beam="2">  1       21 0.63681733E-02 0.24701157E+03</pdfrwt>
<totfact> 0.17013704E+04</totfact>
</mgrwt>
</event>
<event>
 5    0  0.1531977E+001  0.2301774E+03  0.7546771E-02  0.1126515E+00
         21   -1    0    0  503  501  0.00000000000E+00  0.00000000000E+00  0.91679492449E+03  0.91679492449E+03  0.00000000000E+00 0.  1.
         21   -1    0    0  504  502 -0.00000000000E+00 -0.00000000000E+00 -0.27290403367E+03  0.27290403367E+03  0.00000000000E+00 0. -1.
         25    1    1    2    0    0 -0.17437883860E+03  0.10203897650E+03 -0.15534895908E+03  0.28386305002E+03  0.12500000000E+03 0.  0.
         21    1    1    2  503  502 -0.16633535248E+01 -0.23180206906E+02 -0.39157084720E+02  0.45534229113E+02  0.00000000000E+00 0. -1.
         21    1    1    2  504  501  0.17604219213E+03 -0.78858769593E+02  0.83839693463E+03  0.86030167903E+03  0.00000000000E+00 0.  1.
<mgrwt>
<rscale>  4 0.23017738E+03</rscale>
<asrwt>0</asrwt>
<pdfrwt beam="1">  1       21 0.14104537E+00 0.23017738E+03</pdfrwt>
<pdfrwt beam="2">  1       21 0.41985236E-01 0.23017738E+03</pdfrwt>
<totfact> 0.18531089E+03</totfact>
</mgrwt>
</event>
<event>
 5    0  0.1531977E+001  0.2467446E+03  0.7546771E-02  0.1115380E+00
         21   -1    0    0  504  501  0.00000000000E+00  0.00000000000E+00  0.75579308353E+03  0.75579308353E+03  0.00000000000E+00 0.  1.
         21   -1    0    0  503  502 -0.00000000000E+00 -0.00000000000E+00 -0.20864339228E+03  0.20864339228E+03  0.00000000000E+00 0.  1.
         25    1    1    2    0    0 -0.23786371276E+03 -0.59356980174E+02  0.13283420850E+03  0.30556885295E+03  0.12500000000E+03 0.  0.
         21    1    1    2  503  501  0.33392468697E+02  0.37185872711E+02 -0.96239905940E+02  0.10844337504E+03  0.00000000000E+00 0.  1.
         21    1    1    2  504  502  0.20447124407E+03  0.22171107463E+02  0.51055538870E+03  0.55042424782E+03  0.00000000000E+00 0.  1.
<mgrwt>
<rscale>  4 0.24674459E+03</rscale>
<asrwt>0</asrwt>
<pdfrwt beam="1">  1       21 0.11627586E+00 0.24674459E+03</pdfrwt>
<pdfrwt beam="2">  1       21 0.32098984E-01 0.24674459E+03</pdfrwt>
<totfact> 0.51221959E+03</totfact>
</mgrwt>
</event>
<event>
 5    0  0.1531977E+001  0.2683123E+03  0.7546771E-02  0.1102249E+00
         21   -1    0    0  504  501  0.00000000000E+00  0.00000000000E+00  0.53767415935E+03  0.53767415935E+03  0.00000000000E+00 0.  1.
         21   -1    0    0  503  502 -0.00000000000E+00 -0.00000000000E+00 -0.36223941095E+03  0.36223941095E+03  0.00000000000E+00 0.  1.
         25    1    1    2    0    0 -0.11940342787E+02 -0.24380062488E+03  0.27545165755E+03  0.38869002061E+03  0.12500000000E+03 0.  0.
         21    1    1    2  503  501  0.88212840283E+02  0.22117742237E+03 -0.24762617415E+03  0.34353992414E+03  0.00000000000E+00 0.  1.
         21    1    1    2  504  502 -0.76272497495E+02  0.22623202502E+02  0.14760926499E+03  0.16768362555E+03  0.00000000000E+00 0.  1.
<mgrwt>
<rscale>  4 0.26831235E+03</rscale>
<asrwt>0</asrwt>
<pdfrwt beam="1">  1       21 0.82719101E-01 0.26831235E+03</pdfrwt>
<pdfrwt beam="2">  1       21 0.55729140E-01 0.26831235E+03</pdfrwt>
<totfact> 0.36647809E+03</totfact>
</mgrwt>
</event>
<event>
 5    0  0.1531977E+001  0.1900289E+03  0.7546771E-02  0.1158435E+00
         21   -1    0    0  503  501  0.00000000000E+00  0.00000000000E+00  0.35327551283E+03  0.35327551283E+03  0.00000000000E+00 0. -1.
         21   -1    0    0  504  502 -0.00000000000E+00 -0.00000000000E+00 -0.79957597125E+03  0.79957597125E+03  0.00000000000E+00 0.  1.
         25    1    1    2    0    0 -0.21055719579E+03  0.60560728248E+02  0.26189222384E+03  0.36361307927E+03  0.12500000000E+03 0.  0.
         21    1    1    2  503  502  0.13403510889E+03 -0.45061421445E+02 -0.69599574545E+03  0.71021547421E+03  0.00000000000E+00 0.  1.
         21    1    1    2  504  501  0.76522086899E+02 -0.15499306803E+02 -0.12196936805E+02  0.79022930610E+02  0.00000000000E+00 0. -1.
<mgrwt>
<rscale>  4 0.19002887E+03</rscale>
<asrwt>0</asrwt>
<pdfrwt beam="1">  1       21 0.54350079E-01 0.19002887E+03</pdfrwt>
<pdfrwt beam="2">  1       21 0.12301169E+00 0.19002887E+03</pdfrwt>
<totfact> 0.15922230E+03</totfact>
</mgrwt>
</event>
<event>
 5    0  0.1531977E+001  0.4050218E+03  0.7546771E-02  0.1042055E+00
         21   -1    0    0  504  501  0.00000000000E+00  0.00000000000E+00  0.62976244349E+03  0.62976244349E+03  0.00000000000E+00 0.  1.
         21   -1    0    0  503  502 -0.00000000000E+00 -0.00000000000E+00 -0.51547049009E+03  0.51547049009E+03  0.00000000000E+00 0.  1.
         25    1    1    2    0    0 -0.49412079690E+02 -0.38777010811E+03  0.33042900841E+03  0.52689234191E+03  0.12500000000E+03 0.  0.
         21    1    1    2  503  501  0.72839458567E+02  0.37724828778E+03 -0.32700712652E+03  0.50453495236E+03  0.00000000000E+00 0.  1.
         21    1    1    2  504  502 -0.23427378876E+02  0.10521820329E+02  0.11087007151E+03  0.11380563932E+03  0.00000000000E+00 0. -1.
<mgrwt>
<rscale>  4 0.40502181E+03</rscale>
<asrwt>0</asrwt>
<pdfrwt beam="1">  1       21 0.96886529E-01 0.40502181E+03</pdfrwt>
<pdfrwt beam="2">  1       21 0.79303153E-01 0.40502181E+03</pdfrwt>
<totfact> 0.10770526E+03</totfact>
</mgrwt>
</event>
<event>
 5    0  0.1531977E+001  0.2599045E+03  0.7546771E-02  0.1107201E+00
         21   -1    0    0  503  501  0.00000000000E+00  0.00000000000E+00  0.51275046316E+03  0.51275046316E+03  0.00000000000E+00 0. -1.
         21   -1    0    0  504  502 -0.00000000000E+00 -0.00000000000E+00 -0.25096539849E+03  0.25096539849E+03  0.00000000000E+00 0.  1.
         25    1    1    2    0    0  0.16696727898E+03  0.15247242495E+03 -0.13167609296E+03  0.28998190646E+03  0.12500000000E+03 0.  0.
         21    1    1    2  503  502  0.14483830183E+02 -0.14018536408E+02  0.15642520276E+01  0.20217506874E+02  0.00000000000E+00 0.  1.
         21    1    1    2  504  501 -0.18145110916E+03 -0.13845388854E+03  0.39189690560E+03  0.45351644831E+03  0.00000000000E+00 0. -1.
<mgrwt>
<rscale>  4 0.25990451E+03</rscale>
<asrwt>0</asrwt>
<pdfrwt beam="1">  1       21 0.78884686E-01 0.25990451E+03</pdfrwt>
<pdfrwt beam="2">  1       21 0.38610061E-01 0.25990451E+03</pdfrwt>
<totfact> 0.88033556E+03</totfact>
</mgrwt>
</event>
<event>
 5    0  0.1531977E+001  0.1761105E+03  0.7546771E-02  0.1171621E+00
         21   -1    0    0  504  501  0.00000000000E+00  0.00000000000E+00  0.68861376998E+03  0.68861376998E+03  0.00000000000E+00 0.  1.
         21   -1    0    0  503  502 -0.00000000000E+00 -0.00000000000E+00 -0.14080562391E+03  0.14080562391E+03  0.00000000000E+00 0.  1.
         25    1    1    2    0    0  0.10813969659E+02  0.20209497505E+03  0.38329533069E+03  0.45110933421E+03  0.12500000000E+03 0.  0.
         21    1    1    2  503  501  0.56559347574E+01 -0.11744419757E+03 -0.64138790638E+02  0.13393622963E+03  0.00000000000E+00 0.  1.
         21    1    1    2  504  502 -0.16469904417E+02 -0.84650777473E+02  0.22865160602E+03  0.24437383005E+03  0.00000000000E+00 0.  1.
<mgrwt>
<rscale>  4 0.17611052E+03</rscale>
<asrwt>0</asrwt>
<pdfrwt beam="1">  1       21 0.10594058E+00 0.17611052E+03</pdfrwt>
<pdfrwt beam="2">  1       21 0.21662404E-01 0.17611052E+03</pdfrwt>
<totfact> 0.14371445E+04</totfact>
</mgrwt>
</event>
<event>
 5    0  0.1531977E+001  0.3191837E+03  0.7546771E-02  0.1076026E+00
         21   -1    0    0  502  501  0.00000000000E+00  0.00000000000E+00  0.33139222266E+03  0.33139222266E+03  0.00000000000E+00 0.  1.
         21   -1    0    0  504  502 -0.00000000000E+00 -0.00000000000E+00 -0.47561577842E+03  0.47561577842E+03  0.00000000000E+00 0.  1.
         25    1    1    2    0    0  0.14508559619E+03  0.25094150922E+03  0.64734345022E+02  0.32223750045E+03  0.12500000000E+03 0.  0.
         21    1    1    2  503  501  0.91225387364E+02 -0.64325235121E+02  0.10580331197E+02  0.11212381808E+03  0.00000000000E+00 0.  1.
         21    1    1    2  504  503 -0.23631098355E+03 -0.18661627410E+03 -0.21953823198E+03  0.37264668254E+03  0.00000000000E+00 0.  1.
<mgrwt>
<rscale>  4 0.31918371E+03</rscale>
<asrwt>0</asrwt>
<pdfrwt beam="1">  1       21 0.50983419E-01 0.31918371E+03</pdfrwt>
<pdfrwt beam="2">  1       21 0.73171658E-01 0.31918371E+03</pdfrwt>
<totfact> 0.56973877E+03</totfact>
</mgrwt>
</event>
<event>
 5    0  0.1531977E+001  0.2708231E+03  0.7546771E-02  0.1100809E+00
         21   -1    0    0  502  501  0.00000000000E+00  0.00000000000E+00  0.14555396590E+03  0.14555396590E+03  0.00000000000E+00 0. -1.
         21   -1    0    0  504  502 -0.00000000000E+00 -0.00000000000E+00 -0.71761800770E+03  0.71761800770E+03  0.00000000000E+00 0.  1.
         25    1    1    2    0    0  0.16244093094E+03  0.16065336786E+03 -0.41472247222E+03  0.48971041404E+03  0.12500000000E+03 0.  0.
         21    1    1    2  503  501 -0.14111274347E+03 -0.20014257803E+03 -0.40392465213E+02  0.24819631173E+03  0.00000000000E+00 0. -1.
         21    1    1    2  504  503 -0.21328187467E+02  0.39489210169E+02 -0.11694910437E+03  0.12526524783E+03  0.00000000000E+00 0. -1.
<mgrwt>
<rscale>  4 0.27082306E+03</rscale>
<asrwt>0</asrwt>
<pdfrwt beam="1">  1       21 0.22392918E-01 0.27082306E+03</pdfrwt>
<pdfrwt beam="2">  1       21 0.11040277E+00 0.27082306E+03</pdfrwt>
<totfact> 0.11529002E+04</totfact>
</mgrwt>
</event>
<event>
 5    0  0.1531977E+001  0.2417391E+03  0.7546771E-02  0.1118640E+00
         21   -1    0    0  504  501  0.00000000000E+00  0.00000000000E+00  0.58707864663E+03  0.58707864663E+03  0.00000000000E+00 0. -1.
         21   -1    0    0  503  502 -0.00000000000E+00 -0.00000000000E+00 -0.17855506092E+03  0.17855506092E+03  0.00000000000E+00 0.  1.
         25    1    1    2    0    0  0.14713509252E+03  0.22419919257E+03  0.23215597687E+03  0.37607899569E+03  0.12500000000E+03 0.  0.
         21    1    1    2  503  501 -0.11776928303E+03 -0.14757233101E+03 -0.67134312503E+01  0.18892397166E+03  0.00000000000E+00 0.  1.
         21    1    1    2  504  502 -0.29365809486E+02 -0.76626861556E+02  0.18308104008E+03  0.20063074021E+03  0.00000000000E+00 0. -1.
<mgrwt>
<rscale>  4 0.24173915E+03</rscale>
<asrwt>0</asrwt>
<pdfrwt beam="1">  1       21 0.90319791E-01 0.24173915E+03</pdfrwt>
<pdfrwt beam="2">  1       21 0.27470010E-01 0.24173915E+03</pdfrwt>
<totfact> 0.12779411E+04</totfact>
</mgrwt>
</event>
<event>
 5    0  0.1531977E+001  0.2455008E+03  0.7546771E-02  0.1116182E+00
         21   -1    0    0  504  501  0.00000000000E+00  0.00000000000E+00  0.25793253799E+03  0.25793253799E+03  0.00000000000E+00 0.  1.
         21   -1    0    0  503  502 -0.00000000000E+00 -0.00000000000E+00 -0.15458613594E+04  0.15458613594E+04  0.00000000000E+00 0.  1.
         25    1    1    2    0    0 -0.19737692881E+03  0.55365249042E+02  0.18332445539E+03  0.30208578049E+03  0.12500000000E+03 0.  0.
         21    1    1    2  503  501  0.20806454523E+03 -0.38071012927E+02 -0.14653512110E+04  0.14805385603E+04  0.00000000000E+00 0.  1.
         21    1    1    2  504  502 -0.10687616416E+02 -0.17294236115E+02 -0.59020658717E+01  0.21169556656E+02  0.00000000000E+00 0. -1.
<mgrwt>
<rscale>  4 0.24550083E+03</rscale>
<asrwt>0</asrwt>
<pdfrwt beam="1">  1       21 0.39681930E-01 0.24550083E+03</pdfrwt>
<pdfrwt beam="2">  1       21 0.23782482E+00 0.24550083E+03</pdfrwt>
<totfact> 0.45177309E+02</totfact>
</mgrwt>
</event>
<event>
 5    0  0.1531977E+001  0.2909390E+03  0.7546771E-02  0.1089860E+00
         21   -1    0    0  502  501  0.00000000000E+00  0.00000000000E+00  0.23693051802E+03  0.23693051802E+03  0.00000000000E+00 0. -1.
         21   -1    0    0  504  502 -0.00000000000E+00 -0.00000000000E+00 -0.93818608250E+03  0.93818608250E+03  0.00000000000E+00 0. -1.
         25    1    1    2    0    0  0.10803285710E+03 -0.19851548087E+03 -0.20676285517E+03  0.33084040357E+03  0.12500000000E+03 0.  0.
         21    1    1    2  503  501  0.99986641246E+02  0.32612200319E+01  0.12626647221E+03  0.16109371803E+03  0.00000000000E+00 0. -1.
         21    1    1    2  504  503 -0.20801949835E+03  0.19525426083E+03 -0.62075918152E+03  0.68318247892E+03  0.00000000000E+00 0. -1.
<mgrwt>
<rscale>  4 0.29093899E+03</rscale>
<asrwt>0</asrwt>
<pdfrwt beam="1">  1       21 0.36450849E-01 0.29093899E+03</pdfrwt>
<pdfrwt beam="2">  1       21 0.14433632E+00 0.29093899E+03</pdfrwt>
<totfact> 0.22249030E+03</totfact>
</mgrwt>
</event>
<event>
 5    0  0.1531977E+001  0.2861996E+03  0.7546771E-02  0.1092350E+00
         21   -1    0    0  502  501  0.00000000000E+00  0.00000000000E+00  0.16363690372E+04  0.16363690372E+04  0.00000000000E+00 0. -1.
         21   -1    0    0  504  502 -0.00000000000E+00 -0.00000000000E+00 -0.11293953033E+03  0.11293953033E+03  0.00000000000E+00 0.  1.
         25    1    1    2    0    0  0.20344268157E+03 -0.22618439206E+03  0.12981213083E+04  0.13391386168E+04  0.12500000000E+03 0.  0.
         21    1    1    2  503  501 -0.58444443770E+02  0.21128458840E+02  0.12526704357E+03  0.13983560700E+03  0.00000000000E+00 0. -1.
         21    1    1    2  504  503 -0.14499823780E+03  0.20505593322E+03  0.10004115500E+03  0.27033434374E+03  0.00000000000E+00 0.  1.
<mgrwt>
<rscale>  4 0.28619957E+03</rscale>
<asrwt>0</asrwt>
<pdfrwt beam="1">  1       21 0.25174906E+00 0.28619957E+03</pdfrwt>
<pdfrwt beam="2">  1       21 0.17375314E-01 0.28619957E+03</pdfrwt>
<totfact> 0.17794155E+03</totfact>
</mgrwt>
</event>
<event>
 5    0  0.1531977E+001  0.2640506E+03  0.7546771E-02  0.1104734E+00
         21   -1    0    0  502  501  0.00000000000E+00  0.00000000000E+00  0.16417087299E+03  0.16417087299E+03  0.00000000000E+00 0. -1.
         21   -1    0    0  504  502 -0.00000000000E+00 -0.00000000000E+00 -0.15836180477E+04  0.15836180477E+04  0.00000000000E+00 0.  1.
         25    1    1    2    0    0 -0.20542912059E+03 -0.16419134370E+03 -0.28379551104E+03  0.40660154085E+03  0.12500000000E+03 0.  0.
         21    1    1    2  503  501  0.29424555381E+02  0.20186028670E+02  0.88850165043E+02  0.95747752146E+02  0.00000000000E+00 0. -1.
         21    1    1    2  504  503  0.17600456521E+03  0.14400531503E+03 -0.12245018287E+04  0.12454396277E+04  0.00000000000E+00 0.  1.
<mgrwt>
<rscale>  4 0.26405057E+03</rscale>
<asrwt>0</asrwt>
<pdfrwt beam="1">  1       21 0.25257057E-01 0.26405057E+03</pdfrwt>
<pdfrwt beam="2">  1       21 0.24363355E+00 0.26405057E+03</pdfrwt>
<totfact> 0.99944354E+02</totfact>
</mgrwt>
</event>
<event>
 5    0  0.1531977E+001  0.3292081E+03  0.7546771E-02  0.1071488E+00
         21   -1    0    0  504  501  0.00000000000E+00  0.00000000000E+00  0.26404067051E+04  0.26404067051E+04  0.00000000000E+00 0.  1.
         21   -1    0    0  503  502 -0.00000000000E+00 -0.00000000000E+00 -0.41973264106E+02  0.41973264106E+02  0.00000000000E+00 0.  1.
         25    1    1    2    0    0  0.75439951630E+02 -0.28235514477E+03  0.12807286012E+04  0.13195856789E+04  0.12500000000E+03 0.  0.
         21    1    1    2  503  501 -0.97304206703E+02  0.30229858958E+03  0.12240267870E+04  0.12645529334E+04  0.00000000000E+00 0.  1.
         21    1    1    2  504  502  0.21864255073E+02 -0.19943444818E+02  0.93678052839E+02  0.98241356998E+02  0.00000000000E+00 0. -1.
<mgrwt>
<rscale>  4 0.32920806E+03</rscale>
<asrwt>0</asrwt>
<pdfrwt beam="1">  1       21 0.40621629E+00 0.32920806E+03</pdfrwt>
<pdfrwt beam="2">  1       21 0.64574273E-02 0.32920806E+03</pdfrwt>
<totfact> 0.11859818E+03</totfact>
</mgrwt>
</event>
<event>
 5    0  0.1531977E+001  0.3212189E+03  0.7546771E-02  0.1075090E+00
         21   -1    0    0  504  501  0.00000000000E+00  0.00000000000E+00  0.42026841181E+03  0.42026841181E+03  0.00000000000E+00 0. -1.
         21   -1    0    0  501  502 -0.00000000000E+00 -0.00000000000E+00 -0.27530496090E+03  0.27530496090E+03  0.00000000000E+00 0. -1.
         25    1    1    2    0    0 -0.23193636819E+03 -0.18374471911E+03 -0.60871626103E+02  0.32693570554E+03  0.12500000000E+03 0.  0.
         21    1    1    2  503  502  0.85773292980E+01  0.29010586410E+02  0.40563247496E+02  0.50601993529E+02  0.00000000000E+00 0.  1.
         21    1    1    2  504  503  0.22335903889E+03  0.15473413270E+03  0.16527182951E+03  0.31803567364E+03  0.00000000000E+00 0. -1.
<mgrwt>
<rscale>  4 0.32121893E+03</rscale>
<asrwt>0</asrwt>
<pdfrwt beam="1">  1       21 0.64656679E-01 0.32121893E+03</pdfrwt>
<pdfrwt beam="2">  1       21 0.42354609E-01 0.32121893E+03</pdfrwt>
<totfact> 0.11044251E+04</totfact>
</mgrwt>
</event>
<event>
 5    0  0.1531977E+001  0.2095033E+03  0.7546771E-02  0.1141960E+00
         21   -1    0    0  504  501  0.00000000000E+00  0.00000000000E+00  0.34252447814E+03  0.34252447814E+03  0.00000000000E+00 0.  1.
         21   -1    0    0  503  502 -0.00000000000E+00 -0.00000000000E+00 -0.29583677516E+03  0.29583677516E+03  0.00000000000E+00 0. -1.
         25    1    1    2    0    0  0.50667905390E+02  0.20208661133E+03  0.23191544376E+03  0.33588094345E+03  0.12500000000E+03 0.  0.
         21    1    1    2  503  501 -0.51458464252E+02 -0.15566601831E+03 -0.19527842952E+03  0.25497754379E+03  0.00000000000E+00 0. -1.
         21    1    1    2  504  502  0.79055886199E+00 -0.46420593026E+02  0.10050688735E+02  0.47502766069E+02  0.00000000000E+00 0. -1.
<mgrwt>
<rscale>  4 0.20950326E+03</rscale>
<asrwt>0</asrwt>
<pdfrwt beam="1">  1       21 0.52696074E-01 0.20950326E+03</pdfrwt>
<pdfrwt beam="2">  1       21 0.45513350E-01 0.20950326E+03</pdfrwt>
<totfact> 0.15638013E+04</totfact>
</mgrwt>
</event>
<event>
 5    0  0.1531977E+001  0.3087047E+03  0.7546771E-02  0.1080968E+00
         21   -1    0    0  503  501  0.00000000000E+00  0.00000000000E+00  0.64991718462E+03  0.64991718462E+03  0.00000000000E+00 0. -1.
         21   -1    0    0  504  502 -0.00000000000E+00 -0.00000000000E+00 -0.31719858647E+03  0.31719858647E+03  0.00000000000E+00 0.  1.
         25    1    1    2    0    0 -0.28491931028E+03  0.58904565522E+02  0.37225244373E+03  0.48871836785E+03  0.12500000000E+03 0.  0.
         21    1    1    2  503  502  0.27932565704E+03 -0.29942350828E+02 -0.18080435204E+03  0.33408020111E+03  0.00000000000E+00 0.  1.
         21    1    1    2  504  501  0.55936532439E+01 -0.28962214694E+02  0.14127050646E+03  0.14431720214E+03  0.00000000000E+00 0.  1.
<mgrwt>
<rscale>  4 0.30870470E+03</rscale>
<asrwt>0</asrwt>
<pdfrwt beam="1">  1       21 0.99987259E-01 0.30870470E+03</pdfrwt>
<pdfrwt beam="2">  1       21 0.48799783E-01 0.30870470E+03</pdfrwt>
<totfact> 0.30414388E+03</totfact>
</mgrwt>
</event>
<event>
 5    0  0.1531977E+001  0.3334676E+03  0.7546771E-02  0.1069613E+00
         21   -1    0    0  502  501  0.00000000000E+00  0.00000000000E+00  0.64800245907E+02  0.64800245907E+02  0.00000000000E+00 0.  1.
         21   -1    0    0  504  502 -0.00000000000E+00 -0.00000000000E+00 -0.24622070046E+04  0.24622070046E+04  0.00000000000E+00 0.  1.
         25    1    1    2    0    0 -0.31105352661E+03 -0.10605748166E+03 -0.12787564280E+04  0.13262147217E+04  0.12500000000E+03 0.  0.
         21    1    1    2  503  501  0.28964053443E+03  0.81743796331E+02 -0.51659638022E+03  0.59786746649E+03  0.00000000000E+00 0.  1.
         21    1    1    2  504  503  0.21412992175E+02  0.24313685329E+02 -0.60205395046E+03  0.60292506234E+03  0.00000000000E+00 0. -1.
<mgrwt>
<rscale>  4 0.33346761E+03</rscale>
<asrwt>0</asrwt>
<pdfrwt beam="1">  1       21 0.99692699E-02 0.33346761E+03</pdfrwt>
<pdfrwt beam="2">  1       21 0.37880103E+00 0.33346761E+03</pdfrwt>
<totfact> 0.81811003E+02</totfact>
</mgrwt>
</event>
<event>
 5    0  0.1531977E+001  0.2511948E+03  0.7546771E-02  0.1112552E+00
         21   -1    0    0  504  501  0.00000000000E+00  0.00000000000E+00  0.19324597403E+03  0.19324597403E+03  0.00000000000E+00 0.  1.
         21   -1    0    0  503  502 -0.00000000000E+00 -0.00000000000E+00 -0.31157731192E+03  0.31157731192E+03  0.00000000000E+00 0.  1.
         25    1    1    2    0    0 -0.28993569810E+02 -0.21594724838E+03 -0.11230240731E+03  0.27515572293E+03  0.12500000000E+03 0.  0.
         21    1    1    2  503  501  0.26175591418E+02  0.18821419840E+02 -0.42070344603E+01  0.32513175326E+02  0.00000000000E+00 0.  1.
         21    1    1    2  504  502  0.28179783925E+01  0.19712582854E+03 -0.18218961256E+01  0.19715438769E+03  0.00000000000E+00 0.  1.
<mgrwt>
<rscale>  4 0.25119483E+03</rscale>
<asrwt>0</asrwt>
<pdfrwt beam="1">  1       21 0.29730150E-01 0.25119483E+03</pdfrwt>
<pdfrwt beam="2">  1       21 0.47934971E-01 0.25119483E+03</pdfrwt>
<totfact> 0.43920216E+04</totfact>
</mgrwt>
</event>
<event>
 5    0  0.1531977E+001  0.3005248E+03  0.7546771E-02  0.1084979E+00
         21   -1    0    0  502  501  0.00000000000E+00  0.00000000000E+00  0.25669850493E+03  0.25669850493E+03  0.00000000000E+00 0. -1.
         21   -1    0    0  504  502 -0.00000000000E+00 -0.00000000000E+00 -0.47581985080E+03  0.47581985080E+03  0.00000000000E+00 0. -1.
         25    1    1    2    0    0  0.29069375444E+03  0.86623541857E+02 -0.12252961088E+03  0.35020708504E+03  0.12500000000E+03 0.  0.
         21    1    1    2  503  501 -0.35979982392E+02 -0.62590298106E+02  0.49649558014E+02  0.87619536412E+02  0.00000000000E+00 0. -1.
         21    1    1    2  504  503 -0.25471377204E+03 -0.24033243751E+02 -0.14624129300E+03  0.29469173428E+03  0.00000000000E+00 0. -1.
<mgrwt>
<rscale>  4 0.30052484E+03</rscale>
<asrwt>0</asrwt>
<pdfrwt beam="1">  1       21 0.39492077E-01 0.30052484E+03</pdfrwt>
<pdfrwt beam="2">  1       21 0.73203054E-01 0.30052484E+03</pdfrwt>
<totfact> 0.97580049E+03</totfact>
</mgrwt>
</event>
<event>
 5    0  0.1531977E+001  0.2326011E+03  0.7546771E-02  0.1124822E+00
         21   -1    0    0  502  501  0.00000000000E+00  0.00000000000E+00  0.35962937915E+03  0.35962937915E+03  0.00000000000E+00 0. -1.
         21   -1    0    0  504  502 -0.00000000000E+00 -0.00000000000E+00 -0.36522983976E+03  0.36522983976E+03  0.00000000000E+00 0. -1.
         25    1    1    2    0    0 -0.23501031306E+03  0.10310174733E+03 -0.46615032048E+02  0.28923654465E+03  0.12500000000E+03 0.  0.
         21    1    1    2  503  501  0.16434856788E+03 -0.80640783274E+02  0.19331005384E+03  0.26623704589E+03  0.00000000000E+00 0. -1.
         21    1    1    2  504  503  0.70661745185E+02 -0.22460964058E+02 -0.15229548239E+03  0.16938562836E+03  0.00000000000E+00 0. -1.
<mgrwt>
<rscale>  4 0.23260106E+03</rscale>
<asrwt>0</asrwt>
<pdfrwt beam="1">  1       21 0.55327597E-01 0.23260106E+03</pdfrwt>
<pdfrwt beam="2">  1       21 0.56189206E-01 0.23260106E+03</pdfrwt>
<totfact> 0.89423468E+03</totfact>
</mgrwt>
</event>
<event>
 5    0  0.1531977E+001  0.2725461E+03  0.7546771E-02  0.1099831E+00
         21   -1    0    0  503  501  0.00000000000E+00  0.00000000000E+00  0.94488083838E+02  0.94488083838E+02  0.00000000000E+00 0. -1.
         21   -1    0    0  504  502 -0.00000000000E+00 -0.00000000000E+00 -0.14996594848E+04  0.14996594848E+04  0.00000000000E+00 0. -1.
         25    1    1    2    0    0 -0.88556974314E+02  0.22419557453E+03 -0.91736106298E+03  0.95670387958E+03  0.12500000000E+03 0.  0.
         21    1    1    2  503  502  0.12911894961E+03  0.42246904166E+02 -0.11866733411E+03  0.18038414632E+03  0.00000000000E+00 0. -1.
         21    1    1    2  504  501 -0.40561975292E+02 -0.26644247869E+03 -0.36914300385E+03  0.45705954271E+03  0.00000000000E+00 0. -1.
<mgrwt>
<rscale>  4 0.27254610E+03</rscale>
<asrwt>0</asrwt>
<pdfrwt beam="1">  1       21 0.14536629E-01 0.27254610E+03</pdfrwt>
<pdfrwt beam="2">  1       21 0.23071683E+00 0.27254610E+03</pdfrwt>
<totfact> 0.33514337E+03</totfact>
</mgrwt>
</event>
<event>
 5    0  0.1531977E+001  0.2287947E+03  0.7546771E-02  0.1127491E+00
         21   -1    0    0  502  501  0.00000000000E+00  0.00000000000E+00  0.26252270464E+03  0.26252270464E+03  0.00000000000E+00 0. -1.
         21   -1    0    0  504  502 -0.00000000000E+00 -0.00000000000E+00 -0.52194291161E+03  0.52194291161E+03  0.00000000000E+00 0. -1.
         25    1    1    2    0    0 -0.52511566649E+02  0.20210216691E+03  0.15503744798E+03  0.28855564590E+03  0.12500000000E+03 0.  0.
         21    1    1    2  503  501 -0.28323123901E+01 -0.20247427446E+02  0.15598732175E+02  0.25715768647E+02  0.00000000000E+00 0. -1.
         21    1    1    2  504  503  0.55343879039E+02 -0.18185473947E+03 -0.43005638712E+03  0.47019420171E+03  0.00000000000E+00 0. -1.
<mgrwt>
<rscale>  4 0.22879467E+03</rscale>
<asrwt>0</asrwt>
<pdfrwt beam="1">  1       21 0.40388108E-01 0.22879467E+03</pdfrwt>
<pdfrwt beam="2">  1       21 0.80298910E-01 0.22879467E+03</pdfrwt>
<totfact> 0.78584393E+03</totfact>
</mgrwt>
</event>
<event>
 5    0  0.1531977E+001  0.2107908E+03  0.7546771E-02  0.1140941E+00
         21   -1    0    0  502  501  0.00000000000E+00  0.00000000000E+00  0.20941234693E+03  0.20941234693E+03  0.00000000000E+00 0. -1.
         21   -1    0    0  504  502 -0.00000000000E+00 -0.00000000000E+00 -0.44190640995E+03  0.44190640995E+03  0.00000000000E+00 0.  1.
         25    1    1    2    0    0  0.11499844982E+03  0.16478375517E+03  0.40716891318E+02  0.24012745504E+03  0.12500000000E+03 0.  0.
         21    1    1    2  503  501 -0.28188300891E+02 -0.24184635364E+02  0.41527462037E+02  0.55713615912E+02  0.00000000000E+00 0.  1.
         21    1    1    2  504  503 -0.86810148927E+02 -0.14059911980E+03 -0.31473841638E+03  0.35547768592E+03  0.00000000000E+00 0.  1.
<mgrwt>
<rscale>  4 0.21079085E+03</rscale>
<asrwt>0</asrwt>
<pdfrwt beam="1">  1       21 0.32217284E-01 0.21079085E+03</pdfrwt>
<pdfrwt beam="2">  1       21 0.67985602E-01 0.21079085E+03</pdfrwt>
<totfact> 0.18111031E+04</totfact>
</mgrwt>
</event>
<event>
 5    0  0.1531977E+001  0.4400542E+03  0.7546771E-02  0.1030730E+00
         21   -1    0    0  502  501  0.00000000000E+00  0.00000000000E+00  0.19552628555E+03  0.19552628555E+03  0.00000000000E+00 0. -1.
         21   -1    0    0  504  502 -0.00000000000E+00 -0.00000000000E+00 -0.13840783135E+04  0.13840783135E+04  0.00000000000E+00 0. -1.
         25    1    1    2    0    0 -0.40472250654E+03 -0.14789810173E+02 -0.17642316385E+03  0.45909604499E+03  0.12500000000E+03 0.  0.
         21    1    1    2  503  501 -0.21747585955E+02 -0.89773869658E+01 -0.17944972179E+01  0.23595999489E+02  0.00000000000E+00 0.  1.
         21    1    1    2  504  503  0.42647009249E+03  0.23767197139E+02 -0.10103343668E+04  0.10969125545E+04  0.00000000000E+00 0. -1.
<mgrwt>
<rscale>  4 0.44005423E+03</rscale>
<asrwt>0</asrwt>
<pdfrwt beam="1">  1       21 0.30080968E-01 0.44005423E+03</pdfrwt>
<pdfrwt beam="2">  1       21 0.21293512E+00 0.44005423E+03</pdfrwt>
<totfact> 0.98455107E+02</totfact>
</mgrwt>
</event>
<event>
 5    0  0.1531977E+001  0.6383263E+03  0.7546771E-02  0.9828934E-01
         21   -1    0    0  502  501  0.00000000000E+00  0.00000000000E+00  0.21395949338E+03  0.21395949338E+03  0.00000000000E+00 0. -1.
         21   -1    0    0  504  502 -0.00000000000E+00 -0.00000000000E+00 -0.37189929268E+04  0.37189929268E+04  0.00000000000E+00 0.  1.
         25    1    1    2    0    0  0.22592999184E+03  0.61402822192E+03 -0.48229891021E+03  0.82238206286E+03  0.12500000000E+03 0.  0.
         21    1    1    2  503  501  0.11266295318E+01 -0.36330391183E+02 -0.14779194278E+02  0.39237624815E+02  0.00000000000E+00 0.  1.
         21    1    1    2  504  503 -0.22705662138E+03 -0.57769783073E+03 -0.30079553289E+04  0.30713327325E+04  0.00000000000E+00 0.  1.
<mgrwt>
<rscale>  4 0.63832633E+03</rscale>
<asrwt>0</asrwt>
<pdfrwt beam="1">  1       21 0.32916848E-01 0.63832633E+03</pdfrwt>
<pdfrwt beam="2">  1       21 0.57215271E+00 0.63832633E+03</pdfrwt>
<totfact> 0.31316763E+00</totfact>
</mgrwt>
</event>
<event>
 5    0  0.1531977E+001  0.2298259E+03  0.7546771E-02  0.1126762E+00
         21   -1    0    0  502  501  0.00000000000E+00  0.00000000000E+00  0.22830425952E+03  0.22830425952E+03  0.00000000000E+00 0. -1.
         21   -1    0    0  504  502 -0.00000000000E+00 -0.00000000000E+00 -0.46994063903E+03  0.46994063903E+03  0.00000000000E+00 0. -1.
         25    1    1    2    0    0 -0.17244772814E+03 -0.12263449912E+03  0.94646939904E+02  0.26336378367E+03  0.12500000000E+03 0.  0.
         21    1    1    2  503  501  0.25673758148E+02  0.13198094471E+01  0.18876949306E+02  0.31893933114E+02  0.00000000000E+00 0. -1.
         21    1    1    2  504  503  0.14677397000E+03  0.12131468967E+03 -0.35516026872E+03  0.40298718177E+03  0.00000000000E+00 0. -1.
<mgrwt>
<rscale>  4 0.22982585E+03</rscale>
<asrwt>0</asrwt>
<pdfrwt beam="1">  1       21 0.35123732E-01 0.22982585E+03</pdfrwt>
<pdfrwt beam="2">  1       21 0.72298560E-01 0.22982585E+03</pdfrwt>
<totfact> 0.13172332E+04</totfact>
</mgrwt>
</event>
<event>
 5    0  0.1531977E+001  0.2681735E+03  0.7546771E-02  0.1102330E+00
         21   -1    0    0  504  501  0.00000000000E+00  0.00000000000E+00  0.10690034794E+03  0.10690034794E+03  0.00000000000E+00 0.  1.
         21   -1    0    0  503  502 -0.00000000000E+00 -0.00000000000E+00 -0.96523123773E+03  0.96523123773E+03  0.00000000000E+00 0.  1.
         25    1    1    2    0    0  0.12216028105E+03  0.21420733246E+03 -0.52271983705E+03  0.59132811839E+03  0.12500000000E+03 0.  0.
         21    1    1    2  503  501  0.77016628349E+01 -0.19282840386E+02 -0.21749663116E+03  0.21848553295E+03  0.00000000000E+00 0.  1.
         21    1    1    2  504  502 -0.12986194389E+03 -0.19492449208E+03 -0.11811442158E+03  0.26231793433E+03  0.00000000000E+00 0.  1.
<mgrwt>
<rscale>  4 0.26817353E+03</rscale>
<asrwt>0</asrwt>
<pdfrwt beam="1">  1       21 0.16446208E-01 0.26817353E+03</pdfrwt>
<pdfrwt beam="2">  1       21 0.14849710E+00 0.26817353E+03</pdfrwt>
<totfact> 0.96813868E+03</totfact>
</mgrwt>
</event>
<event>
 5    0  0.1531977E+001  0.2400213E+03  0.7546771E-02  0.1119779E+00
         21   -1    0    0  502  501  0.00000000000E+00  0.00000000000E+00  0.13405482418E+03  0.13405482418E+03  0.00000000000E+00 0.  1.
         21   -1    0    0  504  502 -0.00000000000E+00 -0.00000000000E+00 -0.22441967996E+04  0.22441967996E+04  0.00000000000E+00 0.  1.
         25    1    1    2    0    0  0.22372893305E+03  0.10584062527E+02 -0.16803262665E+04  0.16997905812E+04  0.12500000000E+03 0.  0.
         21    1    1    2  503  501 -0.20038630507E+03  0.39567417320E+02  0.37681795530E+02  0.20770211719E+03  0.00000000000E+00 0.  1.
         21    1    1    2  504  503 -0.23342627978E+02 -0.50151479847E+02 -0.46749750445E+03  0.47075892544E+03  0.00000000000E+00 0.  1.
<mgrwt>
<rscale>  4 0.24002131E+03</rscale>
<asrwt>0</asrwt>
<pdfrwt beam="1">  1       21 0.20623820E-01 0.24002131E+03</pdfrwt>
<pdfrwt beam="2">  1       21 0.34526103E+00 0.24002131E+03</pdfrwt>
<totfact> 0.38016070E+02</totfact>
</mgrwt>
</event>
<event>
 5    0  0.1531977E+001  0.3617917E+03  0.7546771E-02  0.1057877E+00
         21   -1    0    0  503  501  0.00000000000E+00  0.00000000000E+00  0.11497026717E+03  0.11497026717E+03  0.00000000000E+00 0.  1.
         21   -1    0    0  504  502 -0.00000000000E+00 -0.00000000000E+00 -0.18209720461E+04  0.18209720461E+04  0.00000000000E+00 0.  1.
         25    1    1    2    0    0 -0.19468878955E+01 -0.34177066381E+03 -0.14027047274E+04  0.14491433778E+04  0.12500000000E+03 0.  0.
         21    1    1    2  503  502  0.24560334115E+02  0.33586122767E+01 -0.72324418540E+02  0.76454638875E+02  0.00000000000E+00 0.  1.
         21    1    1    2  504  501 -0.22613446220E+02  0.33841205154E+03 -0.23097263294E+03  0.41034429659E+03  0.00000000000E+00 0.  1.
<mgrwt>
<rscale>  4 0.36179166E+03</rscale>
<asrwt>0</asrwt>
<pdfrwt beam="1">  1       21 0.17687735E-01 0.36179166E+03</pdfrwt>
<pdfrwt beam="2">  1       21 0.28014952E+00 0.36179166E+03</pdfrwt>
<totfact> 0.11034557E+03</totfact>
</mgrwt>
</event>
