<event>
 5    0  0.1911311E+001  0.2185990E+03  0.7546771E-02  0.1134932E+00
         21   -1    0    0  504  501  0.00000000000E+00  0.00000000000E+00  0.23981103399E+04  0.23981103399E+04  0.00000000000E+00 0. -1.
         21   -1    0    0  503  502 -0.00000000000E+00 -0.00000000000E+00 -0.23215047959E+03  0.23215047959E+03  0.00000000000E+00 0.  1.
         25    1    1    2    0    0  0.51845346122E+02  0.19415876855E+03  0.14756780653E+04  0.14945354863E+04  0.12500000000E+03 0.  0.
         21    1    1    2  503  501 -0.12860609332E+03 -0.12519764444E+03 -0.18302477613E+03  0.25634360942E+03  0.00000000000E+00 0.  1.
         21    1    1    2  504  502  0.76760747196E+02 -0.68961124106E+02  0.87330657106E+03  0.87938172371E+03  0.00000000000E+00 0. -1.
<mgrwt>
<rscale>  4 0.21859896E+03</rscale>
<asrwt>0</asrwt>
<pdfrwt beam="1">  1       21 0.36894003E+00 0.21859896E+03</pdfrwt>
<pdfrwt beam="2">  1       21 0.35715460E-01 0.21859896E+03</pdfrwt>
<totfact> 0.97616735E+01</totfact>
</mgrwt>
</event>
<event>
 5    0  0.1911311E+001  0.2832007E+03  0.7546771E-02  0.1093954E+00
         21   -1    0    0  502  501  0.00000000000E+00  0.00000000000E+00  0.43616831173E+03  0.43616831173E+03  0.00000000000E+00 0.  1.
         21   -1    0    0  504  502 -0.00000000000E+00 -0.00000000000E+00 -0.17701636626E+04  0.17701636626E+04  0.00000000000E+00 0. -1.
         25    1    1    2    0    0  0.27030769694E+03 -0.12286936073E+03  0.34556368404E+03  0.47244300244E+03  0.12500000000E+03 0.  0.
         21    1    1    2  503  501 -0.33372544844E+02  0.33766816339E+02 -0.14417425742E+02  0.49616396484E+02  0.00000000000E+00 0. -1.
         21    1    1    2  504  503 -0.23693515209E+03  0.89102544390E+02 -0.16651416092E+04  0.16842725754E+04  0.00000000000E+00 0. -1.
<mgrwt>
<rscale>  4 0.28320068E+03</rscale>
<asrwt>0</asrwt>
<pdfrwt beam="1">  1       21 0.67102819E-01 0.28320068E+03</pdfrwt>
<pdfrwt beam="2">  1       21 0.27233287E+00 0.28320068E+03</pdfrwt>
<totfact> 0.89024118E+01</totfact>
</mgrwt>
</event>
<event>
 5    0  0.1911311E+001  0.2385919E+03  0.7546771E-02  0.1120734E+00
         21   -1    0    0  504  501  0.00000000000E+00  0.00000000000E+00  0.10399442048E+04  0.10399442048E+04  0.00000000000E+00 0.  1.
         21   -1    0    0  503  502 -0.00000000000E+00 -0.00000000000E+00 -0.96588071871E+02  0.96588071871E+02  0.00000000000E+00 0. -1.
         25    1    1    2    0    0  0.20450429487E+03  0.98373200290E+02  0.19880758813E+03  0.32657120242E+03  0.12500000000E+03 0.  0.
         21    1    1    2  503  501 -0.12689479826E+02 -0.45624612195E+02  0.92818742534E+01  0.48257448397E+02  0.00000000000E+00 0.  1.
         21    1    1    2  504  502 -0.19181481504E+03 -0.52748588095E+02  0.73526667053E+03  0.76170362584E+03  0.00000000000E+00 0.  1.
<mgrwt>
<rscale>  4 0.23859185E+03</rscale>
<asrwt>0</asrwt>
<pdfrwt beam="1">  1       21 0.15999141E+00 0.23859185E+03</pdfrwt>
<pdfrwt beam="2">  1       21 0.14859704E-01 0.23859185E+03</pdfrwt>
<totfact> 0.97193344E+03</totfact>
</mgrwt>
</event>
