<event>
 5    0  0.1856407E+000  0.2402759E+03  0.7546771E-02  0.1119609E+00
         21   -1    0    0  502  501  0.00000000000E+00  0.00000000000E+00  0.28960613258E+03  0.28960613258E+03  0.00000000000E+00 0.  1.
         21   -1    0    0  503  502 -0.00000000000E+00 -0.00000000000E+00 -0.42186927270E+03  0.42186927270E+03  0.00000000000E+00 0. -1.
         25    1    1    2    0    0  0.16602112557E+03  0.12060055828E+03  0.20380684855E+03  0.31507100836E+03  0.12500000000E+03 0.  0.
         21    1    1    2  503  504 -0.12855847085E+03 -0.67424438457E+02 -0.23371286236E+03  0.27512731119E+03  0.00000000000E+00 0. -1.
         21    1    1    2  504  501 -0.37462654718E+02 -0.53176119819E+02 -0.10235712631E+03  0.12127708573E+03  0.00000000000E+00 0. -1.
<mgrwt>
<rscale>  4 0.24027590E+03</rscale>
<asrwt>0</asrwt>
<pdfrwt beam="1">  1       21 0.44554790E-01 0.24027590E+03</pdfrwt>
<pdfrwt beam="2">  1       21 0.64902965E-01 0.24027590E+03</pdfrwt>
<totfact> 0.10260223E+04</totfact>
</mgrwt>
</event>
<event>
 5    0  0.1856407E+000  0.3732566E+03  0.7546771E-02  0.1053455E+00
         21   -1    0    0  502  501  0.00000000000E+00  0.00000000000E+00  0.84164150504E+03  0.84164150504E+03  0.00000000000E+00 0. -1.
         21   -1    0    0  503  502 -0.00000000000E+00 -0.00000000000E+00 -0.21973452695E+03  0.21973452695E+03  0.00000000000E+00 0. -1.
         25    1    1    2    0    0 -0.27856185549E+03  0.12521694872E+03  0.38681185362E+03  0.50845294933E+03  0.12500000000E+03 0.  0.
         21    1    1    2  503  504  0.37456554230E+03 -0.77475127023E+02  0.13324038320E+03  0.40503671500E+03  0.00000000000E+00 0. -1.
         21    1    1    2  504  501 -0.96003686806E+02 -0.47741821698E+02  0.10185474127E+03  0.14788636765E+03  0.00000000000E+00 0. -1.
<mgrwt>
<rscale>  4 0.37325656E+03</rscale>
<asrwt>0</asrwt>
<pdfrwt beam="1">  1       21 0.12948331E+00 0.37325656E+03</pdfrwt>
<pdfrwt beam="2">  1       21 0.33805312E-01 0.37325656E+03</pdfrwt>
<totfact> 0.32917675E+03</totfact>
</mgrwt>
</event>
<event>
 5    0  0.1856407E+000  0.2841251E+03  0.7546771E-02  0.1093457E+00
         21   -1    0    0  502  501  0.00000000000E+00  0.00000000000E+00  0.29993090022E+03  0.29993090022E+03  0.00000000000E+00 0.  1.
         21   -1    0    0  503  502 -0.00000000000E+00 -0.00000000000E+00 -0.12809298395E+04  0.12809298395E+04  0.00000000000E+00 0.  1.
         25    1    1    2    0    0 -0.20871470328E+03 -0.18825161996E+03  0.19248154454E+03  0.36287001085E+03  0.12500000000E+03 0.  0.
         21    1    1    2  503  504  0.20564252492E+02  0.17812689170E+02 -0.13159193879E+02  0.30221594259E+02  0.00000000000E+00 0.  1.
         21    1    1    2  504  501  0.18815045079E+03  0.17043893079E+03 -0.11603212899E+04  0.11877691346E+04  0.00000000000E+00 0.  1.
<mgrwt>
<rscale>  4 0.28412511E+03</rscale>
<asrwt>0</asrwt>
<pdfrwt beam="1">  1       21 0.46143214E-01 0.28412511E+03</pdfrwt>
<pdfrwt beam="2">  1       21 0.19706613E+00 0.28412511E+03</pdfrwt>
<totfact> 0.57686272E+02</totfact>
</mgrwt>
</event>
<event>
 5    0  0.1856407E+000  0.2507342E+03  0.7546771E-02  0.1112842E+00
         21   -1    0    0  502  501  0.00000000000E+00  0.00000000000E+00  0.11432132103E+03  0.11432132103E+03  0.00000000000E+00 0.  1.
         21   -1    0    0  503  502 -0.00000000000E+00 -0.00000000000E+00 -0.51145076171E+03  0.51145076171E+03  0.00000000000E+00 0.  1.
         25    1    1    2    0    0 -0.18633149788E+03  0.11190722457E+03 -0.15355110193E+03  0.29401631743E+03  0.12500000000E+03 0.  0.
         21    1    1    2  503  504  0.60804091947E+02 -0.65615246874E+01 -0.60003029805E+02  0.85677037703E+02  0.00000000000E+00 0.  1.
         21    1    1    2  504  501  0.12552740593E+03 -0.10534569988E+03 -0.18357530894E+03  0.24607872760E+03  0.00000000000E+00 0.  1.
<mgrwt>
<rscale>  4 0.25073423E+03</rscale>
<asrwt>0</asrwt>
<pdfrwt beam="1">  1       21 0.17587896E-01 0.25073423E+03</pdfrwt>
<pdfrwt beam="2">  1       21 0.78684731E-01 0.25073423E+03</pdfrwt>
<totfact> 0.40698101E+04</totfact>
</mgrwt>
</event>
<event>
 5    0  0.1856407E+000  0.3273223E+03  0.7546771E-02  0.1072483E+00
         21   -1    0    0  502  501  0.00000000000E+00  0.00000000000E+00  0.13967189113E+03  0.13967189113E+03  0.00000000000E+00 0.  1.
         21   -1    0    0  503  502 -0.00000000000E+00 -0.00000000000E+00 -0.16625988434E+04  0.16625988434E+04  0.00000000000E+00 0.  1.
         25    1    1    2    0    0  0.27853214473E+03  0.11415697071E+03 -0.98177734135E+02  0.34040540108E+03  0.12500000000E+03 0.  0.
         21    1    1    2  503  504 -0.18578014276E+03 -0.13628000720E+03 -0.10698895738E+04  0.10944177456E+04  0.00000000000E+00 0.  1.
         21    1    1    2  504  501 -0.92752001970E+02  0.22123036491E+02 -0.35485964437E+03  0.36744758785E+03  0.00000000000E+00 0.  1.
<mgrwt>
<rscale>  4 0.32697624E+03</rscale>
<asrwt>0</asrwt>
<pdfrwt beam="1">  1       21 0.21487985E-01 0.32732235E+03</pdfrwt>
<pdfrwt beam="2">  1       21 0.25578442E+00 0.32732235E+03</pdfrwt>
<totfact> 0.10944299E+03</totfact>
</mgrwt>
</event>
<event>
 5    0  0.1856407E+000  0.2546814E+03  0.7546771E-02  0.1110382E+00
         21   -1    0    0  502  501  0.00000000000E+00  0.00000000000E+00  0.38371060481E+03  0.38371060481E+03  0.00000000000E+00 0. -1.
         21   -1    0    0  503  502 -0.00000000000E+00 -0.00000000000E+00 -0.15212062473E+03  0.15212062473E+03  0.00000000000E+00 0. -1.
         25    1    1    2    0    0  0.17556748334E+03  0.13569694341E+03  0.15168160374E+03  0.29642859270E+03  0.12500000000E+03 0.  0.
         21    1    1    2  503  504 -0.13768906545E+03 -0.11006606015E+03  0.80211200678E+02  0.19366634467E+03  0.00000000000E+00 0. -1.
         21    1    1    2  504  501 -0.37878417890E+02 -0.25630883265E+02 -0.30282433950E+00  0.45736292169E+02  0.00000000000E+00 0. -1.
<mgrwt>
<rscale>  4 0.25468137E+03</rscale>
<asrwt>0</asrwt>
<pdfrwt beam="1">  1       21 0.59032401E-01 0.25468137E+03</pdfrwt>
<pdfrwt beam="2">  1       21 0.23403173E-01 0.25468137E+03</pdfrwt>
<totfact> 0.44798453E+04</totfact>
</mgrwt>
</event>
<event>
 5    0  0.1922320E+000  0.2825410E+03  0.7546771E-02  0.1094309E+00
         21   -1    0    0  502  501  0.00000000000E+00  0.00000000000E+00  0.12239312301E+03  0.12239312301E+03  0.00000000000E+00 0.  1.
         21   -1    0    0  503  502 -0.00000000000E+00 -0.00000000000E+00 -0.76881024894E+03  0.76881024894E+03  0.00000000000E+00 0.  1.
         25    1    1    2    0    0  0.24569054355E+03  0.11683088907E+03 -0.27297683334E+03  0.40516003180E+03  0.12500000000E+03 0.  0.
         21    1    1    2  503  504 -0.16013209093E+02 -0.35426569516E+02  0.14653049487E+01  0.38905164332E+02  0.00000000000E+00 0.  1.
         21    1    1    2  504  501 -0.22967733446E+03 -0.81404319554E+02 -0.37490559754E+03  0.44713817582E+03  0.00000000000E+00 0.  1.
<mgrwt>
<rscale>  4 0.28254097E+03</rscale>
<asrwt>0</asrwt>
<pdfrwt beam="1">  1       21 0.18829711E-01 0.28254097E+03</pdfrwt>
<pdfrwt beam="2">  1       21 0.11827850E+00 0.28254097E+03</pdfrwt>
<totfact> 0.13417855E+04</totfact>
</mgrwt>
</event>
<event>
 5    0  0.1856407E+000  0.2461071E+03  0.7546771E-02  0.1115790E+00
         21   -1    0    0  502  501  0.00000000000E+00  0.00000000000E+00  0.46056544657E+03  0.46056544657E+03  0.00000000000E+00 0.  1.
         21   -1    0    0  503  502 -0.00000000000E+00 -0.00000000000E+00 -0.26313655682E+03  0.26313655682E+03  0.00000000000E+00 0.  1.
         25    1    1    2    0    0 -0.15987112439E+03  0.13309381179E+03  0.33445093594E+03  0.41322532317E+03  0.12500000000E+03 0.  0.
         21    1    1    2  503  504  0.34878572855E+01  0.41301871778E+02 -0.54327182555E+01  0.41803399246E+02  0.00000000000E+00 0.  1.
         21    1    1    2  504  501  0.15638326711E+03 -0.17439568357E+03 -0.13158932794E+03  0.26867328097E+03  0.00000000000E+00 0.  1.
<mgrwt>
<rscale>  4 0.24610710E+03</rscale>
<asrwt>0</asrwt>
<pdfrwt beam="1">  1       21 0.70856223E-01 0.24610710E+03</pdfrwt>
<pdfrwt beam="2">  1       21 0.40482547E-01 0.24610710E+03</pdfrwt>
<totfact> 0.10255407E+04</totfact>
</mgrwt>
</event>
<event>
 5    0  0.1856407E+000  0.4647653E+03  0.7546771E-02  0.1025003E+00
         21   -1    0    0  502  501  0.00000000000E+00  0.00000000000E+00  0.69051989098E+03  0.69051989098E+03  0.00000000000E+00 0. -1.
         21   -1    0    0  503  502 -0.00000000000E+00 -0.00000000000E+00 -0.36110823995E+03  0.36110823995E+03  0.00000000000E+00 0.  1.
         25    1    1    2    0    0  0.41709462789E+03 -0.81770918090E+02  0.38057915298E+03  0.58405470921E+03  0.12500000000E+03 0.  0.
         21    1    1    2  503  504 -0.14407341019E+03 -0.38407897577E+02  0.42270027199E+02  0.15498086759E+03  0.00000000000E+00 0.  1.
         21    1    1    2  504  501 -0.27302121771E+03  0.12017881567E+03 -0.93437529148E+02  0.31259255414E+03  0.00000000000E+00 0.  1.
<mgrwt>
<rscale>  4 0.45923462E+03</rscale>
<asrwt>0</asrwt>
<pdfrwt beam="1">  1       21 0.10623383E+00 0.46476531E+03</pdfrwt>
<pdfrwt beam="2">  1       21 0.55555114E-01 0.46476531E+03</pdfrwt>
<totfact> 0.18568136E+03</totfact>
</mgrwt>
</event>
<event>
 5    0  0.1856407E+000  0.2165197E+03  0.7546771E-02  0.1136505E+00
         21   -1    0    0  502  501  0.00000000000E+00  0.00000000000E+00  0.10102012878E+04  0.10102012878E+04  0.00000000000E+00 0. -1.
         21   -1    0    0  503  502 -0.00000000000E+00 -0.00000000000E+00 -0.77588629355E+02  0.77588629355E+02  0.00000000000E+00 0. -1.
         25    1    1    2    0    0 -0.47921409582E+02 -0.22624150720E+03  0.56424722815E+03  0.62248021297E+03  0.12500000000E+03 0.  0.
         21    1    1    2  503  504  0.57082872412E+02  0.15284810687E+03  0.11052467051E+03  0.19707029428E+03  0.00000000000E+00 0. -1.
         21    1    1    2  504  501 -0.91614628300E+01  0.73393400324E+02  0.25784075981E+03  0.26823940991E+03  0.00000000000E+00 0. -1.
<mgrwt>
<rscale>  4 0.21651973E+03</rscale>
<asrwt>0</asrwt>
<pdfrwt beam="1">  1       21 0.15541557E+00 0.21651973E+03</pdfrwt>
<pdfrwt beam="2">  1       21 0.11936713E-01 0.21651973E+03</pdfrwt>
<totfact> 0.15856947E+04</totfact>
</mgrwt>
</event>
<event>
 5    0  0.1856407E+000  0.2664834E+03  0.7546771E-02  0.1103309E+00
         21   -1    0    0  502  501  0.00000000000E+00  0.00000000000E+00  0.63480865861E+02  0.63480865861E+02  0.00000000000E+00 0. -1.
         21   -1    0    0  503  502 -0.00000000000E+00 -0.00000000000E+00 -0.13386976522E+04  0.13386976522E+04  0.00000000000E+00 0. -1.
         25    1    1    2    0    0  0.15681347976E+03  0.17549336032E+03 -0.99031690540E+03  0.10255442263E+04  0.12500000000E+03 0.  0.
         21    1    1    2  503  504 -0.10902760972E+03 -0.15821721529E+03 -0.24853884486E+03  0.31415165812E+03  0.00000000000E+00 0. -1.
         21    1    1    2  504  501 -0.47785870034E+02 -0.17276145036E+02 -0.36361036054E+02  0.62482633628E+02  0.00000000000E+00 0. -1.
<mgrwt>
<rscale>  4 0.26648337E+03</rscale>
<asrwt>0</asrwt>
<pdfrwt beam="1">  1       21 0.97662875E-02 0.26648337E+03</pdfrwt>
<pdfrwt beam="2">  1       21 0.20595348E+00 0.26648337E+03</pdfrwt>
<totfact> 0.98551837E+03</totfact>
</mgrwt>
</event>
<event>
 5    0  0.1856407E+000  0.2505451E+03  0.7546771E-02  0.1112961E+00
         21   -1    0    0  502  501  0.00000000000E+00  0.00000000000E+00  0.65285879329E+03  0.65285879329E+03  0.00000000000E+00 0.  1.
         21   -1    0    0  503  502 -0.00000000000E+00 -0.00000000000E+00 -0.10339030517E+03  0.10339030517E+03  0.00000000000E+00 0. -1.
         25    1    1    2    0    0 -0.15458840107E+03 -0.15248044584E+03  0.43967641286E+03  0.50605158644E+03  0.12500000000E+03 0.  0.
         21    1    1    2  503  504  0.97091637173E+02  0.13173935633E+03  0.82163901671E+02  0.18312004465E+03  0.00000000000E+00 0. -1.
         21    1    1    2  504  501  0.57496763898E+02  0.20741089512E+02  0.27628173599E+02  0.67077467374E+02  0.00000000000E+00 0. -1.
<mgrwt>
<rscale>  4 0.25054513E+03</rscale>
<asrwt>0</asrwt>
<pdfrwt beam="1">  1       21 0.10043981E+00 0.25054513E+03</pdfrwt>
<pdfrwt beam="2">  1       21 0.15906201E-01 0.25054513E+03</pdfrwt>
<totfact> 0.27771526E+04</totfact>
</mgrwt>
</event>
<event>
 5    0  0.1856407E+000  0.2727165E+03  0.7546771E-02  0.1099735E+00
         21   -1    0    0  502  501  0.00000000000E+00  0.00000000000E+00  0.66923415723E+02  0.66923415723E+02  0.00000000000E+00 0. -1.
         21   -1    0    0  503  502 -0.00000000000E+00 -0.00000000000E+00 -0.18911148510E+04  0.18911148510E+04  0.00000000000E+00 0.  1.
         25    1    1    2    0    0  0.10982369817E+03 -0.21607411447E+03 -0.27264215719E+03  0.38562678006E+03  0.12500000000E+03 0.  0.
         21    1    1    2  503  504 -0.68763172282E+01  0.72328790390E+02 -0.61898749845E+03  0.62323692196E+03  0.00000000000E+00 0. -1.
         21    1    1    2  504  501 -0.10294738094E+03  0.14374532408E+03 -0.93256177965E+03  0.94917456471E+03  0.00000000000E+00 0.  1.
<mgrwt>
<rscale>  4 0.27271646E+03</rscale>
<asrwt>0</asrwt>
<pdfrwt beam="1">  1       21 0.10295909E-01 0.27271646E+03</pdfrwt>
<pdfrwt beam="2">  1       21 0.29094076E+00 0.27271646E+03</pdfrwt>
<totfact> 0.27347352E+03</totfact>
</mgrwt>
</event>
<event>
 5    0  0.2123632E+000  0.3040649E+03  0.7546771E-02  0.1083226E+00
         21   -1    0    0  502  501  0.00000000000E+00  0.00000000000E+00  0.40579264782E+03  0.40579264782E+03  0.00000000000E+00 0.  1.
         21   -1    0    0  503  502 -0.00000000000E+00 -0.00000000000E+00 -0.37922248091E+03  0.37922248091E+03  0.00000000000E+00 0.  1.
         25    1    1    2    0    0  0.22667596176E+03  0.15952584401E+03  0.26558844919E+03  0.40372355751E+03  0.12500000000E+03 0.  0.
         21    1    1    2  503  504 -0.17083636163E+03 -0.16643496084E+03 -0.17354598820E+03  0.29496418200E+03  0.00000000000E+00 0.  1.
         21    1    1    2  504  501 -0.55839600121E+02  0.69091168264E+01 -0.65472294076E+02  0.86327389214E+02  0.00000000000E+00 0.  1.
<mgrwt>
<rscale>  4 0.30406494E+03</rscale>
<asrwt>0</asrwt>
<pdfrwt beam="1">  1       21 0.62429638E-01 0.30406494E+03</pdfrwt>
<pdfrwt beam="2">  1       21 0.58341920E-01 0.30406494E+03</pdfrwt>
<totfact> 0.61173209E+03</totfact>
</mgrwt>
</event>
