<event>
 5    0  0.1911311E+001  0.2210225E+03  0.7546771E-02  0.1133123E+00
         21   -1    0    0  503  501  0.00000000000E+00  0.00000000000E+00  0.27167694637E+03  0.27167694637E+03  0.00000000000E+00 0. -1.
         21   -1    0    0  504  502 -0.00000000000E+00 -0.00000000000E+00 -0.42996645547E+03  0.42996645547E+03  0.00000000000E+00 0. -1.
         25    1    1    2    0    0 -0.22556959180E+03 -0.71326376374E+02  0.10109989319E+03  0.28603370625E+03  0.12500000000E+03 0.  0.
         21    1    1    2  503  502  0.17374888077E+03  0.26295390269E+02 -0.29106779597E+03  0.34000085731E+03  0.00000000000E+00 0. -1.
         21    1    1    2  504  501  0.51820711025E+02  0.45030986106E+02  0.31678393681E+02  0.75608838286E+02  0.00000000000E+00 0. -1.
<mgrwt>
<rscale>  4 0.22102247E+03</rscale>
<asrwt>0</asrwt>
<pdfrwt beam="1">  1       21 0.41796453E-01 0.22102247E+03</pdfrwt>
<pdfrwt beam="2">  1       21 0.66148685E-01 0.22102247E+03</pdfrwt>
<totfact> 0.11348447E+04</totfact>
</mgrwt>
</event>
<event>
 5    0  0.1911311E+001  0.3308579E+03  0.7546771E-02  0.1070758E+00
         21   -1    0    0  502  501  0.00000000000E+00  0.00000000000E+00  0.43867505996E+02  0.43867505996E+02  0.00000000000E+00 0. -1.
         21   -1    0    0  504  502 -0.00000000000E+00 -0.00000000000E+00 -0.25882466324E+04  0.25882466324E+04  0.00000000000E+00 0.  1.
         25    1    1    2    0    0 -0.40728066992E+02  0.30668577073E+03 -0.14195749261E+04  0.14582636621E+04  0.12500000000E+03 0.  0.
         21    1    1    2  503  501  0.30302021571E+02 -0.31404284857E+01 -0.73807625728E+02  0.79847607466E+02  0.00000000000E+00 0.  1.
         21    1    1    2  504  503  0.10426045421E+02 -0.30354534225E+03 -0.10509965746E+04  0.10940028688E+04  0.00000000000E+00 0.  1.
<mgrwt>
<rscale>  4 0.33085788E+03</rscale>
<asrwt>0</asrwt>
<pdfrwt beam="1">  1       21 0.67488442E-02 0.33085788E+03</pdfrwt>
<pdfrwt beam="2">  1       21 0.39819196E+00 0.33085788E+03</pdfrwt>
<totfact> 0.12335160E+03</totfact>
</mgrwt>
</event>
<event>
 5    0  0.1911311E+001  0.2891761E+03  0.7546771E-02  0.1090780E+00
         21   -1    0    0  502  501  0.00000000000E+00  0.00000000000E+00  0.44395405285E+03  0.44395405285E+03  0.00000000000E+00 0.  1.
         21   -1    0    0  504  502 -0.00000000000E+00 -0.00000000000E+00 -0.96716371994E+03  0.96716371994E+03  0.00000000000E+00 0.  1.
         25    1    1    2    0    0 -0.32520013309E+02 -0.28833416506E+03 -0.66740433116E+03  0.73840888622E+03  0.12500000000E+03 0.  0.
         21    1    1    2  503  501  0.53345109689E+02  0.25355887908E+03  0.36533063243E+03  0.44788868805E+03  0.00000000000E+00 0.  1.
         21    1    1    2  504  503 -0.20825096380E+02  0.34775285978E+02 -0.22113596837E+03  0.22482019852E+03  0.00000000000E+00 0.  1.
<mgrwt>
<rscale>  4 0.28917610E+03</rscale>
<asrwt>0</asrwt>
<pdfrwt beam="1">  1       21 0.68300625E-01 0.28917610E+03</pdfrwt>
<pdfrwt beam="2">  1       21 0.14879442E+00 0.28917610E+03</pdfrwt>
<totfact> 0.54634867E+02</totfact>
</mgrwt>
</event>
<event>
 5    0  0.1911311E+001  0.3142559E+03  0.7546771E-02  0.1078324E+00
         21   -1    0    0  503  501  0.00000000000E+00  0.00000000000E+00  0.10577255002E+03  0.10577255002E+03  0.00000000000E+00 0.  1.
         21   -1    0    0  501  502 -0.00000000000E+00 -0.00000000000E+00 -0.15679941041E+04  0.15679941041E+04  0.00000000000E+00 0.  1.
         25    1    1    2    0    0  0.88611171755E+00 -0.36681994731E+03 -0.83404158686E+03  0.91967821956E+03  0.12500000000E+03 0.  0.
         21    1    1    2  503  504  0.35893677845E+02  0.10833607416E+03 -0.36882136352E+03  0.38607545799E+03  0.00000000000E+00 0.  1.
         21    1    1    2  504  502 -0.36779789562E+02  0.25848387315E+03 -0.25935860366E+03  0.36801297653E+03  0.00000000000E+00 0.  1.
<mgrwt>
<rscale>  4 0.31425592E+03</rscale>
<asrwt>0</asrwt>
<pdfrwt beam="1">  1       21 0.16272699E-01 0.31425592E+03</pdfrwt>
<pdfrwt beam="2">  1       21 0.24122987E+00 0.31425592E+03</pdfrwt>
<totfact> 0.22801889E+03</totfact>
</mgrwt>
</event>
