<event>
 5    0  0.2870986E+000  0.3077462E+03  0.7546771E-02  0.1081431E+00
         21   -1    0    0  502  501  0.00000000000E+00  0.00000000000E+00  0.15777236751E+03  0.15777236751E+03  0.00000000000E+00 0.  1.
         21   -1    0    0  503  502 -0.00000000000E+00 -0.00000000000E+00 -0.76517998591E+03  0.76517998591E+03  0.00000000000E+00 0.  1.
         25    1    1    2    0    0 -0.76125199940E+02  0.26163928086E+03 -0.11953090487E+03  0.32274261660E+03  0.12500000000E+03 0.  0.
         21    1    1    2  503  504  0.11361402169E+03 -0.27658048123E+03 -0.37059016497E+03  0.47617431566E+03  0.00000000000E+00 0.  1.
         21    1    1    2  504  501 -0.37488821754E+02  0.14941200376E+02 -0.11728654857E+03  0.12403542115E+03  0.00000000000E+00 0. -1.
<mgrwt>
<rscale>  4 0.30774622E+03</rscale>
<asrwt>0</asrwt>
<pdfrwt beam="1">  1       21 0.24272672E-01 0.30774622E+03</pdfrwt>
<pdfrwt beam="2">  1       21 0.11772000E+00 0.30774622E+03</pdfrwt>
<totfact> 0.82837941E+03</totfact>
</mgrwt>
</event>
<event>
 5    0  0.2159162E+000  0.2493312E+03  0.7546771E-02  0.1113728E+00
         21   -1    0    0  502  501  0.00000000000E+00  0.00000000000E+00  0.19891721421E+03  0.19891721421E+03  0.00000000000E+00 0.  1.
         21   -1    0    0  503  502 -0.00000000000E+00 -0.00000000000E+00 -0.28320261653E+03  0.28320261653E+03  0.00000000000E+00 0.  1.
         25    1    1    2    0    0  0.73542696066E+02  0.20281147489E+03 -0.65249583076E+02  0.25772762867E+03  0.12500000000E+03 0.  0.
         21    1    1    2  503  504  0.56444253961E+01 -0.44167140677E+02  0.73544258939E+01  0.45129629224E+02  0.00000000000E+00 0.  1.
         21    1    1    2  504  501 -0.79187121462E+02 -0.15864433421E+03 -0.26390245140E+02  0.17926257284E+03  0.00000000000E+00 0.  1.
<mgrwt>
<rscale>  4 0.24933115E+03</rscale>
<asrwt>0</asrwt>
<pdfrwt beam="1">  1       21 0.30602648E-01 0.24933115E+03</pdfrwt>
<pdfrwt beam="2">  1       21 0.43569633E-01 0.24933115E+03</pdfrwt>
<totfact> 0.50609930E+04</totfact>
</mgrwt>
</event>
<event>
 5    0  0.2159162E+000  0.2693462E+03  0.7546771E-02  0.1101654E+00
         21   -1    0    0  502  501  0.00000000000E+00  0.00000000000E+00  0.43578955430E+03  0.43578955430E+03  0.00000000000E+00 0. -1.
         21   -1    0    0  503  502 -0.00000000000E+00 -0.00000000000E+00 -0.41361994251E+03  0.41361994251E+03  0.00000000000E+00 0. -1.
         25    1    1    2    0    0  0.42525503971E+02 -0.29441816775E+03  0.22970884189E+03  0.39608285501E+03  0.12500000000E+03 0.  0.
         21    1    1    2  503  504 -0.91297858946E+02  0.67477244488E+02  0.33822793439E+02  0.11845868026E+03  0.00000000000E+00 0. -1.
         21    1    1    2  504  501  0.48772354975E+02  0.22694092326E+03 -0.24136202354E+03  0.33486796154E+03  0.00000000000E+00 0. -1.
<mgrwt>
<rscale>  4 0.26934622E+03</rscale>
<asrwt>0</asrwt>
<pdfrwt beam="1">  1       21 0.67044546E-01 0.26934622E+03</pdfrwt>
<pdfrwt beam="2">  1       21 0.63633838E-01 0.26934622E+03</pdfrwt>
<totfact> 0.44107097E+03</totfact>
</mgrwt>
</event>
<event>
 5    0  0.2496084E+000  0.2270205E+03  0.7546771E-02  0.1128755E+00
         21   -1    0    0  502  501  0.00000000000E+00  0.00000000000E+00  0.24808767232E+03  0.24808767232E+03  0.00000000000E+00 0. -1.
         21   -1    0    0  503  502 -0.00000000000E+00 -0.00000000000E+00 -0.22127219155E+03  0.22127219155E+03  0.00000000000E+00 0. -1.
         25    1    1    2    0    0  0.66163184326E+02  0.18983007818E+03  0.62734678154E+02  0.24489521307E+03  0.12500000000E+03 0.  0.
         21    1    1    2  503  504 -0.78069093382E+02 -0.16734589877E+03 -0.54983791484E+02  0.19267239165E+03  0.00000000000E+00 0. -1.
         21    1    1    2  504  501  0.11905909056E+02 -0.22484179401E+02  0.19064594096E+02  0.31792259150E+02  0.00000000000E+00 0. -1.
<mgrwt>
<rscale>  4 0.22702045E+03</rscale>
<asrwt>0</asrwt>
<pdfrwt beam="1">  1       21 0.38167334E-01 0.22702045E+03</pdfrwt>
<pdfrwt beam="2">  1       21 0.34041876E-01 0.22702045E+03</pdfrwt>
<totfact> 0.54183553E+04</totfact>
</mgrwt>
</event>
<event>
 5    0  0.2159162E+000  0.3337836E+03  0.7546771E-02  0.1069475E+00
         21   -1    0    0  502  501  0.00000000000E+00  0.00000000000E+00  0.18945578332E+04  0.18945578332E+04  0.00000000000E+00 0. -1.
         21   -1    0    0  503  502 -0.00000000000E+00 -0.00000000000E+00 -0.13515375532E+03  0.13515375532E+03  0.00000000000E+00 0. -1.
         25    1    1    2    0    0  0.31300153652E+03 -0.25371561463E+03  0.11911441658E+04  0.12636419582E+04  0.12500000000E+03 0.  0.
         21    1    1    2  503  504 -0.11163866994E+03  0.42120690811E+02  0.42366044583E+03  0.44014261164E+03  0.00000000000E+00 0. -1.
         21    1    1    2  504  501 -0.20136286658E+03  0.21159492382E+03  0.14459946624E+03  0.32592701860E+03  0.00000000000E+00 0. -1.
<mgrwt>
<rscale>  4 0.33378358E+03</rscale>
<asrwt>0</asrwt>
<pdfrwt beam="1">  1       21 0.29147042E+00 0.33378358E+03</pdfrwt>
<pdfrwt beam="2">  1       21 0.20792887E-01 0.33378358E+03</pdfrwt>
<totfact> 0.71049611E+02</totfact>
</mgrwt>
</event>
<event>
 5    0  0.3561311E+000  0.2624444E+03  0.7546771E-02  0.1105683E+00
         21   -1    0    0  502  501  0.00000000000E+00  0.00000000000E+00  0.76326413009E+02  0.76326413009E+02  0.00000000000E+00 0. -1.
         21   -1    0    0  503  502 -0.00000000000E+00 -0.00000000000E+00 -0.83883168811E+03  0.83883168811E+03  0.00000000000E+00 0. -1.
         25    1    1    2    0    0  0.97082602697E+01 -0.23055975484E+03 -0.47350754326E+03  0.54137458788E+03  0.12500000000E+03 0.  0.
         21    1    1    2  503  504 -0.16039843735E+02  0.19995585183E+02 -0.41426033292E+02  0.48715667379E+02  0.00000000000E+00 0. -1.
         21    1    1    2  504  501  0.63315834655E+01  0.21056416966E+03 -0.24757169854E+03  0.32506784586E+03  0.00000000000E+00 0. -1.
<mgrwt>
<rscale>  4 0.26244438E+03</rscale>
<asrwt>0</asrwt>
<pdfrwt beam="1">  1       21 0.11742525E-01 0.26244438E+03</pdfrwt>
<pdfrwt beam="2">  1       21 0.12905103E+00 0.26244438E+03</pdfrwt>
<totfact> 0.25854523E+04</totfact>
</mgrwt>
</event>
<event>
 5    0  0.2159162E+000  0.2122888E+03  0.7546771E-02  0.1139766E+00
         21   -1    0    0  502  501  0.00000000000E+00  0.00000000000E+00  0.34045660910E+03  0.34045660910E+03  0.00000000000E+00 0.  1.
         21   -1    0    0  503  502 -0.00000000000E+00 -0.00000000000E+00 -0.21341872103E+03  0.21341872103E+03  0.00000000000E+00 0.  1.
         25    1    1    2    0    0 -0.20756324465E+03 -0.46340477090E+02  0.13802928884E+03  0.28267830643E+03  0.12500000000E+03 0.  0.
         21    1    1    2  503  504  0.12436027918E+03  0.79235852360E+02  0.57755832168E+02  0.15836519658E+03  0.00000000000E+00 0.  1.
         21    1    1    2  504  501  0.83202965469E+02 -0.32895375270E+02 -0.68747232935E+02  0.11283182713E+03  0.00000000000E+00 0.  1.
<mgrwt>
<rscale>  4 0.21228883E+03</rscale>
<asrwt>0</asrwt>
<pdfrwt beam="1">  1       21 0.52377940E-01 0.21228883E+03</pdfrwt>
<pdfrwt beam="2">  1       21 0.32833649E-01 0.21228883E+03</pdfrwt>
<totfact> 0.30545296E+04</totfact>
</mgrwt>
</event>
<event>
 5    0  0.2159162E+000  0.2900565E+03  0.7546771E-02  0.1090320E+00
         21   -1    0    0  502  501  0.00000000000E+00  0.00000000000E+00  0.34863372217E+03  0.34863372217E+03  0.00000000000E+00 0. -1.
         21   -1    0    0  503  502 -0.00000000000E+00 -0.00000000000E+00 -0.77194344157E+03  0.77194344157E+03  0.00000000000E+00 0.  1.
         25    1    1    2    0    0 -0.26034759446E+03  0.26960708151E+02  0.25557752448E+03  0.38659102517E+03  0.12500000000E+03 0.  0.
         21    1    1    2  503  504  0.22443144866E+03 -0.49389591726E+02 -0.62182307413E+03  0.66292740360E+03  0.00000000000E+00 0.  1.
         21    1    1    2  504  501  0.35916145794E+02  0.22428883576E+02 -0.57064169751E+02  0.71058734977E+02  0.00000000000E+00 0.  1.
<mgrwt>
<rscale>  4 0.29005646E+03</rscale>
<asrwt>0</asrwt>
<pdfrwt beam="1">  1       21 0.53635957E-01 0.29005646E+03</pdfrwt>
<pdfrwt beam="2">  1       21 0.11876053E+00 0.29005646E+03</pdfrwt>
<totfact> 0.16518784E+03</totfact>
</mgrwt>
</event>
<event>
 5    0  0.2159162E+000  0.2470960E+03  0.7546771E-02  0.1115154E+00
         21   -1    0    0  502  501  0.00000000000E+00  0.00000000000E+00  0.59062154722E+02  0.59062154722E+02  0.00000000000E+00 0. -1.
         21   -1    0    0  503  502 -0.00000000000E+00 -0.00000000000E+00 -0.23184471857E+04  0.23184471857E+04  0.00000000000E+00 0. -1.
         25    1    1    2    0    0  0.16305915355E+03 -0.13727040373E+03 -0.23369957097E+03  0.34010577880E+03  0.12500000000E+03 0.  0.
         21    1    1    2  503  504 -0.96879928854E+02  0.10133501797E+03 -0.11577753042E+04  0.11662324646E+04  0.00000000000E+00 0. -1.
         21    1    1    2  504  501 -0.66179224700E+02  0.35935385767E+02 -0.86791015583E+03  0.87117109704E+03  0.00000000000E+00 0. -1.
<mgrwt>
<rscale>  4 0.24709604E+03</rscale>
<asrwt>0</asrwt>
<pdfrwt beam="1">  1       21 0.90864847E-02 0.24709604E+03</pdfrwt>
<pdfrwt beam="2">  1       21 0.35668421E+00 0.24709604E+03</pdfrwt>
<totfact> 0.14316220E+03</totfact>
</mgrwt>
</event>
