<event>
 5    0  0.1041609E-002  0.2310004E+03  0.7546771E-02  0.1125938E+00
         21   -1    0    0  503  502  0.00000000000E+00  0.00000000000E+00  0.85424711905E+02  0.85424711905E+02  0.00000000000E+00 0.  1.
          1   -1    0    0  502    0 -0.00000000000E+00 -0.00000000000E+00 -0.16105872562E+04  0.16105872562E+04  0.00000000000E+00 0.  1.
         25    1    1    2    0    0 -0.98904731373E+02  0.21959906348E+03 -0.85188349800E+03  0.89405614406E+03  0.12500000000E+03 0.  0.
         21    1    1    2  503  501  0.14932716450E+03 -0.14375464997E+03 -0.11649294125E+03  0.23777007130E+03  0.00000000000E+00 0.  1.
          1    1    1    2  501    0 -0.50422433131E+02 -0.75844413509E+02 -0.55678610500E+03  0.56418575270E+03  0.00000000000E+00 0.  1.
<mgrwt>
<rscale>  4 0.23100045E+03</rscale>
<asrwt>0</asrwt>
<pdfrwt beam="1">  1       21 0.13142264E-01 0.23100045E+03</pdfrwt>
<pdfrwt beam="2">  1        1 0.24778265E+00 0.23100045E+03</pdfrwt>
<totfact> 0.33717883E+03</totfact>
</mgrwt>
</event>
<event>
 5    0  0.1041609E-002  0.3664877E+03  0.7546771E-02  0.1056044E+00
         21   -1    0    0  501  502  0.00000000000E+00  0.00000000000E+00  0.14996710351E+03  0.14996710351E+03  0.00000000000E+00 0. -1.
         -1   -1    0    0    0  501 -0.00000000000E+00 -0.00000000000E+00 -0.15478110825E+04  0.15478110825E+04  0.00000000000E+00 0. -1.
         25    1    1    2    0    0  0.39041395609E+02 -0.29031944586E+03 -0.45208219810E+03  0.55300354887E+03  0.12500000000E+03 0.  0.
         21    1    1    2  503  502 -0.22925789419E+03  0.29805572956E+03 -0.33013755077E+03  0.50038705259E+03  0.00000000000E+00 0. -1.
         -1    1    1    2    0  503  0.19021649858E+03 -0.77362836942E+01 -0.61562423007E+03  0.64438758451E+03  0.00000000000E+00 0. -1.
<mgrwt>
<rscale>  4 0.36648771E+03</rscale>
<asrwt>0</asrwt>
<pdfrwt beam="1">  1       21 0.23071863E-01 0.36648771E+03</pdfrwt>
<pdfrwt beam="2">  1       -1 0.23812477E+00 0.36648771E+03</pdfrwt>
<totfact> 0.14729173E+02</totfact>
</mgrwt>
</event>
<event>
 5    0  0.1041609E-002  0.5110277E+03  0.7546771E-02  0.1010940E+00
          2   -1    0    0  502    0 -0.00000000000E+00  0.00000000000E+00  0.21590659538E+04  0.21590659538E+04  0.00000000000E+00 0. -1.
         21   -1    0    0  503  502  0.00000000000E+00 -0.00000000000E+00 -0.13143099073E+03  0.13143099073E+03  0.00000000000E+00 0. -1.
         25    1    1    2    0    0 -0.48244395424E+03  0.64728943428E+02  0.11657498044E+04  0.12694643010E+04  0.12500000000E+03 0.  0.
         21    1    1    2  503  501  0.11257753705E+02 -0.22761590199E+02  0.23152603097E+03  0.23291442640E+03  0.00000000000E+00 0.  1.
          2    1    1    2  501    0  0.47118620053E+03 -0.41967353229E+02  0.63035912776E+03  0.78811821718E+03  0.00000000000E+00 0. -1.
<mgrwt>
<rscale>  4 0.51102769E+03</rscale>
<asrwt>0</asrwt>
<pdfrwt beam="1">  1       21 0.20220154E-01 0.51102769E+03</pdfrwt>
<pdfrwt beam="2">  1        2 0.33216397E+00 0.51102769E+03</pdfrwt>
<totfact> 0.15907383E+03</totfact>
</mgrwt>
</event>
<event>
 5    0  0.1041609E-002  0.2862390E+03  0.7546771E-02  0.1092329E+00
         -1   -1    0    0    0  501 -0.00000000000E+00  0.00000000000E+00  0.43936826303E+02  0.43936826303E+02  0.00000000000E+00 0. -1.
         21   -1    0    0  501  502  0.00000000000E+00 -0.00000000000E+00 -0.19944913763E+04  0.19944913763E+04  0.00000000000E+00 0. -1.
         25    1    1    2    0    0  0.24818467804E+03 -0.32800780607E+02 -0.99620903882E+03  0.10347603465E+04  0.12500000000E+03 0.  0.
         21    1    1    2  503  502 -0.26878169947E+02  0.67493366021E+02 -0.12476207242E+03  0.14437231449E+03  0.00000000000E+00 0.  1.
         -1    1    1    2    0  503 -0.22130650809E+03 -0.34692585414E+02 -0.82958343872E+03  0.85929554160E+03  0.00000000000E+00 0. -1.
<mgrwt>
<rscale>  4 0.28623902E+03</rscale>
<asrwt>0</asrwt>
<pdfrwt beam="1">  1       21 0.30684476E+00 0.28623902E+03</pdfrwt>
<pdfrwt beam="2">  1       -1 0.67595132E-02 0.28623902E+03</pdfrwt>
<totfact> 0.28645843E+02</totfact>
</mgrwt>
</event>
<event>
 5    0  0.1041609E-002  0.5137156E+03  0.7546771E-02  0.1010260E+00
         21   -1    0    0  503  502  0.00000000000E+00  0.00000000000E+00  0.29198770163E+03  0.29198770163E+03  0.00000000000E+00 0. -1.
          2   -1    0    0  502    0 -0.00000000000E+00 -0.00000000000E+00 -0.10495329082E+04  0.10495329082E+04  0.00000000000E+00 0. -1.
         25    1    1    2    0    0  0.10979447580E+03 -0.39319601558E+03 -0.40124280138E+02  0.42882734455E+03  0.12500000000E+03 0.  0.
         21    1    1    2  503  501 -0.13105022995E+03 -0.34788048321E+02 -0.17964746943E+03  0.22507239802E+03  0.00000000000E+00 0. -1.
          2    1    1    2  501    0  0.21255754153E+02  0.42798406390E+03 -0.53777345699E+03  0.68762086725E+03  0.00000000000E+00 0. -1.
<mgrwt>
<rscale>  4 0.51371561E+03</rscale>
<asrwt>0</asrwt>
<pdfrwt beam="1">  1       21 0.44921185E-01 0.51371561E+03</pdfrwt>
<pdfrwt beam="2">  1        2 0.16146660E+00 0.51371561E+03</pdfrwt>
<totfact> 0.13330326E+03</totfact>
</mgrwt>
</event>
<event>
 5    0  0.1041609E-002  0.5683827E+03  0.7546771E-02  0.9973264E-01
         21   -1    0    0  503  502  0.00000000000E+00  0.00000000000E+00  0.46863080264E+03  0.46863080264E+03  0.00000000000E+00 0.  1.
          1   -1    0    0  502    0 -0.00000000000E+00 -0.00000000000E+00 -0.76175023923E+03  0.76175023923E+03  0.00000000000E+00 0.  1.
         25    1    1    2    0    0 -0.22555779393E+03  0.27650904025E+03 -0.11497009886E+03  0.39519196775E+03  0.12500000000E+03 0.  0.
         21    1    1    2  503  501  0.21344764230E+03  0.18935205836E+03  0.87912874057E+02  0.29856786738E+03  0.00000000000E+00 0.  1.
          1    1    1    2  501    0  0.12110151624E+02 -0.46586109861E+03 -0.26606221179E+03  0.53662120673E+03  0.00000000000E+00 0.  1.
<mgrwt>
<rscale>  4 0.56838273E+03</rscale>
<asrwt>0</asrwt>
<pdfrwt beam="1">  1       21 0.72097047E-01 0.56838273E+03</pdfrwt>
<pdfrwt beam="2">  1        1 0.11719234E+00 0.56838273E+03</pdfrwt>
<totfact> 0.41999088E+02</totfact>
</mgrwt>
</event>
<event>
 5    0  0.1041609E-002  0.5658466E+03  0.7546771E-02  0.9978912E-01
         21   -1    0    0  503  502  0.00000000000E+00  0.00000000000E+00  0.18459025163E+03  0.18459025163E+03  0.00000000000E+00 0.  1.
          2   -1    0    0  502    0 -0.00000000000E+00 -0.00000000000E+00 -0.26280555293E+04  0.26280555293E+04  0.00000000000E+00 0.  1.
         25    1    1    2    0    0  0.10241641486E+03  0.42400502300E+03 -0.68524549125E+03  0.82186115911E+03  0.12500000000E+03 0.  0.
         21    1    1    2  503  501  0.12952595059E+03 -0.37559498389E+02  0.37005504136E+02  0.13984668438E+03  0.00000000000E+00 0.  1.
          2    1    1    2  501    0 -0.23194236546E+03 -0.38644552461E+03 -0.17952252905E+04  0.18509379374E+04  0.00000000000E+00 0.  1.
<mgrwt>
<rscale>  4 0.56584656E+03</rscale>
<asrwt>0</asrwt>
<pdfrwt beam="1">  1       21 0.28398502E-01 0.56584656E+03</pdfrwt>
<pdfrwt beam="2">  1        2 0.40431622E+00 0.56584656E+03</pdfrwt>
<totfact> 0.44461869E+02</totfact>
</mgrwt>
</event>
<event>
 5    0  0.1041609E-002  0.3440305E+03  0.7546771E-02  0.1065092E+00
         21   -1    0    0  503  502  0.00000000000E+00  0.00000000000E+00  0.15433404931E+03  0.15433404931E+03  0.00000000000E+00 0.  1.
          2   -1    0    0  502    0 -0.00000000000E+00 -0.00000000000E+00 -0.81799214738E+03  0.81799214738E+03  0.00000000000E+00 0.  1.
         25    1    1    2    0    0 -0.17499712482E+03 -0.15335664084E+03 -0.21330334701E+03  0.33950783619E+03  0.12500000000E+03 0.  0.
         21    1    1    2  503  501 -0.93479640663E+02 -0.22253888897E+02 -0.23634279703E+02  0.98955838466E+02  0.00000000000E+00 0.  1.
          2    1    1    2  501    0  0.26847676548E+03  0.17561052974E+03 -0.42672047136E+03  0.53386252204E+03  0.00000000000E+00 0.  1.
<mgrwt>
<rscale>  4 0.34403053E+03</rscale>
<asrwt>0</asrwt>
<pdfrwt beam="1">  1       21 0.23743699E-01 0.34403053E+03</pdfrwt>
<pdfrwt beam="2">  1        2 0.12584495E+00 0.34403053E+03</pdfrwt>
<totfact> 0.70139800E+03</totfact>
</mgrwt>
</event>
<event>
 5    0  0.1041609E-002  0.3917956E+03  0.7546771E-02  0.1046658E+00
          1   -1    0    0  502    0 -0.00000000000E+00  0.00000000000E+00  0.58785617644E+03  0.58785617644E+03  0.00000000000E+00 0.  1.
         21   -1    0    0  503  502  0.00000000000E+00 -0.00000000000E+00 -0.30933803043E+03  0.30933803043E+03  0.00000000000E+00 0.  1.
         25    1    1    2    0    0 -0.28086867583E+03 -0.11460553830E+03  0.34999737503E+02  0.32995700341E+03  0.12500000000E+03 0.  0.
         21    1    1    2  503  501 -0.63000455128E+02  0.82495946575E+02 -0.48864856245E+02  0.11472755869E+03  0.00000000000E+00 0.  1.
          1    1    1    2  501    0  0.34386913096E+03  0.32109591724E+02  0.29238326475E+03  0.45250964477E+03  0.00000000000E+00 0.  1.
<mgrwt>
<rscale>  4 0.39179564E+03</rscale>
<asrwt>0</asrwt>
<pdfrwt beam="1">  1       21 0.47590466E-01 0.39179564E+03</pdfrwt>
<pdfrwt beam="2">  1        1 0.90439412E-01 0.39179564E+03</pdfrwt>
<totfact> 0.15869594E+03</totfact>
</mgrwt>
</event>
<event>
 5    0  0.1041609E-002  0.2395105E+03  0.7546771E-02  0.1120119E+00
          2   -1    0    0  502    0 -0.00000000000E+00  0.00000000000E+00  0.16328292376E+04  0.16328292376E+04  0.00000000000E+00 0.  1.
         21   -1    0    0  503  502  0.00000000000E+00 -0.00000000000E+00 -0.49892769250E+02  0.49892769250E+02  0.00000000000E+00 0.  1.
         25    1    1    2    0    0 -0.80446129444E+02 -0.23755270869E+03  0.96225996780E+03  0.10022335630E+04  0.12500000000E+03 0.  0.
         21    1    1    2  503  501 -0.69437324523E+01  0.12771015156E+03  0.39027058568E+03  0.41069359416E+03  0.00000000000E+00 0.  1.
          2    1    1    2  501    0  0.87389861896E+02  0.10984255713E+03  0.23040591484E+03  0.26979484967E+03  0.00000000000E+00 0.  1.
<mgrwt>
<rscale>  4 0.23951049E+03</rscale>
<asrwt>0</asrwt>
<pdfrwt beam="1">  1       21 0.76758119E-02 0.23951049E+03</pdfrwt>
<pdfrwt beam="2">  1        2 0.25120446E+00 0.23951049E+03</pdfrwt>
<totfact> 0.19010827E+04</totfact>
</mgrwt>
</event>
<event>
 5    0  0.1041609E-002  0.4260914E+03  0.7546771E-02  0.1035102E+00
         21   -1    0    0  503  502  0.00000000000E+00  0.00000000000E+00  0.10111800870E+03  0.10111800870E+03  0.00000000000E+00 0.  1.
          2   -1    0    0  502    0 -0.00000000000E+00 -0.00000000000E+00 -0.23920009597E+04  0.23920009597E+04  0.00000000000E+00 0.  1.
         25    1    1    2    0    0  0.20553917629E+03  0.90419608081E+02 -0.14955333465E+04  0.15174541341E+04  0.12500000000E+03 0.  0.
         21    1    1    2  503  501 -0.15268322690E+03  0.67728458721E+02 -0.79143827652E+03  0.80887196603E+03  0.00000000000E+00 0. -1.
          2    1    1    2  501    0 -0.52855949388E+02 -0.15814806680E+03 -0.39113279626E+01  0.16679286827E+03  0.00000000000E+00 0.  1.
<mgrwt>
<rscale>  4 0.42609145E+03</rscale>
<asrwt>0</asrwt>
<pdfrwt beam="1">  1       21 0.15556615E-01 0.42609145E+03</pdfrwt>
<pdfrwt beam="2">  1        2 0.36800018E+00 0.42609145E+03</pdfrwt>
<totfact> 0.19894985E+03</totfact>
</mgrwt>
</event>
<event>
 5    0  0.1041609E-002  0.3453886E+03  0.7546771E-02  0.1064524E+00
         21   -1    0    0  503  502  0.00000000000E+00  0.00000000000E+00  0.61667499699E+03  0.61667499699E+03  0.00000000000E+00 0.  1.
          2   -1    0    0  502    0 -0.00000000000E+00 -0.00000000000E+00 -0.26751120268E+03  0.26751120268E+03  0.00000000000E+00 0.  1.
         25    1    1    2    0    0 -0.91788853127E+02 -0.22382182161E+03  0.22467487357E+03  0.35302294572E+03  0.12500000000E+03 0.  0.
         21    1    1    2  503  501 -0.92063275166E+02  0.97797769015E+02 -0.13407908632E+03  0.18978211625E+03  0.00000000000E+00 0. -1.
          2    1    1    2  501    0  0.18385212829E+03  0.12602405260E+03  0.25856800705E+03  0.34138113771E+03  0.00000000000E+00 0.  1.
<mgrwt>
<rscale>  4 0.34538855E+03</rscale>
<asrwt>0</asrwt>
<pdfrwt beam="1">  1       21 0.94873076E-01 0.34538855E+03</pdfrwt>
<pdfrwt beam="2">  1        2 0.41155570E-01 0.34538855E+03</pdfrwt>
<totfact> 0.13476398E+03</totfact>
</mgrwt>
</event>
<event>
 5    0  0.1041609E-002  0.2543737E+03  0.7546771E-02  0.1110572E+00
         21   -1    0    0  503  502  0.00000000000E+00  0.00000000000E+00  0.38369206372E+03  0.38369206372E+03  0.00000000000E+00 0. -1.
          1   -1    0    0  502    0 -0.00000000000E+00 -0.00000000000E+00 -0.30717607519E+03  0.30717607519E+03  0.00000000000E+00 0. -1.
         25    1    1    2    0    0  0.27795939805E+03 -0.14238889191E+03  0.52117988361E+02  0.34040756193E+03  0.12500000000E+03 0.  0.
         21    1    1    2  503  501 -0.16183863134E+03  0.14774847565E+03  0.62933054290E+02  0.22799544726E+03  0.00000000000E+00 0. -1.
          1    1    1    2  501    0 -0.11612076672E+03 -0.53595837438E+01 -0.38535054124E+02  0.12246512972E+03  0.00000000000E+00 0. -1.
<mgrwt>
<rscale>  4 0.25437370E+03</rscale>
<asrwt>0</asrwt>
<pdfrwt beam="1">  1       21 0.59029548E-01 0.25437370E+03</pdfrwt>
<pdfrwt beam="2">  1        1 0.47257858E-01 0.25437370E+03</pdfrwt>
<totfact> 0.24420922E+03</totfact>
</mgrwt>
</event>
<event>
 5    0  0.1041609E-002  0.4732443E+03  0.7546771E-02  0.1021009E+00
          2   -1    0    0  502    0 -0.00000000000E+00  0.00000000000E+00  0.10871171395E+04  0.10871171395E+04  0.00000000000E+00 0.  1.
         21   -1    0    0  503  502  0.00000000000E+00 -0.00000000000E+00 -0.34155361578E+03  0.34155361578E+03  0.00000000000E+00 0.  1.
         25    1    1    2    0    0  0.49223321427E+02  0.23564331805E+03  0.35340606746E+03  0.44550146715E+03  0.12500000000E+03 0.  0.
         21    1    1    2  503  501 -0.21975761153E+03  0.14279731112E+03  0.49091733690E+03  0.55649286749E+03  0.00000000000E+00 0.  1.
          2    1    1    2  501    0  0.17053429011E+03 -0.37844062917E+03 -0.98759880641E+02  0.42667642064E+03  0.00000000000E+00 0.  1.
<mgrwt>
<rscale>  4 0.47324427E+03</rscale>
<asrwt>0</asrwt>
<pdfrwt beam="1">  1       21 0.52546711E-01 0.47324427E+03</pdfrwt>
<pdfrwt beam="2">  1        2 0.16724879E+00 0.47324427E+03</pdfrwt>
<totfact> 0.91481178E+02</totfact>
</mgrwt>
</event>
<event>
 5    0  0.1041609E-002  0.7077961E+03  0.7546771E-02  0.9703992E-01
         -3   -1    0    0    0  501 -0.00000000000E+00  0.00000000000E+00  0.71059159621E+03  0.71059159621E+03  0.00000000000E+00 0.  1.
         21   -1    0    0  501  502  0.00000000000E+00 -0.00000000000E+00 -0.84600765960E+03  0.84600765960E+03  0.00000000000E+00 0.  1.
         25    1    1    2    0    0  0.49421236087E+03 -0.16710827710E+03 -0.17253825716E+03  0.56352948822E+03  0.12500000000E+03 0.  0.
         21    1    1    2  503  502  0.16751768195E+03  0.54849747771E+02 -0.21328358815E+03  0.27669578524E+03  0.00000000000E+00 0. -1.
         -3    1    1    2    0  503 -0.66173004281E+03  0.11225852933E+03  0.25040578192E+03  0.71637398235E+03  0.00000000000E+00 0.  1.
<mgrwt>
<rscale>  4 0.70779607E+03</rscale>
<asrwt>0</asrwt>
<pdfrwt beam="1">  1       21 0.13015502E+00 0.70779607E+03</pdfrwt>
<pdfrwt beam="2">  1       -3 0.10932178E+00 0.70779607E+03</pdfrwt>
<totfact> 0.13279500E+01</totfact>
</mgrwt>
</event>
<event>
 5    0  0.1041609E-002  0.7805013E+03  0.7546771E-02  0.9588678E-01
          2   -1    0    0  502    0 -0.00000000000E+00  0.00000000000E+00  0.14210495947E+04  0.14210495947E+04  0.00000000000E+00 0.  1.
         21   -1    0    0  503  502  0.00000000000E+00 -0.00000000000E+00 -0.44516349837E+03  0.44516349837E+03  0.00000000000E+00 0.  1.
         25    1    1    2    0    0  0.28740677174E+03 -0.26653582317E+03  0.20051944764E+03  0.45768662462E+03  0.12500000000E+03 0.  0.
         21    1    1    2  503  501  0.24616317968E+03 -0.28700436594E+03  0.11552416913E+03  0.39536521187E+03  0.00000000000E+00 0.  1.
          2    1    1    2  501    0 -0.53356995142E+03  0.55354018912E+03  0.65984247959E+03  0.10131612566E+04  0.00000000000E+00 0.  1.
<mgrwt>
<rscale>  4 0.78050130E+03</rscale>
<asrwt>0</asrwt>
<pdfrwt beam="1">  1       21 0.68486693E-01 0.78050130E+03</pdfrwt>
<pdfrwt beam="2">  1        2 0.21862301E+00 0.78050130E+03</pdfrwt>
<totfact> 0.30587624E+02</totfact>
</mgrwt>
</event>
<event>
 5    0  0.1041609E-002  0.3782512E+03  0.7546771E-02  0.1051582E+00
         -4   -1    0    0    0  501 -0.00000000000E+00  0.00000000000E+00  0.15881322323E+04  0.15881322323E+04  0.00000000000E+00 0.  1.
         21   -1    0    0  501  502  0.00000000000E+00 -0.00000000000E+00 -0.12101009009E+03  0.12101009009E+03  0.00000000000E+00 0.  1.
         25    1    1    2    0    0 -0.56418972717E+02  0.31850737589E+03  0.88087875262E+03  0.94667968490E+03  0.12500000000E+03 0.  0.
         21    1    1    2  503  502  0.12216032722E+03 -0.22612183544E+02  0.36951501301E+03  0.38984073829E+03  0.00000000000E+00 0.  1.
         -4    1    1    2    0  503 -0.65741354507E+02 -0.29589519235E+03  0.21672837659E+03  0.37262189920E+03  0.00000000000E+00 0.  1.
<mgrwt>
<rscale>  4 0.37825118E+03</rscale>
<asrwt>0</asrwt>
<pdfrwt beam="1">  1       21 0.18616938E-01 0.37825118E+03</pdfrwt>
<pdfrwt beam="2">  1       -4 0.24432802E+00 0.37825118E+03</pdfrwt>
<totfact> 0.82756954E+01</totfact>
</mgrwt>
</event>
<event>
 5    0  0.1041609E-002  0.9169784E+03  0.7546771E-02  0.9404603E-01
         21   -1    0    0  503  502  0.00000000000E+00  0.00000000000E+00  0.13487011722E+04  0.13487011722E+04  0.00000000000E+00 0. -1.
          2   -1    0    0  502    0 -0.00000000000E+00 -0.00000000000E+00 -0.89043979089E+03  0.89043979089E+03  0.00000000000E+00 0. -1.
         25    1    1    2    0    0  0.14957531397E+02  0.43405393403E+03  0.31124383711E+03  0.54874791256E+03  0.12500000000E+03 0.  0.
         21    1    1    2  503  501 -0.13723162935E+03  0.45376619821E+03  0.53412566105E+03  0.71416139949E+03  0.00000000000E+00 0. -1.
          2    1    1    2  501    0  0.12227409796E+03 -0.88782013224E+03 -0.38710811689E+03  0.97623165100E+03  0.00000000000E+00 0. -1.
<mgrwt>
<rscale>  4 0.91697839E+03</rscale>
<asrwt>0</asrwt>
<pdfrwt beam="1">  1       21 0.20749249E+00 0.91697839E+03</pdfrwt>
<pdfrwt beam="2">  1        2 0.13699074E+00 0.91697839E+03</pdfrwt>
<totfact> 0.33925825E+01</totfact>
</mgrwt>
</event>
<event>
 5    0  0.1041609E-002  0.2901347E+03  0.7546771E-02  0.1090279E+00
         21   -1    0    0  503  502  0.00000000000E+00  0.00000000000E+00  0.20388233803E+03  0.20388233803E+03  0.00000000000E+00 0.  1.
          4   -1    0    0  502    0 -0.00000000000E+00 -0.00000000000E+00 -0.45128524429E+03  0.45128524429E+03  0.00000000000E+00 0.  1.
         25    1    1    2    0    0  0.26955517198E+03 -0.97565427463E+02 -0.15481004047E+03  0.34895580237E+03  0.12500000000E+03 0.  0.
         21    1    1    2  503  501 -0.75994303184E+02  0.28732328018E+01 -0.17653116205E+02  0.78070622483E+02  0.00000000000E+00 0. -1.
          4    1    1    2  501    0 -0.19356086880E+03  0.94692194662E+02 -0.74939749586E+02  0.22814115746E+03  0.00000000000E+00 0.  1.
<mgrwt>
<rscale>  4 0.29013470E+03</rscale>
<asrwt>0</asrwt>
<pdfrwt beam="1">  1       21 0.31366514E-01 0.29013470E+03</pdfrwt>
<pdfrwt beam="2">  1        4 0.69428498E-01 0.29013470E+03</pdfrwt>
<totfact> 0.79552970E+02</totfact>
</mgrwt>
</event>
<event>
 5    0  0.1041609E-002  0.4009203E+03  0.7546771E-02  0.1043461E+00
         -2   -1    0    0    0  501 -0.00000000000E+00  0.00000000000E+00  0.27045224796E+03  0.27045224796E+03  0.00000000000E+00 0. -1.
         21   -1    0    0  501  502  0.00000000000E+00 -0.00000000000E+00 -0.67009791076E+03  0.67009791076E+03  0.00000000000E+00 0. -1.
         25    1    1    2    0    0  0.18561118122E+03 -0.78686968562E+02 -0.38079495764E+02  0.24024611883E+03  0.12500000000E+03 0.  0.
         21    1    1    2  503  502  0.10725921654E+03  0.18880293622E+03 -0.31702769664E+03  0.38426247370E+03  0.00000000000E+00 0. -1.
         -2    1    1    2    0  503 -0.29287039776E+03 -0.11011596765E+03 -0.44538470404E+02  0.31604156619E+03  0.00000000000E+00 0. -1.
<mgrwt>
<rscale>  4 0.40092028E+03</rscale>
<asrwt>0</asrwt>
<pdfrwt beam="1">  1       21 0.10309199E+00 0.40092028E+03</pdfrwt>
<pdfrwt beam="2">  1       -2 0.41608038E-01 0.40092028E+03</pdfrwt>
<totfact> 0.31526099E+02</totfact>
</mgrwt>
</event>
