<event>
 5    0  0.1911311E+001  0.7023187E+03  0.7546771E-02  0.9713275E-01
         21   -1    0    0  502  501  0.00000000000E+00  0.00000000000E+00  0.37470996605E+03  0.37470996605E+03  0.00000000000E+00 0. -1.
         21   -1    0    0  504  502 -0.00000000000E+00 -0.00000000000E+00 -0.14235124853E+04  0.14235124853E+04  0.00000000000E+00 0. -1.
         25    1    1    2    0    0  0.53100438893E+03 -0.45737999050E+03 -0.55954335832E+03  0.90546998106E+03  0.12500000000E+03 0.  0.
         21    1    1    2  503  501 -0.27406577242E+01  0.26505978723E+02  0.26765908725E+02  0.37768928801E+02  0.00000000000E+00 0. -1.
         21    1    1    2  504  503 -0.52826373120E+03  0.43087401177E+03 -0.51602506969E+03  0.85498354152E+03  0.00000000000E+00 0. -1.
<mgrwt>
<rscale>  4 0.70231867E+03</rscale>
<asrwt>0</asrwt>
<pdfrwt beam="1">  1       21 0.57647687E-01 0.70231867E+03</pdfrwt>
<pdfrwt beam="2">  1       21 0.21900192E+00 0.70231867E+03</pdfrwt>
<totfact> 0.20871896E+02</totfact>
</mgrwt>
</event>
<event>
 5    0  0.1911311E+001  0.4833007E+03  0.7546771E-02  0.1018232E+00
         21   -1    0    0  503  501  0.00000000000E+00  0.00000000000E+00  0.17586878374E+03  0.17586878374E+03  0.00000000000E+00 0. -1.
         21   -1    0    0  501  502 -0.00000000000E+00 -0.00000000000E+00 -0.14554239294E+04  0.14554239294E+04  0.00000000000E+00 0.  1.
         25    1    1    2    0    0 -0.44023589720E+03  0.13833551343E+03 -0.78479323217E+03  0.91895036684E+03  0.12500000000E+03 0.  0.
         21    1    1    2  503  504  0.27243771305E+01  0.35253769828E+02 -0.69576359075E+02  0.78045629345E+02  0.00000000000E+00 0. -1.
         21    1    1    2  504  502  0.43751152007E+03 -0.17358928326E+03 -0.42518555442E+03  0.63429671696E+03  0.00000000000E+00 0. -1.
<mgrwt>
<rscale>  4 0.48330070E+03</rscale>
<asrwt>0</asrwt>
<pdfrwt beam="1">  1       21 0.27056737E-01 0.48330070E+03</pdfrwt>
<pdfrwt beam="2">  1       21 0.22391137E+00 0.48330070E+03</pdfrwt>
<totfact> 0.10115732E+03</totfact>
</mgrwt>
</event>
<event>
 5    0  0.1911311E+001  0.2364053E+03  0.7546771E-02  0.1122211E+00
         21   -1    0    0  502  501  0.00000000000E+00  0.00000000000E+00  0.43649828915E+03  0.43649828915E+03  0.00000000000E+00 0.  1.
         21   -1    0    0  504  502 -0.00000000000E+00 -0.00000000000E+00 -0.23820499028E+03  0.23820499028E+03  0.00000000000E+00 0.  1.
         25    1    1    2    0    0 -0.12335268727E+03  0.15883278009E+03 -0.10426213415E+03  0.25872636144E+03  0.12500000000E+03 0.  0.
         21    1    1    2  503  501  0.14943534435E+03 -0.13445586787E+03  0.31869560429E+03  0.37679728070E+03  0.00000000000E+00 0.  1.
         21    1    1    2  504  503 -0.26082657077E+02 -0.24376912219E+02 -0.16140171278E+02  0.39179637293E+02  0.00000000000E+00 0.  1.
<mgrwt>
<rscale>  4 0.23640529E+03</rscale>
<asrwt>0</asrwt>
<pdfrwt beam="1">  1       21 0.67153583E-01 0.23640529E+03</pdfrwt>
<pdfrwt beam="2">  1       21 0.36646922E-01 0.23640529E+03</pdfrwt>
<totfact> 0.14196268E+04</totfact>
</mgrwt>
</event>
