<event>
 5    0  0.2754780E-002  0.5352400E+03  0.7546771E-02  0.1004969E+00
          2   -1    0    0  503    0  0.00000000000E+00  0.00000000000E+00  0.13920108708E+04  0.13920108708E+04  0.00000000000E+00 0. -1.
         -2   -1    0    0    0  501 -0.00000000000E+00 -0.00000000000E+00 -0.55416273381E+02  0.55416273381E+02  0.00000000000E+00 0.  1.
         25    1    1    2    0    0  0.98610385609E+02  0.18164794239E+03  0.32255498182E+03  0.40297233083E+03  0.12500000000E+03 0.  0.
         21    1    1    2  502  501  0.42031573708E+01  0.19699887371E+02  0.43590212570E+02  0.48019357828E+02  0.00000000000E+00 0. -1.
         21    1    1    2  503  502 -0.10281354298E+03 -0.20134782976E+03  0.97044940302E+03  0.99643545551E+03  0.00000000000E+00 0. -1.
<mgrwt>
<rscale>  4 0.53523996E+03</rscale>
<asrwt>0</asrwt>
<pdfrwt beam="1">  1        2 0.21415549E+00 0.53523996E+03</pdfrwt>
<pdfrwt beam="2">  1       -2 0.85255815E-02 0.53523996E+03</pdfrwt>
<totfact> 0.13218531E+03</totfact>
</mgrwt>
</event>
<event>
 5    0  0.2754780E-002  0.3956284E+03  0.7546771E-02  0.1045304E+00
         -2   -1    0    0    0  501 -0.00000000000E+00  0.00000000000E+00  0.15538096903E+03  0.15538096903E+03  0.00000000000E+00 0. -1.
          2   -1    0    0  503    0  0.00000000000E+00 -0.00000000000E+00 -0.47933274935E+03  0.47933274935E+03  0.00000000000E+00 0.  1.
         25    1    1    2    0    0 -0.20787775180E+03 -0.53950607981E+02 -0.28956958404E+03  0.38157485740E+03  0.12500000000E+03 0.  0.
         21    1    1    2  502  501  0.72934310526E+02  0.63864769784E+02  0.32444310121E+02  0.10222893783E+03  0.00000000000E+00 0. -1.
         21    1    1    2  503  502  0.13494344127E+03 -0.99141618029E+01 -0.66826506398E+02  0.15090992315E+03  0.00000000000E+00 0. -1.
<mgrwt>
<rscale>  4 0.39562845E+03</rscale>
<asrwt>0</asrwt>
<pdfrwt beam="1">  1        2 0.73743500E-01 0.39562845E+03</pdfrwt>
<pdfrwt beam="2">  1       -2 0.23904764E-01 0.39562845E+03</pdfrwt>
<totfact> 0.10078215E+03</totfact>
</mgrwt>
</event>
<event>
 5    0  0.2754780E-002  0.1652991E+04  0.7546771E-02  0.8788639E-01
          2   -1    0    0  502    0  0.00000000000E+00  0.00000000000E+00  0.11145039773E+04  0.11145039773E+04  0.00000000000E+00 0. -1.
         -2   -1    0    0    0  501 -0.00000000000E+00 -0.00000000000E+00 -0.61291370523E+03  0.61291370523E+03  0.00000000000E+00 0.  1.
         25    1    1    2    0    0 -0.86378604717E+02 -0.22202512521E+03 -0.56860745063E+03  0.62904360142E+03  0.12500000000E+03 0.  0.
         21    1    1    2  502  503  0.29714729941E+02  0.12701003230E+03  0.69798960153E+03  0.71007323378E+03  0.00000000000E+00 0. -1.
         21    1    1    2  503  501  0.56663874776E+02  0.95015092908E+02  0.37220812117E+03  0.38830084735E+03  0.00000000000E+00 0. -1.
<mgrwt>
<rscale>  4 0.16529909E+04</rscale>
<asrwt>0</asrwt>
<pdfrwt beam="1">  1        2 0.17146215E+00 0.16529909E+04</pdfrwt>
<pdfrwt beam="2">  1       -2 0.94294416E-01 0.16529909E+04</pdfrwt>
<totfact> 0.19334260E+01</totfact>
</mgrwt>
</event>
<event>
 5    0  0.2754780E-002  0.4448694E+03  0.7546771E-02  0.1029263E+00
         -2   -1    0    0    0  501 -0.00000000000E+00  0.00000000000E+00  0.54372935159E+02  0.54372935159E+02  0.00000000000E+00 0.  1.
          2   -1    0    0  503    0  0.00000000000E+00 -0.00000000000E+00 -0.14675619007E+04  0.14675619007E+04  0.00000000000E+00 0. -1.
         25    1    1    2    0    0 -0.11512839403E+03  0.18612698232E+03 -0.47020404146E+03  0.53349286899E+03  0.12500000000E+03 0.  0.
         21    1    1    2  502  501 -0.67768960634E+01 -0.37290708506E+02 -0.54581188382E+03  0.54712625214E+03  0.00000000000E+00 0. -1.
         21    1    1    2  503  502  0.12190529009E+03 -0.14883627381E+03 -0.39717304021E+03  0.44131571468E+03  0.00000000000E+00 0. -1.
<mgrwt>
<rscale>  4 0.44486939E+03</rscale>
<asrwt>0</asrwt>
<pdfrwt beam="1">  1        2 0.22577876E+00 0.44486939E+03</pdfrwt>
<pdfrwt beam="2">  1       -2 0.83650666E-02 0.44486939E+03</pdfrwt>
<totfact> 0.12418240E+03</totfact>
</mgrwt>
</event>
<event>
 5    0  0.2754780E-002  0.4718679E+03  0.7546771E-02  0.1021394E+00
          1   -1    0    0  502    0  0.00000000000E+00  0.00000000000E+00  0.39097562873E+03  0.39097562873E+03  0.00000000000E+00 0.  1.
         -1   -1    0    0    0  501 -0.00000000000E+00 -0.00000000000E+00 -0.16966523239E+03  0.16966523239E+03  0.00000000000E+00 0. -1.
         25    1    1    2    0    0 -0.20524731861E+02  0.20422194372E+03  0.17100641704E+03  0.29495094776E+03  0.12500000000E+03 0.  0.
         21    1    1    2  502  503  0.55875599953E+02 -0.20139310459E+03  0.61951515702E+01  0.20909243207E+03  0.00000000000E+00 0. -1.
         21    1    1    2  503  501 -0.35350868092E+02 -0.28288391279E+01  0.44108827732E+02  0.56597481300E+02  0.00000000000E+00 0.  1.
<mgrwt>
<rscale>  4 0.47186792E+03</rscale>
<asrwt>0</asrwt>
<pdfrwt beam="1">  1        1 0.60150097E-01 0.47186792E+03</pdfrwt>
<pdfrwt beam="2">  1       -1 0.26102343E-01 0.47186792E+03</pdfrwt>
<totfact> 0.80914993E+02</totfact>
</mgrwt>
</event>
<event>
 5    0  0.2754780E-002  0.4824799E+03  0.7546771E-02  0.1018456E+00
         -1   -1    0    0    0  501 -0.00000000000E+00  0.00000000000E+00  0.81695212888E+02  0.81695212888E+02  0.00000000000E+00 0.  1.
          1   -1    0    0  502    0  0.00000000000E+00 -0.00000000000E+00 -0.14166654006E+04  0.14166654006E+04  0.00000000000E+00 0. -1.
         25    1    1    2    0    0 -0.18099333242E+03 -0.11379977271E+03 -0.16058321845E+03  0.29516257334E+03  0.12500000000E+03 0.  0.
         21    1    1    2  502  503  0.11564977333E+03  0.11067106184E+03 -0.48540614093E+03  0.51111845559E+03  0.00000000000E+00 0. -1.
         21    1    1    2  503  501  0.65343559094E+02  0.31287108677E+01 -0.68898082832E+03  0.69207958455E+03  0.00000000000E+00 0. -1.
<mgrwt>
<rscale>  4 0.48247989E+03</rscale>
<asrwt>0</asrwt>
<pdfrwt beam="1">  1        1 0.21794854E+00 0.48247989E+03</pdfrwt>
<pdfrwt beam="2">  1       -1 0.12568493E-01 0.48247989E+03</pdfrwt>
<totfact> 0.33946213E+02</totfact>
</mgrwt>
</event>
<event>
 5    0  0.2754780E-002  0.4636046E+03  0.7546771E-02  0.1023741E+00
          1   -1    0    0  502    0  0.00000000000E+00  0.00000000000E+00  0.20161607034E+03  0.20161607034E+03  0.00000000000E+00 0. -1.
         -1   -1    0    0    0  501 -0.00000000000E+00 -0.00000000000E+00 -0.26650804508E+03  0.26650804508E+03  0.00000000000E+00 0.  1.
         25    1    1    2    0    0  0.19850310769E+03 -0.29123987862E+02  0.37118587431E+02  0.23927908384E+03  0.12500000000E+03 0.  0.
         21    1    1    2  502  503 -0.17303768195E+03  0.29536137353E+02 -0.10268335269E+03  0.20336738604E+03  0.00000000000E+00 0. -1.
         21    1    1    2  503  501 -0.25465425733E+02 -0.41214949043E+00  0.67279051338E+00  0.25477645536E+02  0.00000000000E+00 0. -1.
<mgrwt>
<rscale>  4 0.46360459E+03</rscale>
<asrwt>0</asrwt>
<pdfrwt beam="1">  1        1 0.31017857E-01 0.46360459E+03</pdfrwt>
<pdfrwt beam="2">  1       -1 0.41001238E-01 0.46360459E+03</pdfrwt>
<totfact> 0.86027389E+02</totfact>
</mgrwt>
</event>
<event>
 5    0  0.2754780E-002  0.6809189E+03  0.7546771E-02  0.9750432E-01
         -2   -1    0    0    0  501 -0.00000000000E+00  0.00000000000E+00  0.23572622516E+03  0.23572622516E+03  0.00000000000E+00 0.  1.
          2   -1    0    0  503    0  0.00000000000E+00 -0.00000000000E+00 -0.77440872670E+03  0.77440872670E+03  0.00000000000E+00 0. -1.
         25    1    1    2    0    0  0.33215431611E+03 -0.56088265253E+02 -0.64204961283E+02  0.36499268521E+03  0.12500000000E+03 0.  0.
         21    1    1    2  502  501 -0.26439609931E+02  0.45132813996E+02 -0.27502172428E+03  0.27995173280E+03  0.00000000000E+00 0. -1.
         21    1    1    2  503  502 -0.30571470617E+03  0.10955451258E+02 -0.19945581597E+03  0.36519053384E+03  0.00000000000E+00 0. -1.
<mgrwt>
<rscale>  4 0.68091888E+03</rscale>
<asrwt>0</asrwt>
<pdfrwt beam="1">  1        2 0.11913980E+00 0.68091888E+03</pdfrwt>
<pdfrwt beam="2">  1       -2 0.36265574E-01 0.68091888E+03</pdfrwt>
<totfact> 0.26025258E+02</totfact>
</mgrwt>
</event>
<event>
 5    0  0.2754780E-002  0.5563817E+03  0.7546771E-02  0.1000028E+00
          2   -1    0    0  503    0  0.00000000000E+00  0.00000000000E+00  0.16777234338E+03  0.16777234338E+03  0.00000000000E+00 0.  1.
         -2   -1    0    0    0  501 -0.00000000000E+00 -0.00000000000E+00 -0.57248966427E+03  0.57248966427E+03  0.00000000000E+00 0. -1.
         25    1    1    2    0    0  0.50222998442E+02  0.21491539640E+03 -0.31628239665E+02  0.25560970781E+03  0.12500000000E+03 0.  0.
         21    1    1    2  502  501  0.14293351615E+02 -0.21767701012E+02  0.25882890186E+02  0.36715891820E+02  0.00000000000E+00 0. -1.
         21    1    1    2  503  502 -0.64516350057E+02 -0.19314769538E+03 -0.39897197142E+03  0.44793640802E+03  0.00000000000E+00 0. -1.
<mgrwt>
<rscale>  4 0.55638170E+03</rscale>
<asrwt>0</asrwt>
<pdfrwt beam="1">  1        2 0.25811130E-01 0.55638170E+03</pdfrwt>
<pdfrwt beam="2">  1       -2 0.88075332E-01 0.55638170E+03</pdfrwt>
<totfact> 0.23765061E+02</totfact>
</mgrwt>
</event>
<event>
 5    0  0.2754780E-002  0.6055177E+03  0.7546771E-02  0.9894024E-01
         -2   -1    0    0    0  501 -0.00000000000E+00  0.00000000000E+00  0.49273764300E+03  0.49273764300E+03  0.00000000000E+00 0.  1.
          2   -1    0    0  503    0  0.00000000000E+00 -0.00000000000E+00 -0.19918535281E+03  0.19918535281E+03  0.00000000000E+00 0. -1.
         25    1    1    2    0    0 -0.88865999419E+02 -0.18725834795E+03  0.38291628752E+03  0.45300412578E+03  0.12500000000E+03 0.  0.
         21    1    1    2  502  501  0.13379342895E+02  0.15801470309E+02  0.13964352008E+02  0.24973914535E+02  0.00000000000E+00 0.  1.
         21    1    1    2  503  502  0.75486656525E+02  0.17145687765E+03 -0.10332834933E+03  0.21394495549E+03  0.00000000000E+00 0. -1.
<mgrwt>
<rscale>  4 0.60551768E+03</rscale>
<asrwt>0</asrwt>
<pdfrwt beam="1">  1        2 0.30643901E-01 0.60551768E+03</pdfrwt>
<pdfrwt beam="2">  1       -2 0.75805791E-01 0.60551768E+03</pdfrwt>
<totfact> 0.27394974E+02</totfact>
</mgrwt>
</event>
<event>
 5    0  0.2754780E-002  0.6724015E+03  0.7546771E-02  0.9765629E-01
          2   -1    0    0  503    0  0.00000000000E+00  0.00000000000E+00  0.37050429344E+03  0.37050429344E+03  0.00000000000E+00 0. -1.
         -2   -1    0    0    0  501 -0.00000000000E+00 -0.00000000000E+00 -0.35076096781E+03  0.35076096781E+03  0.00000000000E+00 0.  1.
         25    1    1    2    0    0 -0.18871504599E+03 -0.22183980091E+03  0.14910975201E+03  0.35026416317E+03  0.12500000000E+03 0.  0.
         21    1    1    2  502  501  0.66805876321E+01  0.19543311942E+02  0.43808721667E+02  0.48433205416E+02  0.00000000000E+00 0. -1.
         21    1    1    2  503  502  0.18203445836E+03  0.20229648897E+03 -0.17317514804E+03  0.32256789267E+03  0.00000000000E+00 0.  1.
<mgrwt>
<rscale>  4 0.67240154E+03</rscale>
<asrwt>0</asrwt>
<pdfrwt beam="1">  1        2 0.57000660E-01 0.67240154E+03</pdfrwt>
<pdfrwt beam="2">  1       -2 0.53963226E-01 0.67240154E+03</pdfrwt>
<totfact> 0.28335146E+02</totfact>
</mgrwt>
</event>
<event>
 5    0  0.2754780E-002  0.5876291E+03  0.7546771E-02  0.9931409E-01
         -1   -1    0    0    0  501 -0.00000000000E+00  0.00000000000E+00  0.38992712423E+03  0.38992712423E+03  0.00000000000E+00 0. -1.
          1   -1    0    0  502    0  0.00000000000E+00 -0.00000000000E+00 -0.66313092969E+03  0.66313092969E+03  0.00000000000E+00 0.  1.
         25    1    1    2    0    0 -0.23351183069E+03 -0.27362487221E+02 -0.24409416277E+02  0.26738979110E+03  0.12500000000E+03 0.  0.
         21    1    1    2  502  503  0.27881693405E+03  0.62381242292E+02  0.19002260277E+03  0.34313101239E+03  0.00000000000E+00 0. -1.
         21    1    1    2  503  501 -0.45305103365E+02 -0.35018755071E+02 -0.43881699195E+03  0.44253725043E+03  0.00000000000E+00 0.  1.
<mgrwt>
<rscale>  4 0.58762907E+03</rscale>
<asrwt>0</asrwt>
<pdfrwt beam="1">  1        1 0.10202014E+00 0.58762907E+03</pdfrwt>
<pdfrwt beam="2">  1       -1 0.59988788E-01 0.58762907E+03</pdfrwt>
<totfact> 0.86074360E+01</totfact>
</mgrwt>
</event>
<event>
 5    0  0.2754780E-002  0.1011712E+04  0.7546771E-02  0.9295791E-01
         -2   -1    0    0    0  501 -0.00000000000E+00  0.00000000000E+00  0.38441361443E+03  0.38441361443E+03  0.00000000000E+00 0. -1.
          2   -1    0    0  503    0  0.00000000000E+00 -0.00000000000E+00 -0.76720126299E+03  0.76720126299E+03  0.00000000000E+00 0.  1.
         25    1    1    2    0    0  0.12267571585E+03 -0.39910526119E+03 -0.41335637217E+03  0.60068530129E+03  0.12500000000E+03 0.  0.
         21    1    1    2  502  501  0.18942537781E+02 -0.82273413218E+01 -0.98609536919E+02  0.10074894369E+03  0.00000000000E+00 0. -1.
         21    1    1    2  503  502 -0.14161825364E+03  0.40733260251E+03  0.12917826053E+03  0.45018063244E+03  0.00000000000E+00 0. -1.
<mgrwt>
<rscale>  4 0.10117124E+04</rscale>
<asrwt>0</asrwt>
<pdfrwt beam="1">  1        2 0.11803096E+00 0.10117124E+04</pdfrwt>
<pdfrwt beam="2">  1       -2 0.59140556E-01 0.10117124E+04</pdfrwt>
<totfact> 0.96968448E+01</totfact>
</mgrwt>
</event>
<event>
 5    0  0.2754780E-002  0.5689402E+03  0.7546771E-02  0.9972027E-01
         -2   -1    0    0    0  501 -0.00000000000E+00  0.00000000000E+00  0.28326742948E+03  0.28326742948E+03  0.00000000000E+00 0. -1.
          2   -1    0    0  503    0  0.00000000000E+00 -0.00000000000E+00 -0.39206991137E+03  0.39206991137E+03  0.00000000000E+00 0.  1.
         25    1    1    2    0    0  0.19806581607E+03 -0.60776683975E+02 -0.18880690972E+03  0.30691517064E+03  0.12500000000E+03 0.  0.
         21    1    1    2  502  501 -0.21273638340E+02  0.18277034817E+01 -0.10421377399E+03  0.10637865800E+03  0.00000000000E+00 0.  1.
         21    1    1    2  503  502 -0.17679217773E+03  0.58948980494E+02  0.18421820183E+03  0.26204351221E+03  0.00000000000E+00 0.  1.
<mgrwt>
<rscale>  4 0.56894018E+03</rscale>
<asrwt>0</asrwt>
<pdfrwt beam="1">  1        2 0.60318448E-01 0.56894018E+03</pdfrwt>
<pdfrwt beam="2">  1       -2 0.43579604E-01 0.56894018E+03</pdfrwt>
<totfact> 0.41058783E+02</totfact>
</mgrwt>
</event>
<event>
 5    0  0.2754780E-002  0.4202728E+03  0.7546771E-02  0.1036978E+00
         -1   -1    0    0    0  501 -0.00000000000E+00  0.00000000000E+00  0.82726817645E+02  0.82726817645E+02  0.00000000000E+00 0. -1.
          1   -1    0    0  502    0  0.00000000000E+00 -0.00000000000E+00 -0.10251624179E+04  0.10251624179E+04  0.00000000000E+00 0.  1.
         25    1    1    2    0    0  0.56280589824E+02 -0.19967564270E+03 -0.36997879453E+03  0.44220716353E+03  0.12500000000E+03 0.  0.
         21    1    1    2  502  503 -0.16092995174E+02  0.15729398746E+03 -0.94568366057E+02  0.18423777801E+03  0.00000000000E+00 0. -1.
         21    1    1    2  503  501 -0.40187594650E+02  0.42381655231E+02 -0.47788843966E+03  0.48144429400E+03  0.00000000000E+00 0.  1.
<mgrwt>
<rscale>  4 0.42027277E+03</rscale>
<asrwt>0</asrwt>
<pdfrwt beam="1">  1        1 0.15771730E+00 0.42027277E+03</pdfrwt>
<pdfrwt beam="2">  1       -1 0.12727202E-01 0.42027277E+03</pdfrwt>
<totfact> 0.63534088E+02</totfact>
</mgrwt>
</event>
<event>
 5    0  0.2754780E-002  0.5926252E+03  0.7546771E-02  0.9920826E-01
          2   -1    0    0  502    0  0.00000000000E+00  0.00000000000E+00  0.19983841664E+04  0.19983841664E+04  0.00000000000E+00 0.  1.
         -2   -1    0    0    0  501 -0.00000000000E+00 -0.00000000000E+00 -0.57230703881E+02  0.57230703881E+02  0.00000000000E+00 0. -1.
         25    1    1    2    0    0 -0.24466947428E+03  0.15513897583E+03  0.83642192983E+03  0.89395631782E+03  0.12500000000E+03 0.  0.
         21    1    1    2  502  503  0.26492633658E+03 -0.80586599068E+02  0.77462424664E+03  0.82263168384E+03  0.00000000000E+00 0.  1.
         21    1    1    2  503  501 -0.20256862298E+02 -0.74552376767E+02  0.33010728606E+03  0.33902686864E+03  0.00000000000E+00 0. -1.
<mgrwt>
<rscale>  4 0.59262516E+03</rscale>
<asrwt>0</asrwt>
<pdfrwt beam="1">  1        2 0.30744366E+00 0.59262516E+03</pdfrwt>
<pdfrwt beam="2">  1       -2 0.88047252E-02 0.59262516E+03</pdfrwt>
<totfact> 0.58464947E+02</totfact>
</mgrwt>
</event>
<event>
 5    0  0.2754780E-002  0.4336245E+03  0.7546771E-02  0.1032721E+00
          1   -1    0    0  503    0  0.00000000000E+00  0.00000000000E+00  0.26995686141E+03  0.26995686141E+03  0.00000000000E+00 0.  1.
         -1   -1    0    0    0  501 -0.00000000000E+00 -0.00000000000E+00 -0.23663529101E+03  0.23663529101E+03  0.00000000000E+00 0. -1.
         25    1    1    2    0    0 -0.17465766958E+02  0.21230095006E+03  0.26155331001E+02  0.24836635793E+03  0.12500000000E+03 0.  0.
         21    1    1    2  502  501 -0.20599440385E+02 -0.37563685288E+02  0.58184884482E+02  0.72255437019E+02  0.00000000000E+00 0. -1.
         21    1    1    2  503  502  0.38065207343E+02 -0.17473726477E+03 -0.51018645084E+02  0.18597035747E+03  0.00000000000E+00 0.  1.
<mgrwt>
<rscale>  4 0.43362449E+03</rscale>
<asrwt>0</asrwt>
<pdfrwt beam="1">  1        1 0.41531825E-01 0.43362449E+03</pdfrwt>
<pdfrwt beam="2">  1       -1 0.36405429E-01 0.43362449E+03</pdfrwt>
<totfact> 0.73267236E+02</totfact>
</mgrwt>
</event>
<event>
 5    0  0.2754780E-002  0.8830961E+03  0.7546771E-02  0.9446962E-01
         -1   -1    0    0    0  501 -0.00000000000E+00  0.00000000000E+00  0.23480015715E+03  0.23480015715E+03  0.00000000000E+00 0.  1.
          1   -1    0    0  503    0  0.00000000000E+00 -0.00000000000E+00 -0.10148132235E+04  0.10148132235E+04  0.00000000000E+00 0. -1.
         25    1    1    2    0    0  0.22574772154E+03  0.47238497418E+02  0.11887579177E+03  0.28801035275E+03  0.12500000000E+03 0.  0.
         21    1    1    2  502  501 -0.17291526722E+03  0.29503832851E+02 -0.82285884463E+03  0.84134822991E+03  0.00000000000E+00 0. -1.
         21    1    1    2  503  502 -0.52832454325E+02 -0.76742330269E+02 -0.76030013475E+02  0.12025479797E+03  0.00000000000E+00 0. -1.
<mgrwt>
<rscale>  4 0.88309607E+03</rscale>
<asrwt>0</asrwt>
<pdfrwt beam="1">  1        1 0.15612511E+00 0.88309607E+03</pdfrwt>
<pdfrwt beam="2">  1       -1 0.36123100E-01 0.88309607E+03</pdfrwt>
<totfact> 0.10895194E+02</totfact>
</mgrwt>
</event>
<event>
 5    0  0.2754780E-002  0.4142148E+03  0.7546771E-02  0.1038966E+00
          2   -1    0    0  503    0  0.00000000000E+00  0.00000000000E+00  0.10406206500E+04  0.10406206500E+04  0.00000000000E+00 0. -1.
         -2   -1    0    0    0  501 -0.00000000000E+00 -0.00000000000E+00 -0.15810665464E+03  0.15810665464E+03  0.00000000000E+00 0.  1.
         25    1    1    2    0    0  0.80417687517E+01 -0.20159815908E+03  0.11976395843E+03  0.26584750051E+03  0.12500000000E+03 0.  0.
         21    1    1    2  502  501 -0.84582112665E+01  0.37777379257E+02  0.76799933575E+03  0.76897441533E+03  0.00000000000E+00 0. -1.
         21    1    1    2  503  502  0.41644251481E+00  0.16382077982E+03 -0.52492988551E+01  0.16390538876E+03  0.00000000000E+00 0.  1.
<mgrwt>
<rscale>  4 0.41421485E+03</rscale>
<asrwt>0</asrwt>
<pdfrwt beam="1">  1        2 0.16009548E+00 0.41421485E+03</pdfrwt>
<pdfrwt beam="2">  1       -2 0.24324101E-01 0.41421485E+03</pdfrwt>
<totfact> 0.36752079E+02</totfact>
</mgrwt>
</event>
<event>
 5    0  0.2754780E-002  0.6641726E+03  0.7546771E-02  0.9780543E-01
          2   -1    0    0  503    0  0.00000000000E+00  0.00000000000E+00  0.12161047271E+04  0.12161047271E+04  0.00000000000E+00 0. -1.
         -2   -1    0    0    0  501 -0.00000000000E+00 -0.00000000000E+00 -0.13233453580E+03  0.13233453580E+03  0.00000000000E+00 0.  1.
         25    1    1    2    0    0 -0.17681871123E+03  0.27728462567E+03  0.51921527206E+03  0.62718507557E+03  0.12500000000E+03 0.  0.
         21    1    1    2  502  501  0.77006512785E+02 -0.29144510338E+01  0.35142998642E+03  0.35977983878E+03  0.00000000000E+00 0. -1.
         21    1    1    2  503  502  0.99812198445E+02 -0.27437017464E+03  0.21312493286E+03  0.36147434860E+03  0.00000000000E+00 0.  1.
<mgrwt>
<rscale>  4 0.66417263E+03</rscale>
<asrwt>0</asrwt>
<pdfrwt beam="1">  1        2 0.18709303E+00 0.66417263E+03</pdfrwt>
<pdfrwt beam="2">  1       -2 0.20359160E-01 0.66417263E+03</pdfrwt>
<totfact> 0.38830832E+02</totfact>
</mgrwt>
</event>
<event>
 5    0  0.2754780E-002  0.4231750E+03  0.7546771E-02  0.1036038E+00
         -2   -1    0    0    0  501 -0.00000000000E+00  0.00000000000E+00  0.39328229632E+02  0.39328229632E+02  0.00000000000E+00 0.  1.
          2   -1    0    0  502    0  0.00000000000E+00 -0.00000000000E+00 -0.15232379002E+04  0.15232379002E+04  0.00000000000E+00 0. -1.
         25    1    1    2    0    0  0.19112487120E+03  0.63151210134E+02 -0.54836457070E+03  0.59736546111E+03  0.12500000000E+03 0.  0.
         21    1    1    2  502  503 -0.16665695362E+03 -0.74054515335E+02 -0.56532204735E+03  0.59400978835E+03  0.00000000000E+00 0.  1.
         21    1    1    2  503  501 -0.24467917587E+02  0.10903305201E+02 -0.37022305253E+03  0.37119088038E+03  0.00000000000E+00 0. -1.
<mgrwt>
<rscale>  4 0.42317503E+03</rscale>
<asrwt>0</asrwt>
<pdfrwt beam="1">  1        2 0.23434424E+00 0.42317503E+03</pdfrwt>
<pdfrwt beam="2">  1       -2 0.60504982E-02 0.42317503E+03</pdfrwt>
<totfact> 0.19286181E+03</totfact>
</mgrwt>
</event>
<event>
 5    0  0.2754780E-002  0.9114117E+03  0.7546771E-02  0.9411428E-01
         -1   -1    0    0    0  501 -0.00000000000E+00  0.00000000000E+00  0.11358552656E+04  0.11358552656E+04  0.00000000000E+00 0. -1.
          1   -1    0    0  502    0  0.00000000000E+00 -0.00000000000E+00 -0.20457054127E+03  0.20457054127E+03  0.00000000000E+00 0.  1.
         25    1    1    2    0    0  0.40441023228E+03  0.19333215943E+03  0.34017905579E+03  0.57643017777E+03  0.12500000000E+03 0.  0.
         21    1    1    2  502  503 -0.38140087435E+03 -0.17768373881E+03  0.60169946719E+03  0.73422093869E+03  0.00000000000E+00 0. -1.
         21    1    1    2  503  501 -0.23009357933E+02 -0.15648420617E+02 -0.10593798639E+02  0.29774690425E+02  0.00000000000E+00 0. -1.
<mgrwt>
<rscale>  4 0.91141165E+03</rscale>
<asrwt>0</asrwt>
<pdfrwt beam="1">  1        1 0.31472392E-01 0.91141165E+03</pdfrwt>
<pdfrwt beam="2">  1       -1 0.17474696E+00 0.91141165E+03</pdfrwt>
<totfact> 0.33121614E+01</totfact>
</mgrwt>
</event>
<event>
 5    0  0.2754780E-002  0.5593315E+03  0.7546771E-02  0.9993568E-01
         -1   -1    0    0    0  501 -0.00000000000E+00  0.00000000000E+00  0.23158936009E+03  0.23158936009E+03  0.00000000000E+00 0.  1.
          1   -1    0    0  502    0  0.00000000000E+00 -0.00000000000E+00 -0.47249044813E+03  0.47249044813E+03  0.00000000000E+00 0. -1.
         25    1    1    2    0    0 -0.16146275409E+03 -0.22200482073E+03 -0.16221614608E+03  0.34248421779E+03  0.12500000000E+03 0.  0.
         21    1    1    2  502  503  0.12857599250E+03  0.18458560029E+03  0.43970363034E+02  0.22920956024E+03  0.00000000000E+00 0.  1.
         21    1    1    2  503  501  0.32886761587E+02  0.37419220444E+02 -0.12265530499E+03  0.13238603019E+03  0.00000000000E+00 0. -1.
<mgrwt>
<rscale>  4 0.55933149E+03</rscale>
<asrwt>0</asrwt>
<pdfrwt beam="1">  1        1 0.72690837E-01 0.55933149E+03</pdfrwt>
<pdfrwt beam="2">  1       -1 0.35629133E-01 0.55933149E+03</pdfrwt>
<totfact> 0.36593203E+02</totfact>
</mgrwt>
</event>
<event>
 5    0  0.2754780E-002  0.4809765E+03  0.7546771E-02  0.1018867E+00
          1   -1    0    0  502    0  0.00000000000E+00  0.00000000000E+00  0.77251974328E+03  0.77251974328E+03  0.00000000000E+00 0. -1.
         -1   -1    0    0    0  501 -0.00000000000E+00 -0.00000000000E+00 -0.14739889099E+03  0.14739889099E+03  0.00000000000E+00 0.  1.
         25    1    1    2    0    0  0.18309104251E+03  0.13926476560E+03  0.14426010909E+03  0.29891969467E+03  0.12500000000E+03 0.  0.
         21    1    1    2  502  503 -0.13805748432E+03 -0.17002301390E+03  0.10804555007E+03  0.24421616474E+03  0.00000000000E+00 0.  1.
         21    1    1    2  503  501 -0.45033558191E+02  0.30758248294E+02  0.37281519313E+03  0.37678277486E+03  0.00000000000E+00 0. -1.
<mgrwt>
<rscale>  4 0.48097652E+03</rscale>
<asrwt>0</asrwt>
<pdfrwt beam="1">  1        1 0.11884919E+00 0.48097652E+03</pdfrwt>
<pdfrwt beam="2">  1       -1 0.22676753E-01 0.48097652E+03</pdfrwt>
<totfact> 0.39501075E+02</totfact>
</mgrwt>
</event>
<event>
 5    0  0.2754780E-002  0.4828075E+03  0.7546771E-02  0.1018366E+00
          3   -1    0    0  503    0  0.00000000000E+00  0.00000000000E+00  0.10481946121E+04  0.10481946121E+04  0.00000000000E+00 0.  1.
         -3   -1    0    0    0  501 -0.00000000000E+00 -0.00000000000E+00 -0.78296996398E+02  0.78296996398E+02  0.00000000000E+00 0. -1.
         25    1    1    2    0    0 -0.80037736937E+02 -0.19618564425E+03  0.44662074105E+03  0.50989207945E+03  0.12500000000E+03 0.  0.
         21    1    1    2  502  501 -0.35198033652E+02  0.35363334442E+01  0.29257019524E+03  0.29470107969E+03  0.00000000000E+00 0.  1.
         21    1    1    2  503  502  0.11523577059E+03  0.19264931081E+03  0.23070667942E+03  0.32189844937E+03  0.00000000000E+00 0. -1.
<mgrwt>
<rscale>  4 0.48280747E+03</rscale>
<asrwt>0</asrwt>
<pdfrwt beam="1">  1        3 0.16126070E+00 0.48280747E+03</pdfrwt>
<pdfrwt beam="2">  1       -3 0.12045693E-01 0.48280747E+03</pdfrwt>
<totfact> 0.39414836E+01</totfact>
</mgrwt>
</event>
<event>
 5    0  0.2754780E-002  0.6412375E+03  0.7546771E-02  0.9823362E-01
         -2   -1    0    0    0  501 -0.00000000000E+00  0.00000000000E+00  0.66451594648E+02  0.66451594648E+02  0.00000000000E+00 0. -1.
          2   -1    0    0  502    0  0.00000000000E+00 -0.00000000000E+00 -0.17026341754E+04  0.17026341754E+04  0.00000000000E+00 0.  1.
         25    1    1    2    0    0  0.28336291383E+03 -0.88919122537E+02 -0.93934451000E+03  0.99307313918E+03  0.12500000000E+03 0.  0.
         21    1    1    2  502  503 -0.29642000500E+03  0.72115380739E+02 -0.56158391439E+03  0.63909462555E+03  0.00000000000E+00 0. -1.
         21    1    1    2  503  501  0.13057091163E+02  0.16803741798E+02 -0.13525415636E+03  0.13691800532E+03  0.00000000000E+00 0. -1.
<mgrwt>
<rscale>  4 0.64123746E+03</rscale>
<asrwt>0</asrwt>
<pdfrwt beam="1">  1        2 0.26194376E+00 0.64123746E+03</pdfrwt>
<pdfrwt beam="2">  1       -2 0.10223321E-01 0.64123746E+03</pdfrwt>
<totfact> 0.66197939E+02</totfact>
</mgrwt>
</event>
<event>
 5    0  0.2754780E-002  0.5074277E+03  0.7546771E-02  0.1011858E+00
         -1   -1    0    0    0  501 -0.00000000000E+00  0.00000000000E+00  0.13542673551E+03  0.13542673551E+03  0.00000000000E+00 0. -1.
          1   -1    0    0  502    0  0.00000000000E+00 -0.00000000000E+00 -0.56459057414E+03  0.56459057414E+03  0.00000000000E+00 0.  1.
         25    1    1    2    0    0 -0.22373059991E+03 -0.46988181450E+02 -0.12646116128E+03  0.28962164257E+03  0.12500000000E+03 0.  0.
         21    1    1    2  502  503  0.23701576719E+03  0.31571450196E+02 -0.21896504333E+03  0.32422048141E+03  0.00000000000E+00 0. -1.
         21    1    1    2  503  501 -0.13285167280E+02  0.15416731254E+02 -0.83737634022E+02  0.86175185662E+02  0.00000000000E+00 0. -1.
<mgrwt>
<rscale>  4 0.50742772E+03</rscale>
<asrwt>0</asrwt>
<pdfrwt beam="1">  1        1 0.86860087E-01 0.50742772E+03</pdfrwt>
<pdfrwt beam="2">  1       -1 0.20834883E-01 0.50742772E+03</pdfrwt>
<totfact> 0.71994642E+02</totfact>
</mgrwt>
</event>
<event>
 5    0  0.2754780E-002  0.4932586E+03  0.7546771E-02  0.1015554E+00
         -2   -1    0    0    0  501 -0.00000000000E+00  0.00000000000E+00  0.19493696966E+03  0.19493696966E+03  0.00000000000E+00 0.  1.
          2   -1    0    0  503    0  0.00000000000E+00 -0.00000000000E+00 -0.10318885641E+04  0.10318885641E+04  0.00000000000E+00 0. -1.
         25    1    1    2    0    0  0.12240036397E+03  0.18756201147E+03 -0.52641430298E+02  0.26183482853E+03  0.12500000000E+03 0.  0.
         21    1    1    2  502  501 -0.78385896332E+02  0.44503317511E+02 -0.71240668683E+03  0.71808647212E+03  0.00000000000E+00 0. -1.
         21    1    1    2  503  502 -0.44014467635E+02 -0.23206532898E+03 -0.71903477307E+02  0.24690423311E+03  0.00000000000E+00 0. -1.
<mgrwt>
<rscale>  4 0.49325855E+03</rscale>
<asrwt>0</asrwt>
<pdfrwt beam="1">  1        2 0.15875209E+00 0.49325855E+03</pdfrwt>
<pdfrwt beam="2">  1       -2 0.29990303E-01 0.49325855E+03</pdfrwt>
<totfact> 0.25307727E+02</totfact>
</mgrwt>
</event>
<event>
 5    0  0.2754780E-002  0.9818525E+03  0.7546771E-02  0.9328676E-01
         -2   -1    0    0    0  501 -0.00000000000E+00  0.00000000000E+00  0.30824720182E+03  0.30824720182E+03  0.00000000000E+00 0. -1.
          2   -1    0    0  502    0  0.00000000000E+00 -0.00000000000E+00 -0.13048520560E+04  0.13048520560E+04  0.00000000000E+00 0.  1.
         25    1    1    2    0    0 -0.19422787474E+03 -0.41122323036E+03 -0.41540583960E+03  0.62850300245E+03  0.12500000000E+03 0.  0.
         21    1    1    2  502  503  0.11513753795E+03  0.44732146355E+03 -0.71340274754E+02  0.46737841114E+03  0.00000000000E+00 0.  1.
         21    1    1    2  503  501  0.79090336790E+02 -0.36098233196E+02 -0.50985873982E+03  0.51721784423E+03  0.00000000000E+00 0. -1.
<mgrwt>
<rscale>  4 0.98185248E+03</rscale>
<asrwt>0</asrwt>
<pdfrwt beam="1">  1        2 0.20074647E+00 0.98185248E+03</pdfrwt>
<pdfrwt beam="2">  1       -2 0.47422646E-01 0.98185248E+03</pdfrwt>
<totfact> 0.69159373E+01</totfact>
</mgrwt>
</event>
<event>
 5    0  0.2754780E-002  0.7056523E+03  0.7546771E-02  0.9707615E-01
         -1   -1    0    0    0  501 -0.00000000000E+00  0.00000000000E+00  0.13257370271E+03  0.13257370271E+03  0.00000000000E+00 0. -1.
          1   -1    0    0  502    0  0.00000000000E+00 -0.00000000000E+00 -0.20725588220E+04  0.20725588220E+04  0.00000000000E+00 0.  1.
         25    1    1    2    0    0  0.27180017685E+03 -0.24035665072E+03 -0.41147397605E+03  0.56265663477E+03  0.12500000000E+03 0.  0.
         21    1    1    2  502  503 -0.26339065474E+03  0.18297757840E+03 -0.40100229668E+03  0.51347665297E+03  0.00000000000E+00 0. -1.
         21    1    1    2  503  501 -0.84095221161E+01  0.57379072320E+02 -0.11275088465E+04  0.11289992369E+04  0.00000000000E+00 0.  1.
<mgrwt>
<rscale>  4 0.70565229E+03</rscale>
<asrwt>0</asrwt>
<pdfrwt beam="1">  1        1 0.31885518E+00 0.70565229E+03</pdfrwt>
<pdfrwt beam="2">  1       -1 0.20395956E-01 0.70565229E+03</pdfrwt>
<totfact> 0.54726351E+01</totfact>
</mgrwt>
</event>
<event>
 5    0  0.2754780E-002  0.5240654E+03  0.7546771E-02  0.1007682E+00
         -2   -1    0    0    0  501 -0.00000000000E+00  0.00000000000E+00  0.61080204933E+02  0.61080204933E+02  0.00000000000E+00 0.  1.
          2   -1    0    0  502    0  0.00000000000E+00 -0.00000000000E+00 -0.23674056372E+04  0.23674056372E+04  0.00000000000E+00 0. -1.
         25    1    1    2    0    0  0.15655184560E+03 -0.20336971585E+03 -0.84301571823E+03  0.89003832663E+03  0.12500000000E+03 0.  0.
         21    1    1    2  502  503 -0.71946057235E+02  0.18996606319E+03 -0.25002480519E+03  0.32214242739E+03  0.00000000000E+00 0.  1.
         21    1    1    2  503  501 -0.84605788370E+02  0.13403652657E+02 -0.12132849089E+04  0.12163050881E+04  0.00000000000E+00 0. -1.
<mgrwt>
<rscale>  4 0.52406545E+03</rscale>
<asrwt>0</asrwt>
<pdfrwt beam="1">  1        2 0.36421621E+00 0.52406545E+03</pdfrwt>
<pdfrwt beam="2">  1       -2 0.93969557E-02 0.52406545E+03</pdfrwt>
<totfact> 0.33342018E+02</totfact>
</mgrwt>
</event>
<event>
 5    0  0.2754780E-002  0.1108783E+04  0.7546771E-02  0.9196674E-01
          4   -1    0    0  502    0  0.00000000000E+00  0.00000000000E+00  0.16064701962E+04  0.16064701962E+04  0.00000000000E+00 0.  1.
         -4   -1    0    0    0  501 -0.00000000000E+00 -0.00000000000E+00 -0.19131987708E+03  0.19131987708E+03  0.00000000000E+00 0. -1.
         25    1    1    2    0    0 -0.48385309310E+03 -0.20537198773E+03  0.48563910179E+03  0.72647216480E+03  0.12500000000E+03 0.  0.
         21    1    1    2  502  503  0.46088126695E+03  0.18068823884E+03  0.83191789748E+03  0.96806361879E+03  0.00000000000E+00 0. -1.
         21    1    1    2  503  501  0.22971826148E+02  0.24683748897E+02  0.97593319837E+02  0.10325428966E+03  0.00000000000E+00 0.  1.
<mgrwt>
<rscale>  4 0.11087825E+04</rscale>
<asrwt>0</asrwt>
<pdfrwt beam="1">  1        4 0.24714925E+00 0.11087825E+04</pdfrwt>
<pdfrwt beam="2">  1       -4 0.29433828E-01 0.11087825E+04</pdfrwt>
<totfact> 0.14637454E+00</totfact>
</mgrwt>
</event>
<event>
 5    0  0.2754780E-002  0.6281935E+03  0.7546771E-02  0.9848580E-01
         -2   -1    0    0    0  501 -0.00000000000E+00  0.00000000000E+00  0.12815032266E+03  0.12815032266E+03  0.00000000000E+00 0. -1.
          2   -1    0    0  503    0  0.00000000000E+00 -0.00000000000E+00 -0.11989002919E+04  0.11989002919E+04  0.00000000000E+00 0.  1.
         25    1    1    2    0    0 -0.98421714449E+02 -0.20111768281E+03 -0.41129890916E+02  0.25971489010E+03  0.12500000000E+03 0.  0.
         21    1    1    2  502  501 -0.17699966778E+02  0.21329143863E+02 -0.42588209830E+03  0.42678306299E+03  0.00000000000E+00 0. -1.
         21    1    1    2  503  502  0.11612168123E+03  0.17978853894E+03 -0.60373798007E+03  0.64055266151E+03  0.00000000000E+00 0.  1.
<mgrwt>
<rscale>  4 0.62819352E+03</rscale>
<asrwt>0</asrwt>
<pdfrwt beam="1">  1        2 0.18444620E+00 0.62819352E+03</pdfrwt>
<pdfrwt beam="2">  1       -2 0.19715434E-01 0.62819352E+03</pdfrwt>
<totfact> 0.42126579E+02</totfact>
</mgrwt>
</event>
<event>
 5    0  0.2754780E-002  0.8519874E+03  0.7546771E-02  0.9487673E-01
          2   -1    0    0  503    0  0.00000000000E+00  0.00000000000E+00  0.35606014261E+03  0.35606014261E+03  0.00000000000E+00 0.  1.
         -2   -1    0    0    0  501 -0.00000000000E+00 -0.00000000000E+00 -0.60414516327E+03  0.60414516327E+03  0.00000000000E+00 0. -1.
         25    1    1    2    0    0  0.29597505328E+03 -0.17226183561E+03 -0.41960901452E+03  0.55585258588E+03  0.12500000000E+03 0.  0.
         21    1    1    2  502  501 -0.36896385493E+02 -0.16075139877E+02  0.43916017135E+02  0.59568195755E+02  0.00000000000E+00 0. -1.
         21    1    1    2  503  502 -0.25907866778E+03  0.18833697549E+03  0.12760797672E+03  0.34478452424E+03  0.00000000000E+00 0.  1.
<mgrwt>
<rscale>  4 0.85198744E+03</rscale>
<asrwt>0</asrwt>
<pdfrwt beam="1">  1        2 0.54778483E-01 0.85198744E+03</pdfrwt>
<pdfrwt beam="2">  1       -2 0.92945410E-01 0.85198744E+03</pdfrwt>
<totfact> 0.89401158E+01</totfact>
</mgrwt>
</event>
<event>
 5    0  0.2754780E-002  0.5669013E+03  0.7546771E-02  0.9976559E-01
         -1   -1    0    0    0  501 -0.00000000000E+00  0.00000000000E+00  0.46996460623E+03  0.46996460623E+03  0.00000000000E+00 0.  1.
          1   -1    0    0  502    0  0.00000000000E+00 -0.00000000000E+00 -0.20717408917E+03  0.20717408917E+03  0.00000000000E+00 0. -1.
         25    1    1    2    0    0  0.24657043482E+03  0.76039569181E+02  0.30857552662E+01  0.28672899625E+03  0.12500000000E+03 0.  0.
         21    1    1    2  502  503 -0.19710341134E+03 -0.82714240847E+02  0.26471543159E+03  0.34024353061E+03  0.00000000000E+00 0.  1.
         21    1    1    2  503  501 -0.49467023482E+02  0.66746716663E+01 -0.50106697942E+01  0.50166168539E+02  0.00000000000E+00 0.  1.
<mgrwt>
<rscale>  4 0.56690129E+03</rscale>
<asrwt>0</asrwt>
<pdfrwt beam="1">  1        1 0.31872937E-01 0.56690129E+03</pdfrwt>
<pdfrwt beam="2">  1       -1 0.72302247E-01 0.56690129E+03</pdfrwt>
<totfact> 0.27893525E+02</totfact>
</mgrwt>
</event>
<event>
 5    0  0.2754780E-002  0.5267196E+03  0.7546771E-02  0.1007031E+00
          2   -1    0    0  502    0  0.00000000000E+00  0.00000000000E+00  0.23126409432E+04  0.23126409432E+04  0.00000000000E+00 0. -1.
         -2   -1    0    0    0  501 -0.00000000000E+00 -0.00000000000E+00 -0.11975138519E+03  0.11975138519E+03  0.00000000000E+00 0.  1.
         25    1    1    2    0    0 -0.39155559080E+02 -0.24077167371E+03  0.11830353946E+04  0.12143730487E+04  0.12500000000E+03 0.  0.
         21    1    1    2  502  503  0.99304110252E+02 -0.45668123238E+01 -0.61762278103E+02  0.11703307688E+03  0.00000000000E+00 0.  1.
         21    1    1    2  503  501 -0.60148551172E+02  0.24533848604E+03  0.10716164415E+04  0.11009862028E+04  0.00000000000E+00 0. -1.
<mgrwt>
<rscale>  4 0.52671962E+03</rscale>
<asrwt>0</asrwt>
<pdfrwt beam="1">  1        2 0.35579088E+00 0.52671962E+03</pdfrwt>
<pdfrwt beam="2">  1       -2 0.18423292E-01 0.52671962E+03</pdfrwt>
<totfact> 0.11681363E+02</totfact>
</mgrwt>
</event>
<event>
 5    0  0.2754780E-002  0.4965042E+03  0.7546771E-02  0.1014695E+00
          2   -1    0    0  503    0  0.00000000000E+00  0.00000000000E+00  0.18198708922E+04  0.18198708922E+04  0.00000000000E+00 0.  1.
         -2   -1    0    0    0  501 -0.00000000000E+00 -0.00000000000E+00 -0.38994545248E+02  0.38994545248E+02  0.00000000000E+00 0. -1.
         25    1    1    2    0    0  0.12209698384E+03 -0.18167162778E+03  0.10298670819E+04  0.10602657498E+04  0.12500000000E+03 0.  0.
         21    1    1    2  502  501  0.35424603100E+02  0.67648863254E+01  0.10789894183E+03  0.11376663764E+03  0.00000000000E+00 0. -1.
         21    1    1    2  503  502 -0.15752158694E+03  0.17490674145E+03  0.64311032321E+03  0.68483305000E+03  0.00000000000E+00 0. -1.
<mgrwt>
<rscale>  4 0.49650420E+03</rscale>
<asrwt>0</asrwt>
<pdfrwt beam="1">  1        2 0.27998007E+00 0.49650420E+03</pdfrwt>
<pdfrwt beam="2">  1       -2 0.59991622E-02 0.49650420E+03</pdfrwt>
<totfact> 0.13477191E+03</totfact>
</mgrwt>
</event>
<event>
 5    0  0.2754780E-002  0.7648643E+03  0.7546771E-02  0.9612315E-01
         -1   -1    0    0    0  501 -0.00000000000E+00  0.00000000000E+00  0.19663968796E+03  0.19663968796E+03  0.00000000000E+00 0. -1.
          1   -1    0    0  503    0  0.00000000000E+00 -0.00000000000E+00 -0.91099887608E+03  0.91099887608E+03  0.00000000000E+00 0.  1.
         25    1    1    2    0    0 -0.21717386483E+03 -0.76200507977E+02 -0.64231870495E+03  0.69366369641E+03  0.12500000000E+03 0.  0.
         21    1    1    2  502  501  0.70055819683E+01 -0.19120893218E+02 -0.16421537085E+03  0.16547318441E+03  0.00000000000E+00 0. -1.
         21    1    1    2  503  502  0.21016828286E+03  0.95321401195E+02  0.92174887679E+02  0.24850168323E+03  0.00000000000E+00 0. -1.
<mgrwt>
<rscale>  4 0.76486429E+03</rscale>
<asrwt>0</asrwt>
<pdfrwt beam="1">  1        1 0.14015367E+00 0.76486429E+03</pdfrwt>
<pdfrwt beam="2">  1       -1 0.30252259E-01 0.76486429E+03</pdfrwt>
<totfact> 0.18155640E+02</totfact>
</mgrwt>
</event>
<event>
 5    0  0.2754780E-002  0.6032613E+03  0.7546771E-02  0.9898663E-01
          2   -1    0    0  502    0  0.00000000000E+00  0.00000000000E+00  0.18025011394E+03  0.18025011394E+03  0.00000000000E+00 0. -1.
         -2   -1    0    0    0  501 -0.00000000000E+00 -0.00000000000E+00 -0.50474883814E+03  0.50474883814E+03  0.00000000000E+00 0.  1.
         25    1    1    2    0    0  0.12162623299E+03  0.21734283192E+03 -0.31630968408E+03  0.42155386771E+03  0.12500000000E+03 0.  0.
         21    1    1    2  502  503 -0.12006154712E+03 -0.15918301538E+03 -0.29355704952E+02  0.20153353293E+03  0.00000000000E+00 0. -1.
         21    1    1    2  503  501 -0.15646858634E+01 -0.58159816534E+02  0.21166664831E+02  0.61911551435E+02  0.00000000000E+00 0.  1.
<mgrwt>
<rscale>  4 0.60326126E+03</rscale>
<asrwt>0</asrwt>
<pdfrwt beam="1">  1        2 0.27730787E-01 0.60326126E+03</pdfrwt>
<pdfrwt beam="2">  1       -2 0.77653668E-01 0.60326126E+03</pdfrwt>
<totfact> 0.29070950E+02</totfact>
</mgrwt>
</event>
<event>
 5    0  0.2754780E-002  0.4433220E+03  0.7546771E-02  0.1029732E+00
         -2   -1    0    0    0  501 -0.00000000000E+00  0.00000000000E+00  0.37677826605E+03  0.37677826605E+03  0.00000000000E+00 0. -1.
          2   -1    0    0  502    0  0.00000000000E+00 -0.00000000000E+00 -0.17049533712E+03  0.17049533712E+03  0.00000000000E+00 0.  1.
         25    1    1    2    0    0  0.47482970629E+02  0.20059440449E+03  0.96692810488E+02  0.25974458071E+03  0.12500000000E+03 0.  0.
         21    1    1    2  502  503  0.80392812429E+01 -0.20075585165E+03  0.11540630299E+03  0.23170273366E+03  0.00000000000E+00 0.  1.
         21    1    1    2  503  501 -0.55522251871E+02  0.16144716343E+00 -0.58161845483E+01  0.55826288796E+02  0.00000000000E+00 0.  1.
<mgrwt>
<rscale>  4 0.44332204E+03</rscale>
<asrwt>0</asrwt>
<pdfrwt beam="1">  1        2 0.26230052E-01 0.44332204E+03</pdfrwt>
<pdfrwt beam="2">  1       -2 0.57965887E-01 0.44332204E+03</pdfrwt>
<totfact> 0.58172347E+02</totfact>
</mgrwt>
</event>
<event>
 5    0  0.2754780E-002  0.5386209E+03  0.7546771E-02  0.1004163E+00
         -2   -1    0    0    0  501 -0.00000000000E+00  0.00000000000E+00  0.15916109874E+03  0.15916109874E+03  0.00000000000E+00 0.  1.
          2   -1    0    0  502    0  0.00000000000E+00 -0.00000000000E+00 -0.45568995737E+03  0.45568995737E+03  0.00000000000E+00 0. -1.
         25    1    1    2    0    0 -0.12410854128E+03 -0.17798406498E+03 -0.29917408257E+03  0.39014278038E+03  0.12500000000E+03 0.  0.
         21    1    1    2  502  503  0.67421512881E+02  0.13102353695E+03  0.21002432383E+02  0.14884196250E+03  0.00000000000E+00 0.  1.
         21    1    1    2  503  501  0.56687028395E+02  0.46960528026E+02 -0.18357208446E+02  0.75866313227E+02  0.00000000000E+00 0.  1.
<mgrwt>
<rscale>  4 0.53862088E+03</rscale>
<asrwt>0</asrwt>
<pdfrwt beam="1">  1        2 0.70106147E-01 0.53862088E+03</pdfrwt>
<pdfrwt beam="2">  1       -2 0.24486323E-01 0.53862088E+03</pdfrwt>
<totfact> 0.10226688E+03</totfact>
</mgrwt>
</event>
<event>
 5    0  0.2754780E-002  0.6085143E+03  0.7546771E-02  0.9887897E-01
         -2   -1    0    0    0  501 -0.00000000000E+00  0.00000000000E+00  0.29486976279E+02  0.29486976279E+02  0.00000000000E+00 0.  1.
          2   -1    0    0  502    0  0.00000000000E+00 -0.00000000000E+00 -0.39455213004E+04  0.39455213004E+04  0.00000000000E+00 0. -1.
         25    1    1    2    0    0  0.25252923313E+03 -0.28056344890E+02 -0.10233200257E+04  0.10617754222E+04  0.12500000000E+03 0.  0.
         21    1    1    2  502  503 -0.28629443654E+03  0.45686371000E+02 -0.21391746876E+04  0.21587311303E+04  0.00000000000E+00 0.  1.
         21    1    1    2  503  501  0.33765203411E+02 -0.17630026111E+02 -0.75353961076E+03  0.75450172416E+03  0.00000000000E+00 0. -1.
<mgrwt>
<rscale>  4 0.60851429E+03</rscale>
<asrwt>0</asrwt>
<pdfrwt beam="1">  1        2 0.60700274E+00 0.60851429E+03</pdfrwt>
<pdfrwt beam="2">  1       -2 0.45364619E-02 0.60851429E+03</pdfrwt>
<totfact> 0.10218139E+02</totfact>
</mgrwt>
</event>
<event>
 5    0  0.2754780E-002  0.4496915E+03  0.7546771E-02  0.1027814E+00
          2   -1    0    0  502    0  0.00000000000E+00  0.00000000000E+00  0.14053024345E+04  0.14053024345E+04  0.00000000000E+00 0. -1.
         -2   -1    0    0    0  501 -0.00000000000E+00 -0.00000000000E+00 -0.74249787311E+02  0.74249787311E+02  0.00000000000E+00 0.  1.
         25    1    1    2    0    0  0.16051710610E+03  0.15735616088E+03  0.40565155806E+03  0.48031748800E+03  0.12500000000E+03 0.  0.
         21    1    1    2  502  503 -0.12435994209E+03 -0.14099495475E+03  0.20658838836E+03  0.27932728952E+03  0.00000000000E+00 0. -1.
         21    1    1    2  503  501 -0.36157164007E+02 -0.16361206130E+02  0.71881270079E+03  0.71990744433E+03  0.00000000000E+00 0. -1.
<mgrwt>
<rscale>  4 0.44969149E+03</rscale>
<asrwt>0</asrwt>
<pdfrwt beam="1">  1        2 0.21620035E+00 0.44969149E+03</pdfrwt>
<pdfrwt beam="2">  1       -2 0.11423045E-01 0.44969149E+03</pdfrwt>
<totfact> 0.81361187E+02</totfact>
</mgrwt>
</event>
<event>
 5    0  0.2754780E-002  0.5422859E+03  0.7546771E-02  0.1003295E+00
          1   -1    0    0  503    0  0.00000000000E+00  0.00000000000E+00  0.56946944496E+03  0.56946944496E+03  0.00000000000E+00 0.  1.
         -1   -1    0    0    0  501 -0.00000000000E+00 -0.00000000000E+00 -0.19756868622E+03  0.19756868622E+03  0.00000000000E+00 0. -1.
         25    1    1    2    0    0 -0.23636702878E+03  0.31687567166E+02  0.14005410477E+03  0.30350226765E+03  0.12500000000E+03 0.  0.
         21    1    1    2  502  501 -0.29006279112E+02 -0.56132409465E+02  0.18168652411E+03  0.19235957128E+03  0.00000000000E+00 0. -1.
         21    1    1    2  503  502  0.26537330789E+03  0.24444842299E+02  0.50160129859E+02  0.27117629226E+03  0.00000000000E+00 0. -1.
<mgrwt>
<rscale>  4 0.54228590E+03</rscale>
<asrwt>0</asrwt>
<pdfrwt beam="1">  1        1 0.87610683E-01 0.54228590E+03</pdfrwt>
<pdfrwt beam="2">  1       -1 0.30395183E-01 0.54228590E+03</pdfrwt>
<totfact> 0.37442104E+02</totfact>
</mgrwt>
</event>
<event>
 5    0  0.2754780E-002  0.6859983E+03  0.7546771E-02  0.9741481E-01
         -2   -1    0    0    0  501 -0.00000000000E+00  0.00000000000E+00  0.56771985596E+02  0.56771985596E+02  0.00000000000E+00 0.  1.
          2   -1    0    0  502    0  0.00000000000E+00 -0.00000000000E+00 -0.22542046458E+04  0.22542046458E+04  0.00000000000E+00 0. -1.
         25    1    1    2    0    0  0.22668475334E+03  0.18563458515E+03 -0.16351564318E+04  0.16658954748E+04  0.12500000000E+03 0.  0.
         21    1    1    2  502  503 -0.20554390077E+03 -0.17707737979E+03 -0.41343683188E+03  0.49450450708E+03  0.00000000000E+00 0. -1.
         21    1    1    2  503  501 -0.21140852574E+02 -0.85572053628E+01 -0.14883939652E+03  0.15057664948E+03  0.00000000000E+00 0.  1.
<mgrwt>
<rscale>  4 0.68599834E+03</rscale>
<asrwt>0</asrwt>
<pdfrwt beam="1">  1        2 0.34680069E+00 0.68599834E+03</pdfrwt>
<pdfrwt beam="2">  1       -2 0.87341523E-02 0.68599834E+03</pdfrwt>
<totfact> 0.42605976E+02</totfact>
</mgrwt>
</event>
<event>
 5    0  0.2754780E-002  0.5853656E+03  0.7546771E-02  0.9936242E-01
         -1   -1    0    0    0  501 -0.00000000000E+00  0.00000000000E+00  0.32765507043E+03  0.32765507043E+03  0.00000000000E+00 0. -1.
          1   -1    0    0  502    0  0.00000000000E+00 -0.00000000000E+00 -0.36266529249E+03  0.36266529249E+03  0.00000000000E+00 0.  1.
         25    1    1    2    0    0 -0.20983630828E+03 -0.87270202366E+02 -0.22633286140E+03  0.34423673343E+03  0.12500000000E+03 0.  0.
         21    1    1    2  502  503  0.10648130365E+03  0.98953312595E+02  0.19353718101E+03  0.24204682715E+03  0.00000000000E+00 0. -1.
         21    1    1    2  503  501  0.10335500463E+03 -0.11683110229E+02 -0.22145416657E+01  0.10403680234E+03  0.00000000000E+00 0. -1.
<mgrwt>
<rscale>  4 0.58536558E+03</rscale>
<asrwt>0</asrwt>
<pdfrwt beam="1">  1        1 0.55794660E-01 0.58536558E+03</pdfrwt>
<pdfrwt beam="2">  1       -1 0.50408473E-01 0.58536558E+03</pdfrwt>
<totfact> 0.27501285E+02</totfact>
</mgrwt>
</event>
<event>
 5    0  0.2754780E-002  0.6536219E+03  0.7546771E-02  0.9800007E-01
         -2   -1    0    0    0  501 -0.00000000000E+00  0.00000000000E+00  0.37334196193E+03  0.37334196193E+03  0.00000000000E+00 0. -1.
          2   -1    0    0  502    0  0.00000000000E+00 -0.00000000000E+00 -0.30642365327E+03  0.30642365327E+03  0.00000000000E+00 0.  1.
         25    1    1    2    0    0 -0.28108206384E+03  0.86688298529E+02 -0.87659273226E+02  0.33140780904E+03  0.12500000000E+03 0.  0.
         21    1    1    2  502  503  0.26558961109E+03 -0.10172169714E+03  0.15969622889E+03  0.32617178099E+03  0.00000000000E+00 0. -1.
         21    1    1    2  503  501  0.15492452745E+02  0.15033398613E+02 -0.51186470026E+01  0.22186025175E+02  0.00000000000E+00 0.  1.
<mgrwt>
<rscale>  4 0.65362190E+03</rscale>
<asrwt>0</asrwt>
<pdfrwt beam="1">  1        2 0.47142101E-01 0.65362190E+03</pdfrwt>
<pdfrwt beam="2">  1       -2 0.57437224E-01 0.65362190E+03</pdfrwt>
<totfact> 0.30762777E+02</totfact>
</mgrwt>
</event>
<event>
 5    0  0.2754780E-002  0.4561111E+03  0.7546771E-02  0.1025915E+00
         -2   -1    0    0    0  501 -0.00000000000E+00  0.00000000000E+00  0.11529401325E+03  0.11529401325E+03  0.00000000000E+00 0.  1.
          2   -1    0    0  502    0  0.00000000000E+00 -0.00000000000E+00 -0.83736702410E+03  0.83736702410E+03  0.00000000000E+00 0. -1.
         25    1    1    2    0    0  0.21737445089E+03 -0.10669834331E+03 -0.32761323012E+03  0.42613567900E+03  0.12500000000E+03 0.  0.
         21    1    1    2  502  503 -0.13868410408E+03 -0.54750281003E+02 -0.93329713223E+02  0.17590141945E+03  0.00000000000E+00 0. -1.
         21    1    1    2  503  501 -0.78690346814E+02  0.16144862431E+03 -0.30113006750E+03  0.35062393889E+03  0.00000000000E+00 0.  1.
<mgrwt>
<rscale>  4 0.45611114E+03</rscale>
<asrwt>0</asrwt>
<pdfrwt beam="1">  1        2 0.12882570E+00 0.45611114E+03</pdfrwt>
<pdfrwt beam="2">  1       -2 0.17737541E-01 0.45611114E+03</pdfrwt>
<totfact> 0.86079285E+02</totfact>
</mgrwt>
</event>
<event>
 5    0  0.2754780E-002  0.5224081E+03  0.7546771E-02  0.1008090E+00
         -2   -1    0    0    0  501 -0.00000000000E+00  0.00000000000E+00  0.56584313267E+02  0.56584313267E+02  0.00000000000E+00 0.  1.
          2   -1    0    0  503    0  0.00000000000E+00 -0.00000000000E+00 -0.13837010360E+04  0.13837010360E+04  0.00000000000E+00 0. -1.
         25    1    1    2    0    0 -0.62242595327E+02  0.22220821745E+03 -0.40073472144E+03  0.47902395509E+03  0.12500000000E+03 0.  0.
         21    1    1    2  502  501 -0.25513465384E+02 -0.14109967664E+02 -0.14467197281E+03  0.14758051301E+03  0.00000000000E+00 0.  1.
         21    1    1    2  503  502  0.87756060711E+02 -0.20809824979E+03 -0.78171002844E+03  0.81368088113E+03  0.00000000000E+00 0. -1.
<mgrwt>
<rscale>  4 0.52240808E+03</rscale>
<asrwt>0</asrwt>
<pdfrwt beam="1">  1        2 0.21287709E+00 0.52240808E+03</pdfrwt>
<pdfrwt beam="2">  1       -2 0.87052786E-02 0.52240808E+03</pdfrwt>
<totfact> 0.12928453E+03</totfact>
</mgrwt>
</event>
<event>
 5    0  0.2754780E-002  0.9527414E+03  0.7546771E-02  0.9361952E-01
          1   -1    0    0  503    0  0.00000000000E+00  0.00000000000E+00  0.56939041680E+03  0.56939041680E+03  0.00000000000E+00 0.  1.
         -1   -1    0    0    0  501 -0.00000000000E+00 -0.00000000000E+00 -0.71208850770E+03  0.71208850770E+03  0.00000000000E+00 0. -1.
         25    1    1    2    0    0 -0.36511994470E+03 -0.16036784496E+03 -0.12654264792E+02  0.41810949539E+03  0.12500000000E+03 0.  0.
         21    1    1    2  502  501 -0.98766303335E+02  0.20617473577E+02  0.23566663870E+03  0.25635644616E+03  0.00000000000E+00 0.  1.
         21    1    1    2  503  502  0.46388624803E+03  0.13975037138E+03 -0.36571046480E+03  0.60701298296E+03  0.00000000000E+00 0.  1.
<mgrwt>
<rscale>  4 0.95274143E+03</rscale>
<asrwt>0</asrwt>
<pdfrwt beam="1">  1        1 0.87598526E-01 0.95274143E+03</pdfrwt>
<pdfrwt beam="2">  1       -1 0.10955208E+00 0.95274143E+03</pdfrwt>
<totfact> 0.28634258E+01</totfact>
</mgrwt>
</event>
<event>
 5    0  0.2754780E-002  0.7387242E+03  0.7546771E-02  0.9653208E-01
          3   -1    0    0  502    0  0.00000000000E+00  0.00000000000E+00  0.21397496222E+03  0.21397496222E+03  0.00000000000E+00 0. -1.
         -3   -1    0    0    0  501 -0.00000000000E+00 -0.00000000000E+00 -0.11305298778E+04  0.11305298778E+04  0.00000000000E+00 0.  1.
         25    1    1    2    0    0 -0.26307348789E+02 -0.37436543553E+03 -0.33439013220E+03  0.51796072866E+03  0.12500000000E+03 0.  0.
         21    1    1    2  502  503  0.78941984808E+02  0.28397798226E+03 -0.64172637775E+03  0.70617850100E+03  0.00000000000E+00 0.  1.
         21    1    1    2  503  501 -0.52634636019E+02  0.90387453268E+02  0.59561594411E+02  0.12036561031E+03  0.00000000000E+00 0. -1.
<mgrwt>
<rscale>  4 0.73872418E+03</rscale>
<asrwt>0</asrwt>
<pdfrwt beam="1">  1        3 0.32919224E-01 0.73872418E+03</pdfrwt>
<pdfrwt beam="2">  1       -3 0.17392768E+00 0.73872418E+03</pdfrwt>
<totfact> 0.51906845E+00</totfact>
</mgrwt>
</event>
<event>
 5    0  0.2754780E-002  0.5980867E+03  0.7546771E-02  0.9909383E-01
         -2   -1    0    0    0  501 -0.00000000000E+00  0.00000000000E+00  0.72321560285E+02  0.72321560285E+02  0.00000000000E+00 0.  1.
          2   -1    0    0  503    0  0.00000000000E+00 -0.00000000000E+00 -0.35616564060E+04  0.35616564060E+04  0.00000000000E+00 0. -1.
         25    1    1    2    0    0 -0.11648071547E+03 -0.20351023845E+03 -0.28503898063E+03  0.38968756037E+03  0.12500000000E+03 0.  0.
         21    1    1    2  502  501 -0.10827146289E+02 -0.31950083439E+02 -0.23229180388E+04  0.23231629840E+04  0.00000000000E+00 0. -1.
         21    1    1    2  503  502  0.12730786175E+03  0.23546032189E+03 -0.88137782620E+03  0.92112742190E+03  0.00000000000E+00 0. -1.
<mgrwt>
<rscale>  4 0.59808674E+03</rscale>
<asrwt>0</asrwt>
<pdfrwt beam="1">  1        2 0.54794710E+00 0.59808674E+03</pdfrwt>
<pdfrwt beam="2">  1       -2 0.11126395E-01 0.59808674E+03</pdfrwt>
<totfact> 0.46971140E+01</totfact>
</mgrwt>
</event>
<event>
 5    0  0.2754780E-002  0.4539256E+03  0.7546771E-02  0.1026558E+00
          1   -1    0    0  503    0  0.00000000000E+00  0.00000000000E+00  0.13960714983E+03  0.13960714983E+03  0.00000000000E+00 0.  1.
         -1   -1    0    0    0  501 -0.00000000000E+00 -0.00000000000E+00 -0.44906380428E+03  0.44906380428E+03  0.00000000000E+00 0. -1.
         25    1    1    2    0    0 -0.30548703110E+02 -0.21695138396E+03 -0.15054389233E+03  0.29375089750E+03  0.12500000000E+03 0.  0.
         21    1    1    2  502  501  0.97602927040E+01  0.19515425681E+02  0.18548882651E+02  0.28638718560E+02  0.00000000000E+00 0.  1.
         21    1    1    2  503  502  0.20788410406E+02  0.19743595828E+03 -0.17746164477E+03  0.26628133805E+03  0.00000000000E+00 0.  1.
<mgrwt>
<rscale>  4 0.45392562E+03</rscale>
<asrwt>0</asrwt>
<pdfrwt beam="1">  1        1 0.21478023E-01 0.45392562E+03</pdfrwt>
<pdfrwt beam="2">  1       -1 0.69086738E-01 0.45392562E+03</pdfrwt>
<totfact> 0.51228106E+02</totfact>
</mgrwt>
</event>
<event>
 5    0  0.2754780E-002  0.7069055E+03  0.7546771E-02  0.9705495E-01
         -1   -1    0    0    0  501 -0.00000000000E+00  0.00000000000E+00  0.13048729773E+03  0.13048729773E+03  0.00000000000E+00 0.  1.
          1   -1    0    0  502    0  0.00000000000E+00 -0.00000000000E+00 -0.19514564144E+04  0.19514564144E+04  0.00000000000E+00 0. -1.
         25    1    1    2    0    0  0.14032479164E+03 -0.30240658122E+03 -0.30047519081E+03  0.46588746260E+03  0.12500000000E+03 0.  0.
         21    1    1    2  502  503 -0.19942875033E+03  0.26226860608E+03 -0.53734232677E+03  0.63031216420E+03  0.00000000000E+00 0.  1.
         21    1    1    2  503  501  0.59103958687E+02  0.40137975144E+02 -0.98315159913E+03  0.98574408538E+03  0.00000000000E+00 0. -1.
<mgrwt>
<rscale>  4 0.70690553E+03</rscale>
<asrwt>0</asrwt>
<pdfrwt beam="1">  1        1 0.30022404E+00 0.70690553E+03</pdfrwt>
<pdfrwt beam="2">  1       -1 0.20074970E-01 0.70690553E+03</pdfrwt>
<totfact> 0.67678541E+01</totfact>
</mgrwt>
</event>
<event>
 5    0  0.2754780E-002  0.4917430E+03  0.7546771E-02  0.1015957E+00
          2   -1    0    0  503    0  0.00000000000E+00  0.00000000000E+00  0.81706425003E+03  0.81706425003E+03  0.00000000000E+00 0.  1.
         -2   -1    0    0    0  501 -0.00000000000E+00 -0.00000000000E+00 -0.86002962759E+02  0.86002962759E+02  0.00000000000E+00 0. -1.
         25    1    1    2    0    0  0.17941695057E+03 -0.10051106418E+03  0.25397959908E+03  0.34989077284E+03  0.12500000000E+03 0.  0.
         21    1    1    2  502  501  0.37471345624E+02 -0.66207109687E+01  0.61733201690E+02  0.72518437294E+02  0.00000000000E+00 0.  1.
         21    1    1    2  503  502 -0.21688829619E+03  0.10713177515E+03  0.41534848651E+03  0.48065800265E+03  0.00000000000E+00 0. -1.
<mgrwt>
<rscale>  4 0.49174300E+03</rscale>
<asrwt>0</asrwt>
<pdfrwt beam="1">  1        2 0.12570219E+00 0.49174300E+03</pdfrwt>
<pdfrwt beam="2">  1       -2 0.13231226E-01 0.49174300E+03</pdfrwt>
<totfact> 0.14549622E+03</totfact>
</mgrwt>
</event>
<event>
 5    0  0.2754780E-002  0.4778905E+03  0.7546771E-02  0.1019717E+00
         -1   -1    0    0    0  501 -0.00000000000E+00  0.00000000000E+00  0.14838532601E+03  0.14838532601E+03  0.00000000000E+00 0. -1.
          1   -1    0    0  502    0  0.00000000000E+00 -0.00000000000E+00 -0.61791079154E+03  0.61791079154E+03  0.00000000000E+00 0.  1.
         25    1    1    2    0    0  0.10354572950E+02  0.25182010507E+03 -0.12016916009E+03  0.30591863222E+03  0.12500000000E+03 0.  0.
         21    1    1    2  502  503  0.75062096889E+02 -0.94082705184E+02 -0.14590098027E+03  0.18913743640E+03  0.00000000000E+00 0.  1.
         21    1    1    2  503  501 -0.85416669839E+02 -0.15773739989E+03 -0.20345532516E+03  0.27124004893E+03  0.00000000000E+00 0.  1.
<mgrwt>
<rscale>  4 0.47789051E+03</rscale>
<asrwt>0</asrwt>
<pdfrwt beam="1">  1        1 0.95063199E-01 0.47789051E+03</pdfrwt>
<pdfrwt beam="2">  1       -1 0.22828512E-01 0.47789051E+03</pdfrwt>
<totfact> 0.54458198E+02</totfact>
</mgrwt>
</event>
<event>
 5    0  0.2754780E-002  0.5123412E+03  0.7546771E-02  0.1010607E+00
          1   -1    0    0  503    0  0.00000000000E+00  0.00000000000E+00  0.76077282484E+02  0.76077282484E+02  0.00000000000E+00 0. -1.
         -1   -1    0    0    0  501 -0.00000000000E+00 -0.00000000000E+00 -0.10154107957E+04  0.10154107957E+04  0.00000000000E+00 0.  1.
         25    1    1    2    0    0  0.18031875036E+03  0.17520376469E+03 -0.39652253900E+03  0.48586658131E+03  0.12500000000E+03 0.  0.
         21    1    1    2  502  501 -0.37884401418E+02 -0.72391075517E+01 -0.34877846567E+02  0.52000930089E+02  0.00000000000E+00 0. -1.
         21    1    1    2  503  502 -0.14243434895E+03 -0.16796465714E+03 -0.50793312764E+03  0.55362056678E+03  0.00000000000E+00 0.  1.
<mgrwt>
<rscale>  4 0.51234117E+03</rscale>
<asrwt>0</asrwt>
<pdfrwt beam="1">  1        1 0.11704198E-01 0.51234117E+03</pdfrwt>
<pdfrwt beam="2">  1       -1 0.15621704E+00 0.51234117E+03</pdfrwt>
<totfact> 0.17359574E+02</totfact>
</mgrwt>
</event>
<event>
 5    0  0.2754780E-002  0.6008896E+03  0.7546771E-02  0.9903562E-01
         -1   -1    0    0    0  501 -0.00000000000E+00  0.00000000000E+00  0.29479966797E+03  0.29479966797E+03  0.00000000000E+00 0. -1.
          1   -1    0    0  503    0  0.00000000000E+00 -0.00000000000E+00 -0.94590546899E+03  0.94590546899E+03  0.00000000000E+00 0.  1.
         25    1    1    2    0    0  0.21863503055E+03 -0.15224396496E+02 -0.18494882391E+03  0.31283242527E+03  0.12500000000E+03 0.  0.
         21    1    1    2  502  501 -0.10835889705E+03 -0.22797416964E+03 -0.58383233548E+03  0.63606137168E+03  0.00000000000E+00 0.  1.
         21    1    1    2  503  502 -0.11027613350E+03  0.24319856613E+03  0.11767535838E+03  0.29181134001E+03  0.00000000000E+00 0. -1.
<mgrwt>
<rscale>  4 0.60088964E+03</rscale>
<asrwt>0</asrwt>
<pdfrwt beam="1">  1        1 0.14552392E+00 0.60088964E+03</pdfrwt>
<pdfrwt beam="2">  1       -1 0.45353795E-01 0.60088964E+03</pdfrwt>
<totfact> 0.83401943E+01</totfact>
</mgrwt>
</event>
<event>
 5    0  0.2754780E-002  0.6741270E+03  0.7546771E-02  0.9762531E-01
          2   -1    0    0  502    0  0.00000000000E+00  0.00000000000E+00  0.69672636214E+03  0.69672636214E+03  0.00000000000E+00 0.  1.
         -2   -1    0    0    0  501 -0.00000000000E+00 -0.00000000000E+00 -0.16306515670E+03  0.16306515670E+03  0.00000000000E+00 0. -1.
         25    1    1    2    0    0  0.13268843681E+03  0.20441591236E+03  0.26209157451E+01  0.27390501217E+03  0.12500000000E+03 0.  0.
         21    1    1    2  502  503 -0.11268687401E+03 -0.18815343194E+03  0.44570193610E+03  0.49673963136E+03  0.00000000000E+00 0.  1.
         21    1    1    2  503  501 -0.20001562801E+02 -0.16262480420E+02  0.85338353588E+02  0.89146875307E+02  0.00000000000E+00 0. -1.
<mgrwt>
<rscale>  4 0.67412697E+03</rscale>
<asrwt>0</asrwt>
<pdfrwt beam="1">  1        2 0.10718867E+00 0.67412697E+03</pdfrwt>
<pdfrwt beam="2">  1       -2 0.25086948E-01 0.67412697E+03</pdfrwt>
<totfact> 0.59052853E+02</totfact>
</mgrwt>
</event>
<event>
 5    0  0.2754780E-002  0.5514577E+03  0.7546771E-02  0.1001157E+00
          2   -1    0    0  502    0  0.00000000000E+00  0.00000000000E+00  0.26484087709E+04  0.26484087709E+04  0.00000000000E+00 0. -1.
         -2   -1    0    0    0  501 -0.00000000000E+00 -0.00000000000E+00 -0.37398625291E+02  0.37398625291E+02  0.00000000000E+00 0.  1.
         25    1    1    2    0    0  0.98052136142E+02  0.24606214930E+03  0.11353148081E+04  0.11724868938E+04  0.12500000000E+03 0.  0.
         21    1    1    2  502  503 -0.72425440270E+02 -0.24707510372E+03  0.87541959627E+03  0.91249713468E+03  0.00000000000E+00 0.  1.
         21    1    1    2  503  501 -0.25626695873E+02  0.10129544219E+01  0.60027574130E+03  0.60082336773E+03  0.00000000000E+00 0. -1.
<mgrwt>
<rscale>  4 0.55145766E+03</rscale>
<asrwt>0</asrwt>
<pdfrwt beam="1">  1        2 0.40744736E+00 0.55145766E+03</pdfrwt>
<pdfrwt beam="2">  1       -2 0.57536367E-02 0.55145766E+03</pdfrwt>
<totfact> 0.50236219E+02</totfact>
</mgrwt>
</event>
<event>
 5    0  0.2754780E-002  0.7526752E+03  0.7546771E-02  0.9631163E-01
          3   -1    0    0  502    0  0.00000000000E+00  0.00000000000E+00  0.19900984348E+04  0.19900984348E+04  0.00000000000E+00 0. -1.
         -3   -1    0    0    0  501 -0.00000000000E+00 -0.00000000000E+00 -0.14627819902E+03  0.14627819902E+03  0.00000000000E+00 0.  1.
         25    1    1    2    0    0 -0.38946368465E+02  0.33808019263E+03  0.48006232189E+03  0.60158114096E+03  0.12500000000E+03 0.  0.
         21    1    1    2  502  503  0.93359956518E+02 -0.37152851960E+03  0.34958345282E+03  0.51861171683E+03  0.00000000000E+00 0.  1.
         21    1    1    2  503  501 -0.54413588054E+02  0.33448326970E+02  0.10141744611E+04  0.10161837761E+04  0.00000000000E+00 0. -1.
<mgrwt>
<rscale>  4 0.75267518E+03</rscale>
<asrwt>0</asrwt>
<pdfrwt beam="1">  1        3 0.30616897E+00 0.75267518E+03</pdfrwt>
<pdfrwt beam="2">  1       -3 0.22504340E-01 0.75267518E+03</pdfrwt>
<totfact> 0.17798143E+00</totfact>
</mgrwt>
</event>
<event>
 5    0  0.2754780E-002  0.5406434E+03  0.7546771E-02  0.1003683E+00
          2   -1    0    0  503    0  0.00000000000E+00  0.00000000000E+00  0.18412067376E+03  0.18412067376E+03  0.00000000000E+00 0.  1.
         -2   -1    0    0    0  501 -0.00000000000E+00 -0.00000000000E+00 -0.50185852188E+03  0.50185852188E+03  0.00000000000E+00 0. -1.
         25    1    1    2    0    0  0.13093077805E+03  0.16322029251E+03  0.57017484473E+00  0.24373973338E+03  0.12500000000E+03 0.  0.
         21    1    1    2  502  501  0.94130192356E-01 -0.22832314645E+02  0.34023234487E+02  0.40974430289E+02  0.00000000000E+00 0.  1.
         21    1    1    2  503  502 -0.13102490824E+03 -0.14038797787E+03 -0.35233125745E+03  0.40126503198E+03  0.00000000000E+00 0. -1.
<mgrwt>
<rscale>  4 0.54064340E+03</rscale>
<asrwt>0</asrwt>
<pdfrwt beam="1">  1        2 0.28326257E-01 0.54064340E+03</pdfrwt>
<pdfrwt beam="2">  1       -2 0.77209004E-01 0.54064340E+03</pdfrwt>
<totfact> 0.28779253E+02</totfact>
</mgrwt>
</event>
<event>
 5    0  0.2754780E-002  0.4968727E+03  0.7546771E-02  0.1014598E+00
         -1   -1    0    0    0  501 -0.00000000000E+00  0.00000000000E+00  0.96115146082E+02  0.96115146082E+02  0.00000000000E+00 0.  1.
          1   -1    0    0  502    0  0.00000000000E+00 -0.00000000000E+00 -0.10837303948E+04  0.10837303948E+04  0.00000000000E+00 0. -1.
         25    1    1    2    0    0  0.21914143186E+03  0.45163639404E+02 -0.34168156741E+03  0.42712295067E+03  0.12500000000E+03 0.  0.
         21    1    1    2  502  503 -0.23381608790E+03 -0.23148470336E+02 -0.20743006721E+03  0.31342151717E+03  0.00000000000E+00 0.  1.
         21    1    1    2  503  501  0.14674656037E+02 -0.22015169067E+02 -0.43850361406E+03  0.43930107300E+03  0.00000000000E+00 0.  1.
<mgrwt>
<rscale>  4 0.49687274E+03</rscale>
<asrwt>0</asrwt>
<pdfrwt beam="1">  1        1 0.16672774E+00 0.49687274E+03</pdfrwt>
<pdfrwt beam="2">  1       -1 0.14786946E-01 0.49687274E+03</pdfrwt>
<totfact> 0.44972064E+02</totfact>
</mgrwt>
</event>
<event>
 5    0  0.2754780E-002  0.6975066E+03  0.7546771E-02  0.9721506E-01
          1   -1    0    0  503    0  0.00000000000E+00  0.00000000000E+00  0.11395389644E+03  0.11395389644E+03  0.00000000000E+00 0. -1.
         -1   -1    0    0    0  501 -0.00000000000E+00 -0.00000000000E+00 -0.13221809730E+04  0.13221809730E+04  0.00000000000E+00 0.  1.
         25    1    1    2    0    0  0.22848878710E+03  0.65019238454E+02 -0.11322496353E+04  0.11636360530E+04  0.12500000000E+03 0.  0.
         21    1    1    2  502  501 -0.17439774403E+02  0.17455061031E+02  0.14376557956E+02  0.28557141059E+02  0.00000000000E+00 0. -1.
         21    1    1    2  503  502 -0.21104901269E+03 -0.82474299485E+02 -0.90353999279E+02  0.24394167545E+03  0.00000000000E+00 0. -1.
<mgrwt>
<rscale>  4 0.69750657E+03</rscale>
<asrwt>0</asrwt>
<pdfrwt beam="1">  1        1 0.17531369E-01 0.69750657E+03</pdfrwt>
<pdfrwt beam="2">  1       -1 0.20341246E+00 0.69750657E+03</pdfrwt>
<totfact> 0.45821022E+01</totfact>
</mgrwt>
</event>
<event>
 5    0  0.2754780E-002  0.4292705E+03  0.7546771E-02  0.1034091E+00
          1   -1    0    0  503    0  0.00000000000E+00  0.00000000000E+00  0.10260050871E+04  0.10260050871E+04  0.00000000000E+00 0. -1.
         -1   -1    0    0    0  501 -0.00000000000E+00 -0.00000000000E+00 -0.18614610780E+03  0.18614610780E+03  0.00000000000E+00 0.  1.
         25    1    1    2    0    0 -0.20290138369E+03  0.49568612915E+02  0.74451150095E+02  0.25454664138E+03  0.12500000000E+03 0.  0.
         21    1    1    2  502  501  0.30038786714E+02 -0.40675581692E+01  0.77783212182E+03  0.77842256100E+03  0.00000000000E+00 0. -1.
         21    1    1    2  503  502  0.17286259697E+03 -0.45501054746E+02 -0.12424292568E+02  0.17918199257E+03  0.00000000000E+00 0.  1.
<mgrwt>
<rscale>  4 0.42927054E+03</rscale>
<asrwt>0</asrwt>
<pdfrwt beam="1">  1        1 0.15784693E+00 0.42927054E+03</pdfrwt>
<pdfrwt beam="2">  1       -1 0.28637863E-01 0.42927054E+03</pdfrwt>
<totfact> 0.16702066E+02</totfact>
</mgrwt>
</event>
<event>
 5    0  0.2754780E-002  0.5279237E+03  0.7546771E-02  0.1006737E+00
         -2   -1    0    0    0  501 -0.00000000000E+00  0.00000000000E+00  0.12320703932E+04  0.12320703932E+04  0.00000000000E+00 0.  1.
          2   -1    0    0  503    0  0.00000000000E+00 -0.00000000000E+00 -0.83581515855E+02  0.83581515855E+02  0.00000000000E+00 0. -1.
         25    1    1    2    0    0  0.87342536412E+01  0.23478695171E+03  0.35739772050E+03  0.44559996689E+03  0.12500000000E+03 0.  0.
         21    1    1    2  502  501 -0.34759348782E+02 -0.28295880766E+02 -0.69163188778E+01  0.45350905866E+02  0.00000000000E+00 0. -1.
         21    1    1    2  503  502  0.26025095141E+02 -0.20649107094E+03  0.79800747574E+03  0.82470103631E+03  0.00000000000E+00 0.  1.
<mgrwt>
<rscale>  4 0.52792374E+03</rscale>
<asrwt>0</asrwt>
<pdfrwt beam="1">  1        2 0.12858696E-01 0.52792374E+03</pdfrwt>
<pdfrwt beam="2">  1       -2 0.18954928E+00 0.52792374E+03</pdfrwt>
<totfact> 0.77714049E+01</totfact>
</mgrwt>
</event>
<event>
 5    0  0.2754780E-002  0.4175052E+03  0.7546771E-02  0.1037881E+00
         -2   -1    0    0    0  501 -0.00000000000E+00  0.00000000000E+00  0.68231864884E+03  0.68231864884E+03  0.00000000000E+00 0.  1.
          2   -1    0    0  503    0  0.00000000000E+00 -0.00000000000E+00 -0.22509157975E+03  0.22509157975E+03  0.00000000000E+00 0. -1.
         25    1    1    2    0    0 -0.21045438366E+03  0.54329766605E+01  0.31545162345E+03  0.39931853397E+03  0.12500000000E+03 0.  0.
         21    1    1    2  502  501  0.51983845502E+02 -0.66657452502E+02 -0.14900971573E+03  0.17131675794E+03  0.00000000000E+00 0.  1.
         21    1    1    2  503  502  0.15847053816E+03  0.61224475841E+02  0.29078516137E+03  0.33677493668E+03  0.00000000000E+00 0.  1.
<mgrwt>
<rscale>  4 0.41750516E+03</rscale>
<asrwt>0</asrwt>
<pdfrwt beam="1">  1        2 0.34629474E-01 0.41750516E+03</pdfrwt>
<pdfrwt beam="2">  1       -2 0.10497210E+00 0.41750516E+03</pdfrwt>
<totfact> 0.11415483E+02</totfact>
</mgrwt>
</event>
<event>
 5    0  0.2754780E-002  0.5338664E+03  0.7546771E-02  0.1005299E+00
          2   -1    0    0  502    0  0.00000000000E+00  0.00000000000E+00  0.82725174846E+03  0.82725174846E+03  0.00000000000E+00 0. -1.
         -2   -1    0    0    0  501 -0.00000000000E+00 -0.00000000000E+00 -0.10149281203E+03  0.10149281203E+03  0.00000000000E+00 0.  1.
         25    1    1    2    0    0  0.10916026586E+03 -0.23290963008E+03  0.29889117589E+03  0.41367111871E+03  0.12500000000E+03 0.  0.
         21    1    1    2  502  503 -0.74736169393E+02  0.23414744867E+03  0.32456874498E+03  0.40713068289E+03  0.00000000000E+00 0.  1.
         21    1    1    2  503  501 -0.34424096465E+02 -0.12378185858E+01  0.10229901556E+03  0.10794275889E+03  0.00000000000E+00 0.  1.
<mgrwt>
<rscale>  4 0.53386639E+03</rscale>
<asrwt>0</asrwt>
<pdfrwt beam="1">  1        2 0.12726950E+00 0.53386639E+03</pdfrwt>
<pdfrwt beam="2">  1       -2 0.15614279E-01 0.53386639E+03</pdfrwt>
<totfact> 0.10844175E+03</totfact>
</mgrwt>
</event>
<event>
 5    0  0.2754780E-002  0.5522463E+03  0.7546771E-02  0.1000975E+00
          2   -1    0    0  503    0  0.00000000000E+00  0.00000000000E+00  0.65575880716E+03  0.65575880716E+03  0.00000000000E+00 0. -1.
         -2   -1    0    0    0  501 -0.00000000000E+00 -0.00000000000E+00 -0.13230159473E+03  0.13230159473E+03  0.00000000000E+00 0.  1.
         25    1    1    2    0    0  0.11412622698E+03  0.21057392426E+03  0.44603783244E+03  0.52147955016E+03  0.12500000000E+03 0.  0.
         21    1    1    2  502  501 -0.27823539633E+02 -0.15340746223E+01  0.10697601639E+01  0.27886325134E+02  0.00000000000E+00 0. -1.
         21    1    1    2  503  502 -0.86302687347E+02 -0.20903984964E+03  0.76349619827E+02  0.23869452660E+03  0.00000000000E+00 0.  1.
<mgrwt>
<rscale>  4 0.55224630E+03</rscale>
<asrwt>0</asrwt>
<pdfrwt beam="1">  1        2 0.10088597E+00 0.55224630E+03</pdfrwt>
<pdfrwt beam="2">  1       -2 0.20354092E-01 0.55224630E+03</pdfrwt>
<totfact> 0.92469104E+02</totfact>
</mgrwt>
</event>
<event>
 5    0  0.2754780E-002  0.5300840E+03  0.7546771E-02  0.1006212E+00
          3   -1    0    0  503    0  0.00000000000E+00  0.00000000000E+00  0.23783534039E+03  0.23783534039E+03  0.00000000000E+00 0.  1.
         -3   -1    0    0    0  501 -0.00000000000E+00 -0.00000000000E+00 -0.46793720594E+03  0.46793720594E+03  0.00000000000E+00 0. -1.
         25    1    1    2    0    0 -0.22918034988E+03 -0.80635829579E+02 -0.28535338055E+03  0.39506622429E+03  0.12500000000E+03 0.  0.
         21    1    1    2  502  501  0.27338125286E+02 -0.56227205516E+01  0.84753913475E+02  0.89231238531E+02  0.00000000000E+00 0.  1.
         21    1    1    2  503  502  0.20184222460E+03  0.86258550130E+02 -0.29502398467E+02  0.22147508351E+03  0.00000000000E+00 0.  1.
<mgrwt>
<rscale>  4 0.53008398E+03</rscale>
<asrwt>0</asrwt>
<pdfrwt beam="1">  1        3 0.36590053E-01 0.53008398E+03</pdfrwt>
<pdfrwt beam="2">  1       -3 0.71990338E-01 0.53008398E+03</pdfrwt>
<totfact> 0.35493778E+01</totfact>
</mgrwt>
</event>
<event>
 5    0  0.2754780E-002  0.6672632E+03  0.7546771E-02  0.9774915E-01
         -1   -1    0    0    0  501 -0.00000000000E+00  0.00000000000E+00  0.54414004648E+02  0.54414004648E+02  0.00000000000E+00 0. -1.
          1   -1    0    0  503    0  0.00000000000E+00 -0.00000000000E+00 -0.20456140556E+04  0.20456140556E+04  0.00000000000E+00 0.  1.
         25    1    1    2    0    0  0.10609177366E+02  0.22719701614E+03 -0.31501679187E+03  0.40815636458E+03  0.12500000000E+03 0.  0.
         21    1    1    2  502  501  0.65252729452E+01 -0.24434037902E+02 -0.24352381868E+03  0.24483351825E+03  0.00000000000E+00 0.  1.
         21    1    1    2  503  502 -0.17134450312E+02 -0.20276297824E+03 -0.14326594404E+04  0.14470381774E+04  0.00000000000E+00 0.  1.
<mgrwt>
<rscale>  4 0.66726322E+03</rscale>
<asrwt>0</asrwt>
<pdfrwt beam="1">  1        1 0.31470981E+00 0.66726322E+03</pdfrwt>
<pdfrwt beam="2">  1       -1 0.83713866E-02 0.66726322E+03</pdfrwt>
<totfact> 0.24045948E+02</totfact>
</mgrwt>
</event>
<event>
 5    0  0.2754780E-002  0.7402891E+03  0.7546771E-02  0.9650710E-01
          2   -1    0    0  503    0  0.00000000000E+00  0.00000000000E+00  0.22330554263E+04  0.22330554263E+04  0.00000000000E+00 0.  1.
         -2   -1    0    0    0  501 -0.00000000000E+00 -0.00000000000E+00 -0.86608931837E+02  0.86608931837E+02  0.00000000000E+00 0. -1.
         25    1    1    2    0    0  0.40680231692E+02  0.36525901371E+03  0.88260536873E+03  0.96420239850E+03  0.12500000000E+03 0.  0.
         21    1    1    2  502  501 -0.85360982477E+01 -0.19207246718E+02  0.64786239986E+03  0.64820326476E+03  0.00000000000E+00 0. -1.
         21    1    1    2  503  502 -0.32144133444E+02 -0.34605176699E+03  0.61597872585E+03  0.70725869486E+03  0.00000000000E+00 0. -1.
<mgrwt>
<rscale>  4 0.74028906E+03</rscale>
<asrwt>0</asrwt>
<pdfrwt beam="1">  1        2 0.34354694E+00 0.74028906E+03</pdfrwt>
<pdfrwt beam="2">  1       -2 0.13324453E-01 0.74028906E+03</pdfrwt>
<totfact> 0.21804697E+02</totfact>
</mgrwt>
</event>
<event>
 5    0  0.2754780E-002  0.5220010E+03  0.7546771E-02  0.1008191E+00
          3   -1    0    0  503    0  0.00000000000E+00  0.00000000000E+00  0.41169161427E+03  0.41169161427E+03  0.00000000000E+00 0.  1.
         -3   -1    0    0    0  501 -0.00000000000E+00 -0.00000000000E+00 -0.18649692752E+03  0.18649692752E+03  0.00000000000E+00 0. -1.
         25    1    1    2    0    0 -0.10043992277E+03 -0.22407217147E+03  0.61241185630E+02  0.28226228747E+03  0.12500000000E+03 0.  0.
         21    1    1    2  502  501 -0.17554393564E+02  0.13582475114E+02  0.37293274088E+02  0.43398486792E+02  0.00000000000E+00 0.  1.
         21    1    1    2  503  502  0.11799431634E+03  0.21048969635E+03  0.12666022703E+03  0.27252776752E+03  0.00000000000E+00 0.  1.
<mgrwt>
<rscale>  4 0.52200102E+03</rscale>
<asrwt>0</asrwt>
<pdfrwt beam="1">  1        3 0.63337171E-01 0.52200102E+03</pdfrwt>
<pdfrwt beam="2">  1       -3 0.28691835E-01 0.52200102E+03</pdfrwt>
<totfact> 0.74622172E+01</totfact>
</mgrwt>
</event>
<event>
 5    0  0.2754780E-002  0.3849091E+03  0.7546771E-02  0.1049134E+00
         -4   -1    0    0    0  501 -0.00000000000E+00  0.00000000000E+00  0.33804300020E+03  0.33804300020E+03  0.00000000000E+00 0. -1.
          4   -1    0    0  503    0  0.00000000000E+00 -0.00000000000E+00 -0.19264449173E+03  0.19264449173E+03  0.00000000000E+00 0.  1.
         25    1    1    2    0    0  0.17050065525E+03  0.12294427307E+03  0.62975007552E+02  0.25254033202E+03  0.12500000000E+03 0.  0.
         21    1    1    2  502  501 -0.55492481086E+02 -0.76206532923E+02 -0.41263224628E+02  0.10290531971E+03  0.00000000000E+00 0.  1.
         21    1    1    2  503  502 -0.11500817416E+03 -0.46737740150E+02  0.12368672555E+03  0.17524184019E+03  0.00000000000E+00 0. -1.
<mgrwt>
<rscale>  4 0.38490906E+03</rscale>
<asrwt>0</asrwt>
<pdfrwt beam="1">  1        4 0.29637614E-01 0.38490906E+03</pdfrwt>
<pdfrwt beam="2">  1       -4 0.52006615E-01 0.38490906E+03</pdfrwt>
<totfact> 0.74358065E+01</totfact>
</mgrwt>
</event>
<event>
 5    0  0.2754780E-002  0.5987498E+03  0.7546771E-02  0.9908003E-01
         -1   -1    0    0    0  501 -0.00000000000E+00  0.00000000000E+00  0.26999977165E+03  0.26999977165E+03  0.00000000000E+00 0.  1.
          1   -1    0    0  503    0  0.00000000000E+00 -0.00000000000E+00 -0.13958351371E+04  0.13958351371E+04  0.00000000000E+00 0. -1.
         25    1    1    2    0    0  0.21134369954E+03 -0.67707291336E+02 -0.17871841319E+03  0.31115222616E+03  0.12500000000E+03 0.  0.
         21    1    1    2  502  501 -0.11626476260E+02 -0.11410532033E+03 -0.10569278695E+04  0.10631329740E+04  0.00000000000E+00 0. -1.
         21    1    1    2  503  502 -0.19971722328E+03  0.18181261167E+03  0.10981091724E+03  0.29154970859E+03  0.00000000000E+00 0.  1.
<mgrwt>
<rscale>  4 0.59874985E+03</rscale>
<asrwt>0</asrwt>
<pdfrwt beam="1">  1        1 0.21474387E+00 0.59874985E+03</pdfrwt>
<pdfrwt beam="2">  1       -1 0.41538426E-01 0.59874985E+03</pdfrwt>
<totfact> 0.46021905E+01</totfact>
</mgrwt>
</event>
<event>
 5    0  0.2754780E-002  0.8228186E+03  0.7546771E-02  0.9527563E-01
          1   -1    0    0  503    0  0.00000000000E+00  0.00000000000E+00  0.82738437636E+03  0.82738437636E+03  0.00000000000E+00 0.  1.
         -1   -1    0    0    0  501 -0.00000000000E+00 -0.00000000000E+00 -0.25469331801E+03  0.25469331801E+03  0.00000000000E+00 0. -1.
         25    1    1    2    0    0 -0.37626090490E+03 -0.32032224053E+02  0.23196028713E+03  0.46046596697E+03  0.12500000000E+03 0.  0.
         21    1    1    2  502  501 -0.44886202874E+02 -0.13765776655E+02  0.14972282819E+03  0.15691141799E+03  0.00000000000E+00 0.  1.
         21    1    1    2  503  502  0.42114710777E+03  0.45798000708E+02  0.19100794304E+03  0.46470030940E+03  0.00000000000E+00 0. -1.
<mgrwt>
<rscale>  4 0.82281864E+03</rscale>
<asrwt>0</asrwt>
<pdfrwt beam="1">  1        1 0.12728990E+00 0.82281864E+03</pdfrwt>
<pdfrwt beam="2">  1       -1 0.39183588E-01 0.82281864E+03</pdfrwt>
<totfact> 0.13394892E+02</totfact>
</mgrwt>
</event>
<event>
 5    0  0.2754780E-002  0.4495410E+03  0.7546771E-02  0.1027859E+00
         -1   -1    0    0    0  501 -0.00000000000E+00  0.00000000000E+00  0.10235064830E+03  0.10235064830E+03  0.00000000000E+00 0.  1.
          1   -1    0    0  503    0  0.00000000000E+00 -0.00000000000E+00 -0.60183331342E+03  0.60183331342E+03  0.00000000000E+00 0. -1.
         25    1    1    2    0    0  0.15756234846E+03  0.14760828336E+03 -0.25859770360E+03  0.35932140387E+03  0.12500000000E+03 0.  0.
         21    1    1    2  502  501 -0.31405733325E+02  0.44282019898E+01 -0.92487982195E+02  0.97775027021E+02  0.00000000000E+00 0.  1.
         21    1    1    2  503  502 -0.12615661514E+03 -0.15203648535E+03 -0.14839697933E+03  0.24708753083E+03  0.00000000000E+00 0.  1.
<mgrwt>
<rscale>  4 0.44954101E+03</rscale>
<asrwt>0</asrwt>
<pdfrwt beam="1">  1        1 0.92589740E-01 0.44954101E+03</pdfrwt>
<pdfrwt beam="2">  1       -1 0.15746254E-01 0.44954101E+03</pdfrwt>
<totfact> 0.10418510E+03</totfact>
</mgrwt>
</event>
<event>
 5    0  0.2754780E-002  0.7554667E+03  0.7546771E-02  0.9626813E-01
         -1   -1    0    0    0  501 -0.00000000000E+00  0.00000000000E+00  0.34671270406E+03  0.34671270406E+03  0.00000000000E+00 0.  1.
          1   -1    0    0  502    0  0.00000000000E+00 -0.00000000000E+00 -0.41152945271E+03  0.41152945271E+03  0.00000000000E+00 0. -1.
         25    1    1    2    0    0  0.11736167137E+03  0.34149244553E+03  0.12556232543E+02  0.38232644591E+03  0.12500000000E+03 0.  0.
         21    1    1    2  502  503 -0.99100250576E+02 -0.33044429948E+03 -0.64414930971E+02  0.35094668834E+03  0.00000000000E+00 0. -1.
         21    1    1    2  503  501 -0.18261420792E+02 -0.11048146055E+02 -0.12958050217E+02  0.24969022529E+02  0.00000000000E+00 0. -1.
<mgrwt>
<rscale>  4 0.75546671E+03</rscale>
<asrwt>0</asrwt>
<pdfrwt beam="1">  1        1 0.63312223E-01 0.75546671E+03</pdfrwt>
<pdfrwt beam="2">  1       -1 0.53340416E-01 0.75546671E+03</pdfrwt>
<totfact> 0.20743996E+02</totfact>
</mgrwt>
</event>
<event>
 5    0  0.2785904E-002  0.1177698E+04  0.7546771E-02  0.9132604E-01
          1   -1    0    0  502    0  0.00000000000E+00  0.00000000000E+00  0.45164100117E+03  0.45164100117E+03  0.00000000000E+00 0. -1.
         -1   -1    0    0    0  501 -0.00000000000E+00 -0.00000000000E+00 -0.83313974400E+03  0.83313974400E+03  0.00000000000E+00 0.  1.
         25    1    1    2    0    0  0.39094150153E+03 -0.26983541506E+03  0.16482150435E+03  0.51810958024E+03  0.12500000000E+03 0.  0.
         21    1    1    2  502  503 -0.36125105912E+03  0.26959156514E+03 -0.57140973654E+03  0.72779875427E+03  0.00000000000E+00 0.  1.
         21    1    1    2  503  501 -0.29690442413E+02  0.24384992064E+00  0.25089489369E+02  0.38872410657E+02  0.00000000000E+00 0.  1.
<mgrwt>
<rscale>  4 0.11776984E+04</rscale>
<asrwt>0</asrwt>
<pdfrwt beam="1">  1        1 0.69483232E-01 0.11776984E+04</pdfrwt>
<pdfrwt beam="2">  1       -1 0.12817534E+00 0.11776984E+04</pdfrwt>
<totfact> 0.26538416E+01</totfact>
</mgrwt>
</event>
<event>
 5    0  0.2754780E-002  0.5322206E+03  0.7546771E-02  0.1005695E+00
          2   -1    0    0  503    0  0.00000000000E+00  0.00000000000E+00  0.11960523314E+04  0.11960523314E+04  0.00000000000E+00 0. -1.
         -2   -1    0    0    0  501 -0.00000000000E+00 -0.00000000000E+00 -0.13384944285E+03  0.13384944285E+03  0.00000000000E+00 0.  1.
         25    1    1    2    0    0 -0.14105409218E+03  0.16701676632E+03  0.40238558671E+03  0.47468939060E+03  0.12500000000E+03 0.  0.
         21    1    1    2  502  501  0.22663790746E+02 -0.19515246874E+02  0.66532296774E+03  0.66599485259E+03  0.00000000000E+00 0. -1.
         21    1    1    2  503  502  0.11839030143E+03 -0.14750151944E+03 -0.55056658931E+01  0.18921753108E+03  0.00000000000E+00 0.  1.
<mgrwt>
<rscale>  4 0.53222056E+03</rscale>
<asrwt>0</asrwt>
<pdfrwt beam="1">  1        2 0.18400804E+00 0.53222056E+03</pdfrwt>
<pdfrwt beam="2">  1       -2 0.20592223E-01 0.53222056E+03</pdfrwt>
<totfact> 0.39437454E+02</totfact>
</mgrwt>
</event>
<event>
 5    0  0.2754780E-002  0.5377321E+03  0.7546771E-02  0.1004374E+00
          1   -1    0    0  502    0  0.00000000000E+00  0.00000000000E+00  0.11681401526E+04  0.11681401526E+04  0.00000000000E+00 0. -1.
         -1   -1    0    0    0  501 -0.00000000000E+00 -0.00000000000E+00 -0.11514303959E+03  0.11514303959E+03  0.00000000000E+00 0.  1.
         25    1    1    2    0    0  0.11251130239E+03 -0.17012982934E+03  0.45143477870E+02  0.24344585762E+03  0.12500000000E+03 0.  0.
         21    1    1    2  502  503 -0.10784949189E+03  0.13564211263E+03  0.47118385101E+03  0.50204035403E+03  0.00000000000E+00 0. -1.
         21    1    1    2  503  501 -0.46618105055E+01  0.34487716708E+02  0.53666978417E+03  0.53779698058E+03  0.00000000000E+00 0.  1.
<mgrwt>
<rscale>  4 0.53773207E+03</rscale>
<asrwt>0</asrwt>
<pdfrwt beam="1">  1        1 0.17971386E+00 0.53773207E+03</pdfrwt>
<pdfrwt beam="2">  1       -1 0.17714315E-01 0.53773207E+03</pdfrwt>
<totfact> 0.29002190E+02</totfact>
</mgrwt>
</event>
<event>
 5    0  0.2754780E-002  0.7049548E+03  0.7546771E-02  0.9708796E-01
          2   -1    0    0  502    0  0.00000000000E+00  0.00000000000E+00  0.71819434660E+03  0.71819434660E+03  0.00000000000E+00 0. -1.
         -2   -1    0    0    0  501 -0.00000000000E+00 -0.00000000000E+00 -0.24767302273E+03  0.24767302273E+03  0.00000000000E+00 0.  1.
         25    1    1    2    0    0 -0.20352240624E+03  0.10255477870E+03  0.36535419049E+03  0.44838324789E+03  0.12500000000E+03 0.  0.
         21    1    1    2  502  503  0.25009908428E+03 -0.14999858019E+03 -0.94880192285E+02  0.30667796938E+03  0.00000000000E+00 0.  1.
         21    1    1    2  503  501 -0.46576678043E+02  0.47443801490E+02  0.20004732567E+03  0.21080615205E+03  0.00000000000E+00 0.  1.
<mgrwt>
<rscale>  4 0.70495479E+03</rscale>
<asrwt>0</asrwt>
<pdfrwt beam="1">  1        2 0.11049144E+00 0.70495479E+03</pdfrwt>
<pdfrwt beam="2">  1       -2 0.38103542E-01 0.70495479E+03</pdfrwt>
<totfact> 0.26046996E+02</totfact>
</mgrwt>
</event>
<event>
 5    0  0.2754780E-002  0.6368230E+03  0.7546771E-02  0.9831824E-01
          2   -1    0    0  502    0  0.00000000000E+00  0.00000000000E+00  0.89715804265E+03  0.89715804265E+03  0.00000000000E+00 0. -1.
         -2   -1    0    0    0  501 -0.00000000000E+00 -0.00000000000E+00 -0.12598602983E+03  0.12598602983E+03  0.00000000000E+00 0.  1.
         25    1    1    2    0    0  0.80404707199E+02 -0.25662750224E+03  0.53094426734E+03  0.60815245364E+03  0.12500000000E+03 0.  0.
         21    1    1    2  502  503 -0.81051498158E+02  0.27827925697E+03  0.15831060829E+03  0.33025889679E+03  0.00000000000E+00 0.  1.
         21    1    1    2  503  501  0.64679095875E+00 -0.21651754724E+02  0.81917137187E+02  0.84732722051E+02  0.00000000000E+00 0.  1.
<mgrwt>
<rscale>  4 0.63682304E+03</rscale>
<asrwt>0</asrwt>
<pdfrwt beam="1">  1        2 0.13802431E+00 0.63682304E+03</pdfrwt>
<pdfrwt beam="2">  1       -2 0.19382467E-01 0.63682304E+03</pdfrwt>
<totfact> 0.66907516E+02</totfact>
</mgrwt>
</event>
<event>
 5    0  0.2754780E-002  0.4808199E+03  0.7546771E-02  0.1018910E+00
          1   -1    0    0  502    0  0.00000000000E+00  0.00000000000E+00  0.14999727091E+04  0.14999727091E+04  0.00000000000E+00 0.  1.
         -1   -1    0    0    0  501 -0.00000000000E+00 -0.00000000000E+00 -0.46787622521E+02  0.46787622521E+02  0.00000000000E+00 0. -1.
         25    1    1    2    0    0 -0.42355062333E+02  0.20576346181E+03  0.86067445498E+03  0.89471675460E+03  0.12500000000E+03 0.  0.
         21    1    1    2  502  503  0.66448218704E+02 -0.19812472769E+03  0.34577128049E+03  0.40401305908E+03  0.00000000000E+00 0. -1.
         21    1    1    2  503  501 -0.24093156371E+02 -0.76387341206E+01  0.24673935113E+03  0.24803051796E+03  0.00000000000E+00 0. -1.
<mgrwt>
<rscale>  4 0.48081994E+03</rscale>
<asrwt>0</asrwt>
<pdfrwt beam="1">  1        1 0.23076500E+00 0.48081994E+03</pdfrwt>
<pdfrwt beam="2">  1       -1 0.71980969E-02 0.48081994E+03</pdfrwt>
<totfact> 0.71388154E+02</totfact>
</mgrwt>
</event>
<event>
 5    0  0.2754780E-002  0.6659979E+03  0.7546771E-02  0.9777215E-01
          1   -1    0    0  503    0  0.00000000000E+00  0.00000000000E+00  0.19511911727E+04  0.19511911727E+04  0.00000000000E+00 0. -1.
         -1   -1    0    0    0  501 -0.00000000000E+00 -0.00000000000E+00 -0.62834036752E+02  0.62834036752E+02  0.00000000000E+00 0.  1.
         25    1    1    2    0    0 -0.23046865606E+03 -0.17219490616E+03  0.13683078106E+04  0.14038013220E+04  0.12500000000E+03 0.  0.
         21    1    1    2  502  501  0.22093974427E+02  0.57910767251E+01  0.16295787021E+03  0.16455074518E+03  0.00000000000E+00 0. -1.
         21    1    1    2  503  502  0.20837468163E+03  0.16640382944E+03  0.35709145512E+03  0.44567314225E+03  0.00000000000E+00 0.  1.
<mgrwt>
<rscale>  4 0.66599787E+03</rscale>
<asrwt>0</asrwt>
<pdfrwt beam="1">  1        1 0.30018321E+00 0.66599787E+03</pdfrwt>
<pdfrwt beam="2">  1       -1 0.96667764E-02 0.66599787E+03</pdfrwt>
<totfact> 0.22171092E+02</totfact>
</mgrwt>
</event>
<event>
 5    0  0.2754780E-002  0.6850196E+03  0.7546771E-02  0.9743199E-01
         -2   -1    0    0    0  501 -0.00000000000E+00  0.00000000000E+00  0.55862317360E+02  0.55862317360E+02  0.00000000000E+00 0. -1.
          2   -1    0    0  503    0  0.00000000000E+00 -0.00000000000E+00 -0.27424361400E+04  0.27424361400E+04  0.00000000000E+00 0.  1.
         25    1    1    2    0    0  0.15152872471E+03  0.29327310397E+03 -0.10617061814E+04  0.11188454243E+04  0.12500000000E+03 0.  0.
         21    1    1    2  502  501  0.23631215925E+02 -0.11196136286E+02 -0.63191322256E+03  0.63245403682E+03  0.00000000000E+00 0.  1.
         21    1    1    2  503  502 -0.17515994063E+03 -0.28207696768E+03 -0.99295441865E+03  0.10469989962E+04  0.00000000000E+00 0. -1.
<mgrwt>
<rscale>  4 0.68501961E+03</rscale>
<asrwt>0</asrwt>
<pdfrwt beam="1">  1        2 0.42191318E+00 0.68501961E+03</pdfrwt>
<pdfrwt beam="2">  1       -2 0.85942042E-02 0.68501961E+03</pdfrwt>
<totfact> 0.23139401E+02</totfact>
</mgrwt>
</event>
<event>
 5    0  0.2754780E-002  0.4509870E+03  0.7546771E-02  0.1027428E+00
          1   -1    0    0  503    0  0.00000000000E+00  0.00000000000E+00  0.12571871674E+03  0.12571871674E+03  0.00000000000E+00 0.  1.
         -1   -1    0    0    0  501 -0.00000000000E+00 -0.00000000000E+00 -0.97223707123E+03  0.97223707123E+03  0.00000000000E+00 0. -1.
         25    1    1    2    0    0 -0.67713267183E+02 -0.20528980013E+03 -0.41735492714E+03  0.48635287991E+03  0.12500000000E+03 0.  0.
         21    1    1    2  502  501  0.30349374111E+02  0.16032603794E+02  0.69178541325E+02  0.77225639999E+02  0.00000000000E+00 0.  1.
         21    1    1    2  503  502  0.37363893072E+02  0.18925719634E+03 -0.49834196868E+03  0.53437726806E+03  0.00000000000E+00 0.  1.
<mgrwt>
<rscale>  4 0.45098695E+03</rscale>
<asrwt>0</asrwt>
<pdfrwt beam="1">  1        1 0.19341341E-01 0.45098695E+03</pdfrwt>
<pdfrwt beam="2">  1       -1 0.14957494E+00 0.45098695E+03</pdfrwt>
<totfact> 0.10011928E+02</totfact>
</mgrwt>
</event>
<event>
 5    0  0.2754780E-002  0.4611728E+03  0.7546771E-02  0.1024442E+00
          4   -1    0    0  503    0  0.00000000000E+00  0.00000000000E+00  0.83136238515E+02  0.83136238515E+02  0.00000000000E+00 0.  1.
         -4   -1    0    0    0  501 -0.00000000000E+00 -0.00000000000E+00 -0.80488676018E+03  0.80488676018E+03  0.00000000000E+00 0. -1.
         25    1    1    2    0    0  0.80329939407E+02 -0.18736906313E+03 -0.58082905381E+03  0.62813012564E+03  0.12500000000E+03 0.  0.
         21    1    1    2  502  501 -0.41487615584E+01  0.21844814779E+02  0.89432566287E+01  0.23966434743E+02  0.00000000000E+00 0. -1.
         21    1    1    2  503  502 -0.76181177849E+02  0.16552424835E+03 -0.14986472448E+03  0.23592643831E+03  0.00000000000E+00 0. -1.
<mgrwt>
<rscale>  4 0.46117280E+03</rscale>
<asrwt>0</asrwt>
<pdfrwt beam="1">  1        4 0.12790191E-01 0.46117280E+03</pdfrwt>
<pdfrwt beam="2">  1       -4 0.12382873E+00 0.46117280E+03</pdfrwt>
<totfact> 0.49150302E+01</totfact>
</mgrwt>
</event>
<event>
 5    0  0.2754780E-002  0.6007647E+03  0.7546771E-02  0.9903821E-01
         -1   -1    0    0    0  501 -0.00000000000E+00  0.00000000000E+00  0.10631093804E+03  0.10631093804E+03  0.00000000000E+00 0. -1.
          1   -1    0    0  502    0  0.00000000000E+00 -0.00000000000E+00 -0.95828474611E+03  0.95828474611E+03  0.00000000000E+00 0.  1.
         25    1    1    2    0    0 -0.28902796223E+03  0.61579313242E+02 -0.38372014024E+03  0.50019528266E+03  0.12500000000E+03 0.  0.
         21    1    1    2  502  503  0.26901457084E+03 -0.75309566512E+02 -0.37247354291E+03  0.46559307373E+03  0.00000000000E+00 0.  1.
         21    1    1    2  503  501  0.20013391382E+02  0.13730253270E+02 -0.95780124915E+02  0.98807327755E+02  0.00000000000E+00 0. -1.
<mgrwt>
<rscale>  4 0.60076473E+03</rscale>
<asrwt>0</asrwt>
<pdfrwt beam="1">  1        1 0.14742842E+00 0.60076473E+03</pdfrwt>
<pdfrwt beam="2">  1       -1 0.16355529E-01 0.60076473E+03</pdfrwt>
<totfact> 0.47313474E+02</totfact>
</mgrwt>
</event>
<event>
 5    0  0.2754780E-002  0.5588764E+03  0.7546771E-02  0.9994600E-01
          4   -1    0    0  502    0  0.00000000000E+00  0.00000000000E+00  0.59000229285E+03  0.59000229285E+03  0.00000000000E+00 0. -1.
         -4   -1    0    0    0  501 -0.00000000000E+00 -0.00000000000E+00 -0.15996593834E+03  0.15996593834E+03  0.00000000000E+00 0.  1.
         25    1    1    2    0    0 -0.14009385965E+03  0.20410660119E+03  0.77271118055E+02  0.28789168075E+03  0.12500000000E+03 0.  0.
         21    1    1    2  502  503  0.16351031035E+03 -0.19802124347E+03  0.25704429019E+03  0.36334529249E+03  0.00000000000E+00 0.  1.
         21    1    1    2  503  501 -0.23416450703E+02 -0.60853577209E+01  0.95720946263E+02  0.98731257946E+02  0.00000000000E+00 0.  1.
<mgrwt>
<rscale>  4 0.55887638E+03</rscale>
<asrwt>0</asrwt>
<pdfrwt beam="1">  1        4 0.90769582E-01 0.55887638E+03</pdfrwt>
<pdfrwt beam="2">  1       -4 0.24610145E-01 0.55887638E+03</pdfrwt>
<totfact> 0.31982903E+01</totfact>
</mgrwt>
</event>
<event>
 5    0  0.2754780E-002  0.4892966E+03  0.7546771E-02  0.1016611E+00
         -2   -1    0    0    0  501 -0.00000000000E+00  0.00000000000E+00  0.88921459816E+03  0.88921459816E+03  0.00000000000E+00 0. -1.
          2   -1    0    0  502    0  0.00000000000E+00 -0.00000000000E+00 -0.16313854527E+03  0.16313854527E+03  0.00000000000E+00 0.  1.
         25    1    1    2    0    0  0.19219753979E+03  0.58607911033E+02  0.24303699305E+03  0.33921491938E+03  0.12500000000E+03 0.  0.
         21    1    1    2  502  503 -0.42596116117E+01 -0.43762577663E+02  0.51930099224E+03  0.52115911969E+03  0.00000000000E+00 0. -1.
         21    1    1    2  503  501 -0.18793792817E+03 -0.14845333370E+02 -0.36261932403E+02  0.19197910436E+03  0.00000000000E+00 0.  1.
<mgrwt>
<rscale>  4 0.48929660E+03</rscale>
<asrwt>0</asrwt>
<pdfrwt beam="1">  1        2 0.25098238E-01 0.48929660E+03</pdfrwt>
<pdfrwt beam="2">  1       -2 0.13680224E+00 0.48929660E+03</pdfrwt>
<totfact> 0.85104264E+01</totfact>
</mgrwt>
</event>
<event>
 5    0  0.2754780E-002  0.1235535E+04  0.7546771E-02  0.9082309E-01
         -2   -1    0    0    0  501 -0.00000000000E+00  0.00000000000E+00  0.47257687784E+03  0.47257687784E+03  0.00000000000E+00 0. -1.
          2   -1    0    0  502    0  0.00000000000E+00 -0.00000000000E+00 -0.12850849015E+04  0.12850849015E+04  0.00000000000E+00 0.  1.
         25    1    1    2    0    0  0.40363134815E+03 -0.35683325204E+02  0.30723204119E+03  0.52364882511E+03  0.12500000000E+03 0.  0.
         21    1    1    2  502  503 -0.39866160274E+03  0.11444417299E+02 -0.64308983293E+03  0.75672094024E+03  0.00000000000E+00 0.  1.
         21    1    1    2  503  501 -0.49697454062E+01  0.24238907905E+02 -0.47665023192E+03  0.47729201399E+03  0.00000000000E+00 0. -1.
<mgrwt>
<rscale>  4 0.12355348E+04</rscale>
<asrwt>0</asrwt>
<pdfrwt beam="1">  1        2 0.19770536E+00 0.12355348E+04</pdfrwt>
<pdfrwt beam="2">  1       -2 0.72704137E-01 0.12355348E+04</pdfrwt>
<totfact> 0.28270915E+01</totfact>
</mgrwt>
</event>
<event>
 5    0  0.2754780E-002  0.5889468E+03  0.7546771E-02  0.9928607E-01
         -1   -1    0    0    0  501 -0.00000000000E+00  0.00000000000E+00  0.58138240286E+02  0.58138240286E+02  0.00000000000E+00 0.  1.
          1   -1    0    0  502    0  0.00000000000E+00 -0.00000000000E+00 -0.14915238482E+04  0.14915238482E+04  0.00000000000E+00 0. -1.
         25    1    1    2    0    0  0.19507746744E+03 -0.13213856065E+03 -0.11020601264E+04  0.11338771272E+04  0.12500000000E+03 0.  0.
         21    1    1    2  502  503 -0.15224956356E+03  0.13887952761E+03 -0.25346990427E+03  0.32667176977E+03  0.00000000000E+00 0.  1.
         21    1    1    2  503  501 -0.42827903872E+02 -0.67409669567E+01 -0.77855577318E+02  0.89113191532E+02  0.00000000000E+00 0.  1.
<mgrwt>
<rscale>  4 0.58894676E+03</rscale>
<asrwt>0</asrwt>
<pdfrwt beam="1">  1        1 0.22946520E+00 0.58894676E+03</pdfrwt>
<pdfrwt beam="2">  1       -1 0.89443448E-02 0.58894676E+03</pdfrwt>
<totfact> 0.51241777E+02</totfact>
</mgrwt>
</event>
<event>
 5    0  0.2754780E-002  0.7080827E+03  0.7546771E-02  0.9703509E-01
          2   -1    0    0  502    0  0.00000000000E+00  0.00000000000E+00  0.50349229440E+03  0.50349229440E+03  0.00000000000E+00 0.  1.
         -2   -1    0    0    0  501 -0.00000000000E+00 -0.00000000000E+00 -0.24895174403E+03  0.24895174403E+03  0.00000000000E+00 0. -1.
         25    1    1    2    0    0  0.12963223171E+03  0.27506587787E+03 -0.26392415564E+02  0.32982921682E+03  0.12500000000E+03 0.  0.
         21    1    1    2  502  503 -0.93928929375E+02 -0.26033893144E+03  0.23991927235E+03  0.36627893776E+03  0.00000000000E+00 0.  1.
         21    1    1    2  503  501 -0.35703302332E+02 -0.14726946430E+02  0.41013693586E+02  0.56335883858E+02  0.00000000000E+00 0. -1.
<mgrwt>
<rscale>  4 0.70808272E+03</rscale>
<asrwt>0</asrwt>
<pdfrwt beam="1">  1        2 0.77460353E-01 0.70808272E+03</pdfrwt>
<pdfrwt beam="2">  1       -2 0.38300268E-01 0.70808272E+03</pdfrwt>
<totfact> 0.39621380E+02</totfact>
</mgrwt>
</event>
<event>
 5    0  0.2754780E-002  0.7794101E+03  0.7546771E-02  0.9590308E-01
          1   -1    0    0  503    0  0.00000000000E+00  0.00000000000E+00  0.51677328618E+03  0.51677328618E+03  0.00000000000E+00 0. -1.
         -1   -1    0    0    0  501 -0.00000000000E+00 -0.00000000000E+00 -0.32558484496E+03  0.32558484496E+03  0.00000000000E+00 0.  1.
         25    1    1    2    0    0 -0.86670199109E+02  0.30722187676E+03  0.29853197789E+03  0.45458040740E+03  0.12500000000E+03 0.  0.
         21    1    1    2  502  501  0.37558891048E+02  0.45116183175E+01  0.25243507331E+02  0.45478122861E+02  0.00000000000E+00 0. -1.
         21    1    1    2  503  502  0.49111308061E+02 -0.31173349507E+03 -0.13258704400E+03  0.34229960088E+03  0.00000000000E+00 0.  1.
<mgrwt>
<rscale>  4 0.77941005E+03</rscale>
<asrwt>0</asrwt>
<pdfrwt beam="1">  1        1 0.79503582E-01 0.77941005E+03</pdfrwt>
<pdfrwt beam="2">  1       -1 0.50089976E-01 0.77941005E+03</pdfrwt>
<totfact> 0.17154571E+02</totfact>
</mgrwt>
</event>
<event>
 5    0  0.2754780E-002  0.4755239E+03  0.7546771E-02  0.1020373E+00
          1   -1    0    0  503    0  0.00000000000E+00  0.00000000000E+00  0.52448550506E+04  0.52448550506E+04  0.00000000000E+00 0. -1.
         -1   -1    0    0    0  501 -0.00000000000E+00 -0.00000000000E+00 -0.21198893291E+02  0.21198893291E+02  0.00000000000E+00 0.  1.
         25    1    1    2    0    0 -0.15705658909E+03 -0.18785473569E+03  0.12416513630E+04  0.12717229577E+04  0.12500000000E+03 0.  0.
         21    1    1    2  502  501  0.55553257008E+02  0.35205414608E+02  0.25227156950E+04  0.25235728765E+04  0.00000000000E+00 0.  1.
         21    1    1    2  503  502  0.10150333209E+03  0.15264932108E+03  0.14592890993E+04  0.14707581096E+04  0.00000000000E+00 0. -1.
<mgrwt>
<rscale>  4 0.47552395E+03</rscale>
<asrwt>0</asrwt>
<pdfrwt beam="1">  1        1 0.80689974E+00 0.47552395E+03</pdfrwt>
<pdfrwt beam="2">  1       -1 0.32613724E-02 0.47552395E+03</pdfrwt>
<totfact> 0.18104678E+00</totfact>
</mgrwt>
</event>
<event>
 5    0  0.2754780E-002  0.4128289E+03  0.7546771E-02  0.1039426E+00
          1   -1    0    0  502    0  0.00000000000E+00  0.00000000000E+00  0.30527443370E+03  0.30527443370E+03  0.00000000000E+00 0. -1.
         -1   -1    0    0    0  501 -0.00000000000E+00 -0.00000000000E+00 -0.30369352910E+03  0.30369352910E+03  0.00000000000E+00 0.  1.
         25    1    1    2    0    0  0.15382753980E+03 -0.16453957761E+03 -0.86926936367E+02  0.27187768733E+03  0.12500000000E+03 0.  0.
         21    1    1    2  502  503 -0.67074838137E+02  0.13992959688E+03 -0.57495372822E+02  0.16548427083E+03  0.00000000000E+00 0.  1.
         21    1    1    2  503  501 -0.86752701659E+02  0.24609980725E+02  0.14600321378E+03  0.17160600465E+03  0.00000000000E+00 0.  1.
<mgrwt>
<rscale>  4 0.41282887E+03</rscale>
<asrwt>0</asrwt>
<pdfrwt beam="1">  1        1 0.46965298E-01 0.41282887E+03</pdfrwt>
<pdfrwt beam="2">  1       -1 0.46722081E-01 0.41282887E+03</pdfrwt>
<totfact> 0.39893365E+02</totfact>
</mgrwt>
</event>
<event>
 5    0  0.2754780E-002  0.5526972E+03  0.7546771E-02  0.1000872E+00
          2   -1    0    0  502    0  0.00000000000E+00  0.00000000000E+00  0.66880358628E+03  0.66880358628E+03  0.00000000000E+00 0. -1.
         -2   -1    0    0    0  501 -0.00000000000E+00 -0.00000000000E+00 -0.19728444812E+03  0.19728444812E+03  0.00000000000E+00 0.  1.
         25    1    1    2    0    0 -0.72590422842E+02  0.24966320250E+03  0.20006210442E+03  0.35107111786E+03  0.12500000000E+03 0.  0.
         21    1    1    2  502  503  0.27616376128E+02 -0.23366590116E+03 -0.41279543595E+01  0.23532840373E+03  0.00000000000E+00 0.  1.
         21    1    1    2  503  501  0.44974046715E+02 -0.15997301345E+02  0.27558498810E+03  0.27968851280E+03  0.00000000000E+00 0.  1.
<mgrwt>
<rscale>  4 0.55269721E+03</rscale>
<asrwt>0</asrwt>
<pdfrwt beam="1">  1        2 0.10289286E+00 0.55269721E+03</pdfrwt>
<pdfrwt beam="2">  1       -2 0.30351454E-01 0.55269721E+03</pdfrwt>
<totfact> 0.44056288E+02</totfact>
</mgrwt>
</event>
<event>
 5    0  0.2754780E-002  0.5855170E+03  0.7546771E-02  0.9935918E-01
         -2   -1    0    0    0  501 -0.00000000000E+00  0.00000000000E+00  0.14672813107E+03  0.14672813107E+03  0.00000000000E+00 0. -1.
          2   -1    0    0  503    0  0.00000000000E+00 -0.00000000000E+00 -0.67583733196E+03  0.67583733196E+03  0.00000000000E+00 0.  1.
         25    1    1    2    0    0  0.17343839631E+02  0.29004342891E+03 -0.30535918841E+03  0.43965353788E+03  0.12500000000E+03 0.  0.
         21    1    1    2  502  501  0.26422105124E+02 -0.29897167600E+02 -0.61177735067E+02  0.73038917965E+02  0.00000000000E+00 0.  1.
         21    1    1    2  503  502 -0.43765944755E+02 -0.26014626131E+03 -0.16257227742E+03  0.30987300718E+03  0.00000000000E+00 0. -1.
<mgrwt>
<rscale>  4 0.58551702E+03</rscale>
<asrwt>0</asrwt>
<pdfrwt beam="1">  1        2 0.10397498E+00 0.58551702E+03</pdfrwt>
<pdfrwt beam="2">  1       -2 0.22573558E-01 0.58551702E+03</pdfrwt>
<totfact> 0.74231625E+02</totfact>
</mgrwt>
</event>
