<event>
 5    0  0.3372079E-003  0.7920268E+03  0.7546771E-02  0.9571630E-01
         21   -1    0    0  501  502  0.00000000000E+00  0.00000000000E+00  0.17895083064E+03  0.17895083064E+03  0.00000000000E+00 0. -1.
         21   -1    0    0  502  503 -0.00000000000E+00 -0.00000000000E+00 -0.87636706791E+03  0.87636706791E+03  0.00000000000E+00 0. -1.
         25    1    1    2    0    0  0.11186439449E+03 -0.19812265352E+03 -0.42901529936E+02  0.26311930728E+03  0.12500000000E+03 0.  0.
          4    1    1    2  501    0 -0.90901008894E+02  0.17527803968E+03 -0.74003423129E+02  0.21085988534E+03  0.00000000000E+00 0.  1.
         -4    1    1    2    0  503 -0.20963385598E+02  0.22844613847E+02 -0.58051128420E+03  0.58133870593E+03  0.00000000000E+00 0. -1.
<mgrwt>
<rscale>  4 0.79202680E+03</rscale>
<asrwt>0</asrwt>
<pdfrwt beam="1">  1       21 0.27530897E-01 0.79202680E+03</pdfrwt>
<pdfrwt beam="2">  1       21 0.13482570E+00 0.79202680E+03</pdfrwt>
<totfact> 0.39573975E+03</totfact>
</mgrwt>
</event>
<event>
 5    0  0.3372079E-003  0.6449013E+03  0.7546771E-02  0.9816394E-01
         21   -1    0    0  501  502  0.00000000000E+00  0.00000000000E+00  0.36648533805E+03  0.36648533805E+03  0.00000000000E+00 0.  1.
         21   -1    0    0  502  503 -0.00000000000E+00 -0.00000000000E+00 -0.28370693610E+03  0.28370693610E+03  0.00000000000E+00 0.  1.
         25    1    1    2    0    0 -0.17157242626E+03  0.13700590360E+03 -0.41238494239E+02  0.25599478213E+03  0.12500000000E+03 0.  0.
          1    1    1    2  501    0  0.66588036175E+02  0.79604499721E+02  0.11272094451E+03  0.15322158552E+03  0.00000000000E+00 0. -1.
         -1    1    1    2    0  503  0.10498439008E+03 -0.21661040332E+03  0.11295951672E+02  0.24097590649E+03  0.00000000000E+00 0.  1.
<mgrwt>
<rscale>  4 0.64490133E+03</rscale>
<asrwt>0</asrwt>
<pdfrwt beam="1">  1       21 0.56382360E-01 0.64490133E+03</pdfrwt>
<pdfrwt beam="2">  1       21 0.43647221E-01 0.64490133E+03</pdfrwt>
<totfact> 0.12812637E+04</totfact>
</mgrwt>
</event>
<event>
 5    0  0.3372079E-003  0.1020711E+04  0.7546771E-02  0.9286116E-01
         21   -1    0    0  501  502  0.00000000000E+00  0.00000000000E+00  0.15158173523E+04  0.15158173523E+04  0.00000000000E+00 0.  1.
         21   -1    0    0  502  503 -0.00000000000E+00 -0.00000000000E+00 -0.17182997033E+03  0.17182997033E+03  0.00000000000E+00 0.  1.
         25    1    1    2    0    0  0.26115046584E+03 -0.31319303081E+03  0.90360717551E+03  0.99920987185E+03  0.12500000000E+03 0.  0.
          2    1    1    2  501    0 -0.32095911577E+03  0.32733773010E+03  0.42488977676E+03  0.62505685017E+03  0.00000000000E+00 0.  1.
         -2    1    1    2    0  503  0.59808649929E+02 -0.14144699297E+02  0.15490429710E+02  0.63380600638E+02  0.00000000000E+00 0. -1.
<mgrwt>
<rscale>  4 0.10207112E+04</rscale>
<asrwt>0</asrwt>
<pdfrwt beam="1">  1       21 0.23320266E+00 0.10207112E+04</pdfrwt>
<pdfrwt beam="2">  1       21 0.26435381E-01 0.10207112E+04</pdfrwt>
<totfact> 0.78940477E+02</totfact>
</mgrwt>
</event>
<event>
 5    0  0.3372079E-003  0.5163718E+03  0.7546771E-02  0.1009592E+00
         21   -1    0    0  503  502  0.00000000000E+00  0.00000000000E+00  0.17410564241E+03  0.17410564241E+03  0.00000000000E+00 0.  1.
         21   -1    0    0  501  503 -0.00000000000E+00 -0.00000000000E+00 -0.38287080893E+03  0.38287080893E+03  0.00000000000E+00 0.  1.
         25    1    1    2    0    0  0.15977717472E+03  0.13757621362E+03 -0.36189682816E+02  0.24777137296E+03  0.12500000000E+03 0.  0.
          4    1    1    2  501    0 -0.13497631965E+03 -0.13591849058E+03 -0.19670450628E+03  0.27456348216E+03  0.00000000000E+00 0.  1.
         -4    1    1    2    0  502 -0.24800855076E+02 -0.16577230483E+01  0.24129022573E+02  0.34641596218E+02  0.00000000000E+00 0. -1.
<mgrwt>
<rscale>  4 0.51637184E+03</rscale>
<asrwt>0</asrwt>
<pdfrwt beam="1">  1       21 0.26785484E-01 0.51637184E+03</pdfrwt>
<pdfrwt beam="2">  1       21 0.58903200E-01 0.51637184E+03</pdfrwt>
<totfact> 0.32192134E+04</totfact>
</mgrwt>
</event>
<event>
 5    0  0.3372079E-003  0.8877259E+03  0.7546771E-02  0.9441056E-01
         21   -1    0    0  503  502  0.00000000000E+00  0.00000000000E+00  0.11225942669E+03  0.11225942669E+03  0.00000000000E+00 0.  1.
         21   -1    0    0  501  503 -0.00000000000E+00 -0.00000000000E+00 -0.17549912589E+04  0.17549912589E+04  0.00000000000E+00 0.  1.
         25    1    1    2    0    0  0.92353357406E+02 -0.28213681178E+03 -0.12778148336E+04  0.13177883260E+04  0.12500000000E+03 0.  0.
          3    1    1    2  501    0  0.92034646667E+02  0.53993914593E+02 -0.46126437391E+02  0.11624700954E+03  0.00000000000E+00 0. -1.
         -3    1    1    2    0  502 -0.18438800407E+03  0.22814289719E+03 -0.31879056116E+03  0.43321534999E+03  0.00000000000E+00 0.  1.
<mgrwt>
<rscale>  4 0.88772589E+03</rscale>
<asrwt>0</asrwt>
<pdfrwt beam="1">  1       21 0.17270683E-01 0.88772589E+03</pdfrwt>
<pdfrwt beam="2">  1       21 0.26999863E+00 0.88772589E+03</pdfrwt>
<totfact> 0.10865994E+03</totfact>
</mgrwt>
</event>
<event>
 5    0  0.3372079E-003  0.6119034E+03  0.7546771E-02  0.9881013E-01
         21   -1    0    0  503  502  0.00000000000E+00  0.00000000000E+00  0.60300947557E+03  0.60300947557E+03  0.00000000000E+00 0.  1.
         21   -1    0    0  501  503 -0.00000000000E+00 -0.00000000000E+00 -0.15523213918E+03  0.15523213918E+03  0.00000000000E+00 0.  1.
         25    1    1    2    0    0 -0.23826845597E+03 -0.10965701026E+03  0.79853124900E+02  0.30132712883E+03  0.12500000000E+03 0.  0.
          2    1    1    2  501    0  0.11922719474E+03  0.91332383772E+02  0.21476344004E+03  0.26206881438E+03  0.00000000000E+00 0. -1.
         -2    1    1    2    0  502  0.11904126123E+03  0.18324626492E+02  0.15316077144E+03  0.19484567155E+03  0.00000000000E+00 0.  1.
<mgrwt>
<rscale>  4 0.61190343E+03</rscale>
<asrwt>0</asrwt>
<pdfrwt beam="1">  1       21 0.92770687E-01 0.61190343E+03</pdfrwt>
<pdfrwt beam="2">  1       21 0.23881868E-01 0.61190343E+03</pdfrwt>
<totfact> 0.13961414E+04</totfact>
</mgrwt>
</event>
<event>
 5    0  0.3372079E-003  0.6192589E+03  0.7546771E-02  0.9866236E-01
         21   -1    0    0  501  502  0.00000000000E+00  0.00000000000E+00  0.16267098312E+03  0.16267098312E+03  0.00000000000E+00 0. -1.
         21   -1    0    0  502  503 -0.00000000000E+00 -0.00000000000E+00 -0.58935148097E+03  0.58935148097E+03  0.00000000000E+00 0. -1.
         25    1    1    2    0    0  0.79203113770E+02  0.28045657759E+03 -0.21174878582E+03  0.38130246976E+03  0.12500000000E+03 0.  0.
          4    1    1    2  501    0 -0.32859090807E+02 -0.59329504192E+02 -0.89536549898E+02  0.11232321080E+03  0.00000000000E+00 0.  1.
         -4    1    1    2    0  503 -0.46344022964E+02 -0.22112707340E+03 -0.12539516213E+03  0.25839678353E+03  0.00000000000E+00 0. -1.
<mgrwt>
<rscale>  4 0.61925886E+03</rscale>
<asrwt>0</asrwt>
<pdfrwt beam="1">  1       21 0.25026306E-01 0.61925886E+03</pdfrwt>
<pdfrwt beam="2">  1       21 0.90669457E-01 0.61925886E+03</pdfrwt>
<totfact> 0.13440548E+04</totfact>
</mgrwt>
</event>
<event>
 5    0  0.3372079E-003  0.6055717E+03  0.7546771E-02  0.9893913E-01
         21   -1    0    0  501  502  0.00000000000E+00  0.00000000000E+00  0.53607506667E+02  0.53607506667E+02  0.00000000000E+00 0. -1.
         21   -1    0    0  502  503 -0.00000000000E+00 -0.00000000000E+00 -0.17101948093E+04  0.17101948093E+04  0.00000000000E+00 0. -1.
         25    1    1    2    0    0  0.26260484980E+03  0.23912620983E+02 -0.84062189759E+03  0.88983329635E+03  0.12500000000E+03 0.  0.
          1    1    1    2  501    0 -0.52412623359E+02 -0.59836382909E+02 -0.10509456255E+03  0.13180418387E+03  0.00000000000E+00 0.  1.
         -1    1    1    2    0  503 -0.21019222644E+03  0.35923761926E+02 -0.71087084254E+03  0.74216483580E+03  0.00000000000E+00 0. -1.
<mgrwt>
<rscale>  4 0.60557173E+03</rscale>
<asrwt>0</asrwt>
<pdfrwt beam="1">  1       21 0.82473084E-02 0.60557173E+03</pdfrwt>
<pdfrwt beam="2">  1       21 0.26310690E+00 0.60557173E+03</pdfrwt>
<totfact> 0.50499187E+03</totfact>
</mgrwt>
</event>
<event>
 5    0  0.3372079E-003  0.5347410E+03  0.7546771E-02  0.1005089E+00
         21   -1    0    0  501  502  0.00000000000E+00  0.00000000000E+00  0.37964902475E+03  0.37964902475E+03  0.00000000000E+00 0.  1.
         21   -1    0    0  502  503 -0.00000000000E+00 -0.00000000000E+00 -0.18829755669E+03  0.18829755669E+03  0.00000000000E+00 0.  1.
         25    1    1    2    0    0  0.21349736378E+03 -0.14619208296E+02  0.14866010006E+03  0.28899770058E+03  0.12500000000E+03 0.  0.
          3    1    1    2  501    0 -0.20466757880E+02 -0.22953343825E+02  0.73706514687E+02  0.79864851331E+02  0.00000000000E+00 0. -1.
         -3    1    1    2    0  503 -0.19303060590E+03  0.37572552122E+02 -0.31015146677E+02  0.19908402952E+03  0.00000000000E+00 0.  1.
<mgrwt>
<rscale>  4 0.53474100E+03</rscale>
<asrwt>0</asrwt>
<pdfrwt beam="1">  1       21 0.58407542E-01 0.53474100E+03</pdfrwt>
<pdfrwt beam="2">  1       21 0.28968855E-01 0.53474100E+03</pdfrwt>
<totfact> 0.27983232E+04</totfact>
</mgrwt>
</event>
<event>
 5    0  0.3372079E-003  0.5120898E+03  0.7546771E-02  0.1010671E+00
         21   -1    0    0  503  502  0.00000000000E+00  0.00000000000E+00  0.67740056460E+03  0.67740056460E+03  0.00000000000E+00 0.  1.
         21   -1    0    0  501  503 -0.00000000000E+00 -0.00000000000E+00 -0.96780248649E+02  0.96780248649E+02  0.00000000000E+00 0.  1.
         25    1    1    2    0    0  0.18909481297E+03  0.14186944137E+03  0.28730637626E+03  0.39249680321E+03  0.12500000000E+03 0.  0.
          2    1    1    2  501    0 -0.15845864658E+03 -0.14269830634E+03  0.24942423133E+03  0.32815300773E+03  0.00000000000E+00 0.  1.
         -2    1    1    2    0  502 -0.30636166395E+02  0.82886497096E+00  0.43889708358E+02  0.53531002309E+02  0.00000000000E+00 0. -1.
<mgrwt>
<rscale>  4 0.51208982E+03</rscale>
<asrwt>0</asrwt>
<pdfrwt beam="1">  1       21 0.10421547E+00 0.51208982E+03</pdfrwt>
<pdfrwt beam="2">  1       21 0.14889269E-01 0.51208982E+03</pdfrwt>
<totfact> 0.26397128E+04</totfact>
</mgrwt>
</event>
<event>
 5    0  0.3372079E-003  0.6905370E+03  0.7546771E-02  0.9733554E-01
         21   -1    0    0  501  502  0.00000000000E+00  0.00000000000E+00  0.30141094260E+03  0.30141094260E+03  0.00000000000E+00 0. -1.
         21   -1    0    0  502  503 -0.00000000000E+00 -0.00000000000E+00 -0.39550760936E+03  0.39550760936E+03  0.00000000000E+00 0. -1.
         25    1    1    2    0    0  0.14359507068E+03 -0.21955636025E+03 -0.20232985486E+03  0.35410014094E+03  0.12500000000E+03 0.  0.
          3    1    1    2  501    0 -0.13839560506E+03  0.13632759048E+03  0.15381264307E+03  0.24778394741E+03  0.00000000000E+00 0. -1.
         -3    1    1    2    0  503 -0.51994656208E+01  0.83228769769E+02 -0.45579454968E+02  0.95034463618E+02  0.00000000000E+00 0.  1.
<mgrwt>
<rscale>  4 0.69053695E+03</rscale>
<asrwt>0</asrwt>
<pdfrwt beam="1">  1       21 0.46370915E-01 0.69053695E+03</pdfrwt>
<pdfrwt beam="2">  1       21 0.60847324E-01 0.69053695E+03</pdfrwt>
<totfact> 0.94509800E+03</totfact>
</mgrwt>
</event>
<event>
 5    0  0.3372079E-003  0.9058489E+03  0.7546771E-02  0.9418299E-01
         21   -1    0    0  501  502  0.00000000000E+00  0.00000000000E+00  0.90972286612E+03  0.90972286612E+03  0.00000000000E+00 0. -1.
         21   -1    0    0  502  503 -0.00000000000E+00 -0.00000000000E+00 -0.22549786679E+03  0.22549786679E+03  0.00000000000E+00 0. -1.
         25    1    1    2    0    0  0.36909228741E+01  0.44267797062E+03  0.32633652567E+03  0.56400171681E+03  0.12500000000E+03 0.  0.
          4    1    1    2  501    0 -0.12828885282E+02 -0.41149811703E+03  0.34111327497E+03  0.53465273494E+03  0.00000000000E+00 0. -1.
         -4    1    1    2    0  503  0.91379624080E+01 -0.31179853584E+02  0.16775198687E+02  0.36566281155E+02  0.00000000000E+00 0.  1.
<mgrwt>
<rscale>  4 0.90584892E+03</rscale>
<asrwt>0</asrwt>
<pdfrwt beam="1">  1       21 0.13995736E+00 0.90584892E+03</pdfrwt>
<pdfrwt beam="2">  1       21 0.34691980E-01 0.90584892E+03</pdfrwt>
<totfact> 0.21961620E+03</totfact>
</mgrwt>
</event>
<event>
 5    0  0.3372079E-003  0.5822219E+03  0.7546771E-02  0.9942992E-01
         21   -1    0    0  501  502  0.00000000000E+00  0.00000000000E+00  0.17719366127E+03  0.17719366127E+03  0.00000000000E+00 0.  1.
         21   -1    0    0  502  503 -0.00000000000E+00 -0.00000000000E+00 -0.47826535557E+03  0.47826535557E+03  0.00000000000E+00 0.  1.
         25    1    1    2    0    0  0.15784582645E+02 -0.24771872388E+03 -0.27595752826E+03  0.39165198405E+03  0.12500000000E+03 0.  0.
          4    1    1    2  501    0 -0.46783253996E+02  0.10689660625E+03 -0.26281040224E+02  0.11960873863E+03  0.00000000000E+00 0. -1.
         -4    1    1    2    0  503  0.30998671350E+02  0.14082211763E+03  0.11668741811E+01  0.14419829415E+03  0.00000000000E+00 0.  1.
<mgrwt>
<rscale>  4 0.58222191E+03</rscale>
<asrwt>0</asrwt>
<pdfrwt beam="1">  1       21 0.27260563E-01 0.58222191E+03</pdfrwt>
<pdfrwt beam="2">  1       21 0.73579286E-01 0.58222191E+03</pdfrwt>
<totfact> 0.18648274E+04</totfact>
</mgrwt>
</event>
<event>
 5    0  0.3372079E-003  0.4507105E+03  0.7546771E-02  0.1027510E+00
         21   -1    0    0  501  502  0.00000000000E+00  0.00000000000E+00  0.14329580990E+04  0.14329580990E+04  0.00000000000E+00 0. -1.
         21   -1    0    0  502  503 -0.00000000000E+00 -0.00000000000E+00 -0.35440666164E+02  0.35440666164E+02  0.00000000000E+00 0. -1.
         25    1    1    2    0    0 -0.19944568911E+03  0.16045624154E+02  0.75767111877E+03  0.79355312940E+03  0.12500000000E+03 0.  0.
          2    1    1    2  501    0  0.39863920229E+02  0.16337147529E+02  0.22690743020E+03  0.23096107119E+03  0.00000000000E+00 0.  1.
         -2    1    1    2    0  503  0.15958176888E+03 -0.32382771683E+02  0.41293888390E+03  0.44388456461E+03  0.00000000000E+00 0. -1.
<mgrwt>
<rscale>  4 0.45071050E+03</rscale>
<asrwt>0</asrwt>
<pdfrwt beam="1">  1       21 0.22045505E+00 0.45071050E+03</pdfrwt>
<pdfrwt beam="2">  1       21 0.54524113E-02 0.45071050E+03</pdfrwt>
<totfact> 0.20331057E+04</totfact>
</mgrwt>
</event>
<event>
 5    0  0.3372079E-003  0.5809484E+03  0.7546771E-02  0.9945740E-01
         21   -1    0    0  501  502  0.00000000000E+00  0.00000000000E+00  0.37950562614E+03  0.37950562614E+03  0.00000000000E+00 0. -1.
         21   -1    0    0  502  503 -0.00000000000E+00 -0.00000000000E+00 -0.22232941901E+03  0.22232941901E+03  0.00000000000E+00 0. -1.
         25    1    1    2    0    0 -0.22600709698E+03  0.15156727845E+03  0.11823671312E+03  0.32195771168E+03  0.12500000000E+03 0.  0.
          1    1    1    2  501    0  0.21178278951E+03 -0.12530522539E+03  0.42772525766E+02  0.24976556689E+03  0.00000000000E+00 0.  1.
         -1    1    1    2    0  503  0.14224307472E+02 -0.26262053059E+02 -0.38330317453E+01  0.30111766575E+02  0.00000000000E+00 0. -1.
<mgrwt>
<rscale>  4 0.58094842E+03</rscale>
<asrwt>0</asrwt>
<pdfrwt beam="1">  1       21 0.58385481E-01 0.58094842E+03</pdfrwt>
<pdfrwt beam="2">  1       21 0.34204526E-01 0.58094842E+03</pdfrwt>
<totfact> 0.19878359E+04</totfact>
</mgrwt>
</event>
<event>
 5    0  0.3372079E-003  0.4923003E+03  0.7546771E-02  0.1015808E+00
         21   -1    0    0  501  502  0.00000000000E+00  0.00000000000E+00  0.14859622214E+03  0.14859622214E+03  0.00000000000E+00 0. -1.
         21   -1    0    0  502  503 -0.00000000000E+00 -0.00000000000E+00 -0.40774857798E+03  0.40774857798E+03  0.00000000000E+00 0. -1.
         25    1    1    2    0    0  0.16124807853E+03 -0.12571692671E+03 -0.15704309062E+03  0.28651914561E+03  0.12500000000E+03 0.  0.
          1    1    1    2  501    0 -0.55155800406E+02  0.10413627823E+03  0.44393369536E+01  0.11792469832E+03  0.00000000000E+00 0.  1.
         -1    1    1    2    0  503 -0.10609227812E+03  0.21580648484E+02 -0.10654860217E+03  0.15190095619E+03  0.00000000000E+00 0. -1.
<mgrwt>
<rscale>  4 0.49230031E+03</rscale>
<asrwt>0</asrwt>
<pdfrwt beam="1">  1       21 0.22860957E-01 0.49230031E+03</pdfrwt>
<pdfrwt beam="2">  1       21 0.62730550E-01 0.49230031E+03</pdfrwt>
<totfact> 0.38350182E+04</totfact>
</mgrwt>
</event>
<event>
 5    0  0.3372079E-003  0.6549670E+03  0.7546771E-02  0.9797503E-01
         21   -1    0    0  503  502  0.00000000000E+00  0.00000000000E+00  0.25745368645E+03  0.25745368645E+03  0.00000000000E+00 0.  1.
         21   -1    0    0  501  503 -0.00000000000E+00 -0.00000000000E+00 -0.41656208479E+03  0.41656208479E+03  0.00000000000E+00 0.  1.
         25    1    1    2    0    0  0.28150658881E+02  0.26136826899E+03 -0.77214182955E+02  0.30115255549E+03  0.12500000000E+03 0.  0.
          3    1    1    2  501    0  0.11096445655E+03 -0.13133927127E+03 -0.55178384396E+02  0.18057621355E+03  0.00000000000E+00 0.  1.
         -3    1    1    2    0  502 -0.13911511543E+03 -0.13002899773E+03 -0.26715830985E+02  0.19228700220E+03  0.00000000000E+00 0. -1.
<mgrwt>
<rscale>  4 0.65496700E+03</rscale>
<asrwt>0</asrwt>
<pdfrwt beam="1">  1       21 0.39608260E-01 0.65496700E+03</pdfrwt>
<pdfrwt beam="2">  1       21 0.64086473E-01 0.65496700E+03</pdfrwt>
<totfact> 0.11800719E+04</totfact>
</mgrwt>
</event>
<event>
 5    0  0.3372079E-003  0.5217015E+03  0.7546771E-02  0.1008265E+00
         21   -1    0    0  501  502  0.00000000000E+00  0.00000000000E+00  0.84706508823E+03  0.84706508823E+03  0.00000000000E+00 0.  1.
         21   -1    0    0  502  503 -0.00000000000E+00 -0.00000000000E+00 -0.80328089104E+02  0.80328089104E+02  0.00000000000E+00 0.  1.
         25    1    1    2    0    0  0.18945999554E+03  0.14079131895E+03  0.47514673116E+03  0.54507495038E+03  0.12500000000E+03 0.  0.
          4    1    1    2  501    0 -0.69256414081E+02 -0.95449789647E+02  0.15561263888E+03  0.19524960080E+03  0.00000000000E+00 0. -1.
         -4    1    1    2    0  503 -0.12020358146E+03 -0.45341529304E+02  0.13597762909E+03  0.18706862615E+03  0.00000000000E+00 0.  1.
<mgrwt>
<rscale>  4 0.52170152E+03</rscale>
<asrwt>0</asrwt>
<pdfrwt beam="1">  1       21 0.13031770E+00 0.52170152E+03</pdfrwt>
<pdfrwt beam="2">  1       21 0.12358168E-01 0.52170152E+03</pdfrwt>
<totfact> 0.21096934E+04</totfact>
</mgrwt>
</event>
<event>
 5    0  0.3372079E-003  0.5369703E+03  0.7546771E-02  0.1004556E+00
         21   -1    0    0  501  502  0.00000000000E+00  0.00000000000E+00  0.28929291539E+03  0.28929291539E+03  0.00000000000E+00 0. -1.
         21   -1    0    0  502  503 -0.00000000000E+00 -0.00000000000E+00 -0.24917401510E+03  0.24917401510E+03  0.00000000000E+00 0. -1.
         25    1    1    2    0    0 -0.89985318504E+02 -0.21608000942E+03  0.23957452224E+02  0.26643364565E+03  0.12500000000E+03 0.  0.
          2    1    1    2  501    0  0.79987640628E+02  0.63830944351E+02  0.52750500726E+02  0.11513048005E+03  0.00000000000E+00 0.  1.
         -2    1    1    2    0  503  0.99976778766E+01  0.15224906506E+03 -0.36589052657E+02  0.15690280479E+03  0.00000000000E+00 0. -1.
<mgrwt>
<rscale>  4 0.53697031E+03</rscale>
<asrwt>0</asrwt>
<pdfrwt beam="1">  1       21 0.44506602E-01 0.53697031E+03</pdfrwt>
<pdfrwt beam="2">  1       21 0.38334464E-01 0.53697031E+03</pdfrwt>
<totfact> 0.28439401E+04</totfact>
</mgrwt>
</event>
<event>
 5    0  0.3372079E-003  0.5995309E+03  0.7546771E-02  0.9906380E-01
         21   -1    0    0  501  502  0.00000000000E+00  0.00000000000E+00  0.14182804200E+04  0.14182804200E+04  0.00000000000E+00 0. -1.
         21   -1    0    0  502  503 -0.00000000000E+00 -0.00000000000E+00 -0.63357935126E+02  0.63357935126E+02  0.00000000000E+00 0. -1.
         25    1    1    2    0    0 -0.21914621245E+03 -0.50834977946E+02  0.94307279894E+03  0.97755846961E+03  0.12500000000E+03 0.  0.
          3    1    1    2  501    0  0.20025836109E+03 -0.15158174529E+00  0.40158467935E+03  0.44874679815E+03  0.00000000000E+00 0. -1.
         -3    1    1    2    0  503  0.18887851367E+02  0.50986559692E+02  0.10265006606E+02  0.55333087381E+02  0.00000000000E+00 0.  1.
<mgrwt>
<rscale>  4 0.59953088E+03</rscale>
<asrwt>0</asrwt>
<pdfrwt beam="1">  1       21 0.21819696E+00 0.59953088E+03</pdfrwt>
<pdfrwt beam="2">  1       21 0.97473757E-02 0.59953088E+03</pdfrwt>
<totfact> 0.71880366E+03</totfact>
</mgrwt>
</event>
<event>
 5    0  0.3372079E-003  0.8319989E+03  0.7546771E-02  0.9514821E-01
         21   -1    0    0  503  502  0.00000000000E+00  0.00000000000E+00  0.55081748725E+03  0.55081748725E+03  0.00000000000E+00 0.  1.
         21   -1    0    0  501  503 -0.00000000000E+00 -0.00000000000E+00 -0.31417945670E+03  0.31417945670E+03  0.00000000000E+00 0.  1.
         25    1    1    2    0    0 -0.21346389482E+03 -0.85711404488E+02  0.44570315241E+03  0.51690383952E+03  0.12500000000E+03 0.  0.
          1    1    1    2  501    0  0.74077735747E+02  0.11002469888E+03 -0.13132312416E+03  0.18665130119E+03  0.00000000000E+00 0.  1.
         -1    1    1    2    0  502  0.13938615907E+03 -0.24313294387E+02 -0.77741997699E+02  0.16144180323E+03  0.00000000000E+00 0. -1.
<mgrwt>
<rscale>  4 0.83199889E+03</rscale>
<asrwt>0</asrwt>
<pdfrwt beam="1">  1       21 0.84741152E-01 0.83199889E+03</pdfrwt>
<pdfrwt beam="2">  1       21 0.48335301E-01 0.83199889E+03</pdfrwt>
<totfact> 0.39473359E+03</totfact>
</mgrwt>
</event>
<event>
 5    0  0.3372079E-003  0.6140009E+03  0.7546771E-02  0.9876777E-01
         21   -1    0    0  501  502  0.00000000000E+00  0.00000000000E+00  0.55349796274E+02  0.55349796274E+02  0.00000000000E+00 0.  1.
         21   -1    0    0  502  503 -0.00000000000E+00 -0.00000000000E+00 -0.17027933937E+04  0.17027933937E+04  0.00000000000E+00 0.  1.
         25    1    1    2    0    0  0.25359512694E+03 -0.12126786924E+02 -0.46969300029E+03  0.54835578039E+03  0.12500000000E+03 0.  0.
          3    1    1    2  501    0 -0.22989024459E+03  0.22240710770E+01 -0.83487613663E+03  0.86595186619E+03  0.00000000000E+00 0.  1.
         -3    1    1    2    0  503 -0.23704882347E+02  0.99027158469E+01 -0.34287446049E+03  0.34383554337E+03  0.00000000000E+00 0. -1.
<mgrwt>
<rscale>  4 0.61400087E+03</rscale>
<asrwt>0</asrwt>
<pdfrwt beam="1">  1       21 0.85153526E-02 0.61400087E+03</pdfrwt>
<pdfrwt beam="2">  1       21 0.26196823E+00 0.61400087E+03</pdfrwt>
<totfact> 0.48343923E+03</totfact>
</mgrwt>
</event>
<event>
 5    0  0.3372079E-003  0.5932441E+03  0.7546771E-02  0.9919522E-01
         21   -1    0    0  503  502  0.00000000000E+00  0.00000000000E+00  0.48226893832E+02  0.48226893832E+02  0.00000000000E+00 0.  1.
         21   -1    0    0  501  503 -0.00000000000E+00 -0.00000000000E+00 -0.18243897187E+04  0.18243897187E+04  0.00000000000E+00 0.  1.
         25    1    1    2    0    0 -0.23753934966E+03  0.74033492060E+02 -0.13205038076E+04  0.13495411096E+04  0.12500000000E+03 0.  0.
          2    1    1    2  501    0  0.17781761841E+03 -0.83397023422E+02 -0.34585975825E+03  0.39773501394E+03  0.00000000000E+00 0.  1.
         -2    1    1    2    0  502  0.59721731245E+02  0.93635313622E+01 -0.10979925894E+03  0.12534048894E+03  0.00000000000E+00 0. -1.
<mgrwt>
<rscale>  4 0.59324413E+03</rscale>
<asrwt>0</asrwt>
<pdfrwt beam="1">  1       21 0.74195220E-02 0.59324413E+03</pdfrwt>
<pdfrwt beam="2">  1       21 0.28067535E+00 0.59324413E+03</pdfrwt>
<totfact> 0.47762679E+03</totfact>
</mgrwt>
</event>
<event>
 5    0  0.3372079E-003  0.6563010E+03  0.7546771E-02  0.9795027E-01
         21   -1    0    0  503  502  0.00000000000E+00  0.00000000000E+00  0.16951449495E+04  0.16951449495E+04  0.00000000000E+00 0.  1.
         21   -1    0    0  501  503 -0.00000000000E+00 -0.00000000000E+00 -0.63524219944E+02  0.63524219944E+02  0.00000000000E+00 0.  1.
         25    1    1    2    0    0 -0.24405438200E+03 -0.17179885051E+03  0.80217268135E+03  0.86497595176E+03  0.12500000000E+03 0.  0.
          3    1    1    2  501    0  0.15652734416E+03  0.16278601108E+03  0.44166134250E+03  0.49604922773E+03  0.00000000000E+00 0.  1.
         -3    1    1    2    0  502  0.87527037842E+02  0.90128394245E+01  0.38778670573E+03  0.39764398998E+03  0.00000000000E+00 0. -1.
<mgrwt>
<rscale>  4 0.65630103E+03</rscale>
<asrwt>0</asrwt>
<pdfrwt beam="1">  1       21 0.26079150E+00 0.65630103E+03</pdfrwt>
<pdfrwt beam="2">  1       21 0.97729582E-02 0.65630103E+03</pdfrwt>
<totfact> 0.37880926E+03</totfact>
</mgrwt>
</event>
<event>
 5    0  0.3372079E-003  0.4707049E+03  0.7546771E-02  0.1021721E+00
         21   -1    0    0  501  502  0.00000000000E+00  0.00000000000E+00  0.10536801299E+04  0.10536801299E+04  0.00000000000E+00 0.  1.
         21   -1    0    0  502  503 -0.00000000000E+00 -0.00000000000E+00 -0.52568873599E+02  0.52568873599E+02  0.00000000000E+00 0.  1.
         25    1    1    2    0    0 -0.20864912730E+03 -0.30908457245E+02  0.58050317999E+03  0.63015770489E+03  0.12500000000E+03 0.  0.
          2    1    1    2  501    0  0.72919485501E+02 -0.23772055526E+02  0.14800246585E+03  0.16669460666E+03  0.00000000000E+00 0. -1.
         -2    1    1    2    0  503  0.13572964180E+03  0.54680512771E+02  0.27260561046E+03  0.30939669195E+03  0.00000000000E+00 0.  1.
<mgrwt>
<rscale>  4 0.47070491E+03</rscale>
<asrwt>0</asrwt>
<pdfrwt beam="1">  1       21 0.16210462E+00 0.47070491E+03</pdfrwt>
<pdfrwt beam="2">  1       21 0.80875198E-02 0.47070491E+03</pdfrwt>
<totfact> 0.25459959E+04</totfact>
</mgrwt>
</event>
<event>
 5    0  0.3372079E-003  0.4733273E+03  0.7546771E-02  0.1020985E+00
         21   -1    0    0  503  502  0.00000000000E+00  0.00000000000E+00  0.31825886147E+02  0.31825886147E+02  0.00000000000E+00 0. -1.
         21   -1    0    0  501  503 -0.00000000000E+00 -0.00000000000E+00 -0.17598784631E+04  0.17598784631E+04  0.00000000000E+00 0. -1.
         25    1    1    2    0    0  0.19782310399E+03  0.76457248550E+02 -0.72255271361E+03  0.76333944958E+03  0.12500000000E+03 0.  0.
          1    1    1    2  501    0 -0.46176111928E+02 -0.13829387946E+02 -0.31328466215E+03  0.31697123659E+03  0.00000000000E+00 0.  1.
         -1    1    1    2    0  502 -0.15164699206E+03 -0.62627860605E+02 -0.69221520122E+03  0.71139366312E+03  0.00000000000E+00 0. -1.
<mgrwt>
<rscale>  4 0.47332734E+03</rscale>
<asrwt>0</asrwt>
<pdfrwt beam="1">  1       21 0.48962900E-02 0.47332734E+03</pdfrwt>
<pdfrwt beam="2">  1       21 0.27075054E+00 0.47332734E+03</pdfrwt>
<totfact> 0.11853900E+04</totfact>
</mgrwt>
</event>
<event>
 5    0  0.3372079E-003  0.5173859E+03  0.7546771E-02  0.1009338E+00
         21   -1    0    0  503  502  0.00000000000E+00  0.00000000000E+00  0.12971994000E+03  0.12971994000E+03  0.00000000000E+00 0. -1.
         21   -1    0    0  501  503 -0.00000000000E+00 -0.00000000000E+00 -0.51589634537E+03  0.51589634537E+03  0.00000000000E+00 0. -1.
         25    1    1    2    0    0 -0.16734839893E+03  0.14509638955E+03 -0.29128831943E+03  0.38669410899E+03  0.12500000000E+03 0.  0.
          3    1    1    2  501    0  0.28754425359E+02 -0.60446800891E+01 -0.49270428951E+02  0.57366630580E+02  0.00000000000E+00 0.  1.
         -3    1    1    2    0  502  0.13859397357E+03 -0.13905170946E+03 -0.45617656979E+02  0.20155554580E+03  0.00000000000E+00 0. -1.
<mgrwt>
<rscale>  4 0.51738590E+03</rscale>
<asrwt>0</asrwt>
<pdfrwt beam="1">  1       21 0.19956914E-01 0.51738590E+03</pdfrwt>
<pdfrwt beam="2">  1       21 0.79368668E-01 0.51738590E+03</pdfrwt>
<totfact> 0.29083754E+04</totfact>
</mgrwt>
</event>
<event>
 5    0  0.3372079E-003  0.7200590E+03  0.7546771E-02  0.9683530E-01
         21   -1    0    0  501  502  0.00000000000E+00  0.00000000000E+00  0.18030667642E+04  0.18030667642E+04  0.00000000000E+00 0. -1.
         21   -1    0    0  502  503 -0.00000000000E+00 -0.00000000000E+00 -0.71889317153E+02  0.71889317153E+02  0.00000000000E+00 0. -1.
         25    1    1    2    0    0  0.86189658296E+02 -0.30141930125E+03  0.69007073915E+03  0.76818284112E+03  0.12500000000E+03 0.  0.
          3    1    1    2  501    0  0.68852706938E+02  0.98606655453E+02  0.33062121707E+03  0.35181579971E+03  0.00000000000E+00 0. -1.
         -3    1    1    2    0  503 -0.15504236523E+03  0.20281264580E+03  0.71048549081E+03  0.75495744050E+03  0.00000000000E+00 0.  1.
<mgrwt>
<rscale>  4 0.72005899E+03</rscale>
<asrwt>0</asrwt>
<pdfrwt beam="1">  1       21 0.27739485E+00 0.72005899E+03</pdfrwt>
<pdfrwt beam="2">  1       21 0.11059896E-01 0.72005899E+03</pdfrwt>
<totfact> 0.23444679E+03</totfact>
</mgrwt>
</event>
<event>
 5    0  0.3372079E-003  0.7401924E+03  0.7546771E-02  0.9650864E-01
         21   -1    0    0  503  502  0.00000000000E+00  0.00000000000E+00  0.32318910102E+03  0.32318910102E+03  0.00000000000E+00 0. -1.
         21   -1    0    0  501  503 -0.00000000000E+00 -0.00000000000E+00 -0.42381130817E+03  0.42381130817E+03  0.00000000000E+00 0. -1.
         25    1    1    2    0    0 -0.17168454329E+03 -0.20783570944E+03 -0.26517225939E+03  0.39826196363E+03  0.12500000000E+03 0.  0.
          4    1    1    2  501    0  0.98196822148E+02  0.31789201721E+02  0.10901982774E+02  0.10378835414E+03  0.00000000000E+00 0.  1.
         -4    1    1    2    0  502  0.73487721146E+02  0.17604650772E+03  0.15364806946E+03  0.24495009143E+03  0.00000000000E+00 0. -1.
<mgrwt>
<rscale>  4 0.74019240E+03</rscale>
<asrwt>0</asrwt>
<pdfrwt beam="1">  1       21 0.49721400E-01 0.74019240E+03</pdfrwt>
<pdfrwt beam="2">  1       21 0.65201740E-01 0.74019240E+03</pdfrwt>
<totfact> 0.69145160E+03</totfact>
</mgrwt>
</event>
<event>
 5    0  0.3372079E-003  0.9185481E+03  0.7546771E-02  0.9402688E-01
         21   -1    0    0  501  502  0.00000000000E+00  0.00000000000E+00  0.23415104300E+03  0.23415104300E+03  0.00000000000E+00 0. -1.
         21   -1    0    0  502  503 -0.00000000000E+00 -0.00000000000E+00 -0.90084003674E+03  0.90084003674E+03  0.00000000000E+00 0. -1.
         25    1    1    2    0    0 -0.72232343822E+02  0.36589973412E+03 -0.33727516993E+03  0.51815023610E+03  0.12500000000E+03 0.  0.
          1    1    1    2  501    0  0.33558139155E+02 -0.40068510982E+03 -0.14855898672E+03  0.42865426450E+03  0.00000000000E+00 0.  1.
         -1    1    1    2    0  503  0.38674204667E+02  0.34785375706E+02 -0.18085483709E+03  0.18818657914E+03  0.00000000000E+00 0. -1.
<mgrwt>
<rscale>  4 0.91854806E+03</rscale>
<asrwt>0</asrwt>
<pdfrwt beam="1">  1       21 0.36023237E-01 0.91854806E+03</pdfrwt>
<pdfrwt beam="2">  1       21 0.13859078E+00 0.91854806E+03</pdfrwt>
<totfact> 0.20827890E+03</totfact>
</mgrwt>
</event>
<event>
 5    0  0.3372079E-003  0.5757978E+03  0.7546771E-02  0.9956930E-01
         21   -1    0    0  501  502  0.00000000000E+00  0.00000000000E+00  0.53800544208E+03  0.53800544208E+03  0.00000000000E+00 0.  1.
         21   -1    0    0  502  503 -0.00000000000E+00 -0.00000000000E+00 -0.15406120935E+03  0.15406120935E+03  0.00000000000E+00 0.  1.
         25    1    1    2    0    0 -0.26610008811E+03  0.18423251513E+02  0.16726842606E+03  0.33875123534E+03  0.12500000000E+03 0.  0.
          2    1    1    2  501    0  0.17613665635E+03  0.25119436115E+02  0.12269593751E+03  0.21612357776E+03  0.00000000000E+00 0.  1.
         -2    1    1    2    0  503  0.89963431758E+02 -0.43542687628E+02  0.93979869156E+02  0.13719183834E+03  0.00000000000E+00 0. -1.
<mgrwt>
<rscale>  4 0.57579777E+03</rscale>
<asrwt>0</asrwt>
<pdfrwt beam="1">  1       21 0.82770067E-01 0.57579777E+03</pdfrwt>
<pdfrwt beam="2">  1       21 0.23701725E-01 0.57579777E+03</pdfrwt>
<totfact> 0.18708211E+04</totfact>
</mgrwt>
</event>
<event>
 5    0  0.3372079E-003  0.7000452E+03  0.7546771E-02  0.9717155E-01
         21   -1    0    0  503  502  0.00000000000E+00  0.00000000000E+00  0.10529104910E+03  0.10529104910E+03  0.00000000000E+00 0. -1.
         21   -1    0    0  501  503 -0.00000000000E+00 -0.00000000000E+00 -0.11635920419E+04  0.11635920419E+04  0.00000000000E+00 0. -1.
         25    1    1    2    0    0 -0.30229447991E+03 -0.14647861542E+03 -0.51673038504E+03  0.62886662193E+03  0.12500000000E+03 0.  0.
          4    1    1    2  501    0  0.28016159066E+03  0.12546940076E+03 -0.51502616383E+03  0.59957071046E+03  0.00000000000E+00 0. -1.
         -4    1    1    2    0  502  0.22132889247E+02  0.21009214661E+02 -0.26544443953E+02  0.40445758639E+02  0.00000000000E+00 0.  1.
<mgrwt>
<rscale>  4 0.70004522E+03</rscale>
<asrwt>0</asrwt>
<pdfrwt beam="1">  1       21 0.16198623E-01 0.70004522E+03</pdfrwt>
<pdfrwt beam="2">  1       21 0.17901416E+00 0.70004522E+03</pdfrwt>
<totfact> 0.50786594E+03</totfact>
</mgrwt>
</event>
<event>
 5    0  0.3372079E-003  0.5019238E+03  0.7546771E-02  0.1013278E+00
         21   -1    0    0  503  502  0.00000000000E+00  0.00000000000E+00  0.11753052560E+03  0.11753052560E+03  0.00000000000E+00 0. -1.
         21   -1    0    0  501  503 -0.00000000000E+00 -0.00000000000E+00 -0.53587665135E+03  0.53587665135E+03  0.00000000000E+00 0. -1.
         25    1    1    2    0    0  0.22734464899E+03  0.65301652470E+00 -0.28119300019E+03  0.38259707162E+03  0.12500000000E+03 0.  0.
          2    1    1    2  501    0 -0.21241037324E+03 -0.14795728973E+02 -0.12413014998E+03  0.24646576718E+03  0.00000000000E+00 0. -1.
         -2    1    1    2    0  502 -0.14934275743E+02  0.14142712449E+02 -0.13022975577E+02  0.24344338156E+02  0.00000000000E+00 0.  1.
<mgrwt>
<rscale>  4 0.50192376E+03</rscale>
<asrwt>0</asrwt>
<pdfrwt beam="1">  1       21 0.18081619E-01 0.50192376E+03</pdfrwt>
<pdfrwt beam="2">  1       21 0.82442562E-01 0.50192376E+03</pdfrwt>
<totfact> 0.32220782E+04</totfact>
</mgrwt>
</event>
<event>
 5    0  0.3372079E-003  0.4815741E+03  0.7546771E-02  0.1018703E+00
         21   -1    0    0  501  502  0.00000000000E+00  0.00000000000E+00  0.60306153733E+03  0.60306153733E+03  0.00000000000E+00 0.  1.
         21   -1    0    0  502  503 -0.00000000000E+00 -0.00000000000E+00 -0.96140095083E+02  0.96140095083E+02  0.00000000000E+00 0.  1.
         25    1    1    2    0    0 -0.85672238571E+02 -0.18153017647E+03  0.12779375163E+03  0.26879207649E+03  0.12500000000E+03 0.  0.
          1    1    1    2  501    0  0.65505092395E+02  0.16033092955E+03  0.30547736339E+03  0.35115999722E+03  0.00000000000E+00 0.  1.
         -1    1    1    2    0  503  0.20167146176E+02  0.21199246913E+02  0.73650327226E+02  0.79249558705E+02  0.00000000000E+00 0. -1.
<mgrwt>
<rscale>  4 0.48157406E+03</rscale>
<asrwt>0</asrwt>
<pdfrwt beam="1">  1       21 0.92778696E-01 0.48157406E+03</pdfrwt>
<pdfrwt beam="2">  1       21 0.14790784E-01 0.48157406E+03</pdfrwt>
<totfact> 0.35675261E+04</totfact>
</mgrwt>
</event>
<event>
 5    0  0.3372079E-003  0.4975494E+03  0.7546771E-02  0.1014421E+00
         21   -1    0    0  501  502  0.00000000000E+00  0.00000000000E+00  0.15900961361E+03  0.15900961361E+03  0.00000000000E+00 0.  1.
         21   -1    0    0  502  503 -0.00000000000E+00 -0.00000000000E+00 -0.38921455653E+03  0.38921455653E+03  0.00000000000E+00 0.  1.
         25    1    1    2    0    0  0.17498106640E+03 -0.10979567528E+03 -0.22721421988E+03  0.33154903955E+03  0.12500000000E+03 0.  0.
          3    1    1    2  501    0 -0.20407811189E+02 -0.81522793149E+01  0.28084423193E+01  0.22154587873E+02  0.00000000000E+00 0. -1.
         -3    1    1    2    0  503 -0.15457325521E+03  0.11794795459E+03 -0.57991653604E+01  0.19452054272E+03  0.00000000000E+00 0.  1.
<mgrwt>
<rscale>  4 0.49754942E+03</rscale>
<asrwt>0</asrwt>
<pdfrwt beam="1">  1       21 0.24463018E-01 0.49754942E+03</pdfrwt>
<pdfrwt beam="2">  1       21 0.59879162E-01 0.49754942E+03</pdfrwt>
<totfact> 0.37222387E+04</totfact>
</mgrwt>
</event>
<event>
 5    0  0.3372079E-003  0.5231893E+03  0.7546771E-02  0.1007897E+00
         21   -1    0    0  503  502  0.00000000000E+00  0.00000000000E+00  0.78003293906E+02  0.78003293906E+02  0.00000000000E+00 0.  1.
         21   -1    0    0  501  503 -0.00000000000E+00 -0.00000000000E+00 -0.87729319376E+03  0.87729319376E+03  0.00000000000E+00 0.  1.
         25    1    1    2    0    0  0.20559537081E+03 -0.90745970647E+02 -0.50382267623E+03  0.56565588193E+03  0.12500000000E+03 0.  0.
          2    1    1    2  501    0 -0.20424869057E+03  0.48137101456E+02 -0.26047955351E+03  0.33449111488E+03  0.00000000000E+00 0.  1.
         -2    1    1    2    0  502 -0.13466802393E+01  0.42608869191E+02 -0.34987670112E+02  0.55149490852E+02  0.00000000000E+00 0. -1.
<mgrwt>
<rscale>  4 0.52318929E+03</rscale>
<asrwt>0</asrwt>
<pdfrwt beam="1">  1       21 0.12000506E-01 0.52318929E+03</pdfrwt>
<pdfrwt beam="2">  1       21 0.13496819E+00 0.52318929E+03</pdfrwt>
<totfact> 0.20301438E+04</totfact>
</mgrwt>
</event>
<event>
 5    0  0.3372079E-003  0.5712918E+03  0.7546771E-02  0.9966824E-01
         21   -1    0    0  503  502  0.00000000000E+00  0.00000000000E+00  0.35570420787E+03  0.35570420787E+03  0.00000000000E+00 0.  1.
         21   -1    0    0  501  503 -0.00000000000E+00 -0.00000000000E+00 -0.22938602060E+03  0.22938602060E+03  0.00000000000E+00 0.  1.
         25    1    1    2    0    0  0.26174325219E+03  0.60929375072E+02  0.90387690507E+02  0.30986586357E+03  0.12500000000E+03 0.  0.
          4    1    1    2  501    0 -0.23762375649E+03 -0.48846108950E+02  0.18912856470E+02  0.24332835459E+03  0.00000000000E+00 0.  1.
         -4    1    1    2    0  502 -0.24119495701E+02 -0.12083266123E+02  0.17017640290E+02  0.31896010316E+02  0.00000000000E+00 0. -1.
<mgrwt>
<rscale>  4 0.57129177E+03</rscale>
<asrwt>0</asrwt>
<pdfrwt beam="1">  1       21 0.54723724E-01 0.57129177E+03</pdfrwt>
<pdfrwt beam="2">  1       21 0.35290157E-01 0.57129177E+03</pdfrwt>
<totfact> 0.21526906E+04</totfact>
</mgrwt>
</event>
<event>
 5    0  0.3372079E-003  0.5348053E+03  0.7546771E-02  0.1005073E+00
         21   -1    0    0  501  502  0.00000000000E+00  0.00000000000E+00  0.12136812399E+03  0.12136812399E+03  0.00000000000E+00 0. -1.
         21   -1    0    0  502  503 -0.00000000000E+00 -0.00000000000E+00 -0.58915121273E+03  0.58915121273E+03  0.00000000000E+00 0. -1.
         25    1    1    2    0    0 -0.99226543849E+02 -0.18652302675E+03 -0.83458308977E+02  0.25928176922E+03  0.12500000000E+03 0.  0.
          2    1    1    2  501    0  0.11905770711E+03  0.12870246131E+03 -0.28478847830E+03  0.33443016991E+03  0.00000000000E+00 0.  1.
         -2    1    1    2    0  503 -0.19831163264E+02  0.57820565440E+02 -0.99536301460E+02  0.11680739759E+03  0.00000000000E+00 0. -1.
<mgrwt>
<rscale>  4 0.53480530E+03</rscale>
<asrwt>0</asrwt>
<pdfrwt beam="1">  1       21 0.18672020E-01 0.53480530E+03</pdfrwt>
<pdfrwt beam="2">  1       21 0.90638646E-01 0.53480530E+03</pdfrwt>
<totfact> 0.24079942E+04</totfact>
</mgrwt>
</event>
<event>
 5    0  0.3372079E-003  0.5044734E+03  0.7546771E-02  0.1012618E+00
         21   -1    0    0  501  502  0.00000000000E+00  0.00000000000E+00  0.21252642595E+03  0.21252642595E+03  0.00000000000E+00 0. -1.
         21   -1    0    0  502  503 -0.00000000000E+00 -0.00000000000E+00 -0.29936684099E+03  0.29936684099E+03  0.00000000000E+00 0. -1.
         25    1    1    2    0    0  0.16892078668E+03  0.13755443063E+03 -0.98606988722E+00  0.25116015985E+03  0.12500000000E+03 0.  0.
          1    1    1    2  501    0 -0.17533336430E+03 -0.88476167569E+02 -0.73716051037E+02  0.20977101098E+03  0.00000000000E+00 0. -1.
         -1    1    1    2    0  503  0.64125776234E+01 -0.49078263064E+02 -0.12138294117E+02  0.50962096123E+02  0.00000000000E+00 0.  1.
<mgrwt>
<rscale>  4 0.50447345E+03</rscale>
<asrwt>0</asrwt>
<pdfrwt beam="1">  1       21 0.32696373E-01 0.50447345E+03</pdfrwt>
<pdfrwt beam="2">  1       21 0.46056437E-01 0.50447345E+03</pdfrwt>
<totfact> 0.36810810E+04</totfact>
</mgrwt>
</event>
<event>
 5    0  0.3372079E-003  0.6475909E+03  0.7546771E-02  0.9811310E-01
         21   -1    0    0  503  502  0.00000000000E+00  0.00000000000E+00  0.11003896931E+04  0.11003896931E+04  0.00000000000E+00 0. -1.
         21   -1    0    0  501  503 -0.00000000000E+00 -0.00000000000E+00 -0.95278514665E+02  0.95278514665E+02  0.00000000000E+00 0. -1.
         25    1    1    2    0    0  0.20066193536E+03 -0.17303553954E+03  0.34538022217E+03  0.45290066031E+03  0.12500000000E+03 0.  0.
          1    1    1    2  501    0 -0.61391463790E+02  0.11680682303E+03  0.10668241955E+03  0.16968760819E+03  0.00000000000E+00 0. -1.
         -1    1    1    2    0  502 -0.13927047157E+03  0.56228716506E+02  0.55304853668E+03  0.57307993922E+03  0.00000000000E+00 0.  1.
<mgrwt>
<rscale>  4 0.64759091E+03</rscale>
<asrwt>0</asrwt>
<pdfrwt beam="1">  1       21 0.16929071E+00 0.64759091E+03</pdfrwt>
<pdfrwt beam="2">  1       21 0.14658234E-01 0.64759091E+03</pdfrwt>
<totfact> 0.72990940E+03</totfact>
</mgrwt>
</event>
<event>
 5    0  0.3372079E-003  0.6321669E+03  0.7546771E-02  0.9840829E-01
         21   -1    0    0  501  502  0.00000000000E+00  0.00000000000E+00  0.11875968303E+03  0.11875968303E+03  0.00000000000E+00 0. -1.
         21   -1    0    0  502  503 -0.00000000000E+00 -0.00000000000E+00 -0.84126809250E+03  0.84126809250E+03  0.00000000000E+00 0. -1.
         25    1    1    2    0    0  0.24095158843E+03 -0.90401939212E+02 -0.50407167275E+03  0.57960627140E+03  0.12500000000E+03 0.  0.
          3    1    1    2  501    0 -0.33628584976E+02 -0.20619466819E+02  0.21098424032E+02  0.44734635754E+02  0.00000000000E+00 0.  1.
         -3    1    1    2    0  503 -0.20732300345E+03  0.11102140603E+03 -0.23953516076E+03  0.33568686837E+03  0.00000000000E+00 0. -1.
<mgrwt>
<rscale>  4 0.63216685E+03</rscale>
<asrwt>0</asrwt>
<pdfrwt beam="1">  1       21 0.18270720E-01 0.63216685E+03</pdfrwt>
<pdfrwt beam="2">  1       21 0.12942586E+00 0.63216685E+03</pdfrwt>
<totfact> 0.10103053E+04</totfact>
</mgrwt>
</event>
<event>
 5    0  0.3372079E-003  0.1002228E+04  0.7546771E-02  0.9306104E-01
         21   -1    0    0  501  502  0.00000000000E+00  0.00000000000E+00  0.21697942470E+04  0.21697942470E+04  0.00000000000E+00 0. -1.
         21   -1    0    0  502  503 -0.00000000000E+00 -0.00000000000E+00 -0.11573230347E+03  0.11573230347E+03  0.00000000000E+00 0. -1.
         25    1    1    2    0    0 -0.44506921869E+03  0.17762324890E+03  0.79865385213E+03  0.93973911460E+03  0.12500000000E+03 0.  0.
          3    1    1    2  501    0  0.37680098238E+02 -0.21130143002E+02  0.66376280872E+02  0.79196486090E+02  0.00000000000E+00 0.  1.
         -3    1    1    2    0  503  0.40738912045E+03 -0.15649310590E+03  0.11890318105E+04  0.12665909498E+04  0.00000000000E+00 0. -1.
<mgrwt>
<rscale>  4 0.10022281E+04</rscale>
<asrwt>0</asrwt>
<pdfrwt beam="1">  1       21 0.33381447E+00 0.10022281E+04</pdfrwt>
<pdfrwt beam="2">  1       21 0.17804971E-01 0.10022281E+04</pdfrwt>
<totfact> 0.39989400E+02</totfact>
</mgrwt>
</event>
<event>
 5    0  0.3372079E-003  0.5610164E+03  0.7546771E-02  0.9989758E-01
         21   -1    0    0  501  502  0.00000000000E+00  0.00000000000E+00  0.17329527726E+03  0.17329527726E+03  0.00000000000E+00 0.  1.
         21   -1    0    0  502  503 -0.00000000000E+00 -0.00000000000E+00 -0.45405070034E+03  0.45405070034E+03  0.00000000000E+00 0.  1.
         25    1    1    2    0    0  0.14441261840E+03 -0.16938415784E+03 -0.25779644125E+03  0.36280849274E+03  0.12500000000E+03 0.  0.
          2    1    1    2  501    0 -0.53310092491E+02  0.21412829273E+02  0.49917472586E+02  0.76106696738E+02  0.00000000000E+00 0.  1.
         -2    1    1    2    0  503 -0.91102525911E+02  0.14797132856E+03 -0.72876454413E+02  0.18843078812E+03  0.00000000000E+00 0. -1.
<mgrwt>
<rscale>  4 0.56101637E+03</rscale>
<asrwt>0</asrwt>
<pdfrwt beam="1">  1       21 0.26660812E-01 0.56101637E+03</pdfrwt>
<pdfrwt beam="2">  1       21 0.69853954E-01 0.56101637E+03</pdfrwt>
<totfact> 0.22023508E+04</totfact>
</mgrwt>
</event>
<event>
 5    0  0.3372079E-003  0.6394441E+03  0.7546771E-02  0.9826791E-01
         21   -1    0    0  501  502  0.00000000000E+00  0.00000000000E+00  0.51074548550E+03  0.51074548550E+03  0.00000000000E+00 0. -1.
         21   -1    0    0  502  503 -0.00000000000E+00 -0.00000000000E+00 -0.20014313130E+03  0.20014313130E+03  0.00000000000E+00 0. -1.
         25    1    1    2    0    0 -0.17454742511E+03  0.99399174132E+02  0.13395788883E+03  0.27187628696E+03  0.12500000000E+03 0.  0.
          4    1    1    2  501    0  0.12502377599E+03 -0.16941342352E+03  0.24951086621E+03  0.32647744943E+03  0.00000000000E+00 0. -1.
         -4    1    1    2    0  503  0.49523649120E+02  0.70014249389E+02 -0.72866400825E+02  0.11253488041E+03  0.00000000000E+00 0.  1.
<mgrwt>
<rscale>  4 0.63944414E+03</rscale>
<asrwt>0</asrwt>
<pdfrwt beam="1">  1       21 0.78576228E-01 0.63944414E+03</pdfrwt>
<pdfrwt beam="2">  1       21 0.30791251E-01 0.63944414E+03</pdfrwt>
<totfact> 0.12434251E+04</totfact>
</mgrwt>
</event>
<event>
 5    0  0.3372079E-003  0.4829108E+03  0.7546771E-02  0.1018338E+00
         21   -1    0    0  501  502  0.00000000000E+00  0.00000000000E+00  0.37900635244E+02  0.37900635244E+02  0.00000000000E+00 0. -1.
         21   -1    0    0  502  503 -0.00000000000E+00 -0.00000000000E+00 -0.15382513804E+04  0.15382513804E+04  0.00000000000E+00 0. -1.
         25    1    1    2    0    0  0.64643964087E+02  0.19804024761E+03 -0.71453053748E+03  0.75470369733E+03  0.12500000000E+03 0.  0.
          4    1    1    2  501    0 -0.91336312812E+02 -0.11888630471E+03 -0.58592956520E+03  0.60480553144E+03  0.00000000000E+00 0. -1.
         -4    1    1    2    0  503  0.26692348725E+02 -0.79153942892E+02 -0.19989064246E+03  0.21664278686E+03  0.00000000000E+00 0.  1.
<mgrwt>
<rscale>  4 0.48291078E+03</rscale>
<asrwt>0</asrwt>
<pdfrwt beam="1">  1       21 0.58308662E-02 0.48291078E+03</pdfrwt>
<pdfrwt beam="2">  1       21 0.23665409E+00 0.48291078E+03</pdfrwt>
<totfact> 0.14137020E+04</totfact>
</mgrwt>
</event>
<event>
 5    0  0.3372079E-003  0.6746438E+03  0.7546771E-02  0.9761605E-01
         21   -1    0    0  503  502  0.00000000000E+00  0.00000000000E+00  0.16468419330E+03  0.16468419330E+03  0.00000000000E+00 0. -1.
         21   -1    0    0  501  503 -0.00000000000E+00 -0.00000000000E+00 -0.69093487281E+03  0.69093487281E+03  0.00000000000E+00 0. -1.
         25    1    1    2    0    0 -0.24169121980E+03  0.65248405122E+02 -0.66622022592E+02  0.28763778263E+03  0.12500000000E+03 0.  0.
          3    1    1    2  501    0  0.14973905942E+03  0.73787584337E+02 -0.22465840821E+03  0.27988889563E+03  0.00000000000E+00 0.  1.
         -3    1    1    2    0  502  0.91952160382E+02 -0.13903598946E+03 -0.23497024870E+03  0.28809238786E+03  0.00000000000E+00 0. -1.
<mgrwt>
<rscale>  4 0.67464376E+03</rscale>
<asrwt>0</asrwt>
<pdfrwt beam="1">  1       21 0.25336030E-01 0.67464376E+03</pdfrwt>
<pdfrwt beam="2">  1       21 0.10629767E+00 0.67464376E+03</pdfrwt>
<totfact> 0.87995230E+03</totfact>
</mgrwt>
</event>
<event>
 5    0  0.3372079E-003  0.5425417E+03  0.7546771E-02  0.1003235E+00
         21   -1    0    0  501  502  0.00000000000E+00  0.00000000000E+00  0.32879799665E+03  0.32879799665E+03  0.00000000000E+00 0.  1.
         21   -1    0    0  502  503 -0.00000000000E+00 -0.00000000000E+00 -0.22380873496E+03  0.22380873496E+03  0.00000000000E+00 0.  1.
         25    1    1    2    0    0  0.15011324050E+03  0.17161428196E+03 -0.12052993878E+02  0.26029929198E+03  0.12500000000E+03 0.  0.
          1    1    1    2  501    0 -0.48728522127E+02 -0.14782024053E+03  0.10437191049E+03  0.18740007492E+03  0.00000000000E+00 0.  1.
         -1    1    1    2    0  503 -0.10138471837E+03 -0.23794041426E+02  0.12670345077E+02  0.10490736471E+03  0.00000000000E+00 0. -1.
<mgrwt>
<rscale>  4 0.54254166E+03</rscale>
<asrwt>0</asrwt>
<pdfrwt beam="1">  1       21 0.50584308E-01 0.54254166E+03</pdfrwt>
<pdfrwt beam="2">  1       21 0.34432113E-01 0.54254166E+03</pdfrwt>
<totfact> 0.26964006E+04</totfact>
</mgrwt>
</event>
<event>
 5    0  0.3372079E-003  0.8815043E+03  0.7546771E-02  0.9449002E-01
         21   -1    0    0  501  502  0.00000000000E+00  0.00000000000E+00  0.55966844110E+03  0.55966844110E+03  0.00000000000E+00 0. -1.
         21   -1    0    0  502  503 -0.00000000000E+00 -0.00000000000E+00 -0.34710274615E+03  0.34710274615E+03  0.00000000000E+00 0. -1.
         25    1    1    2    0    0  0.10999712100E+03  0.32097629132E+03  0.24438435864E+03  0.43643311168E+03  0.12500000000E+03 0.  0.
          3    1    1    2  501    0  0.23965597502E+02 -0.27440255798E+03  0.83194776855E+02  0.28773683217E+03  0.00000000000E+00 0. -1.
         -3    1    1    2    0  503 -0.13396271850E+03 -0.46573733345E+02 -0.11501344055E+03  0.18260124341E+03  0.00000000000E+00 0.  1.
<mgrwt>
<rscale>  4 0.88150429E+03</rscale>
<asrwt>0</asrwt>
<pdfrwt beam="1">  1       21 0.86102837E-01 0.88150429E+03</pdfrwt>
<pdfrwt beam="2">  1       21 0.53400422E-01 0.88150429E+03</pdfrwt>
<totfact> 0.30377430E+03</totfact>
</mgrwt>
</event>
<event>
 5    0  0.3372079E-003  0.6075319E+03  0.7546771E-02  0.9889902E-01
         21   -1    0    0  501  502  0.00000000000E+00  0.00000000000E+00  0.60118570018E+03  0.60118570018E+03  0.00000000000E+00 0.  1.
         21   -1    0    0  502  503 -0.00000000000E+00 -0.00000000000E+00 -0.15348629258E+03  0.15348629258E+03  0.00000000000E+00 0.  1.
         25    1    1    2    0    0 -0.14856416010E+03 -0.24616572563E+03  0.24540410698E+03  0.39814199711E+03  0.12500000000E+03 0.  0.
          3    1    1    2  501    0  0.15200233535E+03  0.22562163138E+03  0.19387862154E+03  0.33406399145E+03  0.00000000000E+00 0.  1.
         -3    1    1    2    0  503 -0.34381752434E+01  0.20544094252E+02  0.84166790711E+01  0.22466004189E+02  0.00000000000E+00 0. -1.
<mgrwt>
<rscale>  4 0.60753194E+03</rscale>
<asrwt>0</asrwt>
<pdfrwt beam="1">  1       21 0.92490106E-01 0.60753194E+03</pdfrwt>
<pdfrwt beam="2">  1       21 0.23613276E-01 0.60753194E+03</pdfrwt>
<totfact> 0.14389361E+04</totfact>
</mgrwt>
</event>
<event>
 5    0  0.3372079E-003  0.5827769E+03  0.7546771E-02  0.9941797E-01
         21   -1    0    0  501  502  0.00000000000E+00  0.00000000000E+00  0.16141709559E+03  0.16141709559E+03  0.00000000000E+00 0.  1.
         21   -1    0    0  502  503 -0.00000000000E+00 -0.00000000000E+00 -0.52601145830E+03  0.52601145830E+03  0.00000000000E+00 0.  1.
         25    1    1    2    0    0  0.15255394958E+03  0.16337555818E+03 -0.38612105911E+01  0.25613314797E+03  0.12500000000E+03 0.  0.
          1    1    1    2  501    0 -0.23768176608E+02 -0.13774636065E+02 -0.10785871679E+02  0.29512740399E+02  0.00000000000E+00 0. -1.
         -1    1    1    2    0  503 -0.12878577298E+03 -0.14960092211E+03 -0.34994728045E+03  0.40178266552E+03  0.00000000000E+00 0.  1.
<mgrwt>
<rscale>  4 0.58277694E+03</rscale>
<asrwt>0</asrwt>
<pdfrwt beam="1">  1       21 0.24833399E-01 0.58277694E+03</pdfrwt>
<pdfrwt beam="2">  1       21 0.80924842E-01 0.58277694E+03</pdfrwt>
<totfact> 0.17979226E+04</totfact>
</mgrwt>
</event>
<event>
 5    0  0.3372079E-003  0.4790008E+03  0.7546771E-02  0.1019410E+00
         21   -1    0    0  501  502  0.00000000000E+00  0.00000000000E+00  0.76273023542E+02  0.76273023542E+02  0.00000000000E+00 0. -1.
         21   -1    0    0  502  503 -0.00000000000E+00 -0.00000000000E+00 -0.75204103253E+03  0.75204103253E+03  0.00000000000E+00 0. -1.
         25    1    1    2    0    0  0.52250414638E+02  0.19413540203E+03 -0.51155620671E+03  0.56367846577E+03  0.12500000000E+03 0.  0.
          1    1    1    2  501    0 -0.25875276512E+02 -0.56145495592E+02 -0.24485620631E+02  0.66493550270E+02  0.00000000000E+00 0.  1.
         -1    1    1    2    0  503 -0.26375138126E+02 -0.13798990644E+03 -0.13972618165E+03  0.19814204003E+03  0.00000000000E+00 0. -1.
<mgrwt>
<rscale>  4 0.47900081E+03</rscale>
<asrwt>0</asrwt>
<pdfrwt beam="1">  1       21 0.11734312E-01 0.47900081E+03</pdfrwt>
<pdfrwt beam="2">  1       21 0.11569862E+00 0.47900081E+03</pdfrwt>
<totfact> 0.31787200E+04</totfact>
</mgrwt>
</event>
<event>
 5    0  0.3372079E-003  0.6738904E+03  0.7546771E-02  0.9762955E-01
         21   -1    0    0  501  502  0.00000000000E+00  0.00000000000E+00  0.15053303630E+03  0.15053303630E+03  0.00000000000E+00 0.  1.
         21   -1    0    0  502  503 -0.00000000000E+00 -0.00000000000E+00 -0.75420028932E+03  0.75420028932E+03  0.00000000000E+00 0.  1.
         25    1    1    2    0    0  0.48095651776E+02 -0.29813575584E+03 -0.19134390400E+03  0.37872894031E+03  0.12500000000E+03 0.  0.
          3    1    1    2  501    0 -0.46418753350E+02  0.36676884561E+02 -0.41470729290E+02  0.72247601424E+02  0.00000000000E+00 0. -1.
         -3    1    1    2    0  503 -0.16768984267E+01  0.26145887128E+03 -0.37085261974E+03  0.45375678389E+03  0.00000000000E+00 0.  1.
<mgrwt>
<rscale>  4 0.67389038E+03</rscale>
<asrwt>0</asrwt>
<pdfrwt beam="1">  1       21 0.23158929E-01 0.67389038E+03</pdfrwt>
<pdfrwt beam="2">  1       21 0.11603081E+00 0.67389038E+03</pdfrwt>
<totfact> 0.84180423E+03</totfact>
</mgrwt>
</event>
<event>
 5    0  0.3372079E-003  0.5226523E+03  0.7546771E-02  0.1008030E+00
         21   -1    0    0  503  502  0.00000000000E+00  0.00000000000E+00  0.10647188171E+03  0.10647188171E+03  0.00000000000E+00 0. -1.
         21   -1    0    0  501  503 -0.00000000000E+00 -0.00000000000E+00 -0.64140285018E+03  0.64140285018E+03  0.00000000000E+00 0. -1.
         25    1    1    2    0    0  0.14687536171E+03  0.18363813708E+03 -0.30549006403E+03  0.40527091740E+03  0.12500000000E+03 0.  0.
          4    1    1    2  501    0 -0.31226341171E+02 -0.11468639251E+03 -0.12218509579E+03  0.17046187446E+03  0.00000000000E+00 0.  1.
         -4    1    1    2    0  502 -0.11564902053E+03 -0.68951744576E+02 -0.10725580864E+03  0.17214194003E+03  0.00000000000E+00 0. -1.
<mgrwt>
<rscale>  4 0.52265234E+03</rscale>
<asrwt>0</asrwt>
<pdfrwt beam="1">  1       21 0.16380290E-01 0.52265234E+03</pdfrwt>
<pdfrwt beam="2">  1       21 0.98677361E-01 0.52265234E+03</pdfrwt>
<totfact> 0.25193034E+04</totfact>
</mgrwt>
</event>
<event>
 5    0  0.3372079E-003  0.7023596E+03  0.7546771E-02  0.9713205E-01
         21   -1    0    0  503  502  0.00000000000E+00  0.00000000000E+00  0.25405517590E+04  0.25405517590E+04  0.00000000000E+00 0. -1.
         21   -1    0    0  501  503 -0.00000000000E+00 -0.00000000000E+00 -0.48543494238E+02  0.48543494238E+02  0.00000000000E+00 0. -1.
         25    1    1    2    0    0 -0.10799550069E+03 -0.26724086129E+03  0.12626823827E+04  0.13011811964E+04  0.12500000000E+03 0.  0.
          4    1    1    2  501    0  0.13786156356E+03  0.56434847068E+02  0.30566697686E+03  0.34003382687E+03  0.00000000000E+00 0.  1.
         -4    1    1    2    0  502 -0.29866062868E+02  0.21080601422E+03  0.92365890522E+03  0.94788023006E+03  0.00000000000E+00 0. -1.
<mgrwt>
<rscale>  4 0.70235962E+03</rscale>
<asrwt>0</asrwt>
<pdfrwt beam="1">  1       21 0.39085401E+00 0.70235962E+03</pdfrwt>
<pdfrwt beam="2">  1       21 0.74682318E-02 0.70235962E+03</pdfrwt>
<totfact> 0.94113045E+02</totfact>
</mgrwt>
</event>
<event>
 5    0  0.3372079E-003  0.7390723E+03  0.7546771E-02  0.9652652E-01
         21   -1    0    0  501  502  0.00000000000E+00  0.00000000000E+00  0.11062372633E+04  0.11062372633E+04  0.00000000000E+00 0.  1.
         21   -1    0    0  502  503 -0.00000000000E+00 -0.00000000000E+00 -0.12344273343E+03  0.12344273343E+03  0.00000000000E+00 0.  1.
         25    1    1    2    0    0  0.24016364558E+03 -0.22006208247E+03  0.73199280163E+03  0.81089108914E+03  0.12500000000E+03 0.  0.
          3    1    1    2  501    0 -0.19674342770E+03  0.18335916621E+03  0.24094602020E+03  0.36108661679E+03  0.00000000000E+00 0. -1.
         -3    1    1    2    0  503 -0.43420217882E+02  0.36702916262E+02  0.98557080408E+01  0.57702290804E+02  0.00000000000E+00 0.  1.
<mgrwt>
<rscale>  4 0.73907226E+03</rscale>
<asrwt>0</asrwt>
<pdfrwt beam="1">  1       21 0.17019034E+00 0.73907226E+03</pdfrwt>
<pdfrwt beam="2">  1       21 0.18991191E-01 0.73907226E+03</pdfrwt>
<totfact> 0.43179079E+03</totfact>
</mgrwt>
</event>
<event>
 5    0  0.3372079E-003  0.5687725E+03  0.7546771E-02  0.9972399E-01
         21   -1    0    0  503  502  0.00000000000E+00  0.00000000000E+00  0.80453844077E+02  0.80453844077E+02  0.00000000000E+00 0. -1.
         21   -1    0    0  501  503 -0.00000000000E+00 -0.00000000000E+00 -0.10052413999E+04  0.10052413999E+04  0.00000000000E+00 0. -1.
         25    1    1    2    0    0  0.76265756070E+02 -0.21341955342E+03 -0.25586770515E+03  0.36394732293E+03  0.12500000000E+03 0.  0.
          4    1    1    2  501    0 -0.80716264848E+02  0.27933922384E+02 -0.21980299177E+03  0.23581512806E+03  0.00000000000E+00 0.  1.
         -4    1    1    2    0  502  0.44505087774E+01  0.18548563103E+03 -0.44911685889E+03  0.48593279297E+03  0.00000000000E+00 0. -1.
<mgrwt>
<rscale>  4 0.56877248E+03</rscale>
<asrwt>0</asrwt>
<pdfrwt beam="1">  1       21 0.12377515E-01 0.56877248E+03</pdfrwt>
<pdfrwt beam="2">  1       21 0.15465251E+00 0.56877248E+03</pdfrwt>
<totfact> 0.13133359E+04</totfact>
</mgrwt>
</event>
<event>
 5    0  0.3372079E-003  0.5463749E+03  0.7546771E-02  0.1002336E+00
         21   -1    0    0  501  502  0.00000000000E+00  0.00000000000E+00  0.10057219821E+04  0.10057219821E+04  0.00000000000E+00 0.  1.
         21   -1    0    0  502  503 -0.00000000000E+00 -0.00000000000E+00 -0.74206769048E+02  0.74206769048E+02  0.00000000000E+00 0.  1.
         25    1    1    2    0    0  0.14702858209E+03  0.16688587840E+03  0.71761883640E+03  0.76162332863E+03  0.12500000000E+03 0.  0.
          2    1    1    2  501    0 -0.13426980059E+03 -0.10911830240E+03  0.18191585505E+03  0.25105489756E+03  0.00000000000E+00 0. -1.
         -2    1    1    2    0  503 -0.12758781496E+02 -0.57767576000E+02  0.31980521565E+02  0.67250524918E+02  0.00000000000E+00 0.  1.
<mgrwt>
<rscale>  4 0.54637489E+03</rscale>
<asrwt>0</asrwt>
<pdfrwt beam="1">  1       21 0.15472645E+00 0.54637489E+03</pdfrwt>
<pdfrwt beam="2">  1       21 0.11416427E-01 0.54637489E+03</pdfrwt>
<totfact> 0.15289892E+04</totfact>
</mgrwt>
</event>
<event>
 5    0  0.3372079E-003  0.6388072E+03  0.7546771E-02  0.9828011E-01
         21   -1    0    0  501  502  0.00000000000E+00  0.00000000000E+00  0.68055854468E+02  0.68055854468E+02  0.00000000000E+00 0.  1.
         21   -1    0    0  502  503 -0.00000000000E+00 -0.00000000000E+00 -0.14990430025E+04  0.14990430025E+04  0.00000000000E+00 0.  1.
         25    1    1    2    0    0  0.24482290295E+03 -0.93366661524E+02 -0.68475706724E+03  0.74375589304E+03  0.12500000000E+03 0.  0.
          1    1    1    2  501    0 -0.53455078125E+02  0.42158144386E+02 -0.51229351410E+03  0.51679725145E+03  0.00000000000E+00 0. -1.
         -1    1    1    2    0  503 -0.19136782483E+03  0.51208517138E+02 -0.23393656672E+03  0.30654571250E+03  0.00000000000E+00 0.  1.
<mgrwt>
<rscale>  4 0.63880718E+03</rscale>
<asrwt>0</asrwt>
<pdfrwt beam="1">  1       21 0.10470131E-01 0.63880718E+03</pdfrwt>
<pdfrwt beam="2">  1       21 0.23062202E+00 0.63880718E+03</pdfrwt>
<totfact> 0.51959165E+03</totfact>
</mgrwt>
</event>
<event>
 5    0  0.3372079E-003  0.5267160E+03  0.7546771E-02  0.1007032E+00
         21   -1    0    0  501  502  0.00000000000E+00  0.00000000000E+00  0.23557878451E+04  0.23557878451E+04  0.00000000000E+00 0.  1.
         21   -1    0    0  502  503 -0.00000000000E+00 -0.00000000000E+00 -0.29441291904E+02  0.29441291904E+02  0.00000000000E+00 0.  1.
         25    1    1    2    0    0  0.21624850924E+03 -0.25703394305E+01  0.11380189211E+04  0.11651103335E+04  0.12500000000E+03 0.  0.
          1    1    1    2  501    0 -0.69835818026E+02  0.46587506074E+02  0.77300451857E+03  0.77754962731E+03  0.00000000000E+00 0. -1.
         -1    1    1    2    0  503 -0.14641269121E+03 -0.44017166644E+02  0.41532311349E+03  0.44256917618E+03  0.00000000000E+00 0.  1.
<mgrwt>
<rscale>  4 0.52671601E+03</rscale>
<asrwt>0</asrwt>
<pdfrwt beam="1">  1       21 0.36242875E+00 0.52671601E+03</pdfrwt>
<pdfrwt beam="2">  1       21 0.45294314E-02 0.52671601E+03</pdfrwt>
<totfact> 0.36675261E+03</totfact>
</mgrwt>
</event>
<event>
 5    0  0.3372079E-003  0.5701289E+03  0.7546771E-02  0.9969393E-01
         21   -1    0    0  501  502  0.00000000000E+00  0.00000000000E+00  0.28238801491E+04  0.28238801491E+04  0.00000000000E+00 0.  1.
         21   -1    0    0  502  503 -0.00000000000E+00 -0.00000000000E+00 -0.28776624588E+02  0.28776624588E+02  0.00000000000E+00 0.  1.
         25    1    1    2    0    0 -0.85620691049E+02  0.22656052322E+03  0.15381301329E+04  0.15620915079E+04  0.12500000000E+03 0.  0.
          3    1    1    2  501    0  0.10311524257E+03 -0.94189939746E+02  0.87156293677E+03  0.88268139821E+03  0.00000000000E+00 0.  1.
         -3    1    1    2    0  503 -0.17494551520E+02 -0.13237058347E+03  0.38541045486E+03  0.40788386756E+03  0.00000000000E+00 0. -1.
<mgrwt>
<rscale>  4 0.57012889E+03</rscale>
<asrwt>0</asrwt>
<pdfrwt beam="1">  1       21 0.43444288E+00 0.57012889E+03</pdfrwt>
<pdfrwt beam="2">  1       21 0.44271752E-02 0.57012889E+03</pdfrwt>
<totfact> 0.12834994E+03</totfact>
</mgrwt>
</event>
<event>
 5    0  0.3372079E-003  0.5504356E+03  0.7546771E-02  0.1001393E+00
         21   -1    0    0  503  502  0.00000000000E+00  0.00000000000E+00  0.14335423422E+03  0.14335423422E+03  0.00000000000E+00 0.  1.
         21   -1    0    0  501  503 -0.00000000000E+00 -0.00000000000E+00 -0.52837538065E+03  0.52837538065E+03  0.00000000000E+00 0.  1.
         25    1    1    2    0    0  0.23862270963E+03 -0.55965735681E+02 -0.99574818756E+02  0.29259717301E+03  0.12500000000E+03 0.  0.
          1    1    1    2  501    0 -0.26799931250E+02  0.20658856519E+02 -0.50958181695E+02  0.61169935012E+02  0.00000000000E+00 0. -1.
         -1    1    1    2    0  502 -0.21182277838E+03  0.35306879162E+02 -0.23448814597E+03  0.31796250685E+03  0.00000000000E+00 0.  1.
<mgrwt>
<rscale>  4 0.55043564E+03</rscale>
<asrwt>0</asrwt>
<pdfrwt beam="1">  1       21 0.22054498E-01 0.55043564E+03</pdfrwt>
<pdfrwt beam="2">  1       21 0.81288520E-01 0.55043564E+03</pdfrwt>
<totfact> 0.22554788E+04</totfact>
</mgrwt>
</event>
