<event>
 5    0  0.1257040E+001  0.2869884E+03  0.7546771E-02  0.1091932E+00
         21   -1    0    0  502  501  0.00000000000E+00  0.00000000000E+00  0.16575425763E+04  0.16575425763E+04  0.00000000000E+00 0.  1.
         21   -1    0    0  504  502 -0.00000000000E+00 -0.00000000000E+00 -0.73233290724E+02  0.73233290724E+02  0.00000000000E+00 0. -1.
         25    1    1    2    0    0 -0.10084656781E+03  0.24694187463E+03  0.12223987605E+04  0.12573917645E+04  0.12500000000E+03 0.  0.
         21    1    1    2  503  501  0.22937144368E+02 -0.26067060006E+01  0.11532142410E+03  0.11760926138E+03  0.00000000000E+00 0.  1.
         21    1    1    2  504  503  0.77909423445E+02 -0.24433516863E+03  0.24658910101E+03  0.35577484120E+03  0.00000000000E+00 0. -1.
<mgrwt>
<rscale>  4 0.28698842E+03</rscale>
<asrwt>0</asrwt>
<pdfrwt beam="1">  1       21 0.25500652E+00 0.28698842E+03</pdfrwt>
<pdfrwt beam="2">  1       21 0.11266661E-01 0.28698842E+03</pdfrwt>
<totfact> 0.37527638E+03</totfact>
</mgrwt>
</event>
<event>
 5    0  0.1257040E+001  0.2098942E+03  0.7546771E-02  0.1141650E+00
         21   -1    0    0  503  501  0.00000000000E+00  0.00000000000E+00  0.47385807877E+03  0.47385807877E+03  0.00000000000E+00 0.  1.
         21   -1    0    0  504  502 -0.00000000000E+00 -0.00000000000E+00 -0.17723735601E+03  0.17723735601E+03  0.00000000000E+00 0.  1.
         25    1    1    2    0    0  0.78241386662E+02  0.19729029811E+03  0.11590509531E+03  0.27222080640E+03  0.12500000000E+03 0.  0.
         21    1    1    2  503  502  0.47158813331E+02 -0.97351360364E+02 -0.31707137003E+02  0.11272348281E+03  0.00000000000E+00 0.  1.
         21    1    1    2  504  501 -0.12540019999E+03 -0.99938937750E+02  0.21242276445E+03  0.26615114558E+03  0.00000000000E+00 0.  1.
<mgrwt>
<rscale>  4 0.20989424E+03</rscale>
<asrwt>0</asrwt>
<pdfrwt beam="1">  1       21 0.72901242E-01 0.20989424E+03</pdfrwt>
<pdfrwt beam="2">  1       21 0.27267286E-01 0.20989424E+03</pdfrwt>
<totfact> 0.21498623E+04</totfact>
</mgrwt>
</event>
<event>
 5    0  0.1257040E+001  0.2187585E+03  0.7546771E-02  0.1134812E+00
         21   -1    0    0  504  501  0.00000000000E+00  0.00000000000E+00  0.64230332314E+03  0.64230332314E+03  0.00000000000E+00 0.  1.
         21   -1    0    0  503  502 -0.00000000000E+00 -0.00000000000E+00 -0.14770594436E+03  0.14770594436E+03  0.00000000000E+00 0.  1.
         25    1    1    2    0    0 -0.75026020480E+02 -0.18656583201E+03  0.72961081322E+02  0.24775801260E+03  0.12500000000E+03 0.  0.
         21    1    1    2  503  501  0.32988187935E+02  0.15849780743E+02 -0.36407959148E+02  0.51623401497E+02  0.00000000000E+00 0. -1.
         21    1    1    2  504  502  0.42037832544E+02  0.17071605126E+03  0.45804425660E+03  0.49062785340E+03  0.00000000000E+00 0.  1.
<mgrwt>
<rscale>  4 0.21875846E+03</rscale>
<asrwt>0</asrwt>
<pdfrwt beam="1">  1       21 0.98815894E-01 0.21875846E+03</pdfrwt>
<pdfrwt beam="2">  1       21 0.22723992E-01 0.21875846E+03</pdfrwt>
<totfact> 0.15081168E+04</totfact>
</mgrwt>
</event>
<event>
 5    0  0.1257040E+001  0.2630268E+03  0.7546771E-02  0.1105338E+00
         21   -1    0    0  502  501  0.00000000000E+00  0.00000000000E+00  0.58832523558E+02  0.58832523558E+02  0.00000000000E+00 0.  1.
         21   -1    0    0  504  502 -0.00000000000E+00 -0.00000000000E+00 -0.17409116242E+04  0.17409116242E+04  0.00000000000E+00 0.  1.
         25    1    1    2    0    0 -0.21998102101E+03 -0.12664455553E+03 -0.90690800606E+03  0.95001980216E+03  0.12500000000E+03 0.  0.
         21    1    1    2  503  501  0.19032786727E+03  0.11672617842E+03 -0.30225777975E+03  0.37577847624E+03  0.00000000000E+00 0.  1.
         21    1    1    2  504  503  0.29653153739E+02  0.99183771108E+01 -0.47291331483E+03  0.47394586935E+03  0.00000000000E+00 0.  1.
<mgrwt>
<rscale>  4 0.26302684E+03</rscale>
<asrwt>0</asrwt>
<pdfrwt beam="1">  1       21 0.90511583E-02 0.26302684E+03</pdfrwt>
<pdfrwt beam="2">  1       21 0.26783253E+00 0.26302684E+03</pdfrwt>
<totfact> 0.47383674E+03</totfact>
</mgrwt>
</event>
<event>
 5    0  0.1257040E+001  0.2855264E+03  0.7546771E-02  0.1092708E+00
         21   -1    0    0  502  501  0.00000000000E+00  0.00000000000E+00  0.12973377021E+04  0.12973377021E+04  0.00000000000E+00 0. -1.
         21   -1    0    0  504  502 -0.00000000000E+00 -0.00000000000E+00 -0.71517621648E+02  0.71517621648E+02  0.00000000000E+00 0. -1.
         25    1    1    2    0    0  0.24111605908E+03 -0.12860575659E+03  0.70169776243E+03  0.76333553852E+03  0.12500000000E+03 0.  0.
         21    1    1    2  503  501 -0.17977280791E+02  0.20351260990E+02  0.17602410703E+03  0.17810626801E+03  0.00000000000E+00 0. -1.
         21    1    1    2  504  503 -0.22313877829E+03  0.10825449560E+03  0.34809821095E+03  0.42741351718E+03  0.00000000000E+00 0. -1.
<mgrwt>
<rscale>  4 0.28552640E+03</rscale>
<asrwt>0</asrwt>
<pdfrwt beam="1">  1       21 0.19959040E+00 0.28552640E+03</pdfrwt>
<pdfrwt beam="2">  1       21 0.11002712E-01 0.28552640E+03</pdfrwt>
<totfact> 0.86579936E+03</totfact>
</mgrwt>
</event>
<event>
 5    0  0.1257040E+001  0.2725986E+03  0.7546771E-02  0.1099802E+00
         21   -1    0    0  502  501  0.00000000000E+00  0.00000000000E+00  0.44525134853E+03  0.44525134853E+03  0.00000000000E+00 0.  1.
         21   -1    0    0  504  502 -0.00000000000E+00 -0.00000000000E+00 -0.26151788489E+03  0.26151788489E+03  0.00000000000E+00 0.  1.
         25    1    1    2    0    0 -0.13340226195E+03  0.17336806613E+03  0.15579904814E+03  0.29622794137E+03  0.12500000000E+03 0.  0.
         21    1    1    2  503  501  0.96188151188E+02 -0.27065996541E+03  0.74032363605E+02  0.29663069323E+03  0.00000000000E+00 0.  1.
         21    1    1    2  504  503  0.37214110764E+02  0.97291899273E+02 -0.46097948100E+02  0.11391059882E+03  0.00000000000E+00 0.  1.
<mgrwt>
<rscale>  4 0.27259859E+03</rscale>
<asrwt>0</asrwt>
<pdfrwt beam="1">  1       21 0.68500208E-01 0.27259859E+03</pdfrwt>
<pdfrwt beam="2">  1       21 0.40233521E-01 0.27259859E+03</pdfrwt>
<totfact> 0.11040487E+04</totfact>
</mgrwt>
</event>
<event>
 5    0  0.1257040E+001  0.5271806E+03  0.7546771E-02  0.1006918E+00
         21   -1    0    0  502  501  0.00000000000E+00  0.00000000000E+00  0.95779101120E+03  0.95779101120E+03  0.00000000000E+00 0.  1.
         21   -1    0    0  504  502 -0.00000000000E+00 -0.00000000000E+00 -0.13538281734E+04  0.13538281734E+04  0.00000000000E+00 0.  1.
         25    1    1    2    0    0  0.21203031998E+03  0.38758408045E+03  0.37402069037E+03  0.59219486052E+03  0.12500000000E+03 0.  0.
         21    1    1    2  503  501  0.62478614978E+02  0.54238968535E+02  0.41609058103E+03  0.42423674364E+03  0.00000000000E+00 0.  1.
         21    1    1    2  504  503 -0.27450893496E+03 -0.44182304899E+03 -0.11861484336E+04  0.12951875804E+04  0.00000000000E+00 0.  1.
<mgrwt>
<rscale>  4 0.52718062E+03</rscale>
<asrwt>0</asrwt>
<pdfrwt beam="1">  1       21 0.14735246E+00 0.52718062E+03</pdfrwt>
<pdfrwt beam="2">  1       21 0.20828126E+00 0.52718062E+03</pdfrwt>
<totfact> 0.27351878E+01</totfact>
</mgrwt>
</event>
<event>
 5    0  0.1257040E+001  0.2922314E+03  0.7546771E-02  0.1089190E+00
         21   -1    0    0  502  501  0.00000000000E+00  0.00000000000E+00  0.11726513774E+04  0.11726513774E+04  0.00000000000E+00 0.  1.
         21   -1    0    0  504  502 -0.00000000000E+00 -0.00000000000E+00 -0.16464614377E+03  0.16464614377E+03  0.00000000000E+00 0.  1.
         25    1    1    2    0    0 -0.32113401914E+02 -0.19850079593E+03  0.19554250322E+03  0.30707606083E+03  0.12500000000E+03 0.  0.
         21    1    1    2  503  501  0.60137054708E+02  0.32607401671E+03  0.16620642703E+03  0.37089797264E+03  0.00000000000E+00 0.  1.
         21    1    1    2  504  503 -0.28023652794E+02 -0.12757322078E+03  0.64625630342E+03  0.65932348774E+03  0.00000000000E+00 0.  1.
<mgrwt>
<rscale>  4 0.29223141E+03</rscale>
<asrwt>0</asrwt>
<pdfrwt beam="1">  1       21 0.18040790E+00 0.29223141E+03</pdfrwt>
<pdfrwt beam="2">  1       21 0.25330177E-01 0.29223141E+03</pdfrwt>
<totfact> 0.24665241E+03</totfact>
</mgrwt>
</event>
<event>
 5    0  0.1257040E+001  0.5790425E+03  0.7546771E-02  0.9949866E-01
         21   -1    0    0  504  501  0.00000000000E+00  0.00000000000E+00  0.56701753132E+03  0.56701753132E+03  0.00000000000E+00 0.  1.
         21   -1    0    0  503  502 -0.00000000000E+00 -0.00000000000E+00 -0.10053227618E+04  0.10053227618E+04  0.00000000000E+00 0. -1.
         25    1    1    2    0    0 -0.24781076770E+03  0.50909980631E+03 -0.70957211000E+03  0.91635711852E+03  0.12500000000E+03 0.  0.
         21    1    1    2  503  501 -0.25818583085E+02 -0.17607927358E+02 -0.48313213695E+00  0.31254947688E+02  0.00000000000E+00 0.  1.
         21    1    1    2  504  502  0.27362935078E+03 -0.49149187895E+03  0.27175001165E+03  0.62472822693E+03  0.00000000000E+00 0.  1.
<mgrwt>
<rscale>  4 0.57904247E+03</rscale>
<asrwt>0</asrwt>
<pdfrwt beam="1">  1       21 0.87233467E-01 0.57904247E+03</pdfrwt>
<pdfrwt beam="2">  1       21 0.15466504E+00 0.57904247E+03</pdfrwt>
<totfact> 0.24130000E+02</totfact>
</mgrwt>
</event>
<event>
 5    0  0.1257040E+001  0.2499893E+03  0.7546771E-02  0.1113312E+00
         21   -1    0    0  502  501  0.00000000000E+00  0.00000000000E+00  0.65917740734E+03  0.65917740734E+03  0.00000000000E+00 0. -1.
         21   -1    0    0  504  502 -0.00000000000E+00 -0.00000000000E+00 -0.14615830005E+03  0.14615830005E+03  0.00000000000E+00 0. -1.
         25    1    1    2    0    0  0.85291866767E+02  0.18905133776E+03  0.33654720386E+02  0.24448466425E+03  0.12500000000E+03 0.  0.
         21    1    1    2  503  501  0.16422539902E+02  0.29397274071E+02  0.14404696044E+03  0.14793047810E+03  0.00000000000E+00 0. -1.
         21    1    1    2  504  503 -0.10171440667E+03 -0.21844861183E+03  0.33531742646E+03  0.41292056503E+03  0.00000000000E+00 0. -1.
<mgrwt>
<rscale>  4 0.24998932E+03</rscale>
<asrwt>0</asrwt>
<pdfrwt beam="1">  1       21 0.10141191E+00 0.24998932E+03</pdfrwt>
<pdfrwt beam="2">  1       21 0.22485893E-01 0.24998932E+03</pdfrwt>
<totfact> 0.14209604E+04</totfact>
</mgrwt>
</event>
<event>
 5    0  0.1257040E+001  0.2450508E+03  0.7546771E-02  0.1116473E+00
         21   -1    0    0  502  501  0.00000000000E+00  0.00000000000E+00  0.25995299902E+03  0.25995299902E+03  0.00000000000E+00 0. -1.
         21   -1    0    0  504  502 -0.00000000000E+00 -0.00000000000E+00 -0.56732494819E+03  0.56732494819E+03  0.00000000000E+00 0. -1.
         25    1    1    2    0    0 -0.19892738349E+03  0.17201937120E+03  0.69597232164E+02  0.29938527468E+03  0.12500000000E+03 0.  0.
         21    1    1    2  503  501  0.35817313932E+02 -0.49403954870E+02  0.33417926222E+02  0.69572900810E+02  0.00000000000E+00 0.  1.
         21    1    1    2  504  503  0.16311006956E+03 -0.12261541633E+03 -0.41038710755E+03  0.45831977173E+03  0.00000000000E+00 0. -1.
<mgrwt>
<rscale>  4 0.24505081E+03</rscale>
<asrwt>0</asrwt>
<pdfrwt beam="1">  1       21 0.39992769E-01 0.24505081E+03</pdfrwt>
<pdfrwt beam="2">  1       21 0.87280761E-01 0.24505081E+03</pdfrwt>
<totfact> 0.65554250E+03</totfact>
</mgrwt>
</event>
<event>
 5    0  0.1257040E+001  0.3407322E+03  0.7546771E-02  0.1066484E+00
         21   -1    0    0  502  501  0.00000000000E+00  0.00000000000E+00  0.71199403745E+03  0.71199403745E+03  0.00000000000E+00 0.  1.
         21   -1    0    0  504  502 -0.00000000000E+00 -0.00000000000E+00 -0.17327434622E+03  0.17327434622E+03  0.00000000000E+00 0.  1.
         25    1    1    2    0    0 -0.10824399544E+03  0.30670171765E+03  0.19501224136E+03  0.39929623144E+03  0.12500000000E+03 0.  0.
         21    1    1    2  503  501 -0.12909793920E+02 -0.23835229876E+02  0.66465101999E+02  0.71780155656E+02  0.00000000000E+00 0.  1.
         21    1    1    2  504  503  0.12115378936E+03 -0.28286648778E+03  0.27724234787E+03  0.41419199658E+03  0.00000000000E+00 0.  1.
<mgrwt>
<rscale>  4 0.34073224E+03</rscale>
<asrwt>0</asrwt>
<pdfrwt beam="1">  1       21 0.10953754E+00 0.34073224E+03</pdfrwt>
<pdfrwt beam="2">  1       21 0.26657592E-01 0.34073224E+03</pdfrwt>
<totfact> 0.81348462E+03</totfact>
</mgrwt>
</event>
<event>
 5    0  0.1257040E+001  0.3184904E+03  0.7546771E-02  0.1076346E+00
         21   -1    0    0  503  501  0.00000000000E+00  0.00000000000E+00  0.10007495708E+04  0.10007495708E+04  0.00000000000E+00 0.  1.
         21   -1    0    0  504  502 -0.00000000000E+00 -0.00000000000E+00 -0.11594751141E+03  0.11594751141E+03  0.00000000000E+00 0.  1.
         25    1    1    2    0    0  0.11361755900E+03 -0.28091057191E+03  0.42546280897E+03  0.53708779631E+03  0.12500000000E+03 0.  0.
         21    1    1    2  503  502 -0.13512170226E+03  0.25238732008E+03  0.29362548039E+03  0.41008920553E+03  0.00000000000E+00 0.  1.
         21    1    1    2  504  501  0.21504143255E+02  0.28523251833E+02  0.16571377006E+03  0.16952008040E+03  0.00000000000E+00 0. -1.
<mgrwt>
<rscale>  4 0.31849042E+03</rscale>
<asrwt>0</asrwt>
<pdfrwt beam="1">  1       21 0.15396147E+00 0.31849042E+03</pdfrwt>
<pdfrwt beam="2">  1       21 0.17838079E-01 0.31849042E+03</pdfrwt>
<totfact> 0.73598895E+03</totfact>
</mgrwt>
</event>
<event>
 5    0  0.1257040E+001  0.2820229E+03  0.7546771E-02  0.1094589E+00
         21   -1    0    0  502  501  0.00000000000E+00  0.00000000000E+00  0.40976744428E+03  0.40976744428E+03  0.00000000000E+00 0. -1.
         21   -1    0    0  504  502 -0.00000000000E+00 -0.00000000000E+00 -0.48975895813E+03  0.48975895813E+03  0.00000000000E+00 0. -1.
         25    1    1    2    0    0  0.15816933251E+03 -0.19291262237E+03  0.23957087639E+03  0.36776626059E+03  0.12500000000E+03 0.  0.
         21    1    1    2  503  501 -0.49371539451E+02 -0.36706163536E+02  0.52727869804E+02  0.81025425660E+02  0.00000000000E+00 0. -1.
         21    1    1    2  504  503 -0.10879779306E+03  0.22961878591E+03 -0.37229026004E+03  0.45073471615E+03  0.00000000000E+00 0. -1.
<mgrwt>
<rscale>  4 0.28202292E+03</rscale>
<asrwt>0</asrwt>
<pdfrwt beam="1">  1       21 0.63041145E-01 0.28202292E+03</pdfrwt>
<pdfrwt beam="2">  1       21 0.75347532E-01 0.28202292E+03</pdfrwt>
<totfact> 0.34436944E+03</totfact>
</mgrwt>
</event>
<event>
 5    0  0.1257040E+001  0.2238352E+03  0.7546771E-02  0.1131056E+00
         21   -1    0    0  504  501  0.00000000000E+00  0.00000000000E+00  0.41027930654E+03  0.41027930654E+03  0.00000000000E+00 0. -1.
         21   -1    0    0  501  502 -0.00000000000E+00 -0.00000000000E+00 -0.16718307665E+03  0.16718307665E+03  0.00000000000E+00 0. -1.
         25    1    1    2    0    0  0.15783462575E+03 -0.12959697168E+03 -0.17279030669E+01  0.23944755126E+03  0.12500000000E+03 0.  0.
         21    1    1    2  503  502 -0.14344340495E+03  0.11078298318E+03  0.25448927134E+03  0.31243186299E+03  0.00000000000E+00 0. -1.
         21    1    1    2  504  503 -0.14391220800E+02  0.18813988504E+02 -0.96651383843E+01  0.25582968935E+02  0.00000000000E+00 0. -1.
<mgrwt>
<rscale>  4 0.22383519E+03</rscale>
<asrwt>0</asrwt>
<pdfrwt beam="1">  1       21 0.63119893E-01 0.22383519E+03</pdfrwt>
<pdfrwt beam="2">  1       21 0.25720474E-01 0.22383519E+03</pdfrwt>
<totfact> 0.32785415E+04</totfact>
</mgrwt>
</event>
<event>
 5    0  0.1257040E+001  0.3876147E+03  0.7546771E-02  0.1048155E+00
         21   -1    0    0  503  501  0.00000000000E+00  0.00000000000E+00  0.19966297749E+04  0.19966297749E+04  0.00000000000E+00 0.  1.
         21   -1    0    0  504  502 -0.00000000000E+00 -0.00000000000E+00 -0.14509313079E+03  0.14509313079E+03  0.00000000000E+00 0.  1.
         25    1    1    2    0    0  0.15420067473E+03 -0.36131998036E+03  0.39386753158E+03  0.57016366837E+03  0.12500000000E+03 0.  0.
         21    1    1    2  503  502 -0.61325070035E+02  0.12225302906E+02 -0.70724484633E+01  0.62930451875E+02  0.00000000000E+00 0. -1.
         21    1    1    2  504  501 -0.92875604692E+02  0.34909467745E+03  0.14647415610E+04  0.15086287854E+04  0.00000000000E+00 0.  1.
<mgrwt>
<rscale>  4 0.38761470E+03</rscale>
<asrwt>0</asrwt>
<pdfrwt beam="1">  1       21 0.30717379E+00 0.38761470E+03</pdfrwt>
<pdfrwt beam="2">  1       21 0.22322021E-01 0.38761470E+03</pdfrwt>
<totfact> 0.48141944E+02</totfact>
</mgrwt>
</event>
<event>
 5    0  0.1257040E+001  0.2482757E+03  0.7546771E-02  0.1114399E+00
         21   -1    0    0  503  501  0.00000000000E+00  0.00000000000E+00  0.59112136973E+02  0.59112136973E+02  0.00000000000E+00 0. -1.
         21   -1    0    0  504  502 -0.00000000000E+00 -0.00000000000E+00 -0.11951872851E+04  0.11951872851E+04  0.00000000000E+00 0. -1.
         25    1    1    2    0    0  0.19612149316E+03 -0.10465468704E+03 -0.63729815897E+03  0.68643294430E+03  0.12500000000E+03 0.  0.
         21    1    1    2  503  502 -0.20040098745E+03  0.60850989153E+02 -0.47192264026E+03  0.51630841272E+03  0.00000000000E+00 0. -1.
         21    1    1    2  504  501  0.42794942946E+01  0.43803697883E+02 -0.26854348943E+02  0.51558065099E+02  0.00000000000E+00 0. -1.
<mgrwt>
<rscale>  4 0.24827568E+03</rscale>
<asrwt>0</asrwt>
<pdfrwt beam="1">  1       21 0.90941745E-02 0.24827568E+03</pdfrwt>
<pdfrwt beam="2">  1       21 0.18387497E+00 0.24827568E+03</pdfrwt>
<totfact> 0.15815877E+04</totfact>
</mgrwt>
</event>
<event>
 5    0  0.1257040E+001  0.2513899E+03  0.7546771E-02  0.1112430E+00
         21   -1    0    0  502  501  0.00000000000E+00  0.00000000000E+00  0.52262259554E+02  0.52262259554E+02  0.00000000000E+00 0.  1.
         21   -1    0    0  504  502 -0.00000000000E+00 -0.00000000000E+00 -0.14071657784E+04  0.14071657784E+04  0.00000000000E+00 0.  1.
         25    1    1    2    0    0 -0.23101464311E+03  0.10112976431E+02 -0.62125176938E+03  0.67457304911E+03  0.12500000000E+03 0.  0.
         21    1    1    2  503  501  0.20246282208E+02 -0.52741360337E+01  0.60540888855E+00  0.20930718432E+02  0.00000000000E+00 0. -1.
         21    1    1    2  504  503  0.21076836090E+03 -0.48388403975E+01 -0.73425715833E+03  0.76392427039E+03  0.00000000000E+00 0.  1.
<mgrwt>
<rscale>  4 0.25138989E+03</rscale>
<asrwt>0</asrwt>
<pdfrwt beam="1">  1       21 0.80403482E-02 0.25138989E+03</pdfrwt>
<pdfrwt beam="2">  1       21 0.21648703E+00 0.25138989E+03</pdfrwt>
<totfact> 0.12025598E+04</totfact>
</mgrwt>
</event>
<event>
 5    0  0.1257040E+001  0.3338710E+03  0.7546771E-02  0.1069437E+00
         21   -1    0    0  502  501  0.00000000000E+00  0.00000000000E+00  0.70288741724E+02  0.70288741724E+02  0.00000000000E+00 0. -1.
         21   -1    0    0  504  502 -0.00000000000E+00 -0.00000000000E+00 -0.21337182280E+04  0.21337182280E+04  0.00000000000E+00 0. -1.
         25    1    1    2    0    0 -0.81749920962E+02 -0.29795968763E+03 -0.13051059188E+04  0.13469927559E+04  0.12500000000E+03 0.  0.
         21    1    1    2  503  501  0.11626758737E+03  0.28779180327E+03 -0.45039282412E+03  0.54698808938E+03  0.00000000000E+00 0. -1.
         21    1    1    2  504  503 -0.34517666407E+02  0.10167884353E+02 -0.30793074336E+03  0.31002612450E+03  0.00000000000E+00 0. -1.
<mgrwt>
<rscale>  4 0.33387096E+03</rscale>
<asrwt>0</asrwt>
<pdfrwt beam="1">  1       21 0.10813654E-01 0.33387096E+03</pdfrwt>
<pdfrwt beam="2">  1       21 0.32826430E+00 0.33387096E+03</pdfrwt>
<totfact> 0.14347174E+03</totfact>
</mgrwt>
</event>
<event>
 5    0  0.1257040E+001  0.2772729E+03  0.7546771E-02  0.1097188E+00
         21   -1    0    0  504  501  0.00000000000E+00  0.00000000000E+00  0.24881320108E+03  0.24881320108E+03  0.00000000000E+00 0. -1.
         21   -1    0    0  503  502 -0.00000000000E+00 -0.00000000000E+00 -0.74215800849E+03  0.74215800849E+03  0.00000000000E+00 0. -1.
         25    1    1    2    0    0 -0.51455374902E+02 -0.27104894771E+03 -0.51907934534E+03  0.60098548603E+03  0.12500000000E+03 0.  0.
         21    1    1    2  503  501 -0.10207640238E+02  0.35083650810E+02 -0.10647274994E+03  0.11256777938E+03  0.00000000000E+00 0. -1.
         21    1    1    2  504  502  0.61663015140E+02  0.23596529690E+03  0.13220728788E+03  0.27741794416E+03  0.00000000000E+00 0. -1.
<mgrwt>
<rscale>  4 0.27727287E+03</rscale>
<asrwt>0</asrwt>
<pdfrwt beam="1">  1       21 0.38278954E-01 0.27727287E+03</pdfrwt>
<pdfrwt beam="2">  1       21 0.11417816E+00 0.27727287E+03</pdfrwt>
<totfact> 0.36963090E+03</totfact>
</mgrwt>
</event>
<event>
 5    0  0.1257040E+001  0.2792741E+03  0.7546771E-02  0.1096086E+00
         21   -1    0    0  503  501  0.00000000000E+00  0.00000000000E+00  0.18101184941E+04  0.18101184941E+04  0.00000000000E+00 0.  1.
         21   -1    0    0  501  502 -0.00000000000E+00 -0.00000000000E+00 -0.72080355377E+02  0.72080355377E+02  0.00000000000E+00 0.  1.
         25    1    1    2    0    0  0.16283570442E+03 -0.15278225863E+03  0.12801035369E+04  0.13054301783E+04  0.12500000000E+03 0.  0.
         21    1    1    2  503  504 -0.19993809627E+03  0.15930650470E+03  0.22423319415E+03  0.34005048175E+03  0.00000000000E+00 0.  1.
         21    1    1    2  504  502  0.37102391850E+02 -0.65242460614E+01  0.23370140766E+03  0.23671818944E+03  0.00000000000E+00 0.  1.
<mgrwt>
<rscale>  4 0.27927415E+03</rscale>
<asrwt>0</asrwt>
<pdfrwt beam="1">  1       21 0.27847973E+00 0.27927415E+03</pdfrwt>
<pdfrwt beam="2">  1       21 0.11089287E-01 0.27927415E+03</pdfrwt>
<totfact> 0.28188532E+03</totfact>
</mgrwt>
</event>
<event>
 5    0  0.1257040E+001  0.2545384E+03  0.7546771E-02  0.1110470E+00
         21   -1    0    0  504  501  0.00000000000E+00  0.00000000000E+00  0.11238660430E+04  0.11238660430E+04  0.00000000000E+00 0. -1.
         21   -1    0    0  503  502 -0.00000000000E+00 -0.00000000000E+00 -0.91476184570E+02  0.91476184570E+02  0.00000000000E+00 0. -1.
         25    1    1    2    0    0 -0.86775065724E+02  0.24856042533E+03  0.66995593640E+03  0.73060122761E+03  0.12500000000E+03 0.  0.
         21    1    1    2  503  501  0.10243789410E+03 -0.18427314775E+03  0.14100830020E+03  0.25364040659E+03  0.00000000000E+00 0. -1.
         21    1    1    2  504  502 -0.15662828378E+02 -0.64287277587E+02  0.22142562178E+03  0.23110059332E+03  0.00000000000E+00 0. -1.
<mgrwt>
<rscale>  4 0.25453836E+03</rscale>
<asrwt>0</asrwt>
<pdfrwt beam="1">  1       21 0.17290246E+00 0.25453836E+03</pdfrwt>
<pdfrwt beam="2">  1       21 0.14073260E-01 0.25453836E+03</pdfrwt>
<totfact> 0.85772306E+03</totfact>
</mgrwt>
</event>
<event>
 5    0  0.1257040E+001  0.2304637E+03  0.7546771E-02  0.1126314E+00
         21   -1    0    0  502  501  0.00000000000E+00  0.00000000000E+00  0.16723017410E+04  0.16723017410E+04  0.00000000000E+00 0.  1.
         21   -1    0    0  504  502 -0.00000000000E+00 -0.00000000000E+00 -0.59524541488E+02  0.59524541488E+02  0.00000000000E+00 0.  1.
         25    1    1    2    0    0 -0.17005133631E+03 -0.14012450933E+03  0.11853376214E+04  0.12121066834E+04  0.12500000000E+03 0.  0.
         21    1    1    2  503  501  0.14310456124E+03  0.80946238418E+02  0.42382178606E+03  0.45459445146E+03  0.00000000000E+00 0.  1.
         21    1    1    2  504  503  0.26946775067E+02  0.59178270914E+02  0.36177919974E+01  0.65125147630E+02  0.00000000000E+00 0.  1.
<mgrwt>
<rscale>  4 0.23046373E+03</rscale>
<asrwt>0</asrwt>
<pdfrwt beam="1">  1       21 0.25727715E+00 0.23046373E+03</pdfrwt>
<pdfrwt beam="2">  1       21 0.91576231E-02 0.23046373E+03</pdfrwt>
<totfact> 0.55046018E+03</totfact>
</mgrwt>
</event>
<event>
 5    0  0.1257040E+001  0.2480917E+03  0.7546771E-02  0.1114517E+00
         21   -1    0    0  502  501  0.00000000000E+00  0.00000000000E+00  0.36387342665E+03  0.36387342665E+03  0.00000000000E+00 0. -1.
         21   -1    0    0  504  502 -0.00000000000E+00 -0.00000000000E+00 -0.28030876053E+03  0.28030876053E+03  0.00000000000E+00 0.  1.
         25    1    1    2    0    0 -0.16142840979E+03 -0.14875052536E+03 -0.16084909094E+03  0.29947166867E+03  0.12500000000E+03 0.  0.
         21    1    1    2  503  501  0.12456420917E+03  0.15039451783E+03  0.23697063754E+03  0.30706650136E+03  0.00000000000E+00 0. -1.
         21    1    1    2  504  503  0.36864200626E+02 -0.16439924765E+01  0.74431195162E+01  0.37644017150E+02  0.00000000000E+00 0.  1.
<mgrwt>
<rscale>  4 0.24809170E+03</rscale>
<asrwt>0</asrwt>
<pdfrwt beam="1">  1       21 0.55980527E-01 0.24809170E+03</pdfrwt>
<pdfrwt beam="2">  1       21 0.43124425E-01 0.24809170E+03</pdfrwt>
<totfact> 0.15043402E+04</totfact>
</mgrwt>
</event>
<event>
 5    0  0.1257040E+001  0.2806667E+03  0.7546771E-02  0.1095325E+00
         21   -1    0    0  502  501  0.00000000000E+00  0.00000000000E+00  0.13300937620E+04  0.13300937620E+04  0.00000000000E+00 0.  1.
         21   -1    0    0  504  502 -0.00000000000E+00 -0.00000000000E+00 -0.92109360202E+02  0.92109360202E+02  0.00000000000E+00 0.  1.
         25    1    1    2    0    0 -0.18173142720E+03 -0.17048832838E+03  0.10046059917E+04  0.10425693168E+04  0.12500000000E+03 0.  0.
         21    1    1    2  503  501 -0.32175126476E+02  0.21924333976E+02  0.27930649714E+02  0.47916973793E+02  0.00000000000E+00 0.  1.
         21    1    1    2  504  503  0.21390655367E+03  0.14856399441E+03  0.20544776040E+03  0.33171683164E+03  0.00000000000E+00 0.  1.
<mgrwt>
<rscale>  4 0.28066667E+03</rscale>
<asrwt>0</asrwt>
<pdfrwt beam="1">  1       21 0.20462980E+00 0.28066667E+03</pdfrwt>
<pdfrwt beam="2">  1       21 0.14170672E-01 0.28066667E+03</pdfrwt>
<totfact> 0.50929240E+03</totfact>
</mgrwt>
</event>
<event>
 5    0  0.1257040E+001  0.2557923E+03  0.7546771E-02  0.1109698E+00
         21   -1    0    0  502  501  0.00000000000E+00  0.00000000000E+00  0.72552897386E+03  0.72552897386E+03  0.00000000000E+00 0. -1.
         21   -1    0    0  504  502 -0.00000000000E+00 -0.00000000000E+00 -0.87489041806E+02  0.87489041806E+02  0.00000000000E+00 0. -1.
         25    1    1    2    0    0 -0.22256698915E+03  0.16390662614E+02  0.30571807024E+03  0.39861417053E+03  0.12500000000E+03 0.  0.
         21    1    1    2  503  501  0.11791176502E+03 -0.38881064713E+02  0.25080781744E+03  0.27985618237E+03  0.00000000000E+00 0. -1.
         21    1    1    2  504  503  0.10465522413E+03  0.22490402100E+02  0.81514044380E+02  0.13454766277E+03  0.00000000000E+00 0. -1.
<mgrwt>
<rscale>  4 0.25579233E+03</rscale>
<asrwt>0</asrwt>
<pdfrwt beam="1">  1       21 0.11161984E+00 0.25579233E+03</pdfrwt>
<pdfrwt beam="2">  1       21 0.13459853E-01 0.25579233E+03</pdfrwt>
<totfact> 0.29111950E+04</totfact>
</mgrwt>
</event>
<event>
 5    0  0.1257040E+001  0.3196151E+03  0.7546771E-02  0.1075827E+00
         21   -1    0    0  504  501  0.00000000000E+00  0.00000000000E+00  0.56591481854E+03  0.56591481854E+03  0.00000000000E+00 0. -1.
         21   -1    0    0  501  502 -0.00000000000E+00 -0.00000000000E+00 -0.18133141383E+03  0.18133141383E+03  0.00000000000E+00 0. -1.
         25    1    1    2    0    0  0.15177414354E+03 -0.25197898711E+03  0.26323865283E+03  0.41406326683E+03  0.12500000000E+03 0.  0.
         21    1    1    2  503  502 -0.15090018653E+02  0.62208848456E+02  0.67834282906E+02  0.93269177259E+02  0.00000000000E+00 0.  1.
         21    1    1    2  504  503 -0.13668412489E+03  0.18977013865E+03  0.53510468979E+02  0.23991378829E+03  0.00000000000E+00 0. -1.
<mgrwt>
<rscale>  4 0.31961508E+03</rscale>
<asrwt>0</asrwt>
<pdfrwt beam="1">  1       21 0.87063817E-01 0.31961508E+03</pdfrwt>
<pdfrwt beam="2">  1       21 0.27897141E-01 0.31961508E+03</pdfrwt>
<totfact> 0.13019545E+04</totfact>
</mgrwt>
</event>
<event>
 5    0  0.1257040E+001  0.3583649E+03  0.7546771E-02  0.1059233E+00
         21   -1    0    0  502  501  0.00000000000E+00  0.00000000000E+00  0.12730343102E+04  0.12730343102E+04  0.00000000000E+00 0. -1.
         21   -1    0    0  504  502 -0.00000000000E+00 -0.00000000000E+00 -0.24920476898E+03  0.24920476898E+03  0.00000000000E+00 0. -1.
         25    1    1    2    0    0 -0.43064942998E+03 -0.28177203720E+02  0.14061699093E+03  0.47079828429E+03  0.12500000000E+03 0.  0.
         21    1    1    2  503  501  0.31626586323E+03  0.46925059975E+02  0.87912299473E+03  0.93545886994E+03  0.00000000000E+00 0. -1.
         21    1    1    2  504  503  0.11438356676E+03 -0.18747856256E+02  0.40895556123E+01  0.11598192499E+03  0.00000000000E+00 0. -1.
<mgrwt>
<rscale>  4 0.35836490E+03</rscale>
<asrwt>0</asrwt>
<pdfrwt beam="1">  1       21 0.19585143E+00 0.35836490E+03</pdfrwt>
<pdfrwt beam="2">  1       21 0.38339196E-01 0.35836490E+03</pdfrwt>
<totfact> 0.81765002E+02</totfact>
</mgrwt>
</event>
<event>
 5    0  0.1257040E+001  0.2239463E+03  0.7546771E-02  0.1130975E+00
         21   -1    0    0  502  501  0.00000000000E+00  0.00000000000E+00  0.15986307268E+03  0.15986307268E+03  0.00000000000E+00 0.  1.
         21   -1    0    0  504  502 -0.00000000000E+00 -0.00000000000E+00 -0.13704040588E+04  0.13704040588E+04  0.00000000000E+00 0.  1.
         25    1    1    2    0    0 -0.30405056505E+03  0.40689774607E+02 -0.11962833259E+03  0.35219077476E+03  0.12500000000E+03 0.  0.
         21    1    1    2  503  501  0.12909847109E+03 -0.92296159853E+01 -0.81100270323E+02  0.15273786333E+03  0.00000000000E+00 0.  1.
         21    1    1    2  504  503  0.17495209396E+03 -0.31460158622E+02 -0.10098123832E+04  0.10253384934E+04  0.00000000000E+00 0.  1.
<mgrwt>
<rscale>  4 0.22394627E+03</rscale>
<asrwt>0</asrwt>
<pdfrwt beam="1">  1       21 0.24594319E-01 0.22394627E+03</pdfrwt>
<pdfrwt beam="2">  1       21 0.21083140E+00 0.22394627E+03</pdfrwt>
<totfact> 0.17354569E+03</totfact>
</mgrwt>
</event>
<event>
 5    0  0.1257040E+001  0.2350885E+03  0.7546771E-02  0.1123109E+00
         21   -1    0    0  503  501  0.00000000000E+00  0.00000000000E+00  0.21327886844E+03  0.21327886844E+03  0.00000000000E+00 0. -1.
         21   -1    0    0  504  502 -0.00000000000E+00 -0.00000000000E+00 -0.68407406994E+03  0.68407406994E+03  0.00000000000E+00 0. -1.
         25    1    1    2    0    0  0.14516758682E+03 -0.16018373006E+03 -0.11724008919E+02  0.24998981584E+03  0.12500000000E+03 0.  0.
         21    1    1    2  503  502 -0.13719066844E+03  0.14083331713E+03 -0.53427437301E+03  0.56930168485E+03  0.00000000000E+00 0. -1.
         21    1    1    2  504  501 -0.79769183762E+01  0.19350412931E+02  0.75203180430E+02  0.78061437689E+02  0.00000000000E+00 0. -1.
<mgrwt>
<rscale>  4 0.23508845E+03</rscale>
<asrwt>0</asrwt>
<pdfrwt beam="1">  1       21 0.32812134E-01 0.23508845E+03</pdfrwt>
<pdfrwt beam="2">  1       21 0.10524216E+00 0.23508845E+03</pdfrwt>
<totfact> 0.63015272E+03</totfact>
</mgrwt>
</event>
<event>
 5    0  0.1257040E+001  0.2364489E+03  0.7546771E-02  0.1122181E+00
         21   -1    0    0  503  501  0.00000000000E+00  0.00000000000E+00  0.35547023393E+03  0.35547023393E+03  0.00000000000E+00 0. -1.
         21   -1    0    0  501  502 -0.00000000000E+00 -0.00000000000E+00 -0.15586261671E+03  0.15586261671E+03  0.00000000000E+00 0. -1.
         25    1    1    2    0    0 -0.14479451051E+03  0.13898785391E+03  0.18105215118E+03  0.29780523040E+03  0.12500000000E+03 0.  0.
         21    1    1    2  503  504  0.24637176891E+02 -0.41464708467E+02 -0.22792061809E+02  0.53345952188E+02  0.00000000000E+00 0. -1.
         21    1    1    2  504  502  0.12015733362E+03 -0.97523145445E+02  0.41347527858E+02  0.16018166805E+03  0.00000000000E+00 0. -1.
<mgrwt>
<rscale>  4 0.23644888E+03</rscale>
<asrwt>0</asrwt>
<pdfrwt beam="1">  1       21 0.54687728E-01 0.23644888E+03</pdfrwt>
<pdfrwt beam="2">  1       21 0.23978864E-01 0.23644888E+03</pdfrwt>
<totfact> 0.50744507E+04</totfact>
</mgrwt>
</event>
<event>
 5    0  0.1257040E+001  0.2384697E+03  0.7546771E-02  0.1120816E+00
         21   -1    0    0  503  501  0.00000000000E+00  0.00000000000E+00  0.34456858794E+03  0.34456858794E+03  0.00000000000E+00 0.  1.
         21   -1    0    0  504  502 -0.00000000000E+00 -0.00000000000E+00 -0.26223903828E+03  0.26223903828E+03  0.00000000000E+00 0. -1.
         25    1    1    2    0    0  0.18034348153E+03  0.13103376517E+03  0.88786586560E+02  0.27055808415E+03  0.12500000000E+03 0.  0.
         21    1    1    2  503  502 -0.16606857828E+03 -0.10572423225E+03 -0.11219447613E+03  0.22659211471E+03  0.00000000000E+00 0. -1.
         21    1    1    2  504  501 -0.14274903250E+02 -0.25309532919E+02  0.10573743923E+03  0.10965742735E+03  0.00000000000E+00 0. -1.
<mgrwt>
<rscale>  4 0.23846974E+03</rscale>
<asrwt>0</asrwt>
<pdfrwt beam="1">  1       21 0.53010552E-01 0.23846974E+03</pdfrwt>
<pdfrwt beam="2">  1       21 0.40344467E-01 0.23846974E+03</pdfrwt>
<totfact> 0.19450060E+04</totfact>
</mgrwt>
</event>
<event>
 5    0  0.1257040E+001  0.2661101E+03  0.7546771E-02  0.1103527E+00
         21   -1    0    0  502  501  0.00000000000E+00  0.00000000000E+00  0.18994672334E+03  0.18994672334E+03  0.00000000000E+00 0. -1.
         21   -1    0    0  504  502 -0.00000000000E+00 -0.00000000000E+00 -0.12047524674E+04  0.12047524674E+04  0.00000000000E+00 0. -1.
         25    1    1    2    0    0  0.29874565693E+02 -0.22906908666E+03 -0.52377281611E+02  0.26783113293E+03  0.12500000000E+03 0.  0.
         21    1    1    2  503  501 -0.60631798191E+02 -0.52090196635E+01  0.55203906000E+02  0.82163374294E+02  0.00000000000E+00 0.  1.
         21    1    1    2  504  503  0.30757232498E+02  0.23427810632E+03 -0.10176323684E+04  0.10447046835E+04  0.00000000000E+00 0. -1.
<mgrwt>
<rscale>  4 0.26611013E+03</rscale>
<asrwt>0</asrwt>
<pdfrwt beam="1">  1       21 0.29222573E-01 0.26611013E+03</pdfrwt>
<pdfrwt beam="2">  1       21 0.18534653E+00 0.26611013E+03</pdfrwt>
<totfact> 0.17598634E+03</totfact>
</mgrwt>
</event>
<event>
 5    0  0.1257040E+001  0.4486266E+03  0.7546771E-02  0.1028132E+00
         21   -1    0    0  502  501  0.00000000000E+00  0.00000000000E+00  0.25999422516E+03  0.25999422516E+03  0.00000000000E+00 0.  1.
         21   -1    0    0  504  502 -0.00000000000E+00 -0.00000000000E+00 -0.12737302218E+04  0.12737302218E+04  0.00000000000E+00 0.  1.
         25    1    1    2    0    0  0.24641301087E+03  0.34092133506E+03 -0.90247246886E+03  0.10035079898E+04  0.12500000000E+03 0.  0.
         21    1    1    2  503  501 -0.20252177754E+03 -0.38413034549E+03 -0.40091476108E+02  0.43609462179E+03  0.00000000000E+00 0.  1.
         21    1    1    2  504  503 -0.43891233333E+02  0.43209010423E+02 -0.71172051706E+02  0.94121835348E+02  0.00000000000E+00 0.  1.
<mgrwt>
<rscale>  4 0.44862656E+03</rscale>
<asrwt>0</asrwt>
<pdfrwt beam="1">  1       21 0.39999112E-01 0.44862656E+03</pdfrwt>
<pdfrwt beam="2">  1       21 0.19595849E+00 0.44862656E+03</pdfrwt>
<totfact> 0.71334866E+02</totfact>
</mgrwt>
</event>
<event>
 5    0  0.1257040E+001  0.1866429E+03  0.7546771E-02  0.1161525E+00
         21   -1    0    0  502  501  0.00000000000E+00  0.00000000000E+00  0.21202419422E+03  0.21202419422E+03  0.00000000000E+00 0. -1.
         21   -1    0    0  504  502 -0.00000000000E+00 -0.00000000000E+00 -0.12844160055E+04  0.12844160055E+04  0.00000000000E+00 0. -1.
         25    1    1    2    0    0  0.22960202476E+03 -0.47811852930E+02  0.53341536282E+01  0.26581293470E+03  0.12500000000E+03 0.  0.
         21    1    1    2  503  501 -0.93789835494E+02  0.47078866102E+02  0.34248236854E+02  0.11038973957E+03  0.00000000000E+00 0. -1.
         21    1    1    2  504  503 -0.13581218927E+03  0.73298682827E+00 -0.11119742017E+04  0.11202375254E+04  0.00000000000E+00 0. -1.
<mgrwt>
<rscale>  4 0.18664292E+03</rscale>
<asrwt>0</asrwt>
<pdfrwt beam="1">  1       21 0.32619108E-01 0.18664292E+03</pdfrwt>
<pdfrwt beam="2">  1       21 0.19760246E+00 0.18664292E+03</pdfrwt>
<totfact> 0.12668712E+03</totfact>
</mgrwt>
</event>
<event>
 5    0  0.1257040E+001  0.3182223E+03  0.7546771E-02  0.1076470E+00
         21   -1    0    0  504  501  0.00000000000E+00  0.00000000000E+00  0.60345482838E+02  0.60345482838E+02  0.00000000000E+00 0.  1.
         21   -1    0    0  503  502 -0.00000000000E+00 -0.00000000000E+00 -0.17440896742E+04  0.17440896742E+04  0.00000000000E+00 0.  1.
         25    1    1    2    0    0  0.12784825025E+03 -0.27626006898E+03 -0.86063007046E+03  0.92139780713E+03  0.12500000000E+03 0.  0.
         21    1    1    2  503  501 -0.59769296812E-01  0.23072714220E+02 -0.16233636491E+03  0.16396782943E+03  0.00000000000E+00 0. -1.
         21    1    1    2  504  502 -0.12778848096E+03  0.25318735476E+03 -0.66077775599E+03  0.71906952049E+03  0.00000000000E+00 0.  1.
<mgrwt>
<rscale>  4 0.31822234E+03</rscale>
<asrwt>0</asrwt>
<pdfrwt beam="1">  1       21 0.92839211E-02 0.31822234E+03</pdfrwt>
<pdfrwt beam="2">  1       21 0.26832147E+00 0.31822234E+03</pdfrwt>
<totfact> 0.43239406E+03</totfact>
</mgrwt>
</event>
<event>
 5    0  0.1257040E+001  0.5206849E+03  0.7546771E-02  0.1008517E+00
         21   -1    0    0  502  501  0.00000000000E+00  0.00000000000E+00  0.10657687514E+04  0.10657687514E+04  0.00000000000E+00 0. -1.
         21   -1    0    0  504  502 -0.00000000000E+00 -0.00000000000E+00 -0.73657319753E+03  0.73657319753E+03  0.00000000000E+00 0. -1.
         25    1    1    2    0    0 -0.42564101623E+03  0.73136001348E+02  0.83068109388E+03  0.94455027877E+03  0.12500000000E+03 0.  0.
         21    1    1    2  503  501 -0.84319520758E+02 -0.10083248223E+02  0.54356370209E+02  0.10082692328E+03  0.00000000000E+00 0.  1.
         21    1    1    2  504  503  0.50996053698E+03 -0.63052753125E+02 -0.55584191019E+03  0.75696474692E+03  0.00000000000E+00 0. -1.
<mgrwt>
<rscale>  4 0.52068494E+03</rscale>
<asrwt>0</asrwt>
<pdfrwt beam="1">  1       21 0.16396442E+00 0.52068494E+03</pdfrwt>
<pdfrwt beam="2">  1       21 0.11331895E+00 0.52068494E+03</pdfrwt>
<totfact> 0.11098621E+02</totfact>
</mgrwt>
</event>
<event>
 5    0  0.1257040E+001  0.2461812E+03  0.7546771E-02  0.1115742E+00
         21   -1    0    0  502  501  0.00000000000E+00  0.00000000000E+00  0.52147605130E+03  0.52147605130E+03  0.00000000000E+00 0. -1.
         21   -1    0    0  504  502 -0.00000000000E+00 -0.00000000000E+00 -0.18699972073E+03  0.18699972073E+03  0.00000000000E+00 0. -1.
         25    1    1    2    0    0  0.53995787164E+02  0.22376353428E+03  0.35062095843E+03  0.43765936617E+03  0.12500000000E+03 0.  0.
         21    1    1    2  503  501 -0.13994919014E+02 -0.19064512346E+02  0.47238111823E+02  0.52827574218E+02  0.00000000000E+00 0.  1.
         21    1    1    2  504  503 -0.40000868150E+02 -0.20469902194E+03 -0.63382739677E+02  0.21798883165E+03  0.00000000000E+00 0. -1.
<mgrwt>
<rscale>  4 0.24618118E+03</rscale>
<asrwt>0</asrwt>
<pdfrwt beam="1">  1       21 0.80227084E-01 0.24618118E+03</pdfrwt>
<pdfrwt beam="2">  1       21 0.28769188E-01 0.24618118E+03</pdfrwt>
<totfact> 0.15310067E+04</totfact>
</mgrwt>
</event>
<event>
 5    0  0.1257040E+001  0.2825909E+03  0.7546771E-02  0.1094282E+00
         21   -1    0    0  504  501  0.00000000000E+00  0.00000000000E+00  0.56072889691E+03  0.56072889691E+03  0.00000000000E+00 0.  1.
         21   -1    0    0  503  502 -0.00000000000E+00 -0.00000000000E+00 -0.15900998727E+03  0.15900998727E+03  0.00000000000E+00 0.  1.
         25    1    1    2    0    0 -0.85285083543E+02  0.22819427965E+03  0.12209598817E+03  0.29979760684E+03  0.12500000000E+03 0.  0.
         21    1    1    2  503  501  0.83082341166E+02 -0.25219262462E+03  0.18836163864E+03  0.32555168904E+03  0.00000000000E+00 0.  1.
         21    1    1    2  504  502  0.22027423769E+01  0.23998344964E+02  0.91261282837E+02  0.94389588303E+02  0.00000000000E+00 0. -1.
<mgrwt>
<rscale>  4 0.28259091E+03</rscale>
<asrwt>0</asrwt>
<pdfrwt beam="1">  1       21 0.86265983E-01 0.28259091E+03</pdfrwt>
<pdfrwt beam="2">  1       21 0.24463075E-01 0.28259091E+03</pdfrwt>
<totfact> 0.17429848E+04</totfact>
</mgrwt>
</event>
<event>
 5    0  0.1257040E+001  0.2485000E+03  0.7546771E-02  0.1114256E+00
         21   -1    0    0  502  501  0.00000000000E+00  0.00000000000E+00  0.77026737370E+03  0.77026737370E+03  0.00000000000E+00 0. -1.
         21   -1    0    0  504  502 -0.00000000000E+00 -0.00000000000E+00 -0.26929962827E+03  0.26929962827E+03  0.00000000000E+00 0.  1.
         25    1    1    2    0    0  0.20926362745E+03 -0.10817212117E+02 -0.15859374993E+03  0.29100731154E+03  0.12500000000E+03 0.  0.
         21    1    1    2  503  501 -0.20902193701E+03 -0.53976131976E+02  0.64764810417E+03  0.68267976373E+03  0.00000000000E+00 0. -1.
         21    1    1    2  504  503 -0.24169044172E+00  0.64793344093E+02  0.11913391195E+02  0.65879926706E+02  0.00000000000E+00 0.  1.
<mgrwt>
<rscale>  4 0.24849996E+03</rscale>
<asrwt>0</asrwt>
<pdfrwt beam="1">  1       21 0.11850267E+00 0.24849996E+03</pdfrwt>
<pdfrwt beam="2">  1       21 0.41430712E-01 0.24849996E+03</pdfrwt>
<totfact> 0.29246189E+03</totfact>
</mgrwt>
</event>
<event>
 5    0  0.1293143E+001  0.5943314E+03  0.7546771E-02  0.9917237E-01
         21   -1    0    0  503  501  0.00000000000E+00  0.00000000000E+00  0.64507203530E+03  0.64507203530E+03  0.00000000000E+00 0.  1.
         21   -1    0    0  504  502 -0.00000000000E+00 -0.00000000000E+00 -0.11176169054E+04  0.11176169054E+04  0.00000000000E+00 0. -1.
         25    1    1    2    0    0 -0.46219512095E+03 -0.38731548112E+03 -0.79905850245E+03  0.10088394828E+04  0.12500000000E+03 0.  0.
         21    1    1    2  503  502  0.30494936453E+01  0.37310866561E+02 -0.51573582910E+02  0.63727816762E+02  0.00000000000E+00 0. -1.
         21    1    1    2  504  501  0.45914562730E+03  0.35000461456E+03  0.37808721523E+03  0.69012164116E+03  0.00000000000E+00 0.  1.
<mgrwt>
<rscale>  4 0.59433139E+03</rscale>
<asrwt>0</asrwt>
<pdfrwt beam="1">  1       21 0.99241853E-01 0.59433139E+03</pdfrwt>
<pdfrwt beam="2">  1       21 0.17194106E+00 0.59433139E+03</pdfrwt>
<totfact> 0.13035973E+02</totfact>
</mgrwt>
</event>
