<event>
 5    0  0.4025551E-002  0.7314415E+03  0.7546771E-02  0.9664924E-01
          2   -1    0    0  502    0  0.00000000000E+00  0.00000000000E+00  0.20621224886E+04  0.20621224886E+04  0.00000000000E+00 0.  1.
         -2   -1    0    0    0  501 -0.00000000000E+00 -0.00000000000E+00 -0.71602103176E+02  0.71602103176E+02  0.00000000000E+00 0. -1.
         25    1    1    2    0    0  0.34217794582E+03  0.50878643499E+02  0.71454266411E+03  0.80366075044E+03  0.12500000000E+03 0.  0.
         21    1    1    2  502  503 -0.19635864007E+02  0.51794422431E+01  0.10373916408E+02  0.22803769840E+02  0.00000000000E+00 0.  1.
         21    1    1    2  503  501 -0.32254208182E+03 -0.56058085742E+02  0.12656038049E+04  0.13072600715E+04  0.00000000000E+00 0.  1.
<mgrwt>
<rscale>  4 0.73144151E+03</rscale>
<asrwt>0</asrwt>
<pdfrwt beam="1">  1        2 0.31724957E+00 0.73144151E+03</pdfrwt>
<pdfrwt beam="2">  1       -2 0.11015710E-01 0.73144151E+03</pdfrwt>
<totfact> 0.37114665E+02</totfact>
</mgrwt>
</event>
<event>
 5    0  0.4025551E-002  0.4358673E+03  0.7546771E-02  0.1032022E+00
         -2   -1    0    0    0  501 -0.00000000000E+00  0.00000000000E+00  0.23841800275E+03  0.23841800275E+03  0.00000000000E+00 0.  1.
          2   -1    0    0  502    0  0.00000000000E+00 -0.00000000000E+00 -0.29740344535E+03  0.29740344535E+03  0.00000000000E+00 0. -1.
         25    1    1    2    0    0  0.59618262843E+02  0.20660044871E+03 -0.56253032220E+02  0.25500487506E+03  0.12500000000E+03 0.  0.
         21    1    1    2  502  503  0.32772610636E+02 -0.44704690233E+02  0.62304335042E+02  0.83392946355E+02  0.00000000000E+00 0. -1.
         21    1    1    2  503  501 -0.92390873479E+02 -0.16189575848E+03 -0.65036745422E+02  0.19742362668E+03  0.00000000000E+00 0. -1.
<mgrwt>
<rscale>  4 0.43586734E+03</rscale>
<asrwt>0</asrwt>
<pdfrwt beam="1">  1        2 0.45754376E-01 0.43586734E+03</pdfrwt>
<pdfrwt beam="2">  1       -2 0.36679693E-01 0.43586734E+03</pdfrwt>
<totfact> 0.77942906E+02</totfact>
</mgrwt>
</event>
<event>
 5    0  0.4025551E-002  0.6012473E+03  0.7546771E-02  0.9902822E-01
          1   -1    0    0  503    0  0.00000000000E+00  0.00000000000E+00  0.25943308622E+04  0.25943308622E+04  0.00000000000E+00 0.  1.
         -1   -1    0    0    0  501 -0.00000000000E+00 -0.00000000000E+00 -0.48295612797E+02  0.48295612797E+02  0.00000000000E+00 0. -1.
         25    1    1    2    0    0  0.19744489779E+03 -0.14089600172E+03  0.57894136423E+03  0.64002677614E+03  0.12500000000E+03 0.  0.
         21    1    1    2  502  501 -0.19332213307E+03  0.72496282769E+02  0.18822497062E+04  0.18935398371E+04  0.00000000000E+00 0.  1.
         21    1    1    2  503  502 -0.41227647213E+01  0.68399718949E+02  0.84844178942E+02  0.10905986174E+03  0.00000000000E+00 0. -1.
<mgrwt>
<rscale>  4 0.60124729E+03</rscale>
<asrwt>0</asrwt>
<pdfrwt beam="1">  1        1 0.39912772E+00 0.60124729E+03</pdfrwt>
<pdfrwt beam="2">  1       -1 0.74300963E-02 0.60124729E+03</pdfrwt>
<totfact> 0.12458048E+02</totfact>
</mgrwt>
</event>
<event>
 5    0  0.4025551E-002  0.5034987E+03  0.7546771E-02  0.1012870E+00
         -1   -1    0    0    0  501 -0.00000000000E+00  0.00000000000E+00  0.18656340631E+03  0.18656340631E+03  0.00000000000E+00 0. -1.
          1   -1    0    0  502    0  0.00000000000E+00 -0.00000000000E+00 -0.40577725507E+03  0.40577725507E+03  0.00000000000E+00 0.  1.
         25    1    1    2    0    0  0.15228718494E+03  0.14691343977E+03 -0.84588523384E+02  0.25991376218E+03  0.12500000000E+03 0.  0.
         21    1    1    2  502  503  0.38107667297E+02  0.26287924882E+02 -0.25577091209E+02  0.52890801621E+02  0.00000000000E+00 0.  1.
         21    1    1    2  503  501 -0.19039485223E+03 -0.17320136465E+03 -0.10904823417E+03  0.27953609758E+03  0.00000000000E+00 0. -1.
<mgrwt>
<rscale>  4 0.50349872E+03</rscale>
<asrwt>0</asrwt>
<pdfrwt beam="1">  1        1 0.62427270E-01 0.50349872E+03</pdfrwt>
<pdfrwt beam="2">  1       -1 0.28702063E-01 0.50349872E+03</pdfrwt>
<totfact> 0.65493561E+02</totfact>
</mgrwt>
</event>
<event>
 5    0  0.4025551E-002  0.1151300E+04  0.7546771E-02  0.9156585E-01
          1   -1    0    0  503    0  0.00000000000E+00  0.00000000000E+00  0.64559461867E+03  0.64559461867E+03  0.00000000000E+00 0.  1.
         -1   -1    0    0    0  501 -0.00000000000E+00 -0.00000000000E+00 -0.85943263682E+03  0.85943263682E+03  0.00000000000E+00 0. -1.
         25    1    1    2    0    0 -0.21390004337E+03  0.49764912732E+03  0.22313907198E+03  0.59901913819E+03  0.12500000000E+03 0.  0.
         21    1    1    2  502  501  0.14948237666E+03 -0.52982916990E+03 -0.97626583169E+02  0.55910185114E+03  0.00000000000E+00 0. -1.
         21    1    1    2  503  502  0.64417666707E+02  0.32180042578E+02 -0.33935050696E+03  0.34690626615E+03  0.00000000000E+00 0. -1.
<mgrwt>
<rscale>  4 0.11512996E+04</rscale>
<asrwt>0</asrwt>
<pdfrwt beam="1">  1        1 0.99322249E-01 0.11512996E+04</pdfrwt>
<pdfrwt beam="2">  1       -1 0.13222041E+00 0.11512996E+04</pdfrwt>
<totfact> 0.14799282E+01</totfact>
</mgrwt>
</event>
<event>
 5    0  0.4025551E-002  0.5089969E+03  0.7546771E-02  0.1011457E+00
         -2   -1    0    0    0  501 -0.00000000000E+00  0.00000000000E+00  0.45004960206E+02  0.45004960206E+02  0.00000000000E+00 0.  1.
          2   -1    0    0  503    0  0.00000000000E+00 -0.00000000000E+00 -0.14391626170E+04  0.14391626170E+04  0.00000000000E+00 0. -1.
         25    1    1    2    0    0 -0.78703249190E+02 -0.20942679823E+03 -0.87483862361E+03  0.91160375307E+03  0.12500000000E+03 0.  0.
         21    1    1    2  502  501  0.38207110180E+02  0.19397308170E+03 -0.43119511904E+03  0.47435700731E+03  0.00000000000E+00 0.  1.
         21    1    1    2  503  502  0.40496139011E+02  0.15453716525E+02 -0.88123914155E+02  0.98206816847E+02  0.00000000000E+00 0.  1.
<mgrwt>
<rscale>  4 0.50899688E+03</rscale>
<asrwt>0</asrwt>
<pdfrwt beam="1">  1        2 0.22140959E+00 0.50899688E+03</pdfrwt>
<pdfrwt beam="2">  1       -2 0.69238415E-02 0.50899688E+03</pdfrwt>
<totfact> 0.17324357E+03</totfact>
</mgrwt>
</event>
<event>
 5    0  0.4025551E-002  0.4855952E+03  0.7546771E-02  0.1017609E+00
         -2   -1    0    0    0  501 -0.00000000000E+00  0.00000000000E+00  0.21498519946E+02  0.21498519946E+02  0.00000000000E+00 0.  1.
          2   -1    0    0  502    0  0.00000000000E+00 -0.00000000000E+00 -0.27420810905E+04  0.27420810905E+04  0.00000000000E+00 0. -1.
         25    1    1    2    0    0  0.24069311299E+02  0.20964413276E+03 -0.10489619517E+04  0.10772539952E+04  0.12500000000E+03 0.  0.
         21    1    1    2  502  503 -0.17662329357E+02 -0.26350084164E+02 -0.12911979631E+03  0.13295941716E+03  0.00000000000E+00 0.  1.
         21    1    1    2  503  501 -0.64069819424E+01 -0.18329404859E+03 -0.15425008225E+04  0.15533661980E+04  0.00000000000E+00 0. -1.
<mgrwt>
<rscale>  4 0.48559524E+03</rscale>
<asrwt>0</asrwt>
<pdfrwt beam="1">  1        2 0.42185879E+00 0.48559524E+03</pdfrwt>
<pdfrwt beam="2">  1       -2 0.33074633E-02 0.48559524E+03</pdfrwt>
<totfact> 0.10467436E+03</totfact>
</mgrwt>
</event>
<event>
 5    0  0.4025551E-002  0.5510670E+03  0.7546771E-02  0.1001247E+00
         -2   -1    0    0    0  501 -0.00000000000E+00  0.00000000000E+00  0.38563912133E+03  0.38563912133E+03  0.00000000000E+00 0. -1.
          2   -1    0    0  502    0  0.00000000000E+00 -0.00000000000E+00 -0.19686466049E+03  0.19686466049E+03  0.00000000000E+00 0.  1.
         25    1    1    2    0    0 -0.17164412129E+03 -0.19319521239E+03  0.10047339690E+03  0.30414798692E+03  0.12500000000E+03 0.  0.
         21    1    1    2  502  503  0.32686713585E+02  0.65409741574E+02  0.40616780895E+02  0.83645552351E+02  0.00000000000E+00 0. -1.
         21    1    1    2  503  501  0.13895740770E+03  0.12778547081E+03  0.47684283053E+02  0.19471024255E+03  0.00000000000E+00 0.  1.
<mgrwt>
<rscale>  4 0.55106702E+03</rscale>
<asrwt>0</asrwt>
<pdfrwt beam="1">  1        2 0.30286871E-01 0.55106702E+03</pdfrwt>
<pdfrwt beam="2">  1       -2 0.59329095E-01 0.55106702E+03</pdfrwt>
<totfact> 0.47109084E+02</totfact>
</mgrwt>
</event>
<event>
 5    0  0.4025551E-002  0.4514783E+03  0.7546771E-02  0.1027282E+00
          1   -1    0    0  502    0  0.00000000000E+00  0.00000000000E+00  0.42105914204E+03  0.42105914204E+03  0.00000000000E+00 0. -1.
         -1   -1    0    0    0  501 -0.00000000000E+00 -0.00000000000E+00 -0.23195006546E+03  0.23195006546E+03  0.00000000000E+00 0.  1.
         25    1    1    2    0    0  0.99132083792E+01 -0.20906215948E+03  0.25446627796E+03  0.35239657326E+03  0.12500000000E+03 0.  0.
         21    1    1    2  502  503 -0.79687902178E+01  0.25625561984E+02 -0.10882598410E+03  0.11208597530E+03  0.00000000000E+00 0.  1.
         21    1    1    2  503  501 -0.19444181614E+01  0.18343659750E+03  0.43468782716E+02  0.18852665895E+03  0.00000000000E+00 0.  1.
<mgrwt>
<rscale>  4 0.45147829E+03</rscale>
<asrwt>0</asrwt>
<pdfrwt beam="1">  1        1 0.64778329E-01 0.45147829E+03</pdfrwt>
<pdfrwt beam="2">  1       -1 0.35684626E-01 0.45147829E+03</pdfrwt>
<totfact> 0.42740286E+02</totfact>
</mgrwt>
</event>
<event>
 5    0  0.4025551E-002  0.4488854E+03  0.7546771E-02  0.1028055E+00
          2   -1    0    0  503    0  0.00000000000E+00  0.00000000000E+00  0.18429571793E+04  0.18429571793E+04  0.00000000000E+00 0. -1.
         -2   -1    0    0    0  501 -0.00000000000E+00 -0.00000000000E+00 -0.32964397463E+02  0.32964397463E+02  0.00000000000E+00 0.  1.
         25    1    1    2    0    0 -0.52519998700E+02 -0.20193377888E+03  0.76416953344E+03  0.80194493399E+03  0.12500000000E+03 0.  0.
         21    1    1    2  502  501  0.36842799297E+02  0.18726826202E+03  0.10294100344E+04  0.10469535867E+04  0.00000000000E+00 0. -1.
         21    1    1    2  503  502  0.15677199403E+02  0.14665516854E+02  0.16413214042E+02  0.27023056099E+02  0.00000000000E+00 0. -1.
<mgrwt>
<rscale>  4 0.44888537E+03</rscale>
<asrwt>0</asrwt>
<pdfrwt beam="1">  1        2 0.28353179E+00 0.44888537E+03</pdfrwt>
<pdfrwt beam="2">  1       -2 0.50714472E-02 0.44888537E+03</pdfrwt>
<totfact> 0.17041498E+03</totfact>
</mgrwt>
</event>
<event>
 5    0  0.4025551E-002  0.7733206E+03  0.7546771E-02  0.9599458E-01
          1   -1    0    0  503    0  0.00000000000E+00  0.00000000000E+00  0.66089488574E+03  0.66089488574E+03  0.00000000000E+00 0. -1.
         -1   -1    0    0    0  501 -0.00000000000E+00 -0.00000000000E+00 -0.37039286316E+03  0.37039286316E+03  0.00000000000E+00 0.  1.
         25    1    1    2    0    0 -0.19121960825E+03  0.33534927281E+03  0.20893793329E+03  0.45640347645E+03  0.12500000000E+03 0.  0.
         21    1    1    2  502  501  0.20504941355E+03 -0.30427565625E+03  0.22303151023E+03  0.42938559773E+03  0.00000000000E+00 0. -1.
         21    1    1    2  503  502 -0.13829805294E+02 -0.31073616563E+02 -0.14146742093E+03  0.14549867472E+03  0.00000000000E+00 0. -1.
<mgrwt>
<rscale>  4 0.77332056E+03</rscale>
<asrwt>0</asrwt>
<pdfrwt beam="1">  1        1 0.10167614E+00 0.77332056E+03</pdfrwt>
<pdfrwt beam="2">  1       -1 0.56983517E-01 0.77332056E+03</pdfrwt>
<totfact> 0.94202342E+01</totfact>
</mgrwt>
</event>
<event>
 5    0  0.4025551E-002  0.5977319E+03  0.7546771E-02  0.9910123E-01
          1   -1    0    0  502    0  0.00000000000E+00  0.00000000000E+00  0.12617153733E+04  0.12617153733E+04  0.00000000000E+00 0.  1.
         -1   -1    0    0    0  501 -0.00000000000E+00 -0.00000000000E+00 -0.70793200675E+02  0.70793200675E+02  0.00000000000E+00 0. -1.
         25    1    1    2    0    0 -0.24469604243E+03 -0.13863248235E+03  0.64475136915E+03  0.71443995295E+03  0.12500000000E+03 0.  0.
         21    1    1    2  502  503  0.17116387739E+03  0.11005510972E+03  0.32716367935E+03  0.38528596287E+03  0.00000000000E+00 0. -1.
         21    1    1    2  503  501  0.73532165040E+02  0.28577372630E+02  0.21900712410E+03  0.23278265813E+03  0.00000000000E+00 0. -1.
<mgrwt>
<rscale>  4 0.59773195E+03</rscale>
<asrwt>0</asrwt>
<pdfrwt beam="1">  1        1 0.19411004E+00 0.59773195E+03</pdfrwt>
<pdfrwt beam="2">  1       -1 0.10891263E-01 0.59773195E+03</pdfrwt>
<totfact> 0.54180052E+02</totfact>
</mgrwt>
</event>
<event>
 5    0  0.4025551E-002  0.6984518E+03  0.7546771E-02  0.9719884E-01
         -2   -1    0    0    0  501 -0.00000000000E+00  0.00000000000E+00  0.39839813478E+02  0.39839813478E+02  0.00000000000E+00 0. -1.
          2   -1    0    0  502    0  0.00000000000E+00 -0.00000000000E+00 -0.39744733703E+04  0.39744733703E+04  0.00000000000E+00 0.  1.
         25    1    1    2    0    0  0.19464030912E+03 -0.14095279821E+03 -0.33458339292E+04  0.33567815275E+04  0.12500000000E+03 0.  0.
         21    1    1    2  502  503  0.20401205678E+02  0.58065596479E+02 -0.10667137188E+03  0.12315276800E+03  0.00000000000E+00 0. -1.
         21    1    1    2  503  501 -0.21504151480E+03  0.82887201728E+02 -0.48212825570E+03  0.53437888828E+03  0.00000000000E+00 0. -1.
<mgrwt>
<rscale>  4 0.69845178E+03</rscale>
<asrwt>0</asrwt>
<pdfrwt beam="1">  1        2 0.61145749E+00 0.69845178E+03</pdfrwt>
<pdfrwt beam="2">  1       -2 0.61292016E-02 0.69845178E+03</pdfrwt>
<totfact> 0.59762511E+01</totfact>
</mgrwt>
</event>
<event>
 5    0  0.4025551E-002  0.4696131E+03  0.7546771E-02  0.1022029E+00
         -2   -1    0    0    0  501 -0.00000000000E+00  0.00000000000E+00  0.66012286577E+02  0.66012286577E+02  0.00000000000E+00 0.  1.
          2   -1    0    0  503    0  0.00000000000E+00 -0.00000000000E+00 -0.99204094387E+03  0.99204094387E+03  0.00000000000E+00 0. -1.
         25    1    1    2    0    0  0.11985571110E+03  0.18635698128E+03 -0.40012085087E+03  0.47414766820E+03  0.12500000000E+03 0.  0.
         21    1    1    2  502  501 -0.11973975685E+03 -0.16554783770E+03 -0.52468372146E+03  0.56306012423E+03  0.00000000000E+00 0. -1.
         21    1    1    2  503  502 -0.11595425289E+00 -0.20809143582E+02 -0.12240849633E+01  0.20845438014E+02  0.00000000000E+00 0. -1.
<mgrwt>
<rscale>  4 0.46961315E+03</rscale>
<asrwt>0</asrwt>
<pdfrwt beam="1">  1        2 0.15262168E+00 0.46961315E+03</pdfrwt>
<pdfrwt beam="2">  1       -2 0.10155737E-01 0.46961315E+03</pdfrwt>
<totfact> 0.17177315E+03</totfact>
</mgrwt>
</event>
<event>
 5    0  0.4025551E-002  0.5741727E+03  0.7546771E-02  0.9960487E-01
         -2   -1    0    0    0  501 -0.00000000000E+00  0.00000000000E+00  0.45484410137E+02  0.45484410137E+02  0.00000000000E+00 0. -1.
          2   -1    0    0  502    0  0.00000000000E+00 -0.00000000000E+00 -0.28985150030E+04  0.28985150030E+04  0.00000000000E+00 0.  1.
         25    1    1    2    0    0 -0.27706808330E+03 -0.11463745930E+03 -0.18567410873E+04  0.18849458706E+04  0.12500000000E+03 0.  0.
         21    1    1    2  502  503  0.42884828187E+02  0.70107488219E+02 -0.89736405853E+02  0.12168315795E+03  0.00000000000E+00 0. -1.
         21    1    1    2  503  501  0.23418325511E+03  0.44529971084E+02 -0.90655309980E+03  0.93737038466E+03  0.00000000000E+00 0. -1.
<mgrwt>
<rscale>  4 0.57417269E+03</rscale>
<asrwt>0</asrwt>
<pdfrwt beam="1">  1        2 0.44592515E+00 0.57417269E+03</pdfrwt>
<pdfrwt beam="2">  1       -2 0.69976053E-02 0.57417269E+03</pdfrwt>
<totfact> 0.26324784E+02</totfact>
</mgrwt>
</event>
<event>
 5    0  0.4025551E-002  0.4355961E+03  0.7546771E-02  0.1032107E+00
         -2   -1    0    0    0  501 -0.00000000000E+00  0.00000000000E+00  0.12408026481E+04  0.12408026481E+04  0.00000000000E+00 0. -1.
          2   -1    0    0  502    0  0.00000000000E+00 -0.00000000000E+00 -0.55972731147E+02  0.55972731147E+02  0.00000000000E+00 0.  1.
         25    1    1    2    0    0  0.18919526317E+03 -0.65129863000E+02  0.67029255358E+03  0.71060105125E+03  0.12500000000E+03 0.  0.
         21    1    1    2  502  503 -0.48418667285E+02 -0.64219745873E+01  0.36643180256E+03  0.36967265929E+03  0.00000000000E+00 0. -1.
         21    1    1    2  503  501 -0.14077659588E+03  0.71551837587E+02  0.14810556084E+03  0.21650166873E+03  0.00000000000E+00 0.  1.
<mgrwt>
<rscale>  4 0.43559612E+03</rscale>
<asrwt>0</asrwt>
<pdfrwt beam="1">  1        2 0.86111903E-02 0.43559612E+03</pdfrwt>
<pdfrwt beam="2">  1       -2 0.19089269E+00 0.43559612E+03</pdfrwt>
<totfact> 0.12675187E+02</totfact>
</mgrwt>
</event>
<event>
 5    0  0.4025551E-002  0.1140828E+04  0.7546771E-02  0.9166287E-01
         -2   -1    0    0    0  501 -0.00000000000E+00  0.00000000000E+00  0.27351326160E+03  0.27351326160E+03  0.00000000000E+00 0.  1.
          2   -1    0    0  502    0  0.00000000000E+00 -0.00000000000E+00 -0.17096450848E+04  0.17096450848E+04  0.00000000000E+00 0. -1.
         25    1    1    2    0    0 -0.12020377379E+03  0.44156768443E+03 -0.78428553871E+03  0.91660229838E+03  0.12500000000E+03 0.  0.
         21    1    1    2  502  503  0.10539750024E+03 -0.52793988964E+03 -0.15244626876E+03  0.55952571432E+03  0.00000000000E+00 0.  1.
         21    1    1    2  503  501  0.14806273554E+02  0.86372205216E+02 -0.49940001575E+03  0.50703033371E+03  0.00000000000E+00 0.  1.
<mgrwt>
<rscale>  4 0.11408275E+04</rscale>
<asrwt>0</asrwt>
<pdfrwt beam="1">  1        2 0.26302233E+00 0.11408275E+04</pdfrwt>
<pdfrwt beam="2">  1       -2 0.42078963E-01 0.11408275E+04</pdfrwt>
<totfact> 0.51326560E+01</totfact>
</mgrwt>
</event>
<event>
 5    0  0.4025551E-002  0.4143252E+03  0.7546771E-02  0.1038929E+00
         -2   -1    0    0    0  501 -0.00000000000E+00  0.00000000000E+00  0.49730284453E+02  0.49730284453E+02  0.00000000000E+00 0.  1.
          2   -1    0    0  503    0  0.00000000000E+00 -0.00000000000E+00 -0.12755884710E+04  0.12755884710E+04  0.00000000000E+00 0. -1.
         25    1    1    2    0    0  0.21770290575E+03  0.10691744120E+02 -0.59191294621E+03  0.64303561679E+03  0.12500000000E+03 0.  0.
         21    1    1    2  502  501 -0.15413243877E+03  0.20870054898E+01 -0.57272678758E+03  0.59310803189E+03  0.00000000000E+00 0. -1.
         21    1    1    2  503  502 -0.63570466975E+02 -0.12778749610E+02 -0.61218452778E+02  0.89175106804E+02  0.00000000000E+00 0.  1.
<mgrwt>
<rscale>  4 0.41432525E+03</rscale>
<asrwt>0</asrwt>
<pdfrwt beam="1">  1        2 0.19624438E+00 0.41432525E+03</pdfrwt>
<pdfrwt beam="2">  1       -2 0.76508132E-02 0.41432525E+03</pdfrwt>
<totfact> 0.18320363E+03</totfact>
</mgrwt>
</event>
<event>
 5    0  0.4025551E-002  0.7686135E+03  0.7546771E-02  0.9606593E-01
         -2   -1    0    0    0  501 -0.00000000000E+00  0.00000000000E+00  0.74455206851E+02  0.74455206851E+02  0.00000000000E+00 0. -1.
          2   -1    0    0  503    0  0.00000000000E+00 -0.00000000000E+00 -0.25876936024E+04  0.25876936024E+04  0.00000000000E+00 0.  1.
         25    1    1    2    0    0 -0.23184726984E+03  0.30151078860E+03 -0.13246706794E+04  0.13838494575E+04  0.12500000000E+03 0.  0.
         21    1    1    2  502  501  0.25778547840E+03 -0.26280288653E+03 -0.11726260933E+04  0.12290527510E+04  0.00000000000E+00 0. -1.
         21    1    1    2  503  502 -0.25938208558E+02 -0.38707902068E+02 -0.15941622840E+02  0.49246600740E+02  0.00000000000E+00 0. -1.
<mgrwt>
<rscale>  4 0.76861354E+03</rscale>
<asrwt>0</asrwt>
<pdfrwt beam="1">  1        2 0.39810674E+00 0.76861354E+03</pdfrwt>
<pdfrwt beam="2">  1       -2 0.11454646E-01 0.76861354E+03</pdfrwt>
<totfact> 0.17660129E+02</totfact>
</mgrwt>
</event>
<event>
 5    0  0.4025551E-002  0.7200014E+03  0.7546771E-02  0.9683626E-01
          2   -1    0    0  502    0  0.00000000000E+00  0.00000000000E+00  0.80958791899E+03  0.80958791899E+03  0.00000000000E+00 0.  1.
         -2   -1    0    0    0  501 -0.00000000000E+00 -0.00000000000E+00 -0.33326505398E+03  0.33326505398E+03  0.00000000000E+00 0. -1.
         25    1    1    2    0    0 -0.15284600207E+03 -0.27424892036E+03  0.57945360593E+03  0.67079494042E+03  0.12500000000E+03 0.  0.
         21    1    1    2  502  503 -0.17876530055E+02  0.41094947197E+02 -0.16969682677E+03  0.17551460915E+03  0.00000000000E+00 0. -1.
         21    1    1    2  503  501  0.17072253212E+03  0.23315397316E+03  0.66566085846E+02  0.29654342340E+03  0.00000000000E+00 0. -1.
<mgrwt>
<rscale>  4 0.72000144E+03</rscale>
<asrwt>0</asrwt>
<pdfrwt beam="1">  1        2 0.12455199E+00 0.72000144E+03</pdfrwt>
<pdfrwt beam="2">  1       -2 0.51271547E-01 0.72000144E+03</pdfrwt>
<totfact> 0.12352125E+02</totfact>
</mgrwt>
</event>
<event>
 5    0  0.4025551E-002  0.5758509E+03  0.7546771E-02  0.9956814E-01
          2   -1    0    0  503    0  0.00000000000E+00  0.00000000000E+00  0.11275800984E+04  0.11275800984E+04  0.00000000000E+00 0.  1.
         -2   -1    0    0    0  501 -0.00000000000E+00 -0.00000000000E+00 -0.11611025717E+03  0.11611025717E+03  0.00000000000E+00 0. -1.
         25    1    1    2    0    0  0.27693695407E+02 -0.27529290266E+03  0.26210366857E+03  0.40109407388E+03  0.12500000000E+03 0.  0.
         21    1    1    2  502  501 -0.50789775813E+02  0.16358821431E+03  0.69580658341E+03  0.71658042584E+03  0.00000000000E+00 0. -1.
         21    1    1    2  503  502  0.23096080406E+02  0.11170468835E+03  0.53559589290E+02  0.12601585589E+03  0.00000000000E+00 0. -1.
<mgrwt>
<rscale>  4 0.57585088E+03</rscale>
<asrwt>0</asrwt>
<pdfrwt beam="1">  1        2 0.17347385E+00 0.57585088E+03</pdfrwt>
<pdfrwt beam="2">  1       -2 0.17863117E-01 0.57585088E+03</pdfrwt>
<totfact> 0.55242975E+02</totfact>
</mgrwt>
</event>
<event>
 5    0  0.4025551E-002  0.4451051E+03  0.7546771E-02  0.1029192E+00
         -1   -1    0    0    0  501 -0.00000000000E+00  0.00000000000E+00  0.33905674646E+03  0.33905674646E+03  0.00000000000E+00 0. -1.
          1   -1    0    0  503    0  0.00000000000E+00 -0.00000000000E+00 -0.25942300862E+03  0.25942300862E+03  0.00000000000E+00 0.  1.
         25    1    1    2    0    0  0.15428299369E+03  0.17982721786E+03  0.26315994749E+01  0.26790482590E+03  0.12500000000E+03 0.  0.
         21    1    1    2  502  501 -0.42179482792E+02 -0.17073625793E+03 -0.26345339691E+02  0.17783153676E+03  0.00000000000E+00 0.  1.
         21    1    1    2  503  502 -0.11210351090E+03 -0.90909599256E+01  0.10334747806E+03  0.15274339243E+03  0.00000000000E+00 0.  1.
<mgrwt>
<rscale>  4 0.44510512E+03</rscale>
<asrwt>0</asrwt>
<pdfrwt beam="1">  1        1 0.39911232E-01 0.44510512E+03</pdfrwt>
<pdfrwt beam="2">  1       -1 0.52162576E-01 0.44510512E+03</pdfrwt>
<totfact> 0.39926875E+02</totfact>
</mgrwt>
</event>
<event>
 5    0  0.4025551E-002  0.7528985E+03  0.7546771E-02  0.9630814E-01
         -4   -1    0    0    0  501 -0.00000000000E+00  0.00000000000E+00  0.16554944346E+03  0.16554944346E+03  0.00000000000E+00 0.  1.
          4   -1    0    0  503    0  0.00000000000E+00 -0.00000000000E+00 -0.92334406972E+03  0.92334406972E+03  0.00000000000E+00 0. -1.
         25    1    1    2    0    0  0.42118641503E+02 -0.22527095928E+03 -0.79766070848E+03  0.83929052831E+03  0.12500000000E+03 0.  0.
         21    1    1    2  502  501 -0.30303083888E+02  0.19883632175E+03  0.64882004862E+02  0.21133819886E+03  0.00000000000E+00 0.  1.
         21    1    1    2  503  502 -0.11815557615E+02  0.26434637532E+02 -0.25015922642E+02  0.38264786016E+02  0.00000000000E+00 0. -1.
<mgrwt>
<rscale>  4 0.75289846E+03</rscale>
<asrwt>0</asrwt>
<pdfrwt beam="1">  1        4 0.14205293E+00 0.75289846E+03</pdfrwt>
<pdfrwt beam="2">  1       -4 0.25469145E-01 0.75289846E+03</pdfrwt>
<totfact> 0.10080363E+01</totfact>
</mgrwt>
</event>
<event>
 5    0  0.4025551E-002  0.5442725E+03  0.7546771E-02  0.1002828E+00
          2   -1    0    0  502    0  0.00000000000E+00  0.00000000000E+00  0.44681247400E+03  0.44681247400E+03  0.00000000000E+00 0.  1.
         -2   -1    0    0    0  501 -0.00000000000E+00 -0.00000000000E+00 -0.33460269728E+03  0.33460269728E+03  0.00000000000E+00 0. -1.
         25    1    1    2    0    0 -0.12753537499E+03 -0.16826593634E+03 -0.33680556901E+02  0.24766525214E+03  0.12500000000E+03 0.  0.
         21    1    1    2  502  503  0.30801037372E+02  0.90682077732E+01 -0.16675340301E+03  0.16981647067E+03  0.00000000000E+00 0.  1.
         21    1    1    2  503  501  0.96734337618E+02  0.15919772856E+03  0.31264373664E+03  0.36393344847E+03  0.00000000000E+00 0.  1.
<mgrwt>
<rscale>  4 0.54427246E+03</rscale>
<asrwt>0</asrwt>
<pdfrwt beam="1">  1        2 0.68740381E-01 0.54427246E+03</pdfrwt>
<pdfrwt beam="2">  1       -2 0.51477338E-01 0.54427246E+03</pdfrwt>
<totfact> 0.25409830E+02</totfact>
</mgrwt>
</event>
<event>
 5    0  0.4025551E-002  0.1140009E+04  0.7546771E-02  0.9167050E-01
          2   -1    0    0  502    0  0.00000000000E+00  0.00000000000E+00  0.11319061839E+04  0.11319061839E+04  0.00000000000E+00 0. -1.
         -2   -1    0    0    0  501 -0.00000000000E+00 -0.00000000000E+00 -0.28704263515E+03  0.28704263515E+03  0.00000000000E+00 0.  1.
         25    1    1    2    0    0 -0.27800327557E+03 -0.34250448749E+03  0.85418250119E+03  0.96945752384E+03  0.12500000000E+03 0.  0.
         21    1    1    2  502  503  0.41570193618E+02  0.14112516839E+02 -0.91358863199E+01  0.44840924921E+02  0.00000000000E+00 0. -1.
         21    1    1    2  503  501  0.23643308196E+03  0.32839197065E+03 -0.18306616837E+00  0.40465037025E+03  0.00000000000E+00 0.  1.
<mgrwt>
<rscale>  4 0.11400094E+04</rscale>
<asrwt>0</asrwt>
<pdfrwt beam="1">  1        2 0.17413941E+00 0.11400094E+04</pdfrwt>
<pdfrwt beam="2">  1       -2 0.44160406E-01 0.11400094E+04</pdfrwt>
<totfact> 0.10024963E+02</totfact>
</mgrwt>
</event>
<event>
 5    0  0.4025551E-002  0.8250918E+03  0.7546771E-02  0.9524391E-01
          1   -1    0    0  503    0  0.00000000000E+00  0.00000000000E+00  0.68405264404E+03  0.68405264404E+03  0.00000000000E+00 0.  1.
         -1   -1    0    0    0  501 -0.00000000000E+00 -0.00000000000E+00 -0.37787117787E+03  0.37787117787E+03  0.00000000000E+00 0. -1.
         25    1    1    2    0    0 -0.10390170034E+03 -0.20211728464E+03  0.39910292431E+03  0.47597805020E+03  0.12500000000E+03 0.  0.
         21    1    1    2  502  501 -0.40306368345E+02 -0.17200126087E+03 -0.13249261029E+02  0.17715693604E+03  0.00000000000E+00 0. -1.
         21    1    1    2  503  502  0.14420806868E+03  0.37411854551E+03 -0.79672197105E+02  0.40878883566E+03  0.00000000000E+00 0. -1.
<mgrwt>
<rscale>  4 0.82509178E+03</rscale>
<asrwt>0</asrwt>
<pdfrwt beam="1">  1        1 0.10523887E+00 0.82509178E+03</pdfrwt>
<pdfrwt beam="2">  1       -1 0.58134027E-01 0.82509178E+03</pdfrwt>
<totfact> 0.85739095E+01</totfact>
</mgrwt>
</event>
<event>
 5    0  0.4025551E-002  0.6424352E+03  0.7546771E-02  0.9821078E-01
         -2   -1    0    0    0  501 -0.00000000000E+00  0.00000000000E+00  0.71648840869E+02  0.71648840869E+02  0.00000000000E+00 0.  1.
          2   -1    0    0  502    0  0.00000000000E+00 -0.00000000000E+00 -0.18886238441E+04  0.18886238441E+04  0.00000000000E+00 0. -1.
         25    1    1    2    0    0  0.14612444251E+03  0.23358253204E+03 -0.12150072133E+04  0.12521104905E+04  0.12500000000E+03 0.  0.
         21    1    1    2  502  503 -0.14291853149E+02  0.40539421331E+02 -0.12376340494E+02  0.44731147451E+02  0.00000000000E+00 0.  1.
         21    1    1    2  503  501 -0.13183258936E+03 -0.27412195337E+03 -0.58959144943E+03  0.66343104704E+03  0.00000000000E+00 0. -1.
<mgrwt>
<rscale>  4 0.64243525E+03</rscale>
<asrwt>0</asrwt>
<pdfrwt beam="1">  1        2 0.29055750E+00 0.64243525E+03</pdfrwt>
<pdfrwt beam="2">  1       -2 0.11022899E-01 0.64243525E+03</pdfrwt>
<totfact> 0.46396414E+02</totfact>
</mgrwt>
</event>
<event>
 5    0  0.4025551E-002  0.6719876E+03  0.7546771E-02  0.9766374E-01
         -1   -1    0    0    0  501 -0.00000000000E+00  0.00000000000E+00  0.15101279817E+03  0.15101279817E+03  0.00000000000E+00 0. -1.
          1   -1    0    0  503    0  0.00000000000E+00 -0.00000000000E+00 -0.80460052312E+03  0.80460052312E+03  0.00000000000E+00 0.  1.
         25    1    1    2    0    0 -0.15404009432E+03  0.16001825161E+03 -0.13935802979E+02  0.25525163684E+03  0.12500000000E+03 0.  0.
         21    1    1    2  502  501  0.17393002499E+03 -0.16479863545E+03 -0.63592759197E+03  0.67956908852E+03  0.00000000000E+00 0.  1.
         21    1    1    2  503  502 -0.19889930672E+02  0.47803838435E+01 -0.37243299980E+01  0.20792595936E+02  0.00000000000E+00 0.  1.
<mgrwt>
<rscale>  4 0.67198762E+03</rscale>
<asrwt>0</asrwt>
<pdfrwt beam="1">  1        1 0.12378470E+00 0.67198762E+03</pdfrwt>
<pdfrwt beam="2">  1       -1 0.23232738E-01 0.67198762E+03</pdfrwt>
<totfact> 0.35214181E+02</totfact>
</mgrwt>
</event>
<event>
 5    0  0.4025551E-002  0.4773738E+03  0.7546771E-02  0.1019859E+00
          1   -1    0    0  503    0  0.00000000000E+00  0.00000000000E+00  0.42813873773E+03  0.42813873773E+03  0.00000000000E+00 0.  1.
         -1   -1    0    0    0  501 -0.00000000000E+00 -0.00000000000E+00 -0.16187769116E+03  0.16187769116E+03  0.00000000000E+00 0. -1.
         25    1    1    2    0    0  0.20834825221E+03 -0.21100355290E+02  0.26733529548E+03  0.36186652153E+03  0.12500000000E+03 0.  0.
         21    1    1    2  502  501 -0.16172279148E+03  0.12568727036E+02 -0.39708348171E+02  0.16699996137E+03  0.00000000000E+00 0. -1.
         21    1    1    2  503  502 -0.46625460731E+02  0.85316282542E+01  0.38634099259E+02  0.61149945990E+02  0.00000000000E+00 0. -1.
<mgrwt>
<rscale>  4 0.47737378E+03</rscale>
<asrwt>0</asrwt>
<pdfrwt beam="1">  1        1 0.65867498E-01 0.47737378E+03</pdfrwt>
<pdfrwt beam="2">  1       -1 0.24904260E-01 0.47737378E+03</pdfrwt>
<totfact> 0.77759317E+02</totfact>
</mgrwt>
</event>
<event>
 5    0  0.4025551E-002  0.6969013E+03  0.7546771E-02  0.9722546E-01
         -2   -1    0    0    0  501 -0.00000000000E+00  0.00000000000E+00  0.62480549329E+03  0.62480549329E+03  0.00000000000E+00 0.  1.
          2   -1    0    0  502    0  0.00000000000E+00 -0.00000000000E+00 -0.21347852129E+03  0.21347852129E+03  0.00000000000E+00 0. -1.
         25    1    1    2    0    0  0.39222978959E+02 -0.25594602599E+03  0.42014075095E+03  0.50910712125E+03  0.12500000000E+03 0.  0.
         21    1    1    2  502  503  0.22608700721E+02 -0.10840728848E+02  0.43649815406E+02  0.50338664416E+02  0.00000000000E+00 0.  1.
         21    1    1    2  503  501 -0.61831679680E+02  0.26678675484E+03 -0.52463594357E+02  0.27883822891E+03  0.00000000000E+00 0. -1.
<mgrwt>
<rscale>  4 0.69690127E+03</rscale>
<asrwt>0</asrwt>
<pdfrwt beam="1">  1        2 0.32842850E-01 0.69690127E+03</pdfrwt>
<pdfrwt beam="2">  1       -2 0.96123922E-01 0.69690127E+03</pdfrwt>
<totfact> 0.14721757E+02</totfact>
</mgrwt>
</event>
<event>
 5    0  0.4025551E-002  0.8541488E+03  0.7546771E-02  0.9484785E-01
         -1   -1    0    0    0  501 -0.00000000000E+00  0.00000000000E+00  0.79600983643E+02  0.79600983643E+02  0.00000000000E+00 0. -1.
          1   -1    0    0  503    0  0.00000000000E+00 -0.00000000000E+00 -0.33666516383E+04  0.33666516383E+04  0.00000000000E+00 0.  1.
         25    1    1    2    0    0 -0.35571989668E+03  0.23467320664E+03 -0.11878752405E+04  0.12681800920E+04  0.12500000000E+03 0.  0.
         21    1    1    2  502  501  0.31961183343E+03 -0.15524222742E+03 -0.20444073103E+04  0.20750549688E+04  0.00000000000E+00 0.  1.
         21    1    1    2  503  502  0.36108063244E+02 -0.79430979217E+02 -0.54768103825E+02  0.10301756106E+03  0.00000000000E+00 0.  1.
<mgrwt>
<rscale>  4 0.85414881E+03</rscale>
<asrwt>0</asrwt>
<pdfrwt beam="1">  1        1 0.51794638E+00 0.85414881E+03</pdfrwt>
<pdfrwt beam="2">  1       -1 0.12246306E-01 0.85414881E+03</pdfrwt>
<totfact> 0.15282070E+01</totfact>
</mgrwt>
</event>
<event>
 5    0  0.4025551E-002  0.5779480E+03  0.7546771E-02  0.9952244E-01
          2   -1    0    0  502    0  0.00000000000E+00  0.00000000000E+00  0.77308494221E+03  0.77308494221E+03  0.00000000000E+00 0.  1.
         -2   -1    0    0    0  501 -0.00000000000E+00 -0.00000000000E+00 -0.14888844569E+03  0.14888844569E+03  0.00000000000E+00 0. -1.
         25    1    1    2    0    0  0.22670197819E+03 -0.14216883791E+03  0.14681095411E+03  0.32982453158E+03  0.12500000000E+03 0.  0.
         21    1    1    2  502  503 -0.86842384619E+02 -0.45278816966E+02  0.63396600909E+02  0.11666576207E+03  0.00000000000E+00 0.  1.
         21    1    1    2  503  501 -0.13985959357E+03  0.18744765487E+03  0.41398894151E+03  0.47548309425E+03  0.00000000000E+00 0.  1.
<mgrwt>
<rscale>  4 0.57794796E+03</rscale>
<asrwt>0</asrwt>
<pdfrwt beam="1">  1        2 0.11893614E+00 0.57794796E+03</pdfrwt>
<pdfrwt beam="2">  1       -2 0.22905915E-01 0.57794796E+03</pdfrwt>
<totfact> 0.61021402E+02</totfact>
</mgrwt>
</event>
<event>
 5    0  0.4025551E-002  0.5516664E+03  0.7546771E-02  0.1001109E+00
          1   -1    0    0  503    0  0.00000000000E+00  0.00000000000E+00  0.18410816829E+04  0.18410816829E+04  0.00000000000E+00 0.  1.
         -1   -1    0    0    0  501 -0.00000000000E+00 -0.00000000000E+00 -0.78669944038E+02  0.78669944038E+02  0.00000000000E+00 0. -1.
         25    1    1    2    0    0  0.16861105054E+02 -0.30231153612E+03  0.10868730801E+04  0.11351628315E+04  0.12500000000E+03 0.  0.
         21    1    1    2  502  501  0.43240950450E+02  0.21851902907E+03  0.63645669536E+03  0.67431259141E+03  0.00000000000E+00 0. -1.
         21    1    1    2  503  502 -0.60102055505E+02  0.83792507042E+02  0.39081963375E+02  0.11027620402E+03  0.00000000000E+00 0. -1.
<mgrwt>
<rscale>  4 0.55166638E+03</rscale>
<asrwt>0</asrwt>
<pdfrwt beam="1">  1        1 0.28324330E+00 0.55166638E+03</pdfrwt>
<pdfrwt beam="2">  1       -1 0.12103070E-01 0.55166638E+03</pdfrwt>
<totfact> 0.18586128E+02</totfact>
</mgrwt>
</event>
<event>
 5    0  0.4025551E-002  0.4715846E+03  0.7546771E-02  0.1021474E+00
          2   -1    0    0  503    0  0.00000000000E+00  0.00000000000E+00  0.18713348895E+03  0.18713348895E+03  0.00000000000E+00 0.  1.
         -2   -1    0    0    0  501 -0.00000000000E+00 -0.00000000000E+00 -0.29710340965E+03  0.29710340965E+03  0.00000000000E+00 0. -1.
         25    1    1    2    0    0  0.15110722140E+03 -0.14607854213E+03 -0.73202002386E+01  0.24464447298E+03  0.12500000000E+03 0.  0.
         21    1    1    2  502  501 -0.94469889641E+02  0.79635256695E+02 -0.32947357335E+02  0.12787440132E+03  0.00000000000E+00 0. -1.
         21    1    1    2  503  502 -0.56637331763E+02  0.66443285433E+02 -0.69702363120E+02  0.11171802430E+03  0.00000000000E+00 0. -1.
<mgrwt>
<rscale>  4 0.47158455E+03</rscale>
<asrwt>0</asrwt>
<pdfrwt beam="1">  1        2 0.28789768E-01 0.47158455E+03</pdfrwt>
<pdfrwt beam="2">  1       -2 0.45708217E-01 0.47158455E+03</pdfrwt>
<totfact> 0.84900661E+02</totfact>
</mgrwt>
</event>
<event>
 5    0  0.4025551E-002  0.4615608E+03  0.7546771E-02  0.1024330E+00
          1   -1    0    0  502    0  0.00000000000E+00  0.00000000000E+00  0.89906691871E+03  0.89906691871E+03  0.00000000000E+00 0. -1.
         -1   -1    0    0    0  501 -0.00000000000E+00 -0.00000000000E+00 -0.10988322946E+03  0.10988322946E+03  0.00000000000E+00 0.  1.
         25    1    1    2    0    0 -0.46251064902E+02 -0.20686695476E+03  0.41966867623E+03  0.48649758045E+03  0.12500000000E+03 0.  0.
         21    1    1    2  502  503  0.19814654846E+02 -0.62052845610E+01 -0.48369392160E+02  0.52637669031E+02  0.00000000000E+00 0.  1.
         21    1    1    2  503  501  0.26436410056E+02  0.21307223932E+03  0.41788440517E+03  0.46981489869E+03  0.00000000000E+00 0.  1.
<mgrwt>
<rscale>  4 0.46156082E+03</rscale>
<asrwt>0</asrwt>
<pdfrwt beam="1">  1        1 0.13831798E+00 0.46156082E+03</pdfrwt>
<pdfrwt beam="2">  1       -1 0.16905113E-01 0.46156082E+03</pdfrwt>
<totfact> 0.50322388E+02</totfact>
</mgrwt>
</event>
