<event>
 5    0  0.1467858E+000  0.2979949E+03  0.7546771E-02  0.1086247E+00
         21   -1    0    0  504  501  0.00000000000E+00  0.00000000000E+00  0.21824006438E+03  0.21824006438E+03  0.00000000000E+00 0.  1.
         21   -1    0    0  501  502 -0.00000000000E+00 -0.00000000000E+00 -0.44357895396E+03  0.44357895396E+03  0.00000000000E+00 0.  1.
         25    1    1    2    0    0  0.24900487397E+03 -0.10570022885E+03 -0.22381381456E+03  0.37268430237E+03  0.12500000000E+03 0.  0.
         21    1    1    2  503  502 -0.42624111554E+02  0.28716280743E+02  0.39820740415E+02  0.65016390492E+02  0.00000000000E+00 0.  1.
         21    1    1    2  504  503 -0.20638076242E+03  0.76983948104E+02 -0.41345815431E+02  0.22411832548E+03  0.00000000000E+00 0.  1.
<mgrwt>
<rscale>  4 0.29799491E+03</rscale>
<asrwt>0</asrwt>
<pdfrwt beam="1">  1       21 0.33575395E-01 0.29799491E+03</pdfrwt>
<pdfrwt beam="2">  1       21 0.68242916E-01 0.29799491E+03</pdfrwt>
<totfact> 0.15849149E+04</totfact>
</mgrwt>
</event>
<event>
 5    0  0.1467858E+000  0.3076997E+03  0.7546771E-02  0.1081454E+00
         21   -1    0    0  504  501  0.00000000000E+00  0.00000000000E+00  0.33793195527E+03  0.33793195527E+03  0.00000000000E+00 0. -1.
         21   -1    0    0  501  502 -0.00000000000E+00 -0.00000000000E+00 -0.49292244513E+03  0.49292244513E+03  0.00000000000E+00 0.  1.
         25    1    1    2    0    0  0.84970816395E+02 -0.26801882049E+03 -0.36161714554E+03  0.47481163394E+03  0.12500000000E+03 0.  0.
         21    1    1    2  503  502 -0.91956332444E+02  0.24710452728E+03  0.20491514204E+03  0.33392638398E+03  0.00000000000E+00 0. -1.
         21    1    1    2  504  503  0.69855160483E+01  0.20914293211E+02  0.17115136476E+01  0.22116382479E+02  0.00000000000E+00 0.  1.
<mgrwt>
<rscale>  4 0.30769974E+03</rscale>
<asrwt>0</asrwt>
<pdfrwt beam="1">  1       21 0.51989532E-01 0.30769974E+03</pdfrwt>
<pdfrwt beam="2">  1       21 0.75834221E-01 0.30769974E+03</pdfrwt>
<totfact> 0.50702476E+03</totfact>
</mgrwt>
</event>
<event>
 5    0  0.1467858E+000  0.2672176E+03  0.7546771E-02  0.1102883E+00
         21   -1    0    0  504  501  0.00000000000E+00  0.00000000000E+00  0.10241451084E+04  0.10241451084E+04  0.00000000000E+00 0. -1.
         21   -1    0    0  501  502 -0.00000000000E+00 -0.00000000000E+00 -0.21704823583E+03  0.21704823583E+03  0.00000000000E+00 0.  1.
         25    1    1    2    0    0 -0.91769030000E+02  0.21762056515E+03 -0.11236813109E+03  0.28988249710E+03  0.12500000000E+03 0.  0.
         21    1    1    2  503  502  0.60485266709E+02 -0.17277178905E+03  0.78689663081E+03  0.80790770894E+03  0.00000000000E+00 0. -1.
         21    1    1    2  504  503  0.31283763291E+02 -0.44848776095E+02  0.13256837287E+03  0.14340313821E+03  0.00000000000E+00 0. -1.
<mgrwt>
<rscale>  4 0.26721764E+03</rscale>
<asrwt>0</asrwt>
<pdfrwt beam="1">  1       21 0.15756078E+00 0.26721764E+03</pdfrwt>
<pdfrwt beam="2">  1       21 0.33392037E-01 0.26721764E+03</pdfrwt>
<totfact> 0.21302037E+03</totfact>
</mgrwt>
</event>
<event>
 5    0  0.1467858E+000  0.2917819E+03  0.7546771E-02  0.1089422E+00
         21   -1    0    0  504  501  0.00000000000E+00  0.00000000000E+00  0.21698030637E+03  0.21698030637E+03  0.00000000000E+00 0. -1.
         21   -1    0    0  501  502 -0.00000000000E+00 -0.00000000000E+00 -0.40756672819E+03  0.40756672819E+03  0.00000000000E+00 0. -1.
         25    1    1    2    0    0  0.87173387426E+02 -0.24882214758E+03 -0.19587516829E+03  0.35143099202E+03  0.12500000000E+03 0.  0.
         21    1    1    2  503  502  0.69639962898E-01  0.66227665498E+02  0.22680936737E+02  0.70003810027E+02  0.00000000000E+00 0. -1.
         21    1    1    2  504  503 -0.87243027389E+02  0.18259448209E+03 -0.17392190273E+02  0.20311223252E+03  0.00000000000E+00 0. -1.
<mgrwt>
<rscale>  4 0.29178187E+03</rscale>
<asrwt>0</asrwt>
<pdfrwt beam="1">  1       21 0.33381586E-01 0.29178187E+03</pdfrwt>
<pdfrwt beam="2">  1       21 0.62702573E-01 0.29178187E+03</pdfrwt>
<totfact> 0.19370231E+04</totfact>
</mgrwt>
</event>
<event>
 5    0  0.1467858E+000  0.3497782E+03  0.7546771E-02  0.1062706E+00
         21   -1    0    0  504  501  0.00000000000E+00  0.00000000000E+00  0.47223983941E+03  0.47223983941E+03  0.00000000000E+00 0. -1.
         21   -1    0    0  501  502 -0.00000000000E+00 -0.00000000000E+00 -0.31249189205E+03  0.31249189205E+03  0.00000000000E+00 0. -1.
         25    1    1    2    0    0 -0.11812414950E+01  0.32667779832E+03 -0.93204022730E+02  0.36198310610E+03  0.12500000000E+03 0.  0.
         21    1    1    2  503  502  0.42918748584E+02 -0.15902558693E+03  0.14151437479E+03  0.21715771814E+03  0.00000000000E+00 0. -1.
         21    1    1    2  504  503 -0.41737507089E+02 -0.16765221140E+03  0.11143759530E+03  0.20559090722E+03  0.00000000000E+00 0. -1.
<mgrwt>
<rscale>  4 0.34977819E+03</rscale>
<asrwt>0</asrwt>
<pdfrwt beam="1">  1       21 0.72652284E-01 0.34977819E+03</pdfrwt>
<pdfrwt beam="2">  1       21 0.48075675E-01 0.34977819E+03</pdfrwt>
<totfact> 0.64657669E+03</totfact>
</mgrwt>
</event>
<event>
 5    0  0.1467858E+000  0.2750897E+03  0.7546771E-02  0.1098401E+00
         21   -1    0    0  504  501  0.00000000000E+00  0.00000000000E+00  0.10885905428E+04  0.10885905428E+04  0.00000000000E+00 0. -1.
         21   -1    0    0  501  502 -0.00000000000E+00 -0.00000000000E+00 -0.62146074623E+03  0.62146074623E+03  0.00000000000E+00 0.  1.
         25    1    1    2    0    0  0.11154953864E+03  0.22252199525E+03 -0.56721204196E+03  0.63191284089E+03  0.12500000000E+03 0.  0.
         21    1    1    2  503  502 -0.55476516606E+01 -0.11400633953E+03  0.20139962932E+03  0.23149521071E+03  0.00000000000E+00 0.  1.
         21    1    1    2  504  503 -0.10600188698E+03 -0.10851565572E+03  0.83294220925E+03  0.84664323745E+03  0.00000000000E+00 0. -1.
<mgrwt>
<rscale>  4 0.27508969E+03</rscale>
<asrwt>0</asrwt>
<pdfrwt beam="1">  1       21 0.16747547E+00 0.27508969E+03</pdfrwt>
<pdfrwt beam="2">  1       21 0.95609345E-01 0.27508969E+03</pdfrwt>
<totfact> 0.18541551E+02</totfact>
</mgrwt>
</event>
<event>
 5    0  0.1467858E+000  0.2198268E+03  0.7546771E-02  0.1134012E+00
         21   -1    0    0  504  501  0.00000000000E+00  0.00000000000E+00  0.50929709833E+02  0.50929709833E+02  0.00000000000E+00 0. -1.
         21   -1    0    0  501  502 -0.00000000000E+00 -0.00000000000E+00 -0.11029130614E+04  0.11029130614E+04  0.00000000000E+00 0. -1.
         25    1    1    2    0    0 -0.93143756241E+02 -0.17733037119E+03 -0.47537194463E+03  0.53077801915E+03  0.12500000000E+03 0.  0.
         21    1    1    2  503  502  0.88843477943E+02  0.14329817844E+03 -0.29833851693E+03  0.34268557338E+03  0.00000000000E+00 0. -1.
         21    1    1    2  504  503  0.43002782980E+01  0.34032192749E+02 -0.27827288997E+03  0.28037917867E+03  0.00000000000E+00 0. -1.
<mgrwt>
<rscale>  4 0.21982683E+03</rscale>
<asrwt>0</asrwt>
<pdfrwt beam="1">  1       21 0.78353394E-02 0.21982683E+03</pdfrwt>
<pdfrwt beam="2">  1       21 0.16967895E+00 0.21982683E+03</pdfrwt>
<totfact> 0.26219300E+04</totfact>
</mgrwt>
</event>
<event>
 5    0  0.1467858E+000  0.2750862E+03  0.7546771E-02  0.1098403E+00
         21   -1    0    0  504  501  0.00000000000E+00  0.00000000000E+00  0.21614756814E+03  0.21614756814E+03  0.00000000000E+00 0. -1.
         21   -1    0    0  501  502 -0.00000000000E+00 -0.00000000000E+00 -0.39225070671E+03  0.39225070671E+03  0.00000000000E+00 0. -1.
         25    1    1    2    0    0 -0.19188184879E+03 -0.15240985069E+03  0.37655912132E+02  0.27765153376E+03  0.12500000000E+03 0.  0.
         21    1    1    2  503  502  0.15110108375E+03  0.14404255526E+03 -0.19266722856E+03  0.28407825717E+03  0.00000000000E+00 0. -1.
         21    1    1    2  504  503  0.40780765036E+02  0.83672954330E+01 -0.21091822133E+02  0.46668483912E+02  0.00000000000E+00 0. -1.
<mgrwt>
<rscale>  4 0.27508618E+03</rscale>
<asrwt>0</asrwt>
<pdfrwt beam="1">  1       21 0.33253472E-01 0.27508618E+03</pdfrwt>
<pdfrwt beam="2">  1       21 0.60346262E-01 0.27508618E+03</pdfrwt>
<totfact> 0.21366484E+04</totfact>
</mgrwt>
</event>
<event>
 5    0  0.1467858E+000  0.2715738E+03  0.7546771E-02  0.1100382E+00
         21   -1    0    0  504  501  0.00000000000E+00  0.00000000000E+00  0.13231945092E+04  0.13231945092E+04  0.00000000000E+00 0. -1.
         21   -1    0    0  501  502 -0.00000000000E+00 -0.00000000000E+00 -0.71235611221E+03  0.71235611221E+03  0.00000000000E+00 0.  1.
         25    1    1    2    0    0  0.14000612022E+03  0.19627949979E+03 -0.67418772417E+03  0.72682972088E+03  0.12500000000E+03 0.  0.
         21    1    1    2  503  502 -0.15113912833E+02 -0.45586186859E+02  0.36203736197E+03  0.36520895697E+03  0.00000000000E+00 0. -1.
         21    1    1    2  504  503 -0.12489220739E+03 -0.15069331293E+03  0.92298875917E+03  0.94351194353E+03  0.00000000000E+00 0. -1.
<mgrwt>
<rscale>  4 0.27157385E+03</rscale>
<asrwt>0</asrwt>
<pdfrwt beam="1">  1       21 0.20356839E+00 0.27157385E+03</pdfrwt>
<pdfrwt beam="2">  1       21 0.10959325E+00 0.27157385E+03</pdfrwt>
<totfact> 0.76058220E+01</totfact>
</mgrwt>
</event>
<event>
 5    0  0.1467858E+000  0.3967698E+03  0.7546771E-02  0.1044904E+00
         21   -1    0    0  504  501  0.00000000000E+00  0.00000000000E+00  0.93282655844E+03  0.93282655844E+03  0.00000000000E+00 0.  1.
         21   -1    0    0  501  502 -0.00000000000E+00 -0.00000000000E+00 -0.43463993489E+03  0.43463993489E+03  0.00000000000E+00 0.  1.
         25    1    1    2    0    0  0.37674984863E+03  0.39812204795E+02 -0.28511820805E+03  0.49034972484E+03  0.12500000000E+03 0.  0.
         21    1    1    2  503  502 -0.22346357899E+02  0.25063691485E+02  0.52419807189E+02  0.62252586516E+02  0.00000000000E+00 0. -1.
         21    1    1    2  504  503 -0.35440349073E+03 -0.64875896280E+02  0.73088502441E+03  0.81486418197E+03  0.00000000000E+00 0.  1.
<mgrwt>
<rscale>  4 0.39676982E+03</rscale>
<asrwt>0</asrwt>
<pdfrwt beam="1">  1       21 0.14351178E+00 0.39676982E+03</pdfrwt>
<pdfrwt beam="2">  1       21 0.66867683E-01 0.39676982E+03</pdfrwt>
<totfact> 0.58997700E+02</totfact>
</mgrwt>
</event>
<event>
 5    0  0.1467858E+000  0.2878314E+03  0.7546771E-02  0.1091487E+00
         21   -1    0    0  504  501  0.00000000000E+00  0.00000000000E+00  0.10850353749E+04  0.10850353749E+04  0.00000000000E+00 0.  1.
         21   -1    0    0  501  502 -0.00000000000E+00 -0.00000000000E+00 -0.70179863185E+02  0.70179863185E+02  0.00000000000E+00 0.  1.
         25    1    1    2    0    0  0.24558117551E+03  0.83137271929E+02  0.49789744000E+03  0.57510762515E+03  0.12500000000E+03 0.  0.
         21    1    1    2  503  502 -0.49107523961E+02 -0.13016816118E+02  0.66465880524E+02  0.83658231425E+02  0.00000000000E+00 0.  1.
         21    1    1    2  504  503 -0.19647365155E+03 -0.70120455812E+02  0.45049219121E+03  0.49644938153E+03  0.00000000000E+00 0.  1.
<mgrwt>
<rscale>  4 0.28783141E+03</rscale>
<asrwt>0</asrwt>
<pdfrwt beam="1">  1       21 0.16692851E+00 0.28783141E+03</pdfrwt>
<pdfrwt beam="2">  1       21 0.10796903E-01 0.28783141E+03</pdfrwt>
<totfact> 0.14988585E+04</totfact>
</mgrwt>
</event>
<event>
 5    0  0.1467858E+000  0.2621246E+03  0.7546771E-02  0.1105873E+00
         21   -1    0    0  504  501  0.00000000000E+00  0.00000000000E+00  0.10066842342E+03  0.10066842342E+03  0.00000000000E+00 0.  1.
         21   -1    0    0  501  502 -0.00000000000E+00 -0.00000000000E+00 -0.62728543789E+03  0.62728543789E+03  0.00000000000E+00 0.  1.
         25    1    1    2    0    0 -0.14189122465E+03  0.18152464577E+03 -0.26742254248E+03  0.37446512906E+03  0.12500000000E+03 0.  0.
         21    1    1    2  503  502  0.12470696715E+03 -0.15478398631E+03 -0.18002677065E+03  0.26817820237E+03  0.00000000000E+00 0.  1.
         21    1    1    2  504  503  0.17184257500E+02 -0.26740659455E+02 -0.79167701341E+02  0.85310529887E+02  0.00000000000E+00 0.  1.
<mgrwt>
<rscale>  4 0.26212462E+03</rscale>
<asrwt>0</asrwt>
<pdfrwt beam="1">  1       21 0.15487450E-01 0.26212462E+03</pdfrwt>
<pdfrwt beam="2">  1       21 0.96505451E-01 0.26212462E+03</pdfrwt>
<totfact> 0.31913201E+04</totfact>
</mgrwt>
</event>
<event>
 5    0  0.1467858E+000  0.3282969E+03  0.7546771E-02  0.1071893E+00
         21   -1    0    0  504  501  0.00000000000E+00  0.00000000000E+00  0.12618974554E+03  0.12618974554E+03  0.00000000000E+00 0. -1.
         21   -1    0    0  501  502 -0.00000000000E+00 -0.00000000000E+00 -0.85075297853E+03  0.85075297853E+03  0.00000000000E+00 0. -1.
         25    1    1    2    0    0 -0.28232233551E+03  0.11157044970E+03 -0.45405954466E+03  0.56031146381E+03  0.12500000000E+03 0.  0.
         21    1    1    2  503  502  0.36898038141E+02 -0.48545199853E+02 -0.74568925047E+02  0.96325626030E+02  0.00000000000E+00 0.  1.
         21    1    1    2  504  503  0.24542429737E+03 -0.63025249847E+02 -0.19593476328E+03  0.32030563423E+03  0.00000000000E+00 0. -1.
<mgrwt>
<rscale>  4 0.32829692E+03</rscale>
<asrwt>0</asrwt>
<pdfrwt beam="1">  1       21 0.19413808E-01 0.32829692E+03</pdfrwt>
<pdfrwt beam="2">  1       21 0.13088507E+00 0.32829692E+03</pdfrwt>
<totfact> 0.95940026E+03</totfact>
</mgrwt>
</event>
<event>
 5    0  0.1467858E+000  0.2408688E+03  0.7546771E-02  0.1119215E+00
         21   -1    0    0  504  501  0.00000000000E+00  0.00000000000E+00  0.16072207549E+03  0.16072207549E+03  0.00000000000E+00 0.  1.
         21   -1    0    0  501  502 -0.00000000000E+00 -0.00000000000E+00 -0.34311735693E+03  0.34311735693E+03  0.00000000000E+00 0.  1.
         25    1    1    2    0    0 -0.15983529068E+03  0.12979013358E+03 -0.15450257845E+03  0.28616227157E+03  0.12500000000E+03 0.  0.
         21    1    1    2  503  502  0.68160071168E+02 -0.96349307138E+02 -0.20757870046E+02  0.11983268943E+03  0.00000000000E+00 0.  1.
         21    1    1    2  504  503  0.91675219510E+02 -0.33440826446E+02 -0.71348329490E+01  0.97844471417E+02  0.00000000000E+00 0.  1.
<mgrwt>
<rscale>  4 0.24086884E+03</rscale>
<asrwt>0</asrwt>
<pdfrwt beam="1">  1       21 0.24726474E-01 0.24086884E+03</pdfrwt>
<pdfrwt beam="2">  1       21 0.52787284E-01 0.24086884E+03</pdfrwt>
<totfact> 0.51479945E+04</totfact>
</mgrwt>
</event>
<event>
 5    0  0.1467858E+000  0.2556045E+03  0.7546771E-02  0.1109813E+00
         21   -1    0    0  504  501  0.00000000000E+00  0.00000000000E+00  0.28291873889E+03  0.28291873889E+03  0.00000000000E+00 0.  1.
         21   -1    0    0  501  502 -0.00000000000E+00 -0.00000000000E+00 -0.21426924320E+03  0.21426924320E+03  0.00000000000E+00 0.  1.
         25    1    1    2    0    0 -0.82020231419E+02  0.20731941658E+03  0.87411727947E+02  0.27013787042E+03  0.12500000000E+03 0.  0.
         21    1    1    2  503  502  0.58513261723E+02 -0.16903889128E+03 -0.28361305156E+02  0.18111408613E+03  0.00000000000E+00 0.  1.
         21    1    1    2  504  503  0.23506969697E+02 -0.38280525299E+02  0.95990729020E+01  0.45936025536E+02  0.00000000000E+00 0.  1.
<mgrwt>
<rscale>  4 0.25560450E+03</rscale>
<asrwt>0</asrwt>
<pdfrwt beam="1">  1       21 0.43525960E-01 0.25560450E+03</pdfrwt>
<pdfrwt beam="2">  1       21 0.32964499E-01 0.25560450E+03</pdfrwt>
<totfact> 0.43681597E+04</totfact>
</mgrwt>
</event>
<event>
 5    0  0.1467858E+000  0.2434079E+03  0.7546771E-02  0.1117543E+00
         21   -1    0    0  504  501  0.00000000000E+00  0.00000000000E+00  0.10676157274E+04  0.10676157274E+04  0.00000000000E+00 0.  1.
         21   -1    0    0  501  502 -0.00000000000E+00 -0.00000000000E+00 -0.17918812344E+03  0.17918812344E+03  0.00000000000E+00 0.  1.
         25    1    1    2    0    0 -0.21112893745E+03  0.25215504824E+02 -0.69828887575E+02  0.25634415042E+03  0.12500000000E+03 0.  0.
         21    1    1    2  503  502  0.42423151829E+02  0.46420147226E+02  0.17235764168E+03  0.18347127984E+03  0.00000000000E+00 0.  1.
         21    1    1    2  504  503  0.16870578562E+03 -0.71635652049E+02  0.78589884981E+03  0.80698842054E+03  0.00000000000E+00 0.  1.
<mgrwt>
<rscale>  4 0.24340790E+03</rscale>
<asrwt>0</asrwt>
<pdfrwt beam="1">  1       21 0.16424857E+00 0.24340790E+03</pdfrwt>
<pdfrwt beam="2">  1       21 0.27567404E-01 0.24340790E+03</pdfrwt>
<totfact> 0.28194348E+03</totfact>
</mgrwt>
</event>
<event>
 5    0  0.1467858E+000  0.3246447E+03  0.7546771E-02  0.1073531E+00
         21   -1    0    0  504  501  0.00000000000E+00  0.00000000000E+00  0.86608210355E+02  0.86608210355E+02  0.00000000000E+00 0. -1.
         21   -1    0    0  501  502 -0.00000000000E+00 -0.00000000000E+00 -0.13010592016E+04  0.13010592016E+04  0.00000000000E+00 0. -1.
         25    1    1    2    0    0  0.17044771598E+03  0.25691278081E+03 -0.77221653793E+03  0.84083290985E+03  0.12500000000E+03 0.  0.
         21    1    1    2  503  502 -0.15236133189E+03 -0.24524732393E+03 -0.43846107783E+03  0.52498413511E+03  0.00000000000E+00 0. -1.
         21    1    1    2  504  503 -0.18086384092E+02 -0.11665456884E+02 -0.37733754432E+01  0.21850366955E+02  0.00000000000E+00 0. -1.
<mgrwt>
<rscale>  4 0.32464469E+03</rscale>
<asrwt>0</asrwt>
<pdfrwt beam="1">  1       21 0.13324340E-01 0.32464469E+03</pdfrwt>
<pdfrwt beam="2">  1       21 0.20016295E+00 0.32464469E+03</pdfrwt>
<totfact> 0.59392351E+03</totfact>
</mgrwt>
</event>
<event>
 5    0  0.1467858E+000  0.3086249E+03  0.7546771E-02  0.1081007E+00
         21   -1    0    0  504  501  0.00000000000E+00  0.00000000000E+00  0.31459206631E+03  0.31459206631E+03  0.00000000000E+00 0. -1.
         21   -1    0    0  501  502 -0.00000000000E+00 -0.00000000000E+00 -0.28483067441E+03  0.28483067441E+03  0.00000000000E+00 0. -1.
         25    1    1    2    0    0  0.15687333985E+03 -0.23455289679E+03  0.30243851223E+02  0.31010320328E+03  0.12500000000E+03 0.  0.
         21    1    1    2  503  502 -0.42160471107E+02  0.30802376887E+02 -0.17005059000E+02  0.54913238636E+02  0.00000000000E+00 0.  1.
         21    1    1    2  504  503 -0.11471286874E+03  0.20375051991E+03  0.16522599682E+02  0.23440629880E+03  0.00000000000E+00 0. -1.
<mgrwt>
<rscale>  4 0.30862486E+03</rscale>
<asrwt>0</asrwt>
<pdfrwt beam="1">  1       21 0.48398780E-01 0.30862486E+03</pdfrwt>
<pdfrwt beam="2">  1       21 0.43820104E-01 0.30862486E+03</pdfrwt>
<totfact> 0.19279487E+04</totfact>
</mgrwt>
</event>
<event>
 5    0  0.1467858E+000  0.3467733E+03  0.7546771E-02  0.1063947E+00
         21   -1    0    0  504  501  0.00000000000E+00  0.00000000000E+00  0.85922382158E+03  0.85922382158E+03  0.00000000000E+00 0. -1.
         21   -1    0    0  501  502 -0.00000000000E+00 -0.00000000000E+00 -0.19975577361E+03  0.19975577361E+03  0.00000000000E+00 0. -1.
         25    1    1    2    0    0  0.12567599005E+03 -0.29804741464E+03  0.64169045173E+03  0.72939588133E+03  0.12500000000E+03 0.  0.
         21    1    1    2  503  502 -0.83103538086E+02  0.24101441823E+03  0.32206421255E+02  0.25696575921E+03  0.00000000000E+00 0. -1.
         21    1    1    2  504  503 -0.42572451966E+02  0.57032996411E+02 -0.14428825018E+02  0.72617954649E+02  0.00000000000E+00 0.  1.
<mgrwt>
<rscale>  4 0.34677329E+03</rscale>
<asrwt>0</asrwt>
<pdfrwt beam="1">  1       21 0.13218828E+00 0.34677329E+03</pdfrwt>
<pdfrwt beam="2">  1       21 0.30731658E-01 0.34677329E+03</pdfrwt>
<totfact> 0.38200129E+03</totfact>
</mgrwt>
</event>
<event>
 5    0  0.1467858E+000  0.3247269E+03  0.7546771E-02  0.1073793E+00
         21   -1    0    0  504  501  0.00000000000E+00  0.00000000000E+00  0.15003988319E+03  0.15003988319E+03  0.00000000000E+00 0.  1.
         21   -1    0    0  501  502 -0.00000000000E+00 -0.00000000000E+00 -0.12141417932E+04  0.12141417932E+04  0.00000000000E+00 0.  1.
         25    1    1    2    0    0  0.29659538368E+03 -0.12134521890E+02 -0.97591657752E+03  0.10276936482E+04  0.12500000000E+03 0.  0.
         21    1    1    2  503  502 -0.16427565957E+03  0.70619814100E+02 -0.34065965143E+02  0.18202785625E+03  0.00000000000E+00 0.  1.
         21    1    1    2  504  503 -0.13231972411E+03 -0.58485292210E+02 -0.54119367326E+02  0.15446017193E+03  0.00000000000E+00 0.  1.
<mgrwt>
<rscale>  4 0.32406528E+03</rscale>
<asrwt>0</asrwt>
<pdfrwt beam="1">  1       21 0.23083059E-01 0.32472687E+03</pdfrwt>
<pdfrwt beam="2">  1       21 0.18679105E+00 0.32472687E+03</pdfrwt>
<totfact> 0.26136822E+03</totfact>
</mgrwt>
</event>
<event>
 5    0  0.1467858E+000  0.2483672E+03  0.7546771E-02  0.1114341E+00
         21   -1    0    0  504  501  0.00000000000E+00  0.00000000000E+00  0.10419756610E+04  0.10419756610E+04  0.00000000000E+00 0. -1.
         21   -1    0    0  501  502 -0.00000000000E+00 -0.00000000000E+00 -0.53508227673E+02  0.53508227673E+02  0.00000000000E+00 0. -1.
         25    1    1    2    0    0  0.72646692133E+01 -0.21449590872E+03  0.45015878450E+03  0.51412955716E+03  0.12500000000E+03 0.  0.
         21    1    1    2  503  502 -0.16728522573E+02  0.18980679820E+03  0.43863637927E+03  0.47823460491E+03  0.00000000000E+00 0. -1.
         21    1    1    2  504  503  0.94638533597E+01  0.24689110520E+02  0.99672269522E+02  0.10311972658E+03  0.00000000000E+00 0. -1.
<mgrwt>
<rscale>  4 0.24836721E+03</rscale>
<asrwt>0</asrwt>
<pdfrwt beam="1">  1       21 0.16030393E+00 0.24836721E+03</pdfrwt>
<pdfrwt beam="2">  1       21 0.82320358E-02 0.24836721E+03</pdfrwt>
<totfact> 0.27659268E+04</totfact>
</mgrwt>
</event>
<event>
 5    0  0.1467858E+000  0.2960715E+03  0.7546771E-02  0.1087221E+00
         21   -1    0    0  504  501  0.00000000000E+00  0.00000000000E+00  0.32559405334E+03  0.32559405334E+03  0.00000000000E+00 0. -1.
         21   -1    0    0  501  502 -0.00000000000E+00 -0.00000000000E+00 -0.45436237708E+03  0.45436237708E+03  0.00000000000E+00 0.  1.
         25    1    1    2    0    0 -0.16603844929E+03 -0.21086624914E+03 -0.32743375923E+03  0.44144219140E+03  0.12500000000E+03 0.  0.
         21    1    1    2  503  502  0.43131041217E+02  0.58333774254E+02  0.86089727346E+02  0.11258133544E+03  0.00000000000E+00 0. -1.
         21    1    1    2  504  503  0.12290740807E+03  0.15253247489E+03  0.11257570815E+03  0.22593290358E+03  0.00000000000E+00 0. -1.
<mgrwt>
<rscale>  4 0.29607151E+03</rscale>
<asrwt>0</asrwt>
<pdfrwt beam="1">  1       21 0.50091393E-01 0.29607151E+03</pdfrwt>
<pdfrwt beam="2">  1       21 0.69901904E-01 0.29607151E+03</pdfrwt>
<totfact> 0.66243693E+03</totfact>
</mgrwt>
</event>
<event>
 5    0  0.1467858E+000  0.3760297E+03  0.7546771E-02  0.1052411E+00
         21   -1    0    0  504  501  0.00000000000E+00  0.00000000000E+00  0.10376022799E+04  0.10376022799E+04  0.00000000000E+00 0.  1.
         21   -1    0    0  501  502 -0.00000000000E+00 -0.00000000000E+00 -0.14257140717E+03  0.14257140717E+03  0.00000000000E+00 0.  1.
         25    1    1    2    0    0 -0.28445024670E+03 -0.22355193969E+03  0.44353711708E+03  0.58586481958E+03  0.12500000000E+03 0.  0.
         21    1    1    2  503  502  0.28699711730E+03  0.19837282591E+03  0.36812500801E+03  0.50718354165E+03  0.00000000000E+00 0.  1.
         21    1    1    2  504  503 -0.25468705977E+01  0.25179113774E+02  0.83368747645E+02  0.87125325848E+02  0.00000000000E+00 0.  1.
<mgrwt>
<rscale>  4 0.37602970E+03</rscale>
<asrwt>0</asrwt>
<pdfrwt beam="1">  1       21 0.15963112E+00 0.37602970E+03</pdfrwt>
<pdfrwt beam="2">  1       21 0.21934063E-01 0.37602970E+03</pdfrwt>
<totfact> 0.43901466E+03</totfact>
</mgrwt>
</event>
<event>
 5    0  0.1467858E+000  0.2829966E+03  0.7546771E-02  0.1094063E+00
         21   -1    0    0  504  501  0.00000000000E+00  0.00000000000E+00  0.17413835673E+03  0.17413835673E+03  0.00000000000E+00 0.  1.
         21   -1    0    0  501  502 -0.00000000000E+00 -0.00000000000E+00 -0.10585935107E+04  0.10585935107E+04  0.00000000000E+00 0.  1.
         25    1    1    2    0    0 -0.16080582718E+03  0.19647793108E+03 -0.91463868328E+03  0.95741893255E+03  0.12500000000E+03 0.  0.
         21    1    1    2  503  502  0.71896979365E+02 -0.34239661331E+02 -0.22871094731E+02  0.82852984401E+02  0.00000000000E+00 0.  1.
         21    1    1    2  504  503  0.88908847813E+02 -0.16223826975E+03  0.53054624071E+02  0.19245995045E+03  0.00000000000E+00 0.  1.
<mgrwt>
<rscale>  4 0.28299663E+03</rscale>
<asrwt>0</asrwt>
<pdfrwt beam="1">  1       21 0.26790516E-01 0.28299663E+03</pdfrwt>
<pdfrwt beam="2">  1       21 0.16286054E+00 0.28299663E+03</pdfrwt>
<totfact> 0.29679354E+03</totfact>
</mgrwt>
</event>
<event>
 5    0  0.1467858E+000  0.2422083E+03  0.7546771E-02  0.1118330E+00
         21   -1    0    0  504  501  0.00000000000E+00  0.00000000000E+00  0.25282451025E+03  0.25282451025E+03  0.00000000000E+00 0. -1.
         21   -1    0    0  501  502 -0.00000000000E+00 -0.00000000000E+00 -0.20823026249E+03  0.20823026249E+03  0.00000000000E+00 0.  1.
         25    1    1    2    0    0 -0.16380988295E+03 -0.12730354069E+03 -0.16143162114E+02  0.24274569184E+03  0.12500000000E+03 0.  0.
         21    1    1    2  503  502  0.14641115780E+03  0.99959722288E+02  0.51382754129E+02  0.18457616485E+03  0.00000000000E+00 0. -1.
         21    1    1    2  504  503  0.17398725141E+02  0.27343818401E+02  0.93546557387E+01  0.33732916050E+02  0.00000000000E+00 0. -1.
<mgrwt>
<rscale>  4 0.24220832E+03</rscale>
<asrwt>0</asrwt>
<pdfrwt beam="1">  1       21 0.38896079E-01 0.24220832E+03</pdfrwt>
<pdfrwt beam="2">  1       21 0.32035425E-01 0.24220832E+03</pdfrwt>
<totfact> 0.58458812E+04</totfact>
</mgrwt>
</event>
<event>
 5    0  0.1467858E+000  0.3302081E+03  0.7546771E-02  0.1071045E+00
         21   -1    0    0  504  501  0.00000000000E+00  0.00000000000E+00  0.21913915640E+03  0.21913915640E+03  0.00000000000E+00 0.  1.
         21   -1    0    0  501  502 -0.00000000000E+00 -0.00000000000E+00 -0.62864037112E+03  0.62864037112E+03  0.00000000000E+00 0. -1.
         25    1    1    2    0    0  0.14193117426E+03  0.31448561748E+03 -0.24712551237E+03  0.44242703431E+03  0.12500000000E+03 0.  0.
         21    1    1    2  503  502 -0.27870383100E+02 -0.53238126390E+02 -0.95043218928E+02  0.11244674215E+03  0.00000000000E+00 0.  1.
         21    1    1    2  504  503 -0.11406079116E+03 -0.26124749109E+03 -0.67332483422E+02  0.29290575106E+03  0.00000000000E+00 0.  1.
<mgrwt>
<rscale>  4 0.33020810E+03</rscale>
<asrwt>0</asrwt>
<pdfrwt beam="1">  1       21 0.33713717E-01 0.33020810E+03</pdfrwt>
<pdfrwt beam="2">  1       21 0.96713901E-01 0.33020810E+03</pdfrwt>
<totfact> 0.69543830E+03</totfact>
</mgrwt>
</event>
<event>
 5    0  0.1467858E+000  0.2625573E+03  0.7546771E-02  0.1105616E+00
         21   -1    0    0  504  501  0.00000000000E+00  0.00000000000E+00  0.18921383397E+03  0.18921383397E+03  0.00000000000E+00 0. -1.
         21   -1    0    0  501  502 -0.00000000000E+00 -0.00000000000E+00 -0.67960770814E+03  0.67960770814E+03  0.00000000000E+00 0.  1.
         25    1    1    2    0    0 -0.20329593807E+03  0.10946265643E+03 -0.56309753917E+03  0.62130117512E+03  0.12500000000E+03 0.  0.
         21    1    1    2  503  502  0.18193235564E+03 -0.11363597220E+03  0.62137017488E+02  0.22332381232E+03  0.00000000000E+00 0. -1.
         21    1    1    2  504  503  0.21363582423E+02  0.41733157670E+01  0.10566647501E+02  0.24196554669E+02  0.00000000000E+00 0.  1.
<mgrwt>
<rscale>  4 0.26255725E+03</rscale>
<asrwt>0</asrwt>
<pdfrwt beam="1">  1       21 0.29109821E-01 0.26255725E+03</pdfrwt>
<pdfrwt beam="2">  1       21 0.10455503E+00 0.26255725E+03</pdfrwt>
<totfact> 0.79708806E+03</totfact>
</mgrwt>
</event>
<event>
 5    0  0.1467858E+000  0.2520678E+03  0.7546771E-02  0.1112005E+00
         21   -1    0    0  504  501  0.00000000000E+00  0.00000000000E+00  0.95517921082E+02  0.95517921082E+02  0.00000000000E+00 0.  1.
         21   -1    0    0  501  502 -0.00000000000E+00 -0.00000000000E+00 -0.89428595947E+03  0.89428595947E+03  0.00000000000E+00 0.  1.
         25    1    1    2    0    0 -0.64800125514E+01 -0.20422824151E+03 -0.53746496498E+03  0.58842565696E+03  0.12500000000E+03 0.  0.
         21    1    1    2  503  502  0.22863563460E+02 -0.45659586950E+02 -0.24171532254E+02  0.56496047526E+02  0.00000000000E+00 0.  1.
         21    1    1    2  504  503 -0.16383550909E+02  0.24988782846E+03 -0.23713154115E+03  0.34488217606E+03  0.00000000000E+00 0.  1.
<mgrwt>
<rscale>  4 0.25206781E+03</rscale>
<asrwt>0</asrwt>
<pdfrwt beam="1">  1       21 0.14695065E-01 0.25206781E+03</pdfrwt>
<pdfrwt beam="2">  1       21 0.13758246E+00 0.25206781E+03</pdfrwt>
<totfact> 0.14684560E+04</totfact>
</mgrwt>
</event>
<event>
 5    0  0.1467858E+000  0.2886883E+03  0.7546771E-02  0.1091036E+00
         21   -1    0    0  504  501  0.00000000000E+00  0.00000000000E+00  0.59346353507E+03  0.59346353507E+03  0.00000000000E+00 0. -1.
         21   -1    0    0  501  502 -0.00000000000E+00 -0.00000000000E+00 -0.40487894558E+03  0.40487894558E+03  0.00000000000E+00 0. -1.
         25    1    1    2    0    0 -0.20287983843E+03  0.16295912636E+03  0.50794100438E+03  0.58424735312E+03  0.12500000000E+03 0.  0.
         21    1    1    2  503  502  0.16422069173E+03 -0.13959850059E+03 -0.23838849822E+03  0.32138023125E+03  0.00000000000E+00 0. -1.
         21    1    1    2  504  503  0.38659146701E+02 -0.23360625770E+02 -0.80967916676E+02  0.92714896273E+02  0.00000000000E+00 0. -1.
<mgrwt>
<rscale>  4 0.28868825E+03</rscale>
<asrwt>0</asrwt>
<pdfrwt beam="1">  1       21 0.91302083E-01 0.28868825E+03</pdfrwt>
<pdfrwt beam="2">  1       21 0.62289068E-01 0.28868825E+03</pdfrwt>
<totfact> 0.22634078E+03</totfact>
</mgrwt>
</event>
<event>
 5    0  0.1467858E+000  0.2952910E+03  0.7546771E-02  0.1087619E+00
         21   -1    0    0  504  501  0.00000000000E+00  0.00000000000E+00  0.39548819885E+03  0.39548819885E+03  0.00000000000E+00 0.  1.
         21   -1    0    0  501  502 -0.00000000000E+00 -0.00000000000E+00 -0.38258582404E+03  0.38258582404E+03  0.00000000000E+00 0.  1.
         25    1    1    2    0    0  0.26731194798E+02  0.26619014075E+03 -0.25579199424E+03  0.39067415083E+03  0.12500000000E+03 0.  0.
         21    1    1    2  503  502 -0.18702633272E+02 -0.20865223589E+02  0.75764549977E+01  0.29026689737E+02  0.00000000000E+00 0.  1.
         21    1    1    2  504  503 -0.80285615257E+01 -0.24532491716E+03  0.26111791405E+03  0.35837318234E+03  0.00000000000E+00 0.  1.
<mgrwt>
<rscale>  4 0.29529095E+03</rscale>
<asrwt>0</asrwt>
<pdfrwt beam="1">  1       21 0.60844338E-01 0.29529095E+03</pdfrwt>
<pdfrwt beam="2">  1       21 0.58859358E-01 0.29529095E+03</pdfrwt>
<totfact> 0.63751300E+03</totfact>
</mgrwt>
</event>
<event>
 5    0  0.1467858E+000  0.2797678E+03  0.7546771E-02  0.1095816E+00
         21   -1    0    0  504  501  0.00000000000E+00  0.00000000000E+00  0.46014372366E+02  0.46014372366E+02  0.00000000000E+00 0.  1.
         21   -1    0    0  501  502 -0.00000000000E+00 -0.00000000000E+00 -0.18630936964E+04  0.18630936964E+04  0.00000000000E+00 0.  1.
         25    1    1    2    0    0  0.24236500023E+03 -0.62484027198E+02 -0.55719329281E+03  0.62348569554E+03  0.12500000000E+03 0.  0.
         21    1    1    2  503  502 -0.77883745214E+02  0.10868659253E+02 -0.52041851802E+03  0.52632636208E+03  0.00000000000E+00 0.  1.
         21    1    1    2  504  503 -0.16448125501E+03  0.51615367945E+02 -0.73946751320E+03  0.75929601114E+03  0.00000000000E+00 0.  1.
<mgrwt>
<rscale>  4 0.27976784E+03</rscale>
<asrwt>0</asrwt>
<pdfrwt beam="1">  1       21 0.70791333E-02 0.27976784E+03</pdfrwt>
<pdfrwt beam="2">  1       21 0.28662984E+00 0.27976784E+03</pdfrwt>
<totfact> 0.55776333E+03</totfact>
</mgrwt>
</event>
<event>
 5    0  0.1467858E+000  0.2029693E+03  0.7546771E-02  0.1147258E+00
         21   -1    0    0  504  501  0.00000000000E+00  0.00000000000E+00  0.70982862978E+02  0.70982862978E+02  0.00000000000E+00 0. -1.
         21   -1    0    0  501  502 -0.00000000000E+00 -0.00000000000E+00 -0.10871846265E+04  0.10871846265E+04  0.00000000000E+00 0. -1.
         25    1    1    2    0    0  0.95987875188E+02  0.20570896905E+03 -0.63480360395E+03  0.68566060680E+03  0.12500000000E+03 0.  0.
         21    1    1    2  503  502 -0.16834037504E+00 -0.11809021689E+03 -0.75419061958E+02  0.14011910138E+03  0.00000000000E+00 0. -1.
         21    1    1    2  504  503 -0.95819534813E+02 -0.87618752154E+02 -0.30597909764E+03  0.33238778132E+03  0.00000000000E+00 0. -1.
<mgrwt>
<rscale>  4 0.20296925E+03</rscale>
<asrwt>0</asrwt>
<pdfrwt beam="1">  1       21 0.10920441E-01 0.20296925E+03</pdfrwt>
<pdfrwt beam="2">  1       21 0.16725917E+00 0.20296925E+03</pdfrwt>
<totfact> 0.15373016E+04</totfact>
</mgrwt>
</event>
<event>
 5    0  0.1467858E+000  0.2697191E+03  0.7546771E-02  0.1101440E+00
         21   -1    0    0  504  501  0.00000000000E+00  0.00000000000E+00  0.70727903394E+03  0.70727903394E+03  0.00000000000E+00 0. -1.
         21   -1    0    0  501  502 -0.00000000000E+00 -0.00000000000E+00 -0.55217092769E+03  0.55217092769E+03  0.00000000000E+00 0.  1.
         25    1    1    2    0    0  0.93011436970E+02 -0.22016414530E+03 -0.49448710251E+03  0.56326359090E+03  0.12500000000E+03 0.  0.
         21    1    1    2  503  502 -0.68566295127E+01  0.95743348902E+02  0.30693541265E+03  0.32159469798E+03  0.00000000000E+00 0. -1.
         21    1    1    2  504  503 -0.86154807457E+02  0.12442079640E+03  0.34265979611E+03  0.37459167275E+03  0.00000000000E+00 0. -1.
<mgrwt>
<rscale>  4 0.26971907E+03</rscale>
<asrwt>0</asrwt>
<pdfrwt beam="1">  1       21 0.10881216E+00 0.26971907E+03</pdfrwt>
<pdfrwt beam="2">  1       21 0.84949373E-01 0.26971907E+03</pdfrwt>
<totfact> 0.75075506E+02</totfact>
</mgrwt>
</event>
<event>
 5    0  0.1467858E+000  0.2754411E+03  0.7546771E-02  0.1098205E+00
         21   -1    0    0  504  501  0.00000000000E+00  0.00000000000E+00  0.25689428470E+04  0.25689428470E+04  0.00000000000E+00 0.  1.
         21   -1    0    0  501  502 -0.00000000000E+00 -0.00000000000E+00 -0.54473683252E+02  0.54473683252E+02  0.00000000000E+00 0. -1.
         25    1    1    2    0    0 -0.58507808457E+02  0.24412512171E+03  0.39180757489E+03  0.48182820013E+03  0.12500000000E+03 0.  0.
         21    1    1    2  503  502  0.44807338607E+02 -0.20965607164E+02  0.20254838057E+03  0.20850204015E+03  0.00000000000E+00 0. -1.
         21    1    1    2  504  503  0.13700469850E+02 -0.22315951455E+03  0.19201132083E+04  0.19330862900E+04  0.00000000000E+00 0.  1.
<mgrwt>
<rscale>  4 0.27544114E+03</rscale>
<asrwt>0</asrwt>
<pdfrwt beam="1">  1       21 0.39522188E+00 0.27544114E+03</pdfrwt>
<pdfrwt beam="2">  1       21 0.83805686E-02 0.27544114E+03</pdfrwt>
<totfact> 0.92843671E+02</totfact>
</mgrwt>
</event>
<event>
 5    0  0.1467858E+000  0.2852016E+03  0.7546771E-02  0.1092881E+00
         21   -1    0    0  504  501  0.00000000000E+00  0.00000000000E+00  0.63245689092E+03  0.63245689092E+03  0.00000000000E+00 0.  1.
         21   -1    0    0  501  502 -0.00000000000E+00 -0.00000000000E+00 -0.13036870590E+03  0.13036870590E+03  0.00000000000E+00 0.  1.
         25    1    1    2    0    0 -0.17173823330E+03 -0.19031794353E+03  0.16500374068E+03  0.32949381610E+03  0.12500000000E+03 0.  0.
         21    1    1    2  503  502  0.16741440835E+03  0.14532350854E+03  0.30834538346E+03  0.37976753647E+03  0.00000000000E+00 0.  1.
         21    1    1    2  504  503  0.43238249509E+01  0.44994434989E+02  0.28739060882E+02  0.53564244255E+02  0.00000000000E+00 0.  1.
<mgrwt>
<rscale>  4 0.28520158E+03</rscale>
<asrwt>0</asrwt>
<pdfrwt beam="1">  1       21 0.97301059E-01 0.28520158E+03</pdfrwt>
<pdfrwt beam="2">  1       21 0.20056724E-01 0.28520158E+03</pdfrwt>
<totfact> 0.19149957E+04</totfact>
</mgrwt>
</event>
<event>
 5    0  0.1467858E+000  0.2433305E+03  0.7546771E-02  0.1117594E+00
         21   -1    0    0  504  501  0.00000000000E+00  0.00000000000E+00  0.17463097982E+03  0.17463097982E+03  0.00000000000E+00 0.  1.
         21   -1    0    0  501  502 -0.00000000000E+00 -0.00000000000E+00 -0.30023640710E+03  0.30023640710E+03  0.00000000000E+00 0.  1.
         25    1    1    2    0    0  0.14212905941E+03  0.15291845226E+03 -0.80275893916E+02  0.25623025137E+03  0.12500000000E+03 0.  0.
         21    1    1    2  503  502 -0.50614695519E+02 -0.49320529412E+02 -0.37938101742E+02  0.80210109012E+02  0.00000000000E+00 0.  1.
         21    1    1    2  504  503 -0.91514363892E+02 -0.10359792285E+03 -0.73914316196E+01  0.13842702655E+03  0.00000000000E+00 0.  1.
<mgrwt>
<rscale>  4 0.24333048E+03</rscale>
<asrwt>0</asrwt>
<pdfrwt beam="1">  1       21 0.26866305E-01 0.24333048E+03</pdfrwt>
<pdfrwt beam="2">  1       21 0.46190216E-01 0.24333048E+03</pdfrwt>
<totfact> 0.57965209E+04</totfact>
</mgrwt>
</event>
<event>
 5    0  0.1467858E+000  0.2734761E+03  0.7546771E-02  0.1099306E+00
         21   -1    0    0  504  501  0.00000000000E+00  0.00000000000E+00  0.30495273357E+03  0.30495273357E+03  0.00000000000E+00 0. -1.
         21   -1    0    0  501  502 -0.00000000000E+00 -0.00000000000E+00 -0.26632875119E+03  0.26632875119E+03  0.00000000000E+00 0.  1.
         25    1    1    2    0    0 -0.19085688539E+03  0.15079075118E+03 -0.80649260199E+02  0.28512015803E+03  0.12500000000E+03 0.  0.
         21    1    1    2  503  502  0.28211949850E+02 -0.50461987042E+02 -0.52815517772E+01  0.58053604882E+02  0.00000000000E+00 0.  1.
         21    1    1    2  504  503  0.16264493554E+03 -0.10032876414E+03  0.12455479436E+03  0.22810772185E+03  0.00000000000E+00 0. -1.
<mgrwt>
<rscale>  4 0.27347614E+03</rscale>
<asrwt>0</asrwt>
<pdfrwt beam="1">  1       21 0.46915805E-01 0.27347614E+03</pdfrwt>
<pdfrwt beam="2">  1       21 0.40973654E-01 0.27347614E+03</pdfrwt>
<totfact> 0.23962131E+04</totfact>
</mgrwt>
</event>
<event>
 5    0  0.1467858E+000  0.3605795E+03  0.7546771E-02  0.1058355E+00
         21   -1    0    0  504  501  0.00000000000E+00  0.00000000000E+00  0.20192309780E+04  0.20192309780E+04  0.00000000000E+00 0.  1.
         21   -1    0    0  501  502 -0.00000000000E+00 -0.00000000000E+00 -0.14121659505E+03  0.14121659505E+03  0.00000000000E+00 0.  1.
         25    1    1    2    0    0 -0.36820237584E+03 -0.24841650787E+03  0.12828472831E+04  0.13633069730E+04  0.12500000000E+03 0.  0.
         21    1    1    2  503  502  0.11029537780E+03  0.23331712985E+03  0.20687360194E+03  0.33075465322E+03  0.00000000000E+00 0.  1.
         21    1    1    2  504  503  0.25790699804E+03  0.15099378020E+02  0.38829349788E+03  0.46638594678E+03  0.00000000000E+00 0.  1.
<mgrwt>
<rscale>  4 0.36057954E+03</rscale>
<asrwt>0</asrwt>
<pdfrwt beam="1">  1       21 0.31065090E+00 0.36057954E+03</pdfrwt>
<pdfrwt beam="2">  1       21 0.21725632E-01 0.36057954E+03</pdfrwt>
<totfact> 0.49276791E+02</totfact>
</mgrwt>
</event>
<event>
 5    0  0.1467858E+000  0.2769904E+03  0.7546771E-02  0.1097344E+00
         21   -1    0    0  504  501  0.00000000000E+00  0.00000000000E+00  0.83021978909E+03  0.83021978909E+03  0.00000000000E+00 0.  1.
         21   -1    0    0  501  502 -0.00000000000E+00 -0.00000000000E+00 -0.15597282127E+03  0.15597282127E+03  0.00000000000E+00 0. -1.
         25    1    1    2    0    0  0.20467132743E+03 -0.13069234717E+03  0.79505458031E+02  0.28445906513E+03  0.12500000000E+03 0.  0.
         21    1    1    2  503  502 -0.15568262373E+03  0.19708386468E+03  0.55699298757E+03  0.61099944129E+03  0.00000000000E+00 0.  1.
         21    1    1    2  504  503 -0.48988703703E+02 -0.66391517509E+02  0.37748522225E+02  0.90734103940E+02  0.00000000000E+00 0.  1.
<mgrwt>
<rscale>  4 0.27699038E+03</rscale>
<asrwt>0</asrwt>
<pdfrwt beam="1">  1       21 0.12772612E+00 0.27699038E+03</pdfrwt>
<pdfrwt beam="2">  1       21 0.23995819E-01 0.27699038E+03</pdfrwt>
<totfact> 0.70004097E+03</totfact>
</mgrwt>
</event>
<event>
 5    0  0.1467858E+000  0.2464118E+03  0.7546771E-02  0.1115594E+00
         21   -1    0    0  504  501  0.00000000000E+00  0.00000000000E+00  0.10523557208E+04  0.10523557208E+04  0.00000000000E+00 0.  1.
         21   -1    0    0  501  502 -0.00000000000E+00 -0.00000000000E+00 -0.40490097984E+03  0.40490097984E+03  0.00000000000E+00 0.  1.
         25    1    1    2    0    0  0.15810843862E+03 -0.14424974772E+03 -0.34369465564E+03  0.42374200217E+03  0.12500000000E+03 0.  0.
         21    1    1    2  503  502 -0.20240624499E+00  0.60751025345E+02  0.59994464354E+02  0.85381870452E+02  0.00000000000E+00 0. -1.
         21    1    1    2  504  503 -0.15790603238E+03  0.83498722375E+02  0.93115493222E+03  0.94813282799E+03  0.00000000000E+00 0.  1.
<mgrwt>
<rscale>  4 0.24641180E+03</rscale>
<asrwt>0</asrwt>
<pdfrwt beam="1">  1       21 0.16190088E+00 0.24641180E+03</pdfrwt>
<pdfrwt beam="2">  1       21 0.62292459E-01 0.24641180E+03</pdfrwt>
<totfact> 0.55151372E+02</totfact>
</mgrwt>
</event>
<event>
 5    0  0.1467858E+000  0.2369229E+03  0.7546771E-02  0.1121860E+00
         21   -1    0    0  504  501  0.00000000000E+00  0.00000000000E+00  0.16847207851E+04  0.16847207851E+04  0.00000000000E+00 0.  1.
         21   -1    0    0  501  502 -0.00000000000E+00 -0.00000000000E+00 -0.32121100267E+02  0.32121100267E+02  0.00000000000E+00 0.  1.
         25    1    1    2    0    0 -0.14085522059E+03  0.14376116014E+03  0.66229290793E+03  0.70339488215E+03  0.12500000000E+03 0.  0.
         21    1    1    2  503  502  0.42619848611E+02 -0.66377899115E+01  0.13707301917E+03  0.14369942357E+03  0.00000000000E+00 0.  1.
         21    1    1    2  504  503  0.98235371978E+02 -0.13712337023E+03  0.85323375777E+03  0.86974757969E+03  0.00000000000E+00 0.  1.
<mgrwt>
<rscale>  4 0.23692291E+03</rscale>
<asrwt>0</asrwt>
<pdfrwt beam="1">  1       21 0.25918774E+00 0.23692291E+03</pdfrwt>
<pdfrwt beam="2">  1       21 0.49417091E-02 0.23692291E+03</pdfrwt>
<totfact> 0.15521222E+04</totfact>
</mgrwt>
</event>
<event>
 5    0  0.1467858E+000  0.4190123E+03  0.7546771E-02  0.1037388E+00
         21   -1    0    0  504  501  0.00000000000E+00  0.00000000000E+00  0.56700758248E+03  0.56700758248E+03  0.00000000000E+00 0. -1.
         21   -1    0    0  501  502 -0.00000000000E+00 -0.00000000000E+00 -0.44774885515E+03  0.44774885515E+03  0.00000000000E+00 0.  1.
         25    1    1    2    0    0  0.34567131547E+03 -0.23571215780E+03 -0.17593428783E+03  0.47077250696E+03  0.12500000000E+03 0.  0.
         21    1    1    2  503  502 -0.34641479453E+03  0.18943363766E+03  0.30215602176E+03  0.49717861422E+03  0.00000000000E+00 0. -1.
         21    1    1    2  504  503  0.74347906087E+00  0.46278520138E+02 -0.69630066021E+01  0.46805316452E+02  0.00000000000E+00 0. -1.
<mgrwt>
<rscale>  4 0.41901233E+03</rscale>
<asrwt>0</asrwt>
<pdfrwt beam="1">  1       21 0.87231936E-01 0.41901233E+03</pdfrwt>
<pdfrwt beam="2">  1       21 0.68884439E-01 0.41901233E+03</pdfrwt>
<totfact> 0.18911892E+03</totfact>
</mgrwt>
</event>
<event>
 5    0  0.1467858E+000  0.2649828E+03  0.7546771E-02  0.1104186E+00
         21   -1    0    0  504  501  0.00000000000E+00  0.00000000000E+00  0.65274751290E+02  0.65274751290E+02  0.00000000000E+00 0. -1.
         21   -1    0    0  501  502 -0.00000000000E+00 -0.00000000000E+00 -0.10098019485E+04  0.10098019485E+04  0.00000000000E+00 0. -1.
         25    1    1    2    0    0 -0.20723687802E+03  0.10790626869E+03 -0.46540176679E+03  0.53555082949E+03  0.12500000000E+03 0.  0.
         21    1    1    2  503  502  0.18018129235E+03 -0.65421729565E+02 -0.42117437266E+03  0.46274523552E+03  0.00000000000E+00 0. -1.
         21    1    1    2  504  503  0.27055585669E+02 -0.42484539128E+02 -0.57951057752E+02  0.76780634769E+02  0.00000000000E+00 0. -1.
<mgrwt>
<rscale>  4 0.26498280E+03</rscale>
<asrwt>0</asrwt>
<pdfrwt beam="1">  1       21 0.10042270E-01 0.26498280E+03</pdfrwt>
<pdfrwt beam="2">  1       21 0.15535414E+00 0.26498280E+03</pdfrwt>
<totfact> 0.21018136E+04</totfact>
</mgrwt>
</event>
<event>
 5    0  0.1467858E+000  0.2373904E+03  0.7546771E-02  0.1121544E+00
         21   -1    0    0  504  501  0.00000000000E+00  0.00000000000E+00  0.70750330411E+03  0.70750330411E+03  0.00000000000E+00 0. -1.
         21   -1    0    0  501  502 -0.00000000000E+00 -0.00000000000E+00 -0.93896602876E+02  0.93896602876E+02  0.00000000000E+00 0. -1.
         25    1    1    2    0    0  0.80710764497E+02  0.18497292722E+03  0.11799430773E+03  0.26509784602E+03  0.12500000000E+03 0.  0.
         21    1    1    2  503  502 -0.17478125368E+02 -0.13797274578E+02  0.47574916438E+02  0.52528300241E+02  0.00000000000E+00 0. -1.
         21    1    1    2  504  503 -0.63232639130E+02 -0.17117565264E+03  0.44803747706E+03  0.48377376072E+03  0.00000000000E+00 0. -1.
<mgrwt>
<rscale>  4 0.23739042E+03</rscale>
<asrwt>0</asrwt>
<pdfrwt beam="1">  1       21 0.10884666E+00 0.23739042E+03</pdfrwt>
<pdfrwt beam="2">  1       21 0.14445632E-01 0.23739042E+03</pdfrwt>
<totfact> 0.27456938E+04</totfact>
</mgrwt>
</event>
<event>
 5    0  0.1737353E+000  0.3426764E+03  0.7546771E-02  0.1065662E+00
         21   -1    0    0  504  501  0.00000000000E+00  0.00000000000E+00  0.37454374469E+03  0.37454374469E+03  0.00000000000E+00 0. -1.
         21   -1    0    0  501  502 -0.00000000000E+00 -0.00000000000E+00 -0.29707276083E+03  0.29707276083E+03  0.00000000000E+00 0. -1.
         25    1    1    2    0    0 -0.24941583706E+03  0.19898198394E+03  0.10132333275E+02  0.34282612777E+03  0.12500000000E+03 0.  0.
         21    1    1    2  503  502  0.20924348325E+02 -0.18664038817E+02 -0.58841633213E+01  0.28649573745E+02  0.00000000000E+00 0.  1.
         21    1    1    2  504  503  0.22849148873E+03 -0.18031794512E+03  0.73222813907E+02  0.30014080401E+03  0.00000000000E+00 0. -1.
<mgrwt>
<rscale>  4 0.34267636E+03</rscale>
<asrwt>0</asrwt>
<pdfrwt beam="1">  1       21 0.57622115E-01 0.34267636E+03</pdfrwt>
<pdfrwt beam="2">  1       21 0.45703502E-01 0.34267636E+03</pdfrwt>
<totfact> 0.12024885E+04</totfact>
</mgrwt>
</event>
<event>
 5    0  0.1467858E+000  0.3121961E+03  0.7546771E-02  0.1079298E+00
         21   -1    0    0  504  501  0.00000000000E+00  0.00000000000E+00  0.11735343324E+03  0.11735343324E+03  0.00000000000E+00 0.  1.
         21   -1    0    0  501  502 -0.00000000000E+00 -0.00000000000E+00 -0.10638904747E+04  0.10638904747E+04  0.00000000000E+00 0.  1.
         25    1    1    2    0    0 -0.20100882567E+03 -0.24628476495E+03 -0.53779808883E+03  0.63711264137E+03  0.12500000000E+03 0.  0.
         21    1    1    2  503  502  0.21288885554E+03  0.15201410101E+03 -0.32727416502E+03  0.41897294759E+03  0.00000000000E+00 0.  1.
         21    1    1    2  504  503 -0.11880029874E+02  0.94270663942E+02 -0.81464787607E+02  0.12515831898E+03  0.00000000000E+00 0.  1.
<mgrwt>
<rscale>  4 0.31219610E+03</rscale>
<asrwt>0</asrwt>
<pdfrwt beam="1">  1       21 0.18054373E-01 0.31219610E+03</pdfrwt>
<pdfrwt beam="2">  1       21 0.16367547E+00 0.31219610E+03</pdfrwt>
<totfact> 0.61041327E+03</totfact>
</mgrwt>
</event>
<event>
 5    0  0.1467858E+000  0.2832350E+03  0.7546771E-02  0.1093935E+00
         21   -1    0    0  504  501  0.00000000000E+00  0.00000000000E+00  0.61300781241E+03  0.61300781241E+03  0.00000000000E+00 0.  1.
         21   -1    0    0  501  502 -0.00000000000E+00 -0.00000000000E+00 -0.11277213519E+04  0.11277213519E+04  0.00000000000E+00 0. -1.
         25    1    1    2    0    0 -0.18047338372E+03 -0.18291262713E+03 -0.10529612872E+04  0.10910454362E+04  0.12500000000E+03 0.  0.
         21    1    1    2  503  502  0.19762651294E+03  0.61564135063E+02  0.45960481356E+03  0.50406643013E+03  0.00000000000E+00 0.  1.
         21    1    1    2  504  503 -0.17153129220E+02  0.12134849207E+03  0.78642934213E+02  0.14561729798E+03  0.00000000000E+00 0.  1.
<mgrwt>
<rscale>  4 0.28323502E+03</rscale>
<asrwt>0</asrwt>
<pdfrwt beam="1">  1       21 0.94308894E-01 0.28323502E+03</pdfrwt>
<pdfrwt beam="2">  1       21 0.17349559E+00 0.28323502E+03</pdfrwt>
<totfact> 0.17222945E+02</totfact>
</mgrwt>
</event>
<event>
 5    0  0.1467858E+000  0.3278205E+03  0.7546771E-02  0.1072105E+00
         21   -1    0    0  504  501  0.00000000000E+00  0.00000000000E+00  0.74420069704E+02  0.74420069704E+02  0.00000000000E+00 0. -1.
         21   -1    0    0  501  502 -0.00000000000E+00 -0.00000000000E+00 -0.16215307774E+04  0.16215307774E+04  0.00000000000E+00 0. -1.
         25    1    1    2    0    0 -0.86469593652E+02  0.29045526190E+03 -0.11039452137E+04  0.11515907626E+04  0.12500000000E+03 0.  0.
         21    1    1    2  503  502  0.10986600348E+00 -0.34768385711E+02 -0.11134315348E+03  0.11664540515E+03  0.00000000000E+00 0.  1.
         21    1    1    2  504  503  0.86359727648E+02 -0.25568687619E+03 -0.33182234050E+03  0.42771467928E+03  0.00000000000E+00 0. -1.
<mgrwt>
<rscale>  4 0.32782045E+03</rscale>
<asrwt>0</asrwt>
<pdfrwt beam="1">  1       21 0.11449242E-01 0.32782045E+03</pdfrwt>
<pdfrwt beam="2">  1       21 0.24946627E+00 0.32782045E+03</pdfrwt>
<totfact> 0.38308345E+03</totfact>
</mgrwt>
</event>
<event>
 5    0  0.1467858E+000  0.2767228E+03  0.7546771E-02  0.1097492E+00
         21   -1    0    0  504  501  0.00000000000E+00  0.00000000000E+00  0.12836468287E+03  0.12836468287E+03  0.00000000000E+00 0. -1.
         21   -1    0    0  501  502 -0.00000000000E+00 -0.00000000000E+00 -0.71135251180E+03  0.71135251180E+03  0.00000000000E+00 0.  1.
         25    1    1    2    0    0 -0.20529436543E+03  0.13713027860E+03 -0.50675917351E+03  0.57739098514E+03  0.12500000000E+03 0.  0.
         21    1    1    2  503  502  0.14230694821E+03 -0.11861215672E+03 -0.59464565444E+02  0.19456655873E+03  0.00000000000E+00 0. -1.
         21    1    1    2  504  503  0.62987417213E+02 -0.18518121887E+02 -0.16764089979E+02  0.67759650812E+02  0.00000000000E+00 0.  1.
<mgrwt>
<rscale>  4 0.27672277E+03</rscale>
<asrwt>0</asrwt>
<pdfrwt beam="1">  1       21 0.19748413E-01 0.27672277E+03</pdfrwt>
<pdfrwt beam="2">  1       21 0.10943885E+00 0.27672277E+03</pdfrwt>
<totfact> 0.14897428E+04</totfact>
</mgrwt>
</event>
<event>
 5    0  0.1467858E+000  0.2274914E+03  0.7546771E-02  0.1128418E+00
         21   -1    0    0  504  501  0.00000000000E+00  0.00000000000E+00  0.76672347532E+03  0.76672347532E+03  0.00000000000E+00 0. -1.
         21   -1    0    0  501  502 -0.00000000000E+00 -0.00000000000E+00 -0.19375442639E+03  0.19375442639E+03  0.00000000000E+00 0. -1.
         25    1    1    2    0    0  0.95767263186E+02 -0.17588036402E+03 -0.92245435014E+02  0.25345510732E+03  0.12500000000E+03 0.  0.
         21    1    1    2  503  502 -0.56263892863E+01  0.52771532865E+02  0.37881282116E+03  0.38251228008E+03  0.00000000000E+00 0.  1.
         21    1    1    2  504  503 -0.90140873899E+02  0.12310883116E+03  0.28640166278E+03  0.32451051431E+03  0.00000000000E+00 0. -1.
<mgrwt>
<rscale>  4 0.22749138E+03</rscale>
<asrwt>0</asrwt>
<pdfrwt beam="1">  1       21 0.11795746E+00 0.22749138E+03</pdfrwt>
<pdfrwt beam="2">  1       21 0.29808374E-01 0.22749138E+03</pdfrwt>
<totfact> 0.57923256E+03</totfact>
</mgrwt>
</event>
<event>
 5    0  0.1467858E+000  0.2806246E+03  0.7546771E-02  0.1095348E+00
         21   -1    0    0  504  501  0.00000000000E+00  0.00000000000E+00  0.55167677000E+03  0.55167677000E+03  0.00000000000E+00 0.  1.
         21   -1    0    0  501  502 -0.00000000000E+00 -0.00000000000E+00 -0.46608351943E+03  0.46608351943E+03  0.00000000000E+00 0. -1.
         25    1    1    2    0    0 -0.77823134524E+02  0.23889063366E+03 -0.38548278708E+03  0.47680934790E+03  0.12500000000E+03 0.  0.
         21    1    1    2  503  502  0.15075508794E+02 -0.11320454647E+03  0.29067676569E+03  0.31230677614E+03  0.00000000000E+00 0.  1.
         21    1    1    2  504  503  0.62747625730E+02 -0.12568608718E+03  0.18039927195E+03  0.22864416539E+03  0.00000000000E+00 0.  1.
<mgrwt>
<rscale>  4 0.28062462E+03</rscale>
<asrwt>0</asrwt>
<pdfrwt beam="1">  1       21 0.84873350E-01 0.28062462E+03</pdfrwt>
<pdfrwt beam="2">  1       21 0.71705156E-01 0.28062462E+03</pdfrwt>
<totfact> 0.19755430E+03</totfact>
</mgrwt>
</event>
<event>
 5    0  0.1467858E+000  0.3623695E+03  0.7546771E-02  0.1057650E+00
         21   -1    0    0  504  501  0.00000000000E+00  0.00000000000E+00  0.41736878629E+03  0.41736878629E+03  0.00000000000E+00 0.  1.
         21   -1    0    0  501  502 -0.00000000000E+00 -0.00000000000E+00 -0.43754292261E+03  0.43754292261E+03  0.00000000000E+00 0.  1.
         25    1    1    2    0    0 -0.33953948109E+03 -0.19989678409E+02 -0.24784095291E+03  0.43901797732E+03  0.12500000000E+03 0.  0.
         21    1    1    2  503  502  0.11691917727E+02  0.16407308749E+02  0.11900662112E+02  0.23399283733E+02  0.00000000000E+00 0.  1.
         21    1    1    2  504  503  0.32784756337E+03  0.35823696601E+01  0.21576615448E+03  0.39249444786E+03  0.00000000000E+00 0.  1.
<mgrwt>
<rscale>  4 0.36236949E+03</rscale>
<asrwt>0</asrwt>
<pdfrwt beam="1">  1       21 0.64210582E-01 0.36236949E+03</pdfrwt>
<pdfrwt beam="2">  1       21 0.67314296E-01 0.36236949E+03</pdfrwt>
<totfact> 0.40926572E+03</totfact>
</mgrwt>
</event>
<event>
 5    0  0.1467858E+000  0.2961614E+03  0.7546771E-02  0.1087175E+00
         21   -1    0    0  504  501  0.00000000000E+00  0.00000000000E+00  0.51115122093E+03  0.51115122093E+03  0.00000000000E+00 0. -1.
         21   -1    0    0  501  502 -0.00000000000E+00 -0.00000000000E+00 -0.62698286672E+03  0.62698286672E+03  0.00000000000E+00 0.  1.
         25    1    1    2    0    0  0.25155348969E+03 -0.27836301047E+02 -0.42477639076E+03  0.51001372529E+03  0.12500000000E+03 0.  0.
         21    1    1    2  503  502  0.13326473949E+03 -0.68632576986E+02  0.76077510982E+02  0.16810029474E+03  0.00000000000E+00 0. -1.
         21    1    1    2  504  503 -0.38481822918E+03  0.96468878034E+02  0.23286723400E+03  0.46002006762E+03  0.00000000000E+00 0. -1.
<mgrwt>
<rscale>  4 0.29616144E+03</rscale>
<asrwt>0</asrwt>
<pdfrwt beam="1">  1       21 0.78638649E-01 0.29616144E+03</pdfrwt>
<pdfrwt beam="2">  1       21 0.96458903E-01 0.29616144E+03</pdfrwt>
<totfact> 0.11768501E+03</totfact>
</mgrwt>
</event>
<event>
 5    0  0.1467858E+000  0.2262703E+03  0.7546771E-02  0.1129293E+00
         21   -1    0    0  504  501  0.00000000000E+00  0.00000000000E+00  0.40445827712E+03  0.40445827712E+03  0.00000000000E+00 0. -1.
         21   -1    0    0  501  502 -0.00000000000E+00 -0.00000000000E+00 -0.21281311033E+03  0.21281311033E+03  0.00000000000E+00 0. -1.
         25    1    1    2    0    0  0.13681405406E+03 -0.15023647081E+03 -0.89914074090E+02  0.25494827568E+03  0.12500000000E+03 0.  0.
         21    1    1    2  503  502 -0.18767001182E+02  0.44147435927E+02  0.14572951620E+03  0.15342192908E+03  0.00000000000E+00 0. -1.
         21    1    1    2  504  503 -0.11804705288E+03  0.10608903489E+03  0.13582972468E+03  0.20890118268E+03  0.00000000000E+00 0. -1.
<mgrwt>
<rscale>  4 0.22627033E+03</rscale>
<asrwt>0</asrwt>
<pdfrwt beam="1">  1       21 0.62224350E-01 0.22627033E+03</pdfrwt>
<pdfrwt beam="2">  1       21 0.32740479E-01 0.22627033E+03</pdfrwt>
<totfact> 0.21103778E+04</totfact>
</mgrwt>
</event>
<event>
 5    0  0.1467858E+000  0.2425644E+03  0.7546771E-02  0.1118096E+00
         21   -1    0    0  504  501  0.00000000000E+00  0.00000000000E+00  0.48312027855E+02  0.48312027855E+02  0.00000000000E+00 0.  1.
         21   -1    0    0  501  502 -0.00000000000E+00 -0.00000000000E+00 -0.10778396830E+04  0.10778396830E+04  0.00000000000E+00 0.  1.
         25    1    1    2    0    0 -0.19402049331E+03  0.74622725040E+02 -0.61666150568E+03  0.66265293744E+03  0.12500000000E+03 0.  0.
         21    1    1    2  503  502  0.15492537220E+03 -0.69113657927E+02 -0.35494770498E+03  0.39340366284E+03  0.00000000000E+00 0.  1.
         21    1    1    2  504  503  0.39095121105E+02 -0.55090671124E+01 -0.57918444491E+02  0.70095110578E+02  0.00000000000E+00 0.  1.
<mgrwt>
<rscale>  4 0.24256443E+03</rscale>
<asrwt>0</asrwt>
<pdfrwt beam="1">  1       21 0.74326193E-02 0.24256443E+03</pdfrwt>
<pdfrwt beam="2">  1       21 0.16582150E+00 0.24256443E+03</pdfrwt>
<totfact> 0.30229863E+04</totfact>
</mgrwt>
</event>
<event>
 5    0  0.1467858E+000  0.2455614E+03  0.7546771E-02  0.1116142E+00
         21   -1    0    0  504  501  0.00000000000E+00  0.00000000000E+00  0.22149302789E+03  0.22149302789E+03  0.00000000000E+00 0.  1.
         21   -1    0    0  501  502 -0.00000000000E+00 -0.00000000000E+00 -0.11763374520E+04  0.11763374520E+04  0.00000000000E+00 0.  1.
         25    1    1    2    0    0 -0.69245387895E+02  0.21867211188E+03 -0.10656958808E+04  0.10972443331E+04  0.12500000000E+03 0.  0.
         21    1    1    2  503  502  0.23562806395E+02 -0.13946458155E+03 -0.18006513007E+02  0.14258264222E+03  0.00000000000E+00 0.  1.
         21    1    1    2  504  503  0.45682581500E+02 -0.79207530331E+02  0.12885796965E+03  0.15800350457E+03  0.00000000000E+00 0.  1.
<mgrwt>
<rscale>  4 0.24556140E+03</rscale>
<asrwt>0</asrwt>
<pdfrwt beam="1">  1       21 0.34075850E-01 0.24556140E+03</pdfrwt>
<pdfrwt beam="2">  1       21 0.18097499E+00 0.24556140E+03</pdfrwt>
<totfact> 0.14146026E+03</totfact>
</mgrwt>
</event>
<event>
 5    0  0.1467858E+000  0.2967924E+03  0.7546771E-02  0.1086855E+00
         21   -1    0    0  504  501  0.00000000000E+00  0.00000000000E+00  0.94684516780E+03  0.94684516780E+03  0.00000000000E+00 0.  1.
         21   -1    0    0  501  502 -0.00000000000E+00 -0.00000000000E+00 -0.20462468656E+03  0.20462468656E+03  0.00000000000E+00 0.  1.
         25    1    1    2    0    0 -0.16640684750E+03  0.21158796015E+03 -0.59469240390E+02  0.30269174804E+03  0.12500000000E+03 0.  0.
         21    1    1    2  503  502  0.21415393430E+02 -0.74427904154E+02  0.18372319196E+03  0.19937989682E+03  0.00000000000E+00 0.  1.
         21    1    1    2  504  503  0.14499145407E+03 -0.13716005600E+03  0.61796652968E+03  0.64939820951E+03  0.00000000000E+00 0.  1.
<mgrwt>
<rscale>  4 0.29679236E+03</rscale>
<asrwt>0</asrwt>
<pdfrwt beam="1">  1       21 0.14566848E+00 0.29679236E+03</pdfrwt>
<pdfrwt beam="2">  1       21 0.31480722E-01 0.29679236E+03</pdfrwt>
<totfact> 0.28996462E+03</totfact>
</mgrwt>
</event>
<event>
 5    0  0.1467858E+000  0.2799993E+03  0.7546771E-02  0.1095689E+00
         21   -1    0    0  504  501  0.00000000000E+00  0.00000000000E+00  0.21733166085E+03  0.21733166085E+03  0.00000000000E+00 0.  1.
         21   -1    0    0  501  502 -0.00000000000E+00 -0.00000000000E+00 -0.62223792624E+03  0.62223792624E+03  0.00000000000E+00 0.  1.
         25    1    1    2    0    0 -0.17163087670E+03 -0.18253061841E+03 -0.49257859642E+03  0.56659796870E+03  0.12500000000E+03 0.  0.
         21    1    1    2  503  502  0.23829525295E+01  0.23677151842E+02 -0.25537713864E+01  0.23933401982E+02  0.00000000000E+00 0. -1.
         21    1    1    2  504  503  0.16924792417E+03  0.15885346656E+03  0.90226102404E+02  0.24903821640E+03  0.00000000000E+00 0.  1.
<mgrwt>
<rscale>  4 0.27999926E+03</rscale>
<asrwt>0</asrwt>
<pdfrwt beam="1">  1       21 0.33435641E-01 0.27999926E+03</pdfrwt>
<pdfrwt beam="2">  1       21 0.95728909E-01 0.27999926E+03</pdfrwt>
<totfact> 0.74206015E+03</totfact>
</mgrwt>
</event>
<event>
 5    0  0.1467858E+000  0.2396271E+03  0.7546771E-02  0.1120042E+00
         21   -1    0    0  504  501  0.00000000000E+00  0.00000000000E+00  0.11040854747E+03  0.11040854747E+03  0.00000000000E+00 0. -1.
         21   -1    0    0  501  502 -0.00000000000E+00 -0.00000000000E+00 -0.46028962844E+03  0.46028962844E+03  0.00000000000E+00 0. -1.
         25    1    1    2    0    0 -0.10932431370E+03 -0.17275511543E+03 -0.21771352885E+03  0.32375965796E+03  0.12500000000E+03 0.  0.
         21    1    1    2  503  502  0.11112671337E+02  0.47913861558E+02 -0.23722515953E+02  0.54607576002E+02  0.00000000000E+00 0. -1.
         21    1    1    2  504  503  0.98211642367E+02  0.12484125387E+03 -0.10844503616E+03  0.19233094196E+03  0.00000000000E+00 0. -1.
<mgrwt>
<rscale>  4 0.23962708E+03</rscale>
<asrwt>0</asrwt>
<pdfrwt beam="1">  1       21 0.16985931E-01 0.23962708E+03</pdfrwt>
<pdfrwt beam="2">  1       21 0.70813788E-01 0.23962708E+03</pdfrwt>
<totfact> 0.55253336E+04</totfact>
</mgrwt>
</event>
<event>
 5    0  0.1467858E+000  0.2476815E+03  0.7546771E-02  0.1114779E+00
         21   -1    0    0  504  501  0.00000000000E+00  0.00000000000E+00  0.43875366293E+03  0.43875366293E+03  0.00000000000E+00 0.  1.
         21   -1    0    0  501  502 -0.00000000000E+00 -0.00000000000E+00 -0.10048951749E+04  0.10048951749E+04  0.00000000000E+00 0. -1.
         25    1    1    2    0    0  0.10242772797E+03  0.23568738905E+03 -0.76682729817E+03  0.81834533666E+03  0.12500000000E+03 0.  0.
         21    1    1    2  503  502 -0.14805188260E+03 -0.15292119872E+03  0.37260841521E+03  0.42911686525E+03  0.00000000000E+00 0.  1.
         21    1    1    2  504  503  0.45624154628E+02 -0.82766190335E+02 -0.17192262901E+03  0.19618663592E+03  0.00000000000E+00 0.  1.
<mgrwt>
<rscale>  4 0.24768153E+03</rscale>
<asrwt>0</asrwt>
<pdfrwt beam="1">  1       21 0.67500564E-01 0.24768153E+03</pdfrwt>
<pdfrwt beam="2">  1       21 0.15459926E+00 0.24768153E+03</pdfrwt>
<totfact> 0.52371356E+02</totfact>
</mgrwt>
</event>
<event>
 5    0  0.1467858E+000  0.2629273E+03  0.7546771E-02  0.1105397E+00
         21   -1    0    0  504  501  0.00000000000E+00  0.00000000000E+00  0.30004888247E+03  0.30004888247E+03  0.00000000000E+00 0. -1.
         21   -1    0    0  501  502 -0.00000000000E+00 -0.00000000000E+00 -0.90103031486E+03  0.90103031486E+03  0.00000000000E+00 0. -1.
         25    1    1    2    0    0 -0.19024399317E+03  0.13157883365E+03 -0.82735052776E+03  0.86812422048E+03  0.12500000000E+03 0.  0.
         21    1    1    2  503  502  0.16065999154E+03 -0.79375502799E+02  0.13817272601E+03  0.22628257896E+03  0.00000000000E+00 0. -1.
         21    1    1    2  504  503  0.29584001634E+02 -0.52203330853E+02  0.88196369354E+02  0.10667239789E+03  0.00000000000E+00 0. -1.
<mgrwt>
<rscale>  4 0.26292730E+03</rscale>
<asrwt>0</asrwt>
<pdfrwt beam="1">  1       21 0.46161366E-01 0.26292730E+03</pdfrwt>
<pdfrwt beam="2">  1       21 0.13862005E+00 0.26292730E+03</pdfrwt>
<totfact> 0.15552808E+03</totfact>
</mgrwt>
</event>
<event>
 5    0  0.1467858E+000  0.2828935E+03  0.7546771E-02  0.1094119E+00
         21   -1    0    0  504  501  0.00000000000E+00  0.00000000000E+00  0.18081628842E+03  0.18081628842E+03  0.00000000000E+00 0.  1.
         21   -1    0    0  501  502 -0.00000000000E+00 -0.00000000000E+00 -0.52952378884E+03  0.52952378884E+03  0.00000000000E+00 0.  1.
         25    1    1    2    0    0  0.12916097016E+03 -0.24460299543E+03 -0.17634278574E+03  0.35104837226E+03  0.12500000000E+03 0.  0.
         21    1    1    2  503  502 -0.16184784301E+03  0.17760116370E+03 -0.12361627459E+03  0.27021820993E+03  0.00000000000E+00 0.  1.
         21    1    1    2  504  503  0.32686872853E+02  0.67001831735E+02 -0.48748440092E+02  0.89073495071E+02  0.00000000000E+00 0.  1.
<mgrwt>
<rscale>  4 0.28289354E+03</rscale>
<asrwt>0</asrwt>
<pdfrwt beam="1">  1       21 0.27817891E-01 0.28289354E+03</pdfrwt>
<pdfrwt beam="2">  1       21 0.81465198E-01 0.28289354E+03</pdfrwt>
<totfact> 0.15507685E+04</totfact>
</mgrwt>
</event>
<event>
 5    0  0.1467858E+000  0.2579488E+03  0.7546771E-02  0.1108382E+00
         21   -1    0    0  504  501  0.00000000000E+00  0.00000000000E+00  0.77432220403E+02  0.77432220403E+02  0.00000000000E+00 0. -1.
         21   -1    0    0  501  502 -0.00000000000E+00 -0.00000000000E+00 -0.91066920992E+03  0.91066920992E+03  0.00000000000E+00 0. -1.
         25    1    1    2    0    0  0.20458344613E+03  0.11701796652E+03 -0.33159943832E+03  0.42559461747E+03  0.12500000000E+03 0.  0.
         21    1    1    2  503  502 -0.16898917423E+03 -0.13325954873E+03 -0.41677509748E+03  0.46905962330E+03  0.00000000000E+00 0. -1.
         21    1    1    2  504  503 -0.35594271907E+02  0.16241582206E+02 -0.84862453714E+02  0.93447189554E+02  0.00000000000E+00 0. -1.
<mgrwt>
<rscale>  4 0.25794882E+03</rscale>
<asrwt>0</asrwt>
<pdfrwt beam="1">  1       21 0.11912650E-01 0.25794882E+03</pdfrwt>
<pdfrwt beam="2">  1       21 0.14010294E+00 0.25794882E+03</pdfrwt>
<totfact> 0.20435387E+04</totfact>
</mgrwt>
</event>
<event>
 5    0  0.1467858E+000  0.2448441E+03  0.7546771E-02  0.1116607E+00
         21   -1    0    0  504  501  0.00000000000E+00  0.00000000000E+00  0.14865418703E+03  0.14865418703E+03  0.00000000000E+00 0. -1.
         21   -1    0    0  501  502 -0.00000000000E+00 -0.00000000000E+00 -0.36953287256E+03  0.36953287256E+03  0.00000000000E+00 0. -1.
         25    1    1    2    0    0 -0.16011059587E+03  0.13670486807E+03 -0.15205638004E+03  0.28821826204E+03  0.12500000000E+03 0.  0.
         21    1    1    2  503  502  0.50419648828E+02 -0.74278105533E+02 -0.87759827957E+01  0.90201972393E+02  0.00000000000E+00 0. -1.
         21    1    1    2  504  503  0.10969094704E+03 -0.62426762540E+02 -0.60046322700E+02  0.13976682515E+03  0.00000000000E+00 0. -1.
<mgrwt>
<rscale>  4 0.24484408E+03</rscale>
<asrwt>0</asrwt>
<pdfrwt beam="1">  1       21 0.22869875E-01 0.24484408E+03</pdfrwt>
<pdfrwt beam="2">  1       21 0.56851210E-01 0.24484408E+03</pdfrwt>
<totfact> 0.50954631E+04</totfact>
</mgrwt>
</event>
<event>
 5    0  0.1467858E+000  0.2806980E+03  0.7546771E-02  0.1095308E+00
         21   -1    0    0  504  501  0.00000000000E+00  0.00000000000E+00  0.12245287251E+03  0.12245287251E+03  0.00000000000E+00 0.  1.
         21   -1    0    0  501  502 -0.00000000000E+00 -0.00000000000E+00 -0.93195319802E+03  0.93195319802E+03  0.00000000000E+00 0.  1.
         25    1    1    2    0    0 -0.27077068647E+03 -0.23739575576E+01 -0.63484819451E+03  0.70141259640E+03  0.12500000000E+03 0.  0.
         21    1    1    2  503  502  0.62694157956E+02 -0.59678363965E+02 -0.73065759158E+02  0.11327254623E+03  0.00000000000E+00 0.  1.
         21    1    1    2  504  503  0.20807652852E+03  0.62052321523E+02 -0.10158637186E+03  0.23972092790E+03  0.00000000000E+00 0.  1.
<mgrwt>
<rscale>  4 0.28069800E+03</rscale>
<asrwt>0</asrwt>
<pdfrwt beam="1">  1       21 0.18838904E-01 0.28069800E+03</pdfrwt>
<pdfrwt beam="2">  1       21 0.14337741E+00 0.28069800E+03</pdfrwt>
<totfact> 0.81940214E+03</totfact>
</mgrwt>
</event>
<event>
 5    0  0.1467858E+000  0.3339629E+03  0.7546771E-02  0.1069397E+00
         21   -1    0    0  504  501  0.00000000000E+00  0.00000000000E+00  0.99425220024E+02  0.99425220024E+02  0.00000000000E+00 0. -1.
         21   -1    0    0  501  502 -0.00000000000E+00 -0.00000000000E+00 -0.11287252548E+04  0.11287252548E+04  0.00000000000E+00 0. -1.
         25    1    1    2    0    0  0.14020109806E+02  0.30936972479E+03 -0.43994477729E+03  0.55234282575E+03  0.12500000000E+03 0.  0.
         21    1    1    2  503  502  0.12108671472E+02 -0.51187793992E+02 -0.33501171241E+02  0.62362958983E+02  0.00000000000E+00 0. -1.
         21    1    1    2  504  503 -0.26128781278E+02 -0.25818193080E+03 -0.55585408630E+03  0.61344469014E+03  0.00000000000E+00 0. -1.
<mgrwt>
<rscale>  4 0.33396286E+03</rscale>
<asrwt>0</asrwt>
<pdfrwt beam="1">  1       21 0.15296189E-01 0.33396286E+03</pdfrwt>
<pdfrwt beam="2">  1       21 0.17365002E+00 0.33396286E+03</pdfrwt>
<totfact> 0.69596801E+03</totfact>
</mgrwt>
</event>
<event>
 5    0  0.1467858E+000  0.2800625E+03  0.7546771E-02  0.1095655E+00
         21   -1    0    0  504  501  0.00000000000E+00  0.00000000000E+00  0.35630279842E+03  0.35630279842E+03  0.00000000000E+00 0.  1.
         21   -1    0    0  501  502 -0.00000000000E+00 -0.00000000000E+00 -0.25362290152E+03  0.25362290152E+03  0.00000000000E+00 0.  1.
         25    1    1    2    0    0 -0.15407861545E+03 -0.19766079013E+03 -0.87032758909E+02  0.29327411890E+03  0.12500000000E+03 0.  0.
         21    1    1    2  503  502  0.28860819129E+02  0.18787653605E+02  0.17895141997E+02  0.38809263274E+02  0.00000000000E+00 0. -1.
         21    1    1    2  504  503  0.12521779632E+03  0.17887313653E+03  0.17181751381E+03  0.27784231776E+03  0.00000000000E+00 0.  1.
<mgrwt>
<rscale>  4 0.28006251E+03</rscale>
<asrwt>0</asrwt>
<pdfrwt beam="1">  1       21 0.54815815E-01 0.28006251E+03</pdfrwt>
<pdfrwt beam="2">  1       21 0.39018908E-01 0.28006251E+03</pdfrwt>
<totfact> 0.19013346E+04</totfact>
</mgrwt>
</event>
<event>
 5    0  0.1467858E+000  0.2952549E+03  0.7546771E-02  0.1087637E+00
         21   -1    0    0  504  501  0.00000000000E+00  0.00000000000E+00  0.12089061350E+03  0.12089061350E+03  0.00000000000E+00 0. -1.
         21   -1    0    0  501  502 -0.00000000000E+00 -0.00000000000E+00 -0.70382616140E+03  0.70382616140E+03  0.00000000000E+00 0. -1.
         25    1    1    2    0    0  0.42087414783E+02 -0.26415733136E+03 -0.26656077519E+03  0.39778146395E+03  0.12500000000E+03 0.  0.
         21    1    1    2  503  502 -0.69156084811E+02  0.22796249760E+03 -0.28720047450E+03  0.37314015722E+03  0.00000000000E+00 0. -1.
         21    1    1    2  504  503  0.27068670028E+02  0.36194833765E+02 -0.29174298208E+02  0.53795153725E+02  0.00000000000E+00 0.  1.
<mgrwt>
<rscale>  4 0.29525488E+03</rscale>
<asrwt>0</asrwt>
<pdfrwt beam="1">  1       21 0.18598556E-01 0.29525488E+03</pdfrwt>
<pdfrwt beam="2">  1       21 0.10828095E+00 0.29525488E+03</pdfrwt>
<totfact> 0.16969509E+04</totfact>
</mgrwt>
</event>
<event>
 5    0  0.1467858E+000  0.2583823E+03  0.7546771E-02  0.1108119E+00
         21   -1    0    0  504  501  0.00000000000E+00  0.00000000000E+00  0.54701615110E+03  0.54701615110E+03  0.00000000000E+00 0.  1.
         21   -1    0    0  501  502 -0.00000000000E+00 -0.00000000000E+00 -0.11625971815E+03  0.11625971815E+03  0.00000000000E+00 0.  1.
         25    1    1    2    0    0 -0.18239967870E+03 -0.13366657652E+03  0.27736535093E+03  0.37906850880E+03  0.12500000000E+03 0.  0.
         21    1    1    2  503  502  0.10518273643E+03  0.51905756940E+02  0.38532999638E+02  0.12346014623E+03  0.00000000000E+00 0.  1.
         21    1    1    2  504  503  0.77216942268E+02  0.81760819576E+02  0.11485808238E+03  0.16074721422E+03  0.00000000000E+00 0.  1.
<mgrwt>
<rscale>  4 0.25838227E+03</rscale>
<asrwt>0</asrwt>
<pdfrwt beam="1">  1       21 0.84156329E-01 0.25838227E+03</pdfrwt>
<pdfrwt beam="2">  1       21 0.17886111E-01 0.25838227E+03</pdfrwt>
<totfact> 0.33719650E+04</totfact>
</mgrwt>
</event>
<event>
 5    0  0.1467858E+000  0.2398788E+03  0.7546771E-02  0.1119874E+00
         21   -1    0    0  504  501  0.00000000000E+00  0.00000000000E+00  0.28128706494E+03  0.28128706494E+03  0.00000000000E+00 0.  1.
         21   -1    0    0  501  502 -0.00000000000E+00 -0.00000000000E+00 -0.28564810184E+03  0.28564810184E+03  0.00000000000E+00 0.  1.
         25    1    1    2    0    0  0.14264114312E+03 -0.15685910659E+03 -0.13369833322E+03  0.28009198371E+03  0.12500000000E+03 0.  0.
         21    1    1    2  503  502 -0.32489950117E+02 -0.22529358910E+01  0.81110308779E+02  0.87404546615E+02  0.00000000000E+00 0.  1.
         21    1    1    2  504  503 -0.11015119301E+03  0.15911204248E+03  0.48226987544E+02  0.19943863645E+03  0.00000000000E+00 0.  1.
<mgrwt>
<rscale>  4 0.23987884E+03</rscale>
<asrwt>0</asrwt>
<pdfrwt beam="1">  1       21 0.43274933E-01 0.23987884E+03</pdfrwt>
<pdfrwt beam="2">  1       21 0.43945862E-01 0.23987884E+03</pdfrwt>
<totfact> 0.24903919E+04</totfact>
</mgrwt>
</event>
<event>
 5    0  0.1467858E+000  0.2212513E+03  0.7546771E-02  0.1132954E+00
         21   -1    0    0  504  501  0.00000000000E+00  0.00000000000E+00  0.15829226969E+04  0.15829226969E+04  0.00000000000E+00 0.  1.
         21   -1    0    0  501  502 -0.00000000000E+00 -0.00000000000E+00 -0.90246540047E+02  0.90246540047E+02  0.00000000000E+00 0.  1.
         25    1    1    2    0    0 -0.23858125591E+03  0.84726040405E+02  0.23625636015E+03  0.36815972798E+03  0.12500000000E+03 0.  0.
         21    1    1    2  503  502  0.17301429368E+03 -0.31348899474E+02  0.11734566201E+04  0.11865568417E+04  0.00000000000E+00 0.  1.
         21    1    1    2  504  503  0.65566962232E+02 -0.53377140931E+02  0.82963176588E+02  0.11845266726E+03  0.00000000000E+00 0. -1.
<mgrwt>
<rscale>  4 0.22125127E+03</rscale>
<asrwt>0</asrwt>
<pdfrwt beam="1">  1       21 0.24352655E+00 0.22125127E+03</pdfrwt>
<pdfrwt beam="2">  1       21 0.13884084E-01 0.22125127E+03</pdfrwt>
<totfact> 0.31829210E+03</totfact>
</mgrwt>
</event>
<event>
 5    0  0.1467858E+000  0.2605401E+03  0.7546771E-02  0.1106819E+00
         21   -1    0    0  504  501  0.00000000000E+00  0.00000000000E+00  0.30760807580E+03  0.30760807580E+03  0.00000000000E+00 0. -1.
         21   -1    0    0  501  502 -0.00000000000E+00 -0.00000000000E+00 -0.19678214028E+03  0.19678214028E+03  0.00000000000E+00 0. -1.
         25    1    1    2    0    0 -0.14225318333E+03  0.17894181071E+03  0.61547938335E+02  0.26771120354E+03  0.12500000000E+03 0.  0.
         21    1    1    2  503  502  0.20892303627E+02 -0.93031218316E+01  0.62203043775E+01  0.23700814610E+02  0.00000000000E+00 0.  1.
         21    1    1    2  504  503  0.12136087970E+03 -0.16963868888E+03  0.43057692809E+02  0.21297819794E+03  0.00000000000E+00 0. -1.
<mgrwt>
<rscale>  4 0.26054009E+03</rscale>
<asrwt>0</asrwt>
<pdfrwt beam="1">  1       21 0.47324319E-01 0.26054009E+03</pdfrwt>
<pdfrwt beam="2">  1       21 0.30274175E-01 0.26054009E+03</pdfrwt>
<totfact> 0.43371871E+04</totfact>
</mgrwt>
</event>
<event>
 5    0  0.1467858E+000  0.2628346E+03  0.7546771E-02  0.1105452E+00
         21   -1    0    0  504  501  0.00000000000E+00  0.00000000000E+00  0.38259382022E+02  0.38259382022E+02  0.00000000000E+00 0.  1.
         21   -1    0    0  501  502 -0.00000000000E+00 -0.00000000000E+00 -0.21249551153E+04  0.21249551153E+04  0.00000000000E+00 0.  1.
         25    1    1    2    0    0 -0.13434572134E+03 -0.18817085218E+03 -0.16104110684E+04  0.16317186803E+04  0.12500000000E+03 0.  0.
         21    1    1    2  503  502  0.66611358969E+02  0.12540992820E+03 -0.31758234526E+03  0.34788398821E+03  0.00000000000E+00 0.  1.
         21    1    1    2  504  503  0.67734362368E+02  0.62760923975E+02 -0.15870231966E+03  0.18361182883E+03  0.00000000000E+00 0.  1.
<mgrwt>
<rscale>  4 0.26283463E+03</rscale>
<asrwt>0</asrwt>
<pdfrwt beam="1">  1       21 0.58860571E-02 0.26283463E+03</pdfrwt>
<pdfrwt beam="2">  1       21 0.32691627E+00 0.26283463E+03</pdfrwt>
<totfact> 0.45157861E+03</totfact>
</mgrwt>
</event>
<event>
 5    0  0.1467858E+000  0.3517242E+03  0.7546771E-02  0.1061910E+00
         21   -1    0    0  504  501  0.00000000000E+00  0.00000000000E+00  0.98271902186E+02  0.98271902186E+02  0.00000000000E+00 0.  1.
         21   -1    0    0  501  502 -0.00000000000E+00 -0.00000000000E+00 -0.12600762581E+04  0.12600762581E+04  0.00000000000E+00 0.  1.
         25    1    1    2    0    0  0.27590181094E+03  0.17878236671E+03 -0.66396544934E+03  0.75137211942E+03  0.12500000000E+03 0.  0.
         21    1    1    2  503  502 -0.23749074926E+03 -0.97327525287E+02 -0.38278510163E+03  0.46086759182E+03  0.00000000000E+00 0.  1.
         21    1    1    2  504  503 -0.38411061685E+02 -0.81454841420E+02 -0.11505380495E+03  0.14610844905E+03  0.00000000000E+00 0.  1.
<mgrwt>
<rscale>  4 0.35172424E+03</rscale>
<asrwt>0</asrwt>
<pdfrwt beam="1">  1       21 0.15118754E-01 0.35172424E+03</pdfrwt>
<pdfrwt beam="2">  1       21 0.19385789E+00 0.35172424E+03</pdfrwt>
<totfact> 0.51143003E+03</totfact>
</mgrwt>
</event>
<event>
 5    0  0.1467858E+000  0.2744784E+03  0.7546771E-02  0.1098744E+00
         21   -1    0    0  504  501  0.00000000000E+00  0.00000000000E+00  0.93105533736E+02  0.93105533736E+02  0.00000000000E+00 0.  1.
         21   -1    0    0  501  502 -0.00000000000E+00 -0.00000000000E+00 -0.10177910692E+04  0.10177910692E+04  0.00000000000E+00 0.  1.
         25    1    1    2    0    0  0.10775684565E+03 -0.21932132606E+03 -0.19568813756E+03  0.33709379857E+03  0.12500000000E+03 0.  0.
         21    1    1    2  503  502 -0.11945869824E+03  0.17712220989E+03 -0.56446440302E+03  0.60354181305E+03  0.00000000000E+00 0.  1.
         21    1    1    2  504  503  0.11701852589E+02  0.42199116178E+02 -0.16453299493E+03  0.17026099137E+03  0.00000000000E+00 0. -1.
<mgrwt>
<rscale>  4 0.27447838E+03</rscale>
<asrwt>0</asrwt>
<pdfrwt beam="1">  1       21 0.14323928E-01 0.27447838E+03</pdfrwt>
<pdfrwt beam="2">  1       21 0.15658324E+00 0.27447838E+03</pdfrwt>
<totfact> 0.10788974E+04</totfact>
</mgrwt>
</event>
<event>
 5    0  0.1467858E+000  0.2936307E+03  0.7546771E-02  0.1088469E+00
         21   -1    0    0  504  501  0.00000000000E+00  0.00000000000E+00  0.29175486793E+03  0.29175486793E+03  0.00000000000E+00 0. -1.
         21   -1    0    0  501  502 -0.00000000000E+00 -0.00000000000E+00 -0.39310469308E+03  0.39310469308E+03  0.00000000000E+00 0. -1.
         25    1    1    2    0    0  0.98330085571E+02 -0.24683032806E+03 -0.22952224015E+03  0.37269219914E+03  0.12500000000E+03 0.  0.
         21    1    1    2  503  502 -0.46382027549E+02  0.62914853501E+02  0.86465054384E+02  0.11655804091E+03  0.00000000000E+00 0. -1.
         21    1    1    2  504  503 -0.51948058022E+02  0.18391547456E+03  0.41707360624E+02  0.19560932096E+03  0.00000000000E+00 0. -1.
<mgrwt>
<rscale>  4 0.29363075E+03</rscale>
<asrwt>0</asrwt>
<pdfrwt beam="1">  1       21 0.44885364E-01 0.29363075E+03</pdfrwt>
<pdfrwt beam="2">  1       21 0.60477645E-01 0.29363075E+03</pdfrwt>
<totfact> 0.11472929E+04</totfact>
</mgrwt>
</event>
<event>
 5    0  0.1467858E+000  0.3282450E+03  0.7546771E-02  0.1071916E+00
         21   -1    0    0  504  501  0.00000000000E+00  0.00000000000E+00  0.20067893277E+03  0.20067893277E+03  0.00000000000E+00 0. -1.
         21   -1    0    0  501  502 -0.00000000000E+00 -0.00000000000E+00 -0.67622112316E+03  0.67622112316E+03  0.00000000000E+00 0. -1.
         25    1    1    2    0    0  0.26734460137E+03 -0.14368941847E+03 -0.45443348713E+03  0.56058414095E+03  0.12500000000E+03 0.  0.
         21    1    1    2  503  502 -0.23686277591E+02 -0.11824312831E+02  0.20299155255E+00  0.26474427767E+02  0.00000000000E+00 0. -1.
         21    1    1    2  504  503 -0.24365832378E+03  0.15551373130E+03 -0.21311694818E+02  0.28984148721E+03  0.00000000000E+00 0. -1.
<mgrwt>
<rscale>  4 0.32824501E+03</rscale>
<asrwt>0</asrwt>
<pdfrwt beam="1">  1       21 0.30873683E-01 0.32824501E+03</pdfrwt>
<pdfrwt beam="2">  1       21 0.10403402E+00 0.32824501E+03</pdfrwt>
<totfact> 0.69547341E+03</totfact>
</mgrwt>
</event>
<event>
 5    0  0.1467858E+000  0.2973436E+03  0.7546771E-02  0.1086576E+00
         21   -1    0    0  504  501  0.00000000000E+00  0.00000000000E+00  0.32173904003E+03  0.32173904003E+03  0.00000000000E+00 0.  1.
         21   -1    0    0  501  502 -0.00000000000E+00 -0.00000000000E+00 -0.26179816390E+03  0.26179816390E+03  0.00000000000E+00 0.  1.
         25    1    1    2    0    0  0.13875468586E+02  0.26943585608E+03  0.76006058004E+01  0.29744071406E+03  0.12500000000E+03 0.  0.
         21    1    1    2  503  502 -0.23857303398E+02 -0.24022378846E+03  0.68926045427E+02  0.25105266222E+03  0.00000000000E+00 0.  1.
         21    1    1    2  504  503  0.99818348113E+01 -0.29212067619E+02 -0.16585775098E+02  0.35043827650E+02  0.00000000000E+00 0. -1.
<mgrwt>
<rscale>  4 0.29734359E+03</rscale>
<asrwt>0</asrwt>
<pdfrwt beam="1">  1       21 0.49498314E-01 0.29734359E+03</pdfrwt>
<pdfrwt beam="2">  1       21 0.40276641E-01 0.29734359E+03</pdfrwt>
<totfact> 0.21969162E+04</totfact>
</mgrwt>
</event>
<event>
 5    0  0.1467858E+000  0.2554203E+03  0.7546771E-02  0.1109926E+00
         21   -1    0    0  504  501  0.00000000000E+00  0.00000000000E+00  0.19550993586E+03  0.19550993586E+03  0.00000000000E+00 0. -1.
         21   -1    0    0  501  502 -0.00000000000E+00 -0.00000000000E+00 -0.38122936690E+03  0.38122936690E+03  0.00000000000E+00 0. -1.
         25    1    1    2    0    0  0.19641071875E+03 -0.13942725147E+03 -0.14769678902E+03  0.30896030550E+03  0.12500000000E+03 0.  0.
         21    1    1    2  503  502 -0.18942322101E+03  0.10115577645E+03 -0.19874519153E+01  0.21475008203E+03  0.00000000000E+00 0. -1.
         21    1    1    2  504  503 -0.69874977364E+01  0.38271475017E+02 -0.36035190099E+02  0.53028915227E+02  0.00000000000E+00 0. -1.
<mgrwt>
<rscale>  4 0.25542030E+03</rscale>
<asrwt>0</asrwt>
<pdfrwt beam="1">  1       21 0.30078452E-01 0.25542030E+03</pdfrwt>
<pdfrwt beam="2">  1       21 0.58650672E-01 0.25542030E+03</pdfrwt>
<totfact> 0.27946895E+04</totfact>
</mgrwt>
</event>
<event>
 5    0  0.1467858E+000  0.4685879E+03  0.7546771E-02  0.1022320E+00
         21   -1    0    0  504  501  0.00000000000E+00  0.00000000000E+00  0.19687467530E+04  0.19687467530E+04  0.00000000000E+00 0. -1.
         21   -1    0    0  501  502 -0.00000000000E+00 -0.00000000000E+00 -0.14418845516E+03  0.14418845516E+03  0.00000000000E+00 0.  1.
         25    1    1    2    0    0 -0.55679789498E+02 -0.48034888513E+03  0.58865498698E+03  0.77199416066E+03  0.12500000000E+03 0.  0.
         21    1    1    2  503  502 -0.31175925043E+02  0.50648368108E+02  0.53919626731E+02  0.80277778003E+02  0.00000000000E+00 0. -1.
         21    1    1    2  504  503  0.86855714541E+02  0.42970051702E+03  0.11819836842E+04  0.12606632695E+04  0.00000000000E+00 0. -1.
<mgrwt>
<rscale>  4 0.46858793E+03</rscale>
<asrwt>0</asrwt>
<pdfrwt beam="1">  1       21 0.30288410E+00 0.46858793E+03</pdfrwt>
<pdfrwt beam="2">  1       21 0.22182841E-01 0.46858793E+03</pdfrwt>
<totfact> 0.49205244E+02</totfact>
</mgrwt>
</event>
<event>
 5    0  0.1467858E+000  0.3524135E+03  0.7546771E-02  0.1061629E+00
         21   -1    0    0  504  501  0.00000000000E+00  0.00000000000E+00  0.79403495410E+03  0.79403495410E+03  0.00000000000E+00 0. -1.
         21   -1    0    0  501  502 -0.00000000000E+00 -0.00000000000E+00 -0.22761172179E+03  0.22761172179E+03  0.00000000000E+00 0. -1.
         25    1    1    2    0    0 -0.23420519922E+03 -0.23177192820E+03 -0.70620893202E+01  0.35248429064E+03  0.12500000000E+03 0.  0.
         21    1    1    2  503  502  0.12653155774E+03  0.14598159876E+03  0.42401816291E+03  0.46595307141E+03  0.00000000000E+00 0. -1.
         21    1    1    2  504  503  0.10767364148E+03  0.85790329438E+02  0.14946715872E+03  0.20320931384E+03  0.00000000000E+00 0. -1.
<mgrwt>
<rscale>  4 0.35241354E+03</rscale>
<asrwt>0</asrwt>
<pdfrwt beam="1">  1       21 0.12215922E+00 0.35241354E+03</pdfrwt>
<pdfrwt beam="2">  1       21 0.35017188E-01 0.35241354E+03</pdfrwt>
<totfact> 0.35931061E+03</totfact>
</mgrwt>
</event>
<event>
 5    0  0.1467858E+000  0.3650374E+03  0.7546771E-02  0.1056607E+00
         21   -1    0    0  504  501  0.00000000000E+00  0.00000000000E+00  0.28220394698E+03  0.28220394698E+03  0.00000000000E+00 0. -1.
         21   -1    0    0  501  502 -0.00000000000E+00 -0.00000000000E+00 -0.63820893644E+03  0.63820893644E+03  0.00000000000E+00 0. -1.
         25    1    1    2    0    0  0.20320392318E+03 -0.31364994923E+03 -0.31420464260E+03  0.50400166912E+03  0.12500000000E+03 0.  0.
         21    1    1    2  503  502  0.14078956496E+02  0.96267019221E+02  0.27979482815E+02  0.10123441838E+03  0.00000000000E+00 0. -1.
         21    1    1    2  504  503 -0.21728287968E+03  0.21738293000E+03 -0.69779829676E+02  0.31517679592E+03  0.00000000000E+00 0. -1.
<mgrwt>
<rscale>  4 0.36503740E+03</rscale>
<asrwt>0</asrwt>
<pdfrwt beam="1">  1       21 0.43415992E-01 0.36503740E+03</pdfrwt>
<pdfrwt beam="2">  1       21 0.98185989E-01 0.36503740E+03</pdfrwt>
<totfact> 0.39470487E+03</totfact>
</mgrwt>
</event>
<event>
 5    0  0.1467858E+000  0.2377908E+03  0.7546771E-02  0.1121273E+00
         21   -1    0    0  504  501  0.00000000000E+00  0.00000000000E+00  0.16233486486E+03  0.16233486486E+03  0.00000000000E+00 0.  1.
         21   -1    0    0  501  502 -0.00000000000E+00 -0.00000000000E+00 -0.31493590029E+03  0.31493590029E+03  0.00000000000E+00 0.  1.
         25    1    1    2    0    0  0.96529653122E+02  0.17776804022E+03 -0.55086349960E+02  0.24408800874E+03  0.12500000000E+03 0.  0.
         21    1    1    2  503  502  0.37937721010E+01 -0.32298984566E+02 -0.26720463488E+01  0.32630613578E+02  0.00000000000E+00 0.  1.
         21    1    1    2  504  503 -0.10032342522E+03 -0.14546905566E+03 -0.94842639120E+02  0.20055214284E+03  0.00000000000E+00 0.  1.
<mgrwt>
<rscale>  4 0.23779077E+03</rscale>
<asrwt>0</asrwt>
<pdfrwt beam="1">  1       21 0.24974595E-01 0.23779077E+03</pdfrwt>
<pdfrwt beam="2">  1       21 0.48451677E-01 0.23779077E+03</pdfrwt>
<totfact> 0.60537203E+04</totfact>
</mgrwt>
</event>
<event>
 5    0  0.1467858E+000  0.3084519E+03  0.7546771E-02  0.1081090E+00
         21   -1    0    0  504  501  0.00000000000E+00  0.00000000000E+00  0.44074118832E+03  0.44074118832E+03  0.00000000000E+00 0.  1.
         21   -1    0    0  501  502 -0.00000000000E+00 -0.00000000000E+00 -0.51656815460E+03  0.51656815460E+03  0.00000000000E+00 0.  1.
         25    1    1    2    0    0  0.27603147571E+03 -0.57656126931E+02 -0.41197272487E+03  0.51464952209E+03  0.12500000000E+03 0.  0.
         21    1    1    2  503  502 -0.13343968596E+03  0.23388433382E+01  0.18008836758E+03  0.22415048542E+03  0.00000000000E+00 0.  1.
         21    1    1    2  504  503 -0.14259178975E+03  0.55317283593E+02  0.15605739102E+03  0.21850933541E+03  0.00000000000E+00 0.  1.
<mgrwt>
<rscale>  4 0.30845195E+03</rscale>
<asrwt>0</asrwt>
<pdfrwt beam="1">  1       21 0.67806337E-01 0.30845195E+03</pdfrwt>
<pdfrwt beam="2">  1       21 0.79472024E-01 0.30845195E+03</pdfrwt>
<totfact> 0.25607780E+03</totfact>
</mgrwt>
</event>
<event>
 5    0  0.1467858E+000  0.2848661E+03  0.7546771E-02  0.1093060E+00
         21   -1    0    0  504  501  0.00000000000E+00  0.00000000000E+00  0.17670267578E+04  0.17670267578E+04  0.00000000000E+00 0. -1.
         21   -1    0    0  501  502 -0.00000000000E+00 -0.00000000000E+00 -0.18796650175E+03  0.18796650175E+03  0.00000000000E+00 0.  1.
         25    1    1    2    0    0  0.23155215943E+03 -0.14015651642E+03 -0.14014855003E+02  0.29846552195E+03  0.12500000000E+03 0.  0.
         21    1    1    2  503  502 -0.23437181663E+03  0.10092627585E+03  0.15967623022E+04  0.16170238438E+04  0.00000000000E+00 0. -1.
         21    1    1    2  504  503  0.28196571948E+01  0.39230240568E+02 -0.36871912261E+01  0.39503893743E+02  0.00000000000E+00 0.  1.
<mgrwt>
<rscale>  4 0.28486612E+03</rscale>
<asrwt>0</asrwt>
<pdfrwt beam="1">  1       21 0.27185026E+00 0.28486612E+03</pdfrwt>
<pdfrwt beam="2">  1       21 0.28917925E-01 0.28486612E+03</pdfrwt>
<totfact> 0.51199990E+02</totfact>
</mgrwt>
</event>
<event>
 5    0  0.1467858E+000  0.2503263E+03  0.7546771E-02  0.1113099E+00
         21   -1    0    0  504  501  0.00000000000E+00  0.00000000000E+00  0.15408295093E+03  0.15408295093E+03  0.00000000000E+00 0. -1.
         21   -1    0    0  501  502 -0.00000000000E+00 -0.00000000000E+00 -0.47275231573E+03  0.47275231573E+03  0.00000000000E+00 0. -1.
         25    1    1    2    0    0 -0.51464121798E+02 -0.21068860356E+03 -0.32038519170E+03  0.40658321972E+03  0.12500000000E+03 0.  0.
         21    1    1    2  503  502  0.39752989328E+02  0.18967144387E+03  0.11828984532E+02  0.19415324271E+03  0.00000000000E+00 0. -1.
         21    1    1    2  504  503  0.11711132470E+02  0.21017159687E+02 -0.10113157627E+02  0.26098804229E+02  0.00000000000E+00 0.  1.
<mgrwt>
<rscale>  4 0.25032627E+03</rscale>
<asrwt>0</asrwt>
<pdfrwt beam="1">  1       21 0.23705070E-01 0.25032627E+03</pdfrwt>
<pdfrwt beam="2">  1       21 0.72731124E-01 0.25032627E+03</pdfrwt>
<totfact> 0.27700772E+04</totfact>
</mgrwt>
</event>
