<event>
 5    0  0.1856407E+000  0.2400638E+03  0.7546771E-02  0.1119750E+00
         21   -1    0    0  502  501  0.00000000000E+00  0.00000000000E+00  0.42654419937E+03  0.42654419937E+03  0.00000000000E+00 0. -1.
         21   -1    0    0  503  502 -0.00000000000E+00 -0.00000000000E+00 -0.14330004861E+03  0.14330004861E+03  0.00000000000E+00 0. -1.
         25    1    1    2    0    0 -0.18515346231E+03 -0.87885353625E+02  0.32904338707E+02  0.24230834796E+03  0.12500000000E+03 0.  0.
         21    1    1    2  503  504  0.67476219617E+02  0.19856944527E+02  0.12070609797E+03  0.13970433260E+03  0.00000000000E+00 0. -1.
         21    1    1    2  504  501  0.11767724269E+03  0.68028409098E+02  0.12963371408E+03  0.18783156741E+03  0.00000000000E+00 0. -1.
<mgrwt>
<rscale>  4 0.24006382E+03</rscale>
<asrwt>0</asrwt>
<pdfrwt beam="1">  1       21 0.65622184E-01 0.24006382E+03</pdfrwt>
<pdfrwt beam="2">  1       21 0.22046162E-01 0.24006382E+03</pdfrwt>
<totfact> 0.40115285E+04</totfact>
</mgrwt>
</event>
<event>
 5    0  0.1856407E+000  0.2292302E+03  0.7546771E-02  0.1127183E+00
         21   -1    0    0  502  501  0.00000000000E+00  0.00000000000E+00  0.85862963498E+02  0.85862963498E+02  0.00000000000E+00 0.  1.
         21   -1    0    0  503  502 -0.00000000000E+00 -0.00000000000E+00 -0.20707336172E+04  0.20707336172E+04  0.00000000000E+00 0.  1.
         25    1    1    2    0    0 -0.60363014767E+02 -0.19437634943E+03 -0.10642788415E+03  0.26149140195E+03  0.12500000000E+03 0.  0.
         21    1    1    2  503  504 -0.43867007558E+02  0.10072782503E+03 -0.75281713771E+03  0.76079172703E+03  0.00000000000E+00 0.  1.
         21    1    1    2  504  501  0.10423002233E+03  0.93648524401E+02 -0.11256256318E+04  0.11343134517E+04  0.00000000000E+00 0.  1.
<mgrwt>
<rscale>  4 0.22923022E+03</rscale>
<asrwt>0</asrwt>
<pdfrwt beam="1">  1       21 0.13209685E-01 0.22923022E+03</pdfrwt>
<pdfrwt beam="2">  1       21 0.31857443E+00 0.22923022E+03</pdfrwt>
<totfact> 0.12577545E+03</totfact>
</mgrwt>
</event>
<event>
 5    0  0.1856407E+000  0.2497613E+03  0.7546771E-02  0.1113456E+00
         21   -1    0    0  502  501  0.00000000000E+00  0.00000000000E+00  0.37248259938E+03  0.37248259938E+03  0.00000000000E+00 0. -1.
         21   -1    0    0  503  502 -0.00000000000E+00 -0.00000000000E+00 -0.60841167966E+03  0.60841167966E+03  0.00000000000E+00 0. -1.
         25    1    1    2    0    0 -0.24395748379E+03  0.18403495869E+01  0.28017633327E+03  0.39197247162E+03  0.12500000000E+03 0.  0.
         21    1    1    2  503  504  0.10766837505E+03 -0.10512457701E+02 -0.38388694769E+03  0.39883853796E+03  0.00000000000E+00 0. -1.
         21    1    1    2  504  501  0.13628910874E+03  0.86721081136E+01 -0.13221846586E+03  0.19008326948E+03  0.00000000000E+00 0. -1.
<mgrwt>
<rscale>  4 0.24976129E+03</rscale>
<asrwt>0</asrwt>
<pdfrwt beam="1">  1       21 0.57305016E-01 0.24976129E+03</pdfrwt>
<pdfrwt beam="2">  1       21 0.93601796E-01 0.24976129E+03</pdfrwt>
<totfact> 0.26218603E+03</totfact>
</mgrwt>
</event>
<event>
 5    0  0.1856407E+000  0.2524335E+03  0.7546771E-02  0.1111776E+00
         21   -1    0    0  502  501  0.00000000000E+00  0.00000000000E+00  0.53615064432E+03  0.53615064432E+03  0.00000000000E+00 0.  1.
         21   -1    0    0  503  502 -0.00000000000E+00 -0.00000000000E+00 -0.11837152874E+03  0.11837152874E+03  0.00000000000E+00 0.  1.
         25    1    1    2    0    0  0.68162175775E+01 -0.21920588075E+03  0.13171052759E+03  0.28472854099E+03  0.12500000000E+03 0.  0.
         21    1    1    2  503  504  0.25581116837E+02  0.14268671270E+03  0.13878639785E+03  0.20068770702E+03  0.00000000000E+00 0.  1.
         21    1    1    2  504  501 -0.32397334414E+02  0.76519168048E+02  0.14728219015E+03  0.16910592506E+03  0.00000000000E+00 0.  1.
<mgrwt>
<rscale>  4 0.25243351E+03</rscale>
<asrwt>0</asrwt>
<pdfrwt beam="1">  1       21 0.82484713E-01 0.25243351E+03</pdfrwt>
<pdfrwt beam="2">  1       21 0.18211005E-01 0.25243351E+03</pdfrwt>
<totfact> 0.34233381E+04</totfact>
</mgrwt>
</event>
<event>
 5    0  0.1856407E+000  0.2510775E+03  0.7546771E-02  0.1112626E+00
         21   -1    0    0  502  501  0.00000000000E+00  0.00000000000E+00  0.11700628928E+03  0.11700628928E+03  0.00000000000E+00 0. -1.
         21   -1    0    0  503  502 -0.00000000000E+00 -0.00000000000E+00 -0.63837841956E+03  0.63837841956E+03  0.00000000000E+00 0. -1.
         25    1    1    2    0    0  0.81016210359E+02  0.20211699493E+03 -0.87344001417E+02  0.26583619122E+03  0.12500000000E+03 0.  0.
         21    1    1    2  503  504 -0.26667465508E+02 -0.11455329027E+03 -0.28539739655E+03  0.30868314496E+03  0.00000000000E+00 0. -1.
         21    1    1    2  504  501 -0.54348744851E+02 -0.87563704661E+02 -0.14863073232E+03  0.18086537267E+03  0.00000000000E+00 0. -1.
<mgrwt>
<rscale>  4 0.25107749E+03</rscale>
<asrwt>0</asrwt>
<pdfrwt beam="1">  1       21 0.18000968E-01 0.25107749E+03</pdfrwt>
<pdfrwt beam="2">  1       21 0.98212062E-01 0.25107749E+03</pdfrwt>
<totfact> 0.23296878E+04</totfact>
</mgrwt>
</event>
<event>
 5    0  0.1856407E+000  0.4124230E+03  0.7546771E-02  0.1040447E+00
         21   -1    0    0  502  501  0.00000000000E+00  0.00000000000E+00  0.17833290053E+04  0.17833290053E+04  0.00000000000E+00 0. -1.
         21   -1    0    0  503  502 -0.00000000000E+00 -0.00000000000E+00 -0.32553519136E+03  0.32553519136E+03  0.00000000000E+00 0. -1.
         25    1    1    2    0    0  0.18191110739E+03  0.33589945744E+03  0.16174323915E+04  0.16666231240E+04  0.12500000000E+03 0.  0.
         21    1    1    2  503  504 -0.19688835100E+02 -0.85249225627E+02 -0.10841028428E+03  0.13931213312E+03  0.00000000000E+00 0. -1.
         21    1    1    2  504  501 -0.16222227229E+03 -0.25065023181E+03 -0.51228293320E+02  0.30292893948E+03  0.00000000000E+00 0. -1.
<mgrwt>
<rscale>  4 0.40977347E+03</rscale>
<asrwt>0</asrwt>
<pdfrwt beam="1">  1       21 0.27435830E+00 0.41242295E+03</pdfrwt>
<pdfrwt beam="2">  1       21 0.50082338E-01 0.41242295E+03</pdfrwt>
<totfact> 0.14638183E+02</totfact>
</mgrwt>
</event>
<event>
 5    0  0.2970865E+000  0.2674421E+03  0.7546771E-02  0.1102753E+00
         21   -1    0    0  502  501  0.00000000000E+00  0.00000000000E+00  0.14571903060E+04  0.14571903060E+04  0.00000000000E+00 0.  1.
         21   -1    0    0  503  502 -0.00000000000E+00 -0.00000000000E+00 -0.48012837457E+02  0.48012837457E+02  0.00000000000E+00 0.  1.
         25    1    1    2    0    0 -0.23609844469E+03 -0.12562475400E+02  0.94076037593E+03  0.97803649027E+03  0.12500000000E+03 0.  0.
         21    1    1    2  503  504  0.20265752003E+02 -0.13452878445E+02  0.42173641273E+02  0.48685692569E+02  0.00000000000E+00 0.  1.
         21    1    1    2  504  501  0.21583269269E+03  0.26015353845E+02  0.42624345137E+03  0.47848096065E+03  0.00000000000E+00 0.  1.
<mgrwt>
<rscale>  4 0.26744213E+03</rscale>
<asrwt>0</asrwt>
<pdfrwt beam="1">  1       21 0.22418309E+00 0.26744213E+03</pdfrwt>
<pdfrwt beam="2">  1       21 0.73865915E-02 0.26744213E+03</pdfrwt>
<totfact> 0.12359498E+04</totfact>
</mgrwt>
</event>
<event>
 5    0  0.1856407E+000  0.2722946E+03  0.7546771E-02  0.1099973E+00
         21   -1    0    0  502  501  0.00000000000E+00  0.00000000000E+00  0.17251183787E+03  0.17251183787E+03  0.00000000000E+00 0. -1.
         21   -1    0    0  503  502 -0.00000000000E+00 -0.00000000000E+00 -0.11291852126E+04  0.11291852126E+04  0.00000000000E+00 0. -1.
         25    1    1    2    0    0  0.22220719037E+03  0.95620644909E+02  0.39147549401E+02  0.27509429985E+03  0.12500000000E+03 0.  0.
         21    1    1    2  503  504 -0.73893292432E+02 -0.16360813451E+02 -0.21657201063E+03  0.22941519276E+03  0.00000000000E+00 0.  1.
         21    1    1    2  504  501 -0.14831389794E+03 -0.79259831458E+02 -0.77924891347E+03  0.79718755783E+03  0.00000000000E+00 0. -1.
<mgrwt>
<rscale>  4 0.27229459E+03</rscale>
<asrwt>0</asrwt>
<pdfrwt beam="1">  1       21 0.26540284E-01 0.27229459E+03</pdfrwt>
<pdfrwt beam="2">  1       21 0.17372080E+00 0.27229459E+03</pdfrwt>
<totfact> 0.25433247E+03</totfact>
</mgrwt>
</event>
<event>
 5    0  0.2791438E+000  0.2250190E+03  0.7546771E-02  0.1130196E+00
         21   -1    0    0  502  501  0.00000000000E+00  0.00000000000E+00  0.23448577582E+03  0.23448577582E+03  0.00000000000E+00 0. -1.
         21   -1    0    0  503  502 -0.00000000000E+00 -0.00000000000E+00 -0.47675123404E+03  0.47675123404E+03  0.00000000000E+00 0. -1.
         25    1    1    2    0    0  0.14603377194E+03  0.16140268342E+03  0.10569085186E+03  0.27234581864E+03  0.12500000000E+03 0.  0.
         21    1    1    2  503  504 -0.12016036985E+03 -0.75553447721E+02 -0.95737859307E+02  0.17120915761E+03  0.00000000000E+00 0. -1.
         21    1    1    2  504  501 -0.25873402089E+02 -0.85849235701E+02 -0.25221845078E+03  0.26768203361E+03  0.00000000000E+00 0. -1.
<mgrwt>
<rscale>  4 0.22501898E+03</rscale>
<asrwt>0</asrwt>
<pdfrwt beam="1">  1       21 0.36074735E-01 0.22501898E+03</pdfrwt>
<pdfrwt beam="2">  1       21 0.73346343E-01 0.22501898E+03</pdfrwt>
<totfact> 0.12127767E+04</totfact>
</mgrwt>
</event>
<event>
 5    0  0.1856407E+000  0.2889118E+03  0.7546771E-02  0.1090919E+00
         21   -1    0    0  502  501  0.00000000000E+00  0.00000000000E+00  0.13752776001E+04  0.13752776001E+04  0.00000000000E+00 0. -1.
         21   -1    0    0  503  502 -0.00000000000E+00 -0.00000000000E+00 -0.55972155711E+02  0.55972155711E+02  0.00000000000E+00 0. -1.
         25    1    1    2    0    0 -0.34440214490E+02 -0.25818380966E+03  0.66705592097E+03  0.72693439157E+03  0.12500000000E+03 0.  0.
         21    1    1    2  503  504  0.78423701365E+01  0.14710879028E+03  0.30399466208E+03  0.33780949294E+03  0.00000000000E+00 0. -1.
         21    1    1    2  504  501  0.26597844354E+02  0.11107501938E+03  0.34825486137E+03  0.36650587133E+03  0.00000000000E+00 0. -1.
<mgrwt>
<rscale>  4 0.28891176E+03</rscale>
<asrwt>0</asrwt>
<pdfrwt beam="1">  1       21 0.21158114E+00 0.28891176E+03</pdfrwt>
<pdfrwt beam="2">  1       21 0.86111020E-02 0.28891176E+03</pdfrwt>
<totfact> 0.11183848E+04</totfact>
</mgrwt>
</event>
<event>
 5    0  0.1856407E+000  0.2460875E+03  0.7546771E-02  0.1115803E+00
         21   -1    0    0  502  501  0.00000000000E+00  0.00000000000E+00  0.23254342942E+03  0.23254342942E+03  0.00000000000E+00 0.  1.
         21   -1    0    0  503  502 -0.00000000000E+00 -0.00000000000E+00 -0.52431246009E+03  0.52431246009E+03  0.00000000000E+00 0.  1.
         25    1    1    2    0    0  0.21324913621E+03  0.80230651628E+02  0.10318551135E+03  0.27961473728E+03  0.12500000000E+03 0.  0.
         21    1    1    2  503  504 -0.51683228017E+02 -0.80344429848E+02 -0.85760008720E+02  0.12837898022E+03  0.00000000000E+00 0.  1.
         21    1    1    2  504  501 -0.16156590819E+03  0.11377822047E+00 -0.30919453330E+03  0.34886217201E+03  0.00000000000E+00 0.  1.
<mgrwt>
<rscale>  4 0.24608749E+03</rscale>
<asrwt>0</asrwt>
<pdfrwt beam="1">  1       21 0.35775912E-01 0.24608749E+03</pdfrwt>
<pdfrwt beam="2">  1       21 0.80663455E-01 0.24608749E+03</pdfrwt>
<totfact> 0.98304049E+03</totfact>
</mgrwt>
</event>
