<event>
 5    0  0.2720079E+000  0.4043177E+03  0.7546771E-02  0.1042295E+00
         21   -1    0    0  504  501  0.00000000000E+00  0.00000000000E+00  0.77305288190E+03  0.77305288190E+03  0.00000000000E+00 0.  1.
         21   -1    0    0  501  502 -0.00000000000E+00 -0.00000000000E+00 -0.35318830778E+03  0.35318830778E+03  0.00000000000E+00 0.  1.
         25    1    1    2    0    0 -0.23491221401E+03  0.25890638247E+02 -0.15028353919E+03  0.30669890053E+03  0.12500000000E+03 0.  0.
         21    1    1    2  503  502  0.11699108195E+03  0.71205339548E+02 -0.75281655067E+02  0.15628320840E+03  0.00000000000E+00 0.  1.
         21    1    1    2  504  503  0.11792113205E+03 -0.97095977795E+02  0.64542976837E+03  0.66325908075E+03  0.00000000000E+00 0.  1.
<mgrwt>
<rscale>  4 0.40431767E+03</rscale>
<asrwt>0</asrwt>
<pdfrwt beam="1">  1       21 0.11893121E+00 0.40431767E+03</pdfrwt>
<pdfrwt beam="2">  1       21 0.54336663E-01 0.40431767E+03</pdfrwt>
<totfact> 0.15069161E+03</totfact>
</mgrwt>
</event>
<event>
 5    0  0.2720079E+000  0.4085245E+03  0.7546771E-02  0.1040867E+00
         21   -1    0    0  502  501  0.00000000000E+00  0.00000000000E+00  0.10607947050E+03  0.10607947050E+03  0.00000000000E+00 0. -1.
         21   -1    0    0  504  502 -0.00000000000E+00 -0.00000000000E+00 -0.79077861273E+03  0.79077861273E+03  0.00000000000E+00 0. -1.
         25    1    1    2    0    0 -0.12547047293E+03  0.17650471941E+03 -0.61087584080E+03  0.66006897248E+03  0.12500000000E+03 0.  0.
         21    1    1    2  503  501  0.93670150856E+02 -0.80735905358E+02 -0.33493022185E+02  0.12811778218E+03  0.00000000000E+00 0. -1.
         21    1    1    2  504  503  0.31800322069E+02 -0.95768814055E+02 -0.40330279247E+02  0.10867132857E+03  0.00000000000E+00 0.  1.
<mgrwt>
<rscale>  4 0.40852447E+03</rscale>
<asrwt>0</asrwt>
<pdfrwt beam="1">  1       21 0.16319918E-01 0.40852447E+03</pdfrwt>
<pdfrwt beam="2">  1       21 0.12165825E+00 0.40852447E+03</pdfrwt>
<totfact> 0.15543713E+04</totfact>
</mgrwt>
</event>
<event>
 5    0  0.2720079E+000  0.8759134E+03  0.7546771E-02  0.9456202E-01
         21   -1    0    0  502  501  0.00000000000E+00  0.00000000000E+00  0.13593630109E+03  0.13593630109E+03  0.00000000000E+00 0.  1.
         21   -1    0    0  503  502 -0.00000000000E+00 -0.00000000000E+00 -0.17794063405E+04  0.17794063405E+04  0.00000000000E+00 0. -1.
         25    1    1    2    0    0  0.31785900233E+03  0.70399855276E+02 -0.24501161207E+03  0.42619968915E+03  0.12500000000E+03 0.  0.
         21    1    1    2  503  504 -0.31355164599E+03 -0.48072715720E+02 -0.14216814193E+04  0.14566412320E+04  0.00000000000E+00 0. -1.
         21    1    1    2  504  501 -0.43073563363E+01 -0.22327139556E+02  0.23222991941E+02  0.32501720478E+02  0.00000000000E+00 0.  1.
<mgrwt>
<rscale>  4 0.87591339E+03</rscale>
<asrwt>0</asrwt>
<pdfrwt beam="1">  1       21 0.20913279E-01 0.87591339E+03</pdfrwt>
<pdfrwt beam="2">  1       21 0.27375480E+00 0.87591339E+03</pdfrwt>
<totfact> 0.71520677E+02</totfact>
</mgrwt>
</event>
<event>
 5    0  0.2720079E+000  0.6716747E+03  0.7546771E-02  0.9766937E-01
         21   -1    0    0  502  501  0.00000000000E+00  0.00000000000E+00  0.31837922303E+03  0.31837922303E+03  0.00000000000E+00 0.  1.
         21   -1    0    0  503  502 -0.00000000000E+00 -0.00000000000E+00 -0.11480654238E+04  0.11480654238E+04  0.00000000000E+00 0.  1.
         25    1    1    2    0    0 -0.11984477279E+03 -0.18337393492E+03 -0.98538540796E+02  0.27078333330E+03  0.12500000000E+03 0.  0.
         21    1    1    2  503  504  0.91014311577E+02  0.19682213894E+03 -0.95003787361E+03  0.97447140573E+03  0.00000000000E+00 0.  1.
         21    1    1    2  504  501  0.28830461208E+02 -0.13448204025E+02  0.21889021364E+03  0.22118990780E+03  0.00000000000E+00 0.  1.
<mgrwt>
<rscale>  4 0.67167467E+03</rscale>
<asrwt>0</asrwt>
<pdfrwt beam="1">  1       21 0.48981419E-01 0.67167467E+03</pdfrwt>
<pdfrwt beam="2">  1       21 0.17662545E+00 0.67167467E+03</pdfrwt>
<totfact> 0.58475136E+02</totfact>
</mgrwt>
</event>
<event>
 5    0  0.2720079E+000  0.4936107E+03  0.7546771E-02  0.1015460E+00
         21   -1    0    0  503  501  0.00000000000E+00  0.00000000000E+00  0.70559807487E+03  0.70559807487E+03  0.00000000000E+00 0.  1.
         21   -1    0    0  504  502 -0.00000000000E+00 -0.00000000000E+00 -0.22925278414E+03  0.22925278414E+03  0.00000000000E+00 0.  1.
         25    1    1    2    0    0 -0.19836979905E+03 -0.85928037428E+02 -0.22145613436E+02  0.25069829075E+03  0.12500000000E+03 0.  0.
         21    1    1    2  503  502 -0.25510547280E+02  0.82543344865E+01  0.43901239981E+03  0.43983043238E+03  0.00000000000E+00 0.  1.
         21    1    1    2  504  501  0.22388034633E+03  0.77673702942E+02  0.59478504346E+02  0.24432213588E+03  0.00000000000E+00 0.  1.
<mgrwt>
<rscale>  4 0.49361065E+03</rscale>
<asrwt>0</asrwt>
<pdfrwt beam="1">  1       21 0.10855355E+00 0.49361065E+03</pdfrwt>
<pdfrwt beam="2">  1       21 0.35269660E-01 0.49361065E+03</pdfrwt>
<totfact> 0.45126198E+03</totfact>
</mgrwt>
</event>
<event>
 5    0  0.2720079E+000  0.5050119E+03  0.7546771E-02  0.1012479E+00
         21   -1    0    0  504  501  0.00000000000E+00  0.00000000000E+00  0.32647707664E+03  0.32647707664E+03  0.00000000000E+00 0.  1.
         21   -1    0    0  503  502 -0.00000000000E+00 -0.00000000000E+00 -0.26379161356E+03  0.26379161356E+03  0.00000000000E+00 0.  1.
         25    1    1    2    0    0 -0.98990618913E+02  0.17759269627E+03  0.13296165615E+03  0.27320708338E+03  0.12500000000E+03 0.  0.
         21    1    1    2  503  501  0.10820952014E+03 -0.14284662863E+03 -0.14735731475E+03  0.23200999498E+03  0.00000000000E+00 0.  1.
         21    1    1    2  504  502 -0.92189012226E+01 -0.34746067643E+02  0.77081121682E+02  0.85051611838E+02  0.00000000000E+00 0.  1.
<mgrwt>
<rscale>  4 0.50501194E+03</rscale>
<asrwt>0</asrwt>
<pdfrwt beam="1">  1       21 0.50227243E-01 0.50501194E+03</pdfrwt>
<pdfrwt beam="2">  1       21 0.40583325E-01 0.50501194E+03</pdfrwt>
<totfact> 0.19710535E+04</totfact>
</mgrwt>
</event>
<event>
 5    0  0.2720079E+000  0.4520354E+03  0.7546771E-02  0.1027117E+00
         21   -1    0    0  503  501  0.00000000000E+00  0.00000000000E+00  0.10999318100E+04  0.10999318100E+04  0.00000000000E+00 0.  1.
         21   -1    0    0  504  502 -0.00000000000E+00 -0.00000000000E+00 -0.11480210433E+03  0.11480210433E+03  0.00000000000E+00 0.  1.
         25    1    1    2    0    0 -0.37354584535E+02 -0.22307124598E+03  0.12715410854E+03  0.28800922396E+03  0.12500000000E+03 0.  0.
         21    1    1    2  503  502  0.44057784754E+02  0.17406635646E+03  0.20762720285E+03  0.27449816067E+03  0.00000000000E+00 0.  1.
         21    1    1    2  504  501 -0.67032002190E+01  0.49004889524E+02  0.65034839430E+03  0.65222652971E+03  0.00000000000E+00 0.  1.
<mgrwt>
<rscale>  4 0.45203543E+03</rscale>
<asrwt>0</asrwt>
<pdfrwt beam="1">  1       21 0.16922027E+00 0.45203543E+03</pdfrwt>
<pdfrwt beam="2">  1       21 0.17661863E-01 0.45203543E+03</pdfrwt>
<totfact> 0.54546503E+03</totfact>
</mgrwt>
</event>
<event>
 5    0  0.2720079E+000  0.5853817E+03  0.7546771E-02  0.9936207E-01
         21   -1    0    0  502  501  0.00000000000E+00  0.00000000000E+00  0.34584520748E+03  0.34584520748E+03  0.00000000000E+00 0.  1.
         21   -1    0    0  504  502 -0.00000000000E+00 -0.00000000000E+00 -0.46292947965E+03  0.46292947965E+03  0.00000000000E+00 0. -1.
         25    1    1    2    0    0  0.30743151756E+03  0.21953781220E+03  0.16796897796E+02  0.39826891010E+03  0.12500000000E+03 0.  0.
         21    1    1    2  503  501 -0.15915501942E+03 -0.14423108312E+03 -0.36728527760E+02  0.21790344260E+03  0.00000000000E+00 0.  1.
         21    1    1    2  504  503 -0.14827649813E+03 -0.75306729084E+02 -0.97152642201E+02  0.19260233444E+03  0.00000000000E+00 0. -1.
<mgrwt>
<rscale>  4 0.58538174E+03</rscale>
<asrwt>0</asrwt>
<pdfrwt beam="1">  1       21 0.53206955E-01 0.58538174E+03</pdfrwt>
<pdfrwt beam="2">  1       21 0.71219920E-01 0.58538174E+03</pdfrwt>
<totfact> 0.50580083E+03</totfact>
</mgrwt>
</event>
<event>
 5    0  0.2720079E+000  0.5638793E+03  0.7546771E-02  0.9983315E-01
         21   -1    0    0  502  501  0.00000000000E+00  0.00000000000E+00  0.28456994285E+04  0.28456994285E+04  0.00000000000E+00 0. -1.
         21   -1    0    0  504  502 -0.00000000000E+00 -0.00000000000E+00 -0.82084247770E+02  0.82084247770E+02  0.00000000000E+00 0. -1.
         25    1    1    2    0    0 -0.56047697513E+02 -0.21809080584E+03  0.22817401482E+03  0.34408331117E+03  0.12500000000E+03 0.  0.
         21    1    1    2  503  501 -0.27174817976E+02 -0.24075947976E+02  0.18750513356E+04  0.18754027923E+04  0.00000000000E+00 0. -1.
         21    1    1    2  504  503  0.83222515489E+02  0.24216675382E+03  0.66038983028E+03  0.70829757283E+03  0.00000000000E+00 0. -1.
<mgrwt>
<rscale>  4 0.56387926E+03</rscale>
<asrwt>0</asrwt>
<pdfrwt beam="1">  1       21 0.43779984E+00 0.56387926E+03</pdfrwt>
<pdfrwt beam="2">  1       21 0.12628348E-01 0.56387926E+03</pdfrwt>
<totfact> 0.19015154E+02</totfact>
</mgrwt>
</event>
<event>
 5    0  0.2720079E+000  0.5706531E+03  0.7546771E-02  0.9968235E-01
         21   -1    0    0  504  501  0.00000000000E+00  0.00000000000E+00  0.32126712764E+03  0.32126712764E+03  0.00000000000E+00 0.  1.
         21   -1    0    0  503  502 -0.00000000000E+00 -0.00000000000E+00 -0.55577385643E+03  0.55577385643E+03  0.00000000000E+00 0.  1.
         25    1    1    2    0    0 -0.62996101199E+02 -0.23104670716E+03 -0.80510775116E+02  0.28188308670E+03  0.12500000000E+03 0.  0.
         21    1    1    2  503  501  0.82869728710E+02  0.24893027633E+03 -0.32748608619E+03  0.41961984111E+03  0.00000000000E+00 0.  1.
         21    1    1    2  504  502 -0.19873627510E+02 -0.17883569164E+02  0.17349013251E+03  0.17553805626E+03  0.00000000000E+00 0.  1.
<mgrwt>
<rscale>  4 0.57065306E+03</rscale>
<asrwt>0</asrwt>
<pdfrwt beam="1">  1       21 0.49425712E-01 0.57065306E+03</pdfrwt>
<pdfrwt beam="2">  1       21 0.85503669E-01 0.57065306E+03</pdfrwt>
<totfact> 0.38970968E+03</totfact>
</mgrwt>
</event>
<event>
 5    0  0.2720079E+000  0.5608685E+03  0.7546771E-02  0.9990092E-01
         21   -1    0    0  504  501  0.00000000000E+00  0.00000000000E+00  0.52294632289E+03  0.52294632289E+03  0.00000000000E+00 0.  1.
         21   -1    0    0  503  502 -0.00000000000E+00 -0.00000000000E+00 -0.46237511588E+03  0.46237511588E+03  0.00000000000E+00 0.  1.
         25    1    1    2    0    0 -0.29095981584E+03  0.16464210293E+03 -0.10760800567E+03  0.37278562120E+03  0.12500000000E+03 0.  0.
         21    1    1    2  503  501  0.18339416662E+03 -0.50763935229E+02 -0.16017486514E+03  0.24872954165E+03  0.00000000000E+00 0.  1.
         21    1    1    2  504  502  0.10756564922E+03 -0.11387816770E+03  0.32835407782E+03  0.36380627591E+03  0.00000000000E+00 0.  1.
<mgrwt>
<rscale>  4 0.56086846E+03</rscale>
<asrwt>0</asrwt>
<pdfrwt beam="1">  1       21 0.80453280E-01 0.56086846E+03</pdfrwt>
<pdfrwt beam="2">  1       21 0.71134633E-01 0.56086846E+03</pdfrwt>
<totfact> 0.20232736E+03</totfact>
</mgrwt>
</event>
<event>
 5    0  0.2720079E+000  0.5512383E+03  0.7546771E-02  0.1001208E+00
         21   -1    0    0  504  501  0.00000000000E+00  0.00000000000E+00  0.39213704867E+03  0.39213704867E+03  0.00000000000E+00 0.  1.
         21   -1    0    0  501  502 -0.00000000000E+00 -0.00000000000E+00 -0.61590801189E+03  0.61590801189E+03  0.00000000000E+00 0.  1.
         25    1    1    2    0    0 -0.11527574127E+03 -0.20805260470E+03 -0.15693516305E+03  0.31117202357E+03  0.12500000000E+03 0.  0.
         21    1    1    2  503  502  0.93923959515E+02  0.24903190162E+03 -0.33324474561E+03  0.42648641089E+03  0.00000000000E+00 0.  1.
         21    1    1    2  504  503  0.21351781756E+02 -0.40979296920E+02  0.26640894544E+03  0.27038662610E+03  0.00000000000E+00 0.  1.
<mgrwt>
<rscale>  4 0.55123826E+03</rscale>
<asrwt>0</asrwt>
<pdfrwt beam="1">  1       21 0.60328777E-01 0.55123826E+03</pdfrwt>
<pdfrwt beam="2">  1       21 0.94755078E-01 0.55123826E+03</pdfrwt>
<totfact> 0.19916503E+03</totfact>
</mgrwt>
</event>
<event>
 5    0  0.2720079E+000  0.4522919E+03  0.7546771E-02  0.1027041E+00
         21   -1    0    0  502  501  0.00000000000E+00  0.00000000000E+00  0.62112474654E+03  0.62112474654E+03  0.00000000000E+00 0. -1.
         21   -1    0    0  504  502 -0.00000000000E+00 -0.00000000000E+00 -0.10353472015E+03  0.10353472015E+03  0.00000000000E+00 0. -1.
         25    1    1    2    0    0 -0.14426123662E+03  0.15369617350E+03  0.28895812418E+03  0.37888733902E+03  0.12500000000E+03 0.  0.
         21    1    1    2  503  501 -0.20417360062E+01 -0.24565161787E+02  0.11985319560E+03  0.12236177653E+03  0.00000000000E+00 0. -1.
         21    1    1    2  504  503  0.14630297263E+03 -0.12913101171E+03  0.10877870662E+03  0.22341035115E+03  0.00000000000E+00 0. -1.
<mgrwt>
<rscale>  4 0.45229185E+03</rscale>
<asrwt>0</asrwt>
<pdfrwt beam="1">  1       21 0.95557651E-01 0.45229185E+03</pdfrwt>
<pdfrwt beam="2">  1       21 0.15928419E-01 0.45229185E+03</pdfrwt>
<totfact> 0.29163631E+04</totfact>
</mgrwt>
</event>
<event>
 5    0  0.2720079E+000  0.5417611E+03  0.7546771E-02  0.1003419E+00
         21   -1    0    0  502  501  0.00000000000E+00  0.00000000000E+00  0.57918144342E+03  0.57918144342E+03  0.00000000000E+00 0. -1.
         21   -1    0    0  504  502 -0.00000000000E+00 -0.00000000000E+00 -0.22323016215E+03  0.22323016215E+03  0.00000000000E+00 0. -1.
         25    1    1    2    0    0 -0.33664627461E+01 -0.20158815621E+03  0.25731398412E+03  0.34997800533E+03  0.12500000000E+03 0.  0.
         21    1    1    2  503  501  0.73427082037E+02  0.55987740418E+02  0.22765236319E+03  0.24566595596E+03  0.00000000000E+00 0. -1.
         21    1    1    2  504  503 -0.70060619290E+02  0.14560041579E+03 -0.12901506603E+03  0.20676764427E+03  0.00000000000E+00 0. -1.
<mgrwt>
<rscale>  4 0.54176112E+03</rscale>
<asrwt>0</asrwt>
<pdfrwt beam="1">  1       21 0.89104837E-01 0.54176112E+03</pdfrwt>
<pdfrwt beam="2">  1       21 0.34343102E-01 0.54176112E+03</pdfrwt>
<totfact> 0.75910979E+03</totfact>
</mgrwt>
</event>
<event>
 5    0  0.2720079E+000  0.5387536E+03  0.7546771E-02  0.1004131E+00
         21   -1    0    0  503  501  0.00000000000E+00  0.00000000000E+00  0.13014193498E+03  0.13014193498E+03  0.00000000000E+00 0.  1.
         21   -1    0    0  504  502 -0.00000000000E+00 -0.00000000000E+00 -0.65995755950E+03  0.65995755950E+03  0.00000000000E+00 0.  1.
         25    1    1    2    0    0 -0.23893678132E+03  0.11069182671E+02 -0.40875470845E+03  0.48981498952E+03  0.12500000000E+03 0.  0.
         21    1    1    2  503  502  0.29996305757E+02 -0.25031735913E+02 -0.76924683663E+02  0.86277303612E+02  0.00000000000E+00 0.  1.
         21    1    1    2  504  501  0.20894047556E+03  0.13962553241E+02 -0.44136232402E+02  0.21400720136E+03  0.00000000000E+00 0.  1.
<mgrwt>
<rscale>  4 0.53875363E+03</rscale>
<asrwt>0</asrwt>
<pdfrwt beam="1">  1       21 0.20021836E-01 0.53875363E+03</pdfrwt>
<pdfrwt beam="2">  1       21 0.10153193E+00 0.53875363E+03</pdfrwt>
<totfact> 0.16014729E+04</totfact>
</mgrwt>
</event>
<event>
 5    0  0.2720079E+000  0.4391817E+03  0.7546771E-02  0.1030998E+00
         21   -1    0    0  503  501  0.00000000000E+00  0.00000000000E+00  0.12013496164E+03  0.12013496164E+03  0.00000000000E+00 0. -1.
         21   -1    0    0  504  502 -0.00000000000E+00 -0.00000000000E+00 -0.67127315685E+03  0.67127315685E+03  0.00000000000E+00 0. -1.
         25    1    1    2    0    0  0.15963268992E+03 -0.13835072268E+03 -0.32956433372E+03  0.41092720550E+03  0.12500000000E+03 0.  0.
         21    1    1    2  503  502 -0.69783573283E+01  0.19121331301E+02  0.45914957064E+02  0.50224556384E+02  0.00000000000E+00 0. -1.
         21    1    1    2  504  501 -0.15265433260E+03  0.11922939138E+03 -0.26748881854E+03  0.33025635660E+03  0.00000000000E+00 0. -1.
<mgrwt>
<rscale>  4 0.43918175E+03</rscale>
<asrwt>0</asrwt>
<pdfrwt beam="1">  1       21 0.18482302E-01 0.43918175E+03</pdfrwt>
<pdfrwt beam="2">  1       21 0.10327279E+00 0.43918175E+03</pdfrwt>
<totfact> 0.18341018E+04</totfact>
</mgrwt>
</event>
<event>
 5    0  0.2720079E+000  0.6967936E+03  0.7546771E-02  0.9722731E-01
         21   -1    0    0  503  501  0.00000000000E+00  0.00000000000E+00  0.15669508551E+04  0.15669508551E+04  0.00000000000E+00 0. -1.
         21   -1    0    0  504  502 -0.00000000000E+00 -0.00000000000E+00 -0.14143676479E+03  0.14143676479E+03  0.00000000000E+00 0.  1.
         25    1    1    2    0    0 -0.13645282688E+03 -0.15951154387E+03 -0.15891610930E+02  0.24482820484E+03  0.12500000000E+03 0.  0.
         21    1    1    2  503  502 -0.18458056901E+01  0.55408601355E+02  0.70096877896E+03  0.70315769866E+03  0.00000000000E+00 0. -1.
         21    1    1    2  504  501  0.13829863257E+03  0.10410294251E+03  0.74043692226E+03  0.76040171637E+03  0.00000000000E+00 0. -1.
<mgrwt>
<rscale>  4 0.69679358E+03</rscale>
<asrwt>0</asrwt>
<pdfrwt beam="1">  1       21 0.24106935E+00 0.69679358E+03</pdfrwt>
<pdfrwt beam="2">  1       21 0.21759503E-01 0.69679358E+03</pdfrwt>
<totfact> 0.11146917E+03</totfact>
</mgrwt>
</event>
<event>
 5    0  0.2720079E+000  0.5152632E+03  0.7546771E-02  0.1009870E+00
         21   -1    0    0  502  501  0.00000000000E+00  0.00000000000E+00  0.13498735413E+03  0.13498735413E+03  0.00000000000E+00 0. -1.
         21   -1    0    0  504  502 -0.00000000000E+00 -0.00000000000E+00 -0.22888870875E+04  0.22888870875E+04  0.00000000000E+00 0.  1.
         25    1    1    2    0    0  0.19134303062E+03  0.23196646060E+03 -0.20379885207E+04  0.20638417587E+04  0.12500000000E+03 0.  0.
         21    1    1    2  503  501 -0.13349089476E+03 -0.15199690222E+03  0.69771423624E+01  0.20241432208E+03  0.00000000000E+00 0. -1.
         21    1    1    2  504  503 -0.57852135863E+02 -0.79969558378E+02 -0.12288835501E+03  0.15761836089E+03  0.00000000000E+00 0. -1.
<mgrwt>
<rscale>  4 0.51526322E+03</rscale>
<asrwt>0</asrwt>
<pdfrwt beam="1">  1       21 0.20767287E-01 0.51526322E+03</pdfrwt>
<pdfrwt beam="2">  1       21 0.35213645E+00 0.51526322E+03</pdfrwt>
<totfact> 0.27296895E+02</totfact>
</mgrwt>
</event>
<event>
 5    0  0.2720079E+000  0.4471859E+03  0.7546771E-02  0.1028565E+00
         21   -1    0    0  503  501  0.00000000000E+00  0.00000000000E+00  0.23453297360E+03  0.23453297360E+03  0.00000000000E+00 0.  1.
         21   -1    0    0  504  502 -0.00000000000E+00 -0.00000000000E+00 -0.15435498361E+04  0.15435498361E+04  0.00000000000E+00 0. -1.
         25    1    1    2    0    0 -0.18516372104E+02 -0.21793508490E+03 -0.70030877879E+03  0.74424185781E+03  0.12500000000E+03 0.  0.
         21    1    1    2  503  502 -0.19912085281E+02  0.18419974360E+03 -0.80754923863E+03  0.82852990863E+03  0.00000000000E+00 0. -1.
         21    1    1    2  504  501  0.38428457385E+02  0.33735341293E+02  0.19884115493E+03  0.20531104325E+03  0.00000000000E+00 0.  1.
<mgrwt>
<rscale>  4 0.44718590E+03</rscale>
<asrwt>0</asrwt>
<pdfrwt beam="1">  1       21 0.36081996E-01 0.44718590E+03</pdfrwt>
<pdfrwt beam="2">  1       21 0.23746920E+00 0.44718590E+03</pdfrwt>
<totfact> 0.47582505E+02</totfact>
</mgrwt>
</event>
<event>
 5    0  0.2720079E+000  0.9615179E+03  0.7546771E-02  0.9351788E-01
         21   -1    0    0  503  501  0.00000000000E+00  0.00000000000E+00  0.42393370225E+03  0.42393370225E+03  0.00000000000E+00 0.  1.
         21   -1    0    0  504  502 -0.00000000000E+00 -0.00000000000E+00 -0.14419671660E+04  0.14419671660E+04  0.00000000000E+00 0.  1.
         25    1    1    2    0    0  0.18694509081E+03 -0.42381069961E+03 -0.35874055257E+03  0.59906907794E+03  0.12500000000E+03 0.  0.
         21    1    1    2  503  502 -0.15032431744E+03  0.36494688601E+03 -0.91786396268E+03  0.99912856230E+03  0.00000000000E+00 0.  1.
         21    1    1    2  504  501 -0.36620773369E+02  0.58863813603E+02  0.25857105152E+03  0.26770322799E+03  0.00000000000E+00 0.  1.
<mgrwt>
<rscale>  4 0.96151787E+03</rscale>
<asrwt>0</asrwt>
<pdfrwt beam="1">  1       21 0.65220569E-01 0.96151787E+03</pdfrwt>
<pdfrwt beam="2">  1       21 0.22184110E+00 0.96151787E+03</pdfrwt>
<totfact> 0.14105247E+02</totfact>
</mgrwt>
</event>
<event>
 5    0  0.2720079E+000  0.4801884E+03  0.7546771E-02  0.1019083E+00
         21   -1    0    0  504  501  0.00000000000E+00  0.00000000000E+00  0.49303623621E+03  0.49303623621E+03  0.00000000000E+00 0. -1.
         21   -1    0    0  503  502 -0.00000000000E+00 -0.00000000000E+00 -0.38968612266E+03  0.38968612266E+03  0.00000000000E+00 0.  1.
         25    1    1    2    0    0 -0.19936166423E+03 -0.10198814482E+03 -0.20634866898E+03  0.32916778099E+03  0.12500000000E+03 0.  0.
         21    1    1    2  503  501  0.16524840348E+03  0.12127709645E+03 -0.33872148907E+02  0.20775584576E+03  0.00000000000E+00 0.  1.
         21    1    1    2  504  502  0.34113260751E+02 -0.19288951629E+02  0.34357093143E+03  0.34579873212E+03  0.00000000000E+00 0. -1.
<mgrwt>
<rscale>  4 0.48018844E+03</rscale>
<asrwt>0</asrwt>
<pdfrwt beam="1">  1       21 0.75851729E-01 0.48018844E+03</pdfrwt>
<pdfrwt beam="2">  1       21 0.59951711E-01 0.48018844E+03</pdfrwt>
<totfact> 0.34803136E+03</totfact>
</mgrwt>
</event>
<event>
 5    0  0.2720079E+000  0.7688325E+03  0.7546771E-02  0.9606260E-01
         21   -1    0    0  503  501  0.00000000000E+00  0.00000000000E+00  0.20076058678E+03  0.20076058678E+03  0.00000000000E+00 0. -1.
         21   -1    0    0  504  502 -0.00000000000E+00 -0.00000000000E+00 -0.94167065505E+03  0.94167065505E+03  0.00000000000E+00 0.  1.
         25    1    1    2    0    0 -0.17626075502E+03 -0.26999730959E+03 -0.70455892714E+03  0.78485328741E+03  0.12500000000E+03 0.  0.
         21    1    1    2  503  502  0.31700175534E+02  0.72921644253E+01  0.36613039689E+02  0.48975416957E+02  0.00000000000E+00 0. -1.
         21    1    1    2  504  501  0.14456057949E+03  0.26270514517E+03 -0.72964180819E+02  0.30860253746E+03  0.00000000000E+00 0. -1.
<mgrwt>
<rscale>  4 0.76883253E+03</rscale>
<asrwt>0</asrwt>
<pdfrwt beam="1">  1       21 0.30886245E-01 0.76883253E+03</pdfrwt>
<pdfrwt beam="2">  1       21 0.14487241E+00 0.76883253E+03</pdfrwt>
<totfact> 0.26005608E+03</totfact>
</mgrwt>
</event>
<event>
 5    0  0.2720079E+000  0.4847255E+03  0.7546771E-02  0.1017845E+00
         21   -1    0    0  502  501  0.00000000000E+00  0.00000000000E+00  0.20963795057E+04  0.20963795057E+04  0.00000000000E+00 0. -1.
         21   -1    0    0  503  502 -0.00000000000E+00 -0.00000000000E+00 -0.29697230021E+03  0.29697230021E+03  0.00000000000E+00 0. -1.
         25    1    1    2    0    0 -0.34277950173E+03 -0.59487368821E+02 -0.15389942116E+03  0.40043297278E+03  0.12500000000E+03 0.  0.
         21    1    1    2  503  504  0.51915998695E+02  0.47871205600E+00  0.74445263246E+02  0.90761210357E+02  0.00000000000E+00 0.  1.
         21    1    1    2  504  501  0.29086350303E+03  0.59008656765E+02  0.18788613634E+04  0.19021576228E+04  0.00000000000E+00 0. -1.
<mgrwt>
<rscale>  4 0.48472545E+03</rscale>
<asrwt>0</asrwt>
<pdfrwt beam="1">  1       21 0.32251991E+00 0.48472545E+03</pdfrwt>
<pdfrwt beam="2">  1       21 0.45688048E-01 0.48472545E+03</pdfrwt>
<totfact> 0.87033134E+01</totfact>
</mgrwt>
</event>
<event>
 5    0  0.2720079E+000  0.5690765E+03  0.7546771E-02  0.9971724E-01
         21   -1    0    0  504  501  0.00000000000E+00  0.00000000000E+00  0.15937333353E+03  0.15937333353E+03  0.00000000000E+00 0. -1.
         21   -1    0    0  501  502 -0.00000000000E+00 -0.00000000000E+00 -0.81828487956E+03  0.81828487956E+03  0.00000000000E+00 0. -1.
         25    1    1    2    0    0 -0.16564586591E+03  0.17276587670E+03 -0.19772130216E+03  0.33467195038E+03  0.12500000000E+03 0.  0.
         21    1    1    2  503  502  0.18262506155E+03 -0.18490363345E+03 -0.51959462234E+03  0.58096457580E+03  0.00000000000E+00 0. -1.
         21    1    1    2  504  503 -0.16979195642E+02  0.12137756751E+02  0.58404378466E+02  0.62021686914E+02  0.00000000000E+00 0. -1.
<mgrwt>
<rscale>  4 0.56907654E+03</rscale>
<asrwt>0</asrwt>
<pdfrwt beam="1">  1       21 0.24518974E-01 0.56907654E+03</pdfrwt>
<pdfrwt beam="2">  1       21 0.12588998E+00 0.56907654E+03</pdfrwt>
<totfact> 0.62569062E+03</totfact>
</mgrwt>
</event>
<event>
 5    0  0.2720079E+000  0.7613446E+03  0.7546771E-02  0.9617719E-01
         21   -1    0    0  503  501  0.00000000000E+00  0.00000000000E+00  0.84083621284E+03  0.84083621284E+03  0.00000000000E+00 0. -1.
         21   -1    0    0  504  502 -0.00000000000E+00 -0.00000000000E+00 -0.23528069645E+03  0.23528069645E+03  0.00000000000E+00 0. -1.
         25    1    1    2    0    0 -0.29595014817E+03 -0.63534481886E+02  0.42801712193E+03  0.53893114333E+03  0.12500000000E+03 0.  0.
         21    1    1    2  503  502 -0.20500363851E+01 -0.20829856195E+02  0.22315334464E+03  0.22413277490E+03  0.00000000000E+00 0. -1.
         21    1    1    2  504  501  0.29800018455E+03  0.84364338082E+02 -0.45614950179E+02  0.31305299106E+03  0.00000000000E+00 0. -1.
<mgrwt>
<rscale>  4 0.76134456E+03</rscale>
<asrwt>0</asrwt>
<pdfrwt beam="1">  1       21 0.12935942E+00 0.76134456E+03</pdfrwt>
<pdfrwt beam="2">  1       21 0.36197031E-01 0.76134456E+03</pdfrwt>
<totfact> 0.25553344E+03</totfact>
</mgrwt>
</event>
<event>
 5    0  0.2720079E+000  0.6039162E+03  0.7546771E-02  0.9897314E-01
         21   -1    0    0  502  501  0.00000000000E+00  0.00000000000E+00  0.28817694357E+03  0.28817694357E+03  0.00000000000E+00 0.  1.
         21   -1    0    0  503  502 -0.00000000000E+00 -0.00000000000E+00 -0.55880012440E+03  0.55880012440E+03  0.00000000000E+00 0. -1.
         25    1    1    2    0    0 -0.99057568343E+02 -0.19810981878E+03  0.53899153085E+02  0.25998080861E+03  0.12500000000E+03 0.  0.
         21    1    1    2  503  504  0.12159533782E+03  0.93615305763E+02 -0.41782052153E+03  0.44511036818E+03  0.00000000000E+00 0. -1.
         21    1    1    2  504  501 -0.22537769478E+02  0.10449451302E+03  0.93298187615E+02  0.14188589118E+03  0.00000000000E+00 0.  1.
<mgrwt>
<rscale>  4 0.60391622E+03</rscale>
<asrwt>0</asrwt>
<pdfrwt beam="1">  1       21 0.44334915E-01 0.60391622E+03</pdfrwt>
<pdfrwt beam="2">  1       21 0.85969248E-01 0.60391622E+03</pdfrwt>
<totfact> 0.48031027E+03</totfact>
</mgrwt>
</event>
<event>
 5    0  0.2720079E+000  0.5150849E+03  0.7546771E-02  0.1009915E+00
         21   -1    0    0  504  501  0.00000000000E+00  0.00000000000E+00  0.19422780952E+04  0.19422780952E+04  0.00000000000E+00 0. -1.
         21   -1    0    0  503  502 -0.00000000000E+00 -0.00000000000E+00 -0.37373233025E+02  0.37373233025E+02  0.00000000000E+00 0.  1.
         25    1    1    2    0    0  0.29439939109E+02  0.23748719919E+03  0.10905967563E+04  0.11235182084E+04  0.12500000000E+03 0.  0.
         21    1    1    2  503  501 -0.59166057360E+01 -0.23992450523E+03  0.72198813514E+03  0.76083220339E+03  0.00000000000E+00 0. -1.
         21    1    1    2  504  502 -0.23523333373E+02  0.24373060352E+01  0.92319970746E+02  0.95300916429E+02  0.00000000000E+00 0.  1.
<mgrwt>
<rscale>  4 0.51508493E+03</rscale>
<asrwt>0</asrwt>
<pdfrwt beam="1">  1       21 0.29881194E+00 0.51508493E+03</pdfrwt>
<pdfrwt beam="2">  1       21 0.57497297E-02 0.51508493E+03</pdfrwt>
<totfact> 0.59706200E+03</totfact>
</mgrwt>
</event>
<event>
 5    0  0.2720079E+000  0.3696749E+03  0.7546771E-02  0.1054817E+00
         21   -1    0    0  502  501  0.00000000000E+00  0.00000000000E+00  0.14756508352E+03  0.14756508352E+03  0.00000000000E+00 0. -1.
         21   -1    0    0  504  502 -0.00000000000E+00 -0.00000000000E+00 -0.73217359101E+03  0.73217359101E+03  0.00000000000E+00 0. -1.
         25    1    1    2    0    0 -0.15238654082E+03  0.15646155412E+03 -0.45640158290E+03  0.52118066025E+03  0.12500000000E+03 0.  0.
         21    1    1    2  503  501  0.37313323003E+02 -0.13565662682E+03  0.46628269244E+02  0.14822010648E+03  0.00000000000E+00 0. -1.
         21    1    1    2  504  503  0.11507321782E+03 -0.20804927302E+02 -0.17483519383E+03  0.21033790781E+03  0.00000000000E+00 0.  1.
<mgrwt>
<rscale>  4 0.36967492E+03</rscale>
<asrwt>0</asrwt>
<pdfrwt beam="1">  1       21 0.22702321E-01 0.36967492E+03</pdfrwt>
<pdfrwt beam="2">  1       21 0.11264209E+00 0.36967492E+03</pdfrwt>
<totfact> 0.10238612E+04</totfact>
</mgrwt>
</event>
<event>
 5    0  0.2720079E+000  0.4503158E+03  0.7546771E-02  0.1027628E+00
         21   -1    0    0  503  501  0.00000000000E+00  0.00000000000E+00  0.46390406462E+03  0.46390406462E+03  0.00000000000E+00 0. -1.
         21   -1    0    0  504  502 -0.00000000000E+00 -0.00000000000E+00 -0.38010564597E+03  0.38010564597E+03  0.00000000000E+00 0. -1.
         25    1    1    2    0    0 -0.25214451054E+02 -0.20507318448E+03 -0.35152785230E+02  0.24403175581E+03  0.12500000000E+03 0.  0.
         21    1    1    2  503  502  0.57117163025E+02  0.38892762417E+02  0.32562019055E+03  0.33287163558E+03  0.00000000000E+00 0. -1.
         21    1    1    2  504  501 -0.31902711971E+02  0.16618042207E+03 -0.20666898666E+03  0.26710631920E+03  0.00000000000E+00 0. -1.
<mgrwt>
<rscale>  4 0.45031585E+03</rscale>
<asrwt>0</asrwt>
<pdfrwt beam="1">  1       21 0.71369856E-01 0.45031585E+03</pdfrwt>
<pdfrwt beam="2">  1       21 0.58477792E-01 0.45031585E+03</pdfrwt>
<totfact> 0.42632045E+03</totfact>
</mgrwt>
</event>
<event>
 5    0  0.2720079E+000  0.5219678E+03  0.7546771E-02  0.1008199E+00
         21   -1    0    0  502  501  0.00000000000E+00  0.00000000000E+00  0.63205993419E+02  0.63205993419E+02  0.00000000000E+00 0. -1.
         21   -1    0    0  504  502 -0.00000000000E+00 -0.00000000000E+00 -0.12198349573E+04  0.12198349573E+04  0.00000000000E+00 0. -1.
         25    1    1    2    0    0  0.22197995370E+03 -0.55117110730E+02 -0.53172307081E+03  0.59217178232E+03  0.12500000000E+03 0.  0.
         21    1    1    2  503  501  0.31594277262E+02 -0.67582220371E+01 -0.50650324684E+02  0.60077677314E+02  0.00000000000E+00 0. -1.
         21    1    1    2  504  503 -0.25357423096E+03  0.61875332767E+02 -0.57425556840E+03  0.63079149110E+03  0.00000000000E+00 0. -1.
<mgrwt>
<rscale>  4 0.52196783E+03</rscale>
<asrwt>0</asrwt>
<pdfrwt beam="1">  1       21 0.97239996E-02 0.52196783E+03</pdfrwt>
<pdfrwt beam="2">  1       21 0.18766690E+00 0.52196783E+03</pdfrwt>
<totfact> 0.11816595E+04</totfact>
</mgrwt>
</event>
<event>
 5    0  0.2720079E+000  0.5628871E+03  0.7546771E-02  0.9985543E-01
         21   -1    0    0  502  501  0.00000000000E+00  0.00000000000E+00  0.23863633434E+03  0.23863633434E+03  0.00000000000E+00 0. -1.
         21   -1    0    0  504  502 -0.00000000000E+00 -0.00000000000E+00 -0.40286973789E+03  0.40286973789E+03  0.00000000000E+00 0.  1.
         25    1    1    2    0    0  0.26247576332E+03  0.78970440365E+02 -0.30823782214E+02  0.30282827202E+03  0.12500000000E+03 0.  0.
         21    1    1    2  503  501 -0.75872020455E+01 -0.53882139664E+02 -0.32601279806E+02  0.63432594576E+02  0.00000000000E+00 0. -1.
         21    1    1    2  504  503 -0.25488856128E+03 -0.25088300701E+02 -0.10080834153E+03  0.27524520563E+03  0.00000000000E+00 0.  1.
<mgrwt>
<rscale>  4 0.56288714E+03</rscale>
<asrwt>0</asrwt>
<pdfrwt beam="1">  1       21 0.36713283E-01 0.56288714E+03</pdfrwt>
<pdfrwt beam="2">  1       21 0.61979958E-01 0.56288714E+03</pdfrwt>
<totfact> 0.15142614E+04</totfact>
</mgrwt>
</event>
<event>
 5    0  0.2720079E+000  0.5551640E+03  0.7546771E-02  0.1000306E+00
         21   -1    0    0  502  501  0.00000000000E+00  0.00000000000E+00  0.51069410217E+03  0.51069410217E+03  0.00000000000E+00 0.  1.
         21   -1    0    0  504  502 -0.00000000000E+00 -0.00000000000E+00 -0.34196724407E+03  0.34196724407E+03  0.00000000000E+00 0.  1.
         25    1    1    2    0    0 -0.10435033823E+03  0.20281106234E+03  0.46481138691E+02  0.26420979609E+03  0.12500000000E+03 0.  0.
         21    1    1    2  503  501 -0.10309243323E+02  0.25936955720E+02  0.28424018596E+03  0.28560722940E+03  0.00000000000E+00 0.  1.
         21    1    1    2  504  503  0.11465958156E+03 -0.22874801806E+03 -0.16199446656E+03  0.30284432074E+03  0.00000000000E+00 0.  1.
<mgrwt>
<rscale>  4 0.55516398E+03</rscale>
<asrwt>0</asrwt>
<pdfrwt beam="1">  1       21 0.78568323E-01 0.55516398E+03</pdfrwt>
<pdfrwt beam="2">  1       21 0.52610346E-01 0.55516398E+03</pdfrwt>
<totfact> 0.41703300E+03</totfact>
</mgrwt>
</event>
<event>
 5    0  0.2720079E+000  0.6211831E+03  0.7546771E-02  0.9862407E-01
         21   -1    0    0  502  501  0.00000000000E+00  0.00000000000E+00  0.66102480065E+03  0.66102480065E+03  0.00000000000E+00 0. -1.
         21   -1    0    0  504  502 -0.00000000000E+00 -0.00000000000E+00 -0.13163271139E+04  0.13163271139E+04  0.00000000000E+00 0. -1.
         25    1    1    2    0    0  0.25552860385E+03  0.88145591012E+02 -0.34580686034E+03  0.45636815978E+03  0.12500000000E+03 0.  0.
         21    1    1    2  503  501  0.19255125415E+01 -0.83511830598E+02  0.58460511975E+03  0.59054303780E+03  0.00000000000E+00 0. -1.
         21    1    1    2  504  503 -0.25745411639E+03 -0.46337604144E+01 -0.89410057266E+03  0.93044071698E+03  0.00000000000E+00 0. -1.
<mgrwt>
<rscale>  4 0.62118308E+03</rscale>
<asrwt>0</asrwt>
<pdfrwt beam="1">  1       21 0.10169612E+00 0.62118308E+03</pdfrwt>
<pdfrwt beam="2">  1       21 0.20251186E+00 0.62118308E+03</pdfrwt>
<totfact> 0.74248516E+01</totfact>
</mgrwt>
</event>
<event>
 5    0  0.2720079E+000  0.3293439E+03  0.7546771E-02  0.1071428E+00
         21   -1    0    0  502  501  0.00000000000E+00  0.00000000000E+00  0.11073962890E+03  0.11073962890E+03  0.00000000000E+00 0.  1.
         21   -1    0    0  504  502 -0.00000000000E+00 -0.00000000000E+00 -0.10986496145E+04  0.10986496145E+04  0.00000000000E+00 0.  1.
         25    1    1    2    0    0 -0.12737140671E+03 -0.18411119934E+03 -0.61644576587E+03  0.66764570786E+03  0.12500000000E+03 0.  0.
         21    1    1    2  503  501  0.10667069570E+03  0.14359343322E+03 -0.11859448568E+02  0.17927174319E+03  0.00000000000E+00 0.  1.
         21    1    1    2  504  503  0.20700711005E+02  0.40517766122E+02 -0.35960477119E+03  0.36247179238E+03  0.00000000000E+00 0. -1.
<mgrwt>
<rscale>  4 0.32934391E+03</rscale>
<asrwt>0</asrwt>
<pdfrwt beam="1">  1       21 0.17036865E-01 0.32934391E+03</pdfrwt>
<pdfrwt beam="2">  1       21 0.16902303E+00 0.32934391E+03</pdfrwt>
<totfact> 0.61643369E+03</totfact>
</mgrwt>
</event>
<event>
 5    0  0.2720079E+000  0.6067814E+03  0.7546771E-02  0.9891436E-01
         21   -1    0    0  502  501  0.00000000000E+00  0.00000000000E+00  0.11656117731E+04  0.11656117731E+04  0.00000000000E+00 0. -1.
         21   -1    0    0  504  502 -0.00000000000E+00 -0.00000000000E+00 -0.29779634989E+03  0.29779634989E+03  0.00000000000E+00 0.  1.
         25    1    1    2    0    0 -0.24031023293E+03 -0.15053250110E+03  0.13063039754E+03  0.33630097041E+03  0.12500000000E+03 0.  0.
         21    1    1    2  503  501  0.43740615274E+02  0.69163354240E+01  0.85535313808E+03  0.85649872618E+03  0.00000000000E+00 0. -1.
         21    1    1    2  504  503  0.19656961765E+03  0.14361616568E+03 -0.11816811244E+03  0.27060842638E+03  0.00000000000E+00 0.  1.
<mgrwt>
<rscale>  4 0.60678143E+03</rscale>
<asrwt>0</asrwt>
<pdfrwt beam="1">  1       21 0.17932489E+00 0.60678143E+03</pdfrwt>
<pdfrwt beam="2">  1       21 0.45814824E-01 0.60678143E+03</pdfrwt>
<totfact> 0.65796768E+02</totfact>
</mgrwt>
</event>
<event>
 5    0  0.2720079E+000  0.7008484E+03  0.7546771E-02  0.9715782E-01
         21   -1    0    0  502  501  0.00000000000E+00  0.00000000000E+00  0.21736021991E+04  0.21736021991E+04  0.00000000000E+00 0. -1.
         21   -1    0    0  504  502 -0.00000000000E+00 -0.00000000000E+00 -0.72142335477E+02  0.72142335477E+02  0.00000000000E+00 0. -1.
         25    1    1    2    0    0 -0.26623579505E+03 -0.10457212811E+03  0.13725193482E+04  0.14075692487E+04  0.12500000000E+03 0.  0.
         21    1    1    2  503  501  0.30884669015E+02 -0.21125707825E+02  0.45225091359E+03  0.45379626172E+03  0.00000000000E+00 0. -1.
         21    1    1    2  504  503  0.23535112603E+03  0.12569783594E+03  0.27668960179E+03  0.38437902417E+03  0.00000000000E+00 0. -1.
<mgrwt>
<rscale>  4 0.70084838E+03</rscale>
<asrwt>0</asrwt>
<pdfrwt beam="1">  1       21 0.33440029E+00 0.70084838E+03</pdfrwt>
<pdfrwt beam="2">  1       21 0.11098823E-01 0.70084838E+03</pdfrwt>
<totfact> 0.10458887E+03</totfact>
</mgrwt>
</event>
<event>
 5    0  0.2720079E+000  0.3743859E+03  0.7546771E-02  0.1053028E+00
         21   -1    0    0  502  501  0.00000000000E+00  0.00000000000E+00  0.99864905759E+02  0.99864905759E+02  0.00000000000E+00 0.  1.
         21   -1    0    0  504  502 -0.00000000000E+00 -0.00000000000E+00 -0.78151797606E+03  0.78151797606E+03  0.00000000000E+00 0. -1.
         25    1    1    2    0    0  0.15151059826E+03 -0.20316977539E+03 -0.41306487138E+03  0.50048077584E+03  0.12500000000E+03 0.  0.
         21    1    1    2  503  501 -0.11003801147E+03  0.12218610050E+03 -0.10925098208E+03  0.19741728447E+03  0.00000000000E+00 0.  1.
         21    1    1    2  504  503 -0.41472586797E+02  0.80983674885E+02 -0.15933721684E+03  0.18348482151E+03  0.00000000000E+00 0.  1.
<mgrwt>
<rscale>  4 0.37438588E+03</rscale>
<asrwt>0</asrwt>
<pdfrwt beam="1">  1       21 0.15363831E-01 0.37438588E+03</pdfrwt>
<pdfrwt beam="2">  1       21 0.12023354E+00 0.37438588E+03</pdfrwt>
<totfact> 0.18121644E+04</totfact>
</mgrwt>
</event>
<event>
 5    0  0.2720079E+000  0.5284769E+03  0.7546771E-02  0.1006602E+00
         21   -1    0    0  503  501  0.00000000000E+00  0.00000000000E+00  0.13905767666E+04  0.13905767666E+04  0.00000000000E+00 0.  1.
         21   -1    0    0  504  502 -0.00000000000E+00 -0.00000000000E+00 -0.17128858346E+04  0.17128858346E+04  0.00000000000E+00 0.  1.
         25    1    1    2    0    0 -0.18780649105E+03 -0.12962234787E+03 -0.59374790317E+03  0.64825519949E+03  0.12500000000E+03 0.  0.
         21    1    1    2  503  502 -0.38484110979E+02  0.22047473606E+03  0.13403132320E+04  0.13588707429E+04  0.00000000000E+00 0.  1.
         21    1    1    2  504  501  0.22629060202E+03 -0.90852388190E+02 -0.10688743969E+04  0.10963366588E+04  0.00000000000E+00 0.  1.
<mgrwt>
<rscale>  4 0.52847691E+03</rscale>
<asrwt>0</asrwt>
<pdfrwt beam="1">  1       21 0.21393489E+00 0.52847691E+03</pdfrwt>
<pdfrwt beam="2">  1       21 0.26352090E+00 0.52847691E+03</pdfrwt>
<totfact> 0.41027342E+00</totfact>
</mgrwt>
</event>
<event>
 5    0  0.2720079E+000  0.4872291E+03  0.7546771E-02  0.1017167E+00
         21   -1    0    0  503  501  0.00000000000E+00  0.00000000000E+00  0.27231470442E+03  0.27231470442E+03  0.00000000000E+00 0.  1.
         21   -1    0    0  504  502 -0.00000000000E+00 -0.00000000000E+00 -0.86973297342E+03  0.86973297342E+03  0.00000000000E+00 0.  1.
         25    1    1    2    0    0 -0.99073009823E+02  0.20294175583E+03 -0.29407039309E+03  0.39128405747E+03  0.12500000000E+03 0.  0.
         21    1    1    2  503  502  0.14114791374E+02 -0.17948499664E+02  0.20338860586E+03  0.20466631616E+03  0.00000000000E+00 0.  1.
         21    1    1    2  504  501  0.84958218448E+02 -0.18499325617E+03 -0.50673648177E+03  0.54609730421E+03  0.00000000000E+00 0.  1.
<mgrwt>
<rscale>  4 0.48722907E+03</rscale>
<asrwt>0</asrwt>
<pdfrwt beam="1">  1       21 0.41894570E-01 0.48722907E+03</pdfrwt>
<pdfrwt beam="2">  1       21 0.13380507E+00 0.48722907E+03</pdfrwt>
<totfact> 0.18639359E+03</totfact>
</mgrwt>
</event>
<event>
 5    0  0.2720079E+000  0.5852308E+03  0.7546771E-02  0.9936530E-01
         21   -1    0    0  503  501  0.00000000000E+00  0.00000000000E+00  0.29610176519E+03  0.29610176519E+03  0.00000000000E+00 0. -1.
         21   -1    0    0  504  502 -0.00000000000E+00 -0.00000000000E+00 -0.37122319960E+03  0.37122319960E+03  0.00000000000E+00 0.  1.
         25    1    1    2    0    0 -0.25968730625E+03  0.40940094586E+02 -0.19957525504E+03  0.35294315519E+03  0.12500000000E+03 0.  0.
         21    1    1    2  503  502  0.24217794251E+02 -0.35565968562E+02  0.52966030989E+02  0.68241044225E+02  0.00000000000E+00 0. -1.
         21    1    1    2  504  501  0.23546951200E+03 -0.53741260235E+01  0.71487789638E+02  0.24614076537E+03  0.00000000000E+00 0. -1.
<mgrwt>
<rscale>  4 0.58523085E+03</rscale>
<asrwt>0</asrwt>
<pdfrwt beam="1">  1       21 0.45554118E-01 0.58523085E+03</pdfrwt>
<pdfrwt beam="2">  1       21 0.57111261E-01 0.58523085E+03</pdfrwt>
<totfact> 0.11524311E+04</totfact>
</mgrwt>
</event>
<event>
 5    0  0.2720079E+000  0.4096852E+03  0.7546771E-02  0.1040477E+00
         21   -1    0    0  504  501  0.00000000000E+00  0.00000000000E+00  0.16894971835E+04  0.16894971835E+04  0.00000000000E+00 0. -1.
         21   -1    0    0  503  502 -0.00000000000E+00 -0.00000000000E+00 -0.58910341876E+02  0.58910341876E+02  0.00000000000E+00 0. -1.
         25    1    1    2    0    0  0.23740468756E+03  0.64803910668E+02  0.55447578965E+03  0.61937786029E+03  0.12500000000E+03 0.  0.
         21    1    1    2  503  501 -0.50990274458E+02  0.38540040110E+02  0.64446598725E+03  0.64762778778E+03  0.00000000000E+00 0. -1.
         21    1    1    2  504  502 -0.18641441310E+03 -0.10334395078E+03  0.43164506475E+03  0.48140187733E+03  0.00000000000E+00 0. -1.
<mgrwt>
<rscale>  4 0.40968516E+03</rscale>
<asrwt>0</asrwt>
<pdfrwt beam="1">  1       21 0.25992261E+00 0.40968516E+03</pdfrwt>
<pdfrwt beam="2">  1       21 0.90631308E-02 0.40968516E+03</pdfrwt>
<totfact> 0.48149385E+03</totfact>
</mgrwt>
</event>
<event>
 5    0  0.2720079E+000  0.4197365E+03  0.7546771E-02  0.1037152E+00
         21   -1    0    0  502  501  0.00000000000E+00  0.00000000000E+00  0.57188275807E+03  0.57188275807E+03  0.00000000000E+00 0.  1.
         21   -1    0    0  504  502 -0.00000000000E+00 -0.00000000000E+00 -0.17013720132E+03  0.17013720132E+03  0.00000000000E+00 0. -1.
         25    1    1    2    0    0  0.19268792260E+03 -0.64299738707E+02  0.43329619318E+02  0.24241606346E+03  0.12500000000E+03 0.  0.
         21    1    1    2  503  501 -0.18019563455E+02  0.17076321286E+02  0.31175887475E+03  0.31274574562E+03  0.00000000000E+00 0.  1.
         21    1    1    2  504  503 -0.17466835914E+03  0.47223417421E+02  0.46657062681E+02  0.18685815031E+03  0.00000000000E+00 0. -1.
<mgrwt>
<rscale>  4 0.41973652E+03</rscale>
<asrwt>0</asrwt>
<pdfrwt beam="1">  1       21 0.87981962E-01 0.41973652E+03</pdfrwt>
<pdfrwt beam="2">  1       21 0.26174954E-01 0.41973652E+03</pdfrwt>
<totfact> 0.13889866E+04</totfact>
</mgrwt>
</event>
<event>
 5    0  0.2720079E+000  0.7343328E+03  0.7546771E-02  0.9660255E-01
         21   -1    0    0  503  501  0.00000000000E+00  0.00000000000E+00  0.25394155242E+03  0.25394155242E+03  0.00000000000E+00 0. -1.
         21   -1    0    0  504  502 -0.00000000000E+00 -0.00000000000E+00 -0.11054198075E+04  0.11054198075E+04  0.00000000000E+00 0. -1.
         25    1    1    2    0    0  0.38018834261E+02 -0.35356780777E+03 -0.40389237126E+03  0.55245784818E+03  0.12500000000E+03 0.  0.
         21    1    1    2  503  502  0.31399898801E+02  0.14475723480E+02  0.12946726719E+03  0.13400475174E+03  0.00000000000E+00 0. -1.
         21    1    1    2  504  501 -0.69418733062E+02  0.33909208429E+03 -0.57705315100E+03  0.67289876000E+03  0.00000000000E+00 0. -1.
<mgrwt>
<rscale>  4 0.73433283E+03</rscale>
<asrwt>0</asrwt>
<pdfrwt beam="1">  1       21 0.39067931E-01 0.73433283E+03</pdfrwt>
<pdfrwt beam="2">  1       21 0.17006458E+00 0.73433283E+03</pdfrwt>
<totfact> 0.10331917E+03</totfact>
</mgrwt>
</event>
<event>
 5    0  0.2720079E+000  0.5800136E+03  0.7546771E-02  0.9947762E-01
         21   -1    0    0  503  501  0.00000000000E+00  0.00000000000E+00  0.30881776486E+03  0.30881776486E+03  0.00000000000E+00 0.  1.
         21   -1    0    0  504  502 -0.00000000000E+00 -0.00000000000E+00 -0.45143464568E+03  0.45143464568E+03  0.00000000000E+00 0.  1.
         25    1    1    2    0    0 -0.18422191023E+03 -0.14306345504E+03  0.43612802528E+02  0.26820130672E+03  0.12500000000E+03 0.  0.
         21    1    1    2  503  502  0.15713513946E+03  0.13160677708E+03 -0.30623240598E+03  0.36849705873E+03  0.00000000000E+00 0.  1.
         21    1    1    2  504  501  0.27086770779E+02  0.11456677962E+02  0.12000272263E+03  0.12355404509E+03  0.00000000000E+00 0.  1.
<mgrwt>
<rscale>  4 0.58001358E+03</rscale>
<asrwt>0</asrwt>
<pdfrwt beam="1">  1       21 0.47510425E-01 0.58001358E+03</pdfrwt>
<pdfrwt beam="2">  1       21 0.69451484E-01 0.58001358E+03</pdfrwt>
<totfact> 0.68328149E+03</totfact>
</mgrwt>
</event>
<event>
 5    0  0.2720079E+000  0.5154348E+03  0.7546771E-02  0.1009827E+00
         21   -1    0    0  503  501  0.00000000000E+00  0.00000000000E+00  0.14999957853E+04  0.14999957853E+04  0.00000000000E+00 0.  1.
         21   -1    0    0  504  502 -0.00000000000E+00 -0.00000000000E+00 -0.11051191232E+03  0.11051191232E+03  0.00000000000E+00 0. -1.
         25    1    1    2    0    0  0.60462434864E+02  0.19461839775E+03  0.53661731230E+03  0.58746503439E+03  0.12500000000E+03 0.  0.
         21    1    1    2  503  502 -0.86522793463E+01 -0.78336262246E+02  0.88759609730E+03  0.89108824695E+03  0.00000000000E+00 0.  1.
         21    1    1    2  504  501 -0.51810155518E+02 -0.11628213551E+03 -0.34729536642E+02  0.13195441625E+03  0.00000000000E+00 0. -1.
<mgrwt>
<rscale>  4 0.51543477E+03</rscale>
<asrwt>0</asrwt>
<pdfrwt beam="1">  1       21 0.23076857E+00 0.51543477E+03</pdfrwt>
<pdfrwt beam="2">  1       21 0.17001834E-01 0.51543477E+03</pdfrwt>
<totfact> 0.22047743E+03</totfact>
</mgrwt>
</event>
<event>
 5    0  0.2720079E+000  0.9577891E+03  0.7546771E-02  0.9356092E-01
         21   -1    0    0  503  501  0.00000000000E+00  0.00000000000E+00  0.49879938738E+03  0.49879938738E+03  0.00000000000E+00 0.  1.
         21   -1    0    0  504  502 -0.00000000000E+00 -0.00000000000E+00 -0.53638687478E+03  0.53638687478E+03  0.00000000000E+00 0. -1.
         25    1    1    2    0    0  0.32865240930E+03 -0.38477741160E+01 -0.39501572853E+03  0.52885691571E+03  0.12500000000E+03 0.  0.
         21    1    1    2  503  502 -0.29243125973E+03  0.51746022414E+02  0.31419828914E+03  0.43233581554E+03  0.00000000000E+00 0.  1.
         21    1    1    2  504  501 -0.36221149571E+02 -0.47898248298E+02  0.43229951990E+02  0.73993530902E+02  0.00000000000E+00 0.  1.
<mgrwt>
<rscale>  4 0.95778913E+03</rscale>
<asrwt>0</asrwt>
<pdfrwt beam="1">  1       21 0.76738368E-01 0.95778913E+03</pdfrwt>
<pdfrwt beam="2">  1       21 0.82521057E-01 0.95778913E+03</pdfrwt>
<totfact> 0.14659779E+03</totfact>
</mgrwt>
</event>
<event>
 5    0  0.2720079E+000  0.4016076E+03  0.7546771E-02  0.1043224E+00
         21   -1    0    0  504  501  0.00000000000E+00  0.00000000000E+00  0.73292441617E+03  0.73292441617E+03  0.00000000000E+00 0. -1.
         21   -1    0    0  501  502 -0.00000000000E+00 -0.00000000000E+00 -0.14407974868E+03  0.14407974868E+03  0.00000000000E+00 0. -1.
         25    1    1    2    0    0  0.14780678340E+02 -0.21692441393E+03  0.13025942869E+03  0.28260783530E+03  0.12500000000E+03 0.  0.
         21    1    1    2  503  502 -0.82755134475E+01  0.14335361088E+03  0.14625751968E+02  0.14433521571E+03  0.00000000000E+00 0. -1.
         21    1    1    2  504  503 -0.65051648922E+01  0.73570803053E+02  0.44395948684E+03  0.45006111383E+03  0.00000000000E+00 0. -1.
<mgrwt>
<rscale>  4 0.40160759E+03</rscale>
<asrwt>0</asrwt>
<pdfrwt beam="1">  1       21 0.11275760E+00 0.40160759E+03</pdfrwt>
<pdfrwt beam="2">  1       21 0.22166116E-01 0.40160759E+03</pdfrwt>
<totfact> 0.10569808E+04</totfact>
</mgrwt>
</event>
<event>
 5    0  0.2720079E+000  0.4635328E+03  0.7546771E-02  0.1023762E+00
         21   -1    0    0  502  501  0.00000000000E+00  0.00000000000E+00  0.42600475869E+03  0.42600475869E+03  0.00000000000E+00 0.  1.
         21   -1    0    0  504  502 -0.00000000000E+00 -0.00000000000E+00 -0.18846415445E+03  0.18846415445E+03  0.00000000000E+00 0. -1.
         25    1    1    2    0    0  0.16729955462E+03  0.11290481875E+03 -0.38908889003E+02  0.24057335829E+03  0.12500000000E+03 0.  0.
         21    1    1    2  503  501 -0.27178019078E+02  0.11798545070E+02  0.13698763044E+03  0.14015513291E+03  0.00000000000E+00 0.  1.
         21    1    1    2  504  503 -0.14012153555E+03 -0.12470336382E+03  0.13946186280E+03  0.23374042194E+03  0.00000000000E+00 0. -1.
<mgrwt>
<rscale>  4 0.46353281E+03</rscale>
<asrwt>0</asrwt>
<pdfrwt beam="1">  1       21 0.65539194E-01 0.46353281E+03</pdfrwt>
<pdfrwt beam="2">  1       21 0.28994485E-01 0.46353281E+03</pdfrwt>
<totfact> 0.22009460E+04</totfact>
</mgrwt>
</event>
<event>
 5    0  0.2720079E+000  0.6954192E+03  0.7546771E-02  0.9725098E-01
         21   -1    0    0  504  501  0.00000000000E+00  0.00000000000E+00  0.63323976049E+03  0.63323976049E+03  0.00000000000E+00 0.  1.
         21   -1    0    0  501  502 -0.00000000000E+00 -0.00000000000E+00 -0.55855264962E+03  0.55855264962E+03  0.00000000000E+00 0. -1.
         25    1    1    2    0    0 -0.32028171368E+02 -0.20046684449E+03 -0.43781243257E+03  0.49851528123E+03  0.12500000000E+03 0.  0.
         21    1    1    2  503  502  0.15673427950E+02  0.25651123382E+03  0.98560750670E+02  0.27524151393E+03  0.00000000000E+00 0.  1.
         21    1    1    2  504  503  0.16354743418E+02 -0.56044389324E+02  0.41393879277E+03  0.41803561495E+03  0.00000000000E+00 0.  1.
<mgrwt>
<rscale>  4 0.69541921E+03</rscale>
<asrwt>0</asrwt>
<pdfrwt beam="1">  1       21 0.97421501E-01 0.69541921E+03</pdfrwt>
<pdfrwt beam="2">  1       21 0.85931177E-01 0.69541921E+03</pdfrwt>
<totfact> 0.79745018E+02</totfact>
</mgrwt>
</event>
<event>
 5    0  0.2720079E+000  0.5860815E+03  0.7546771E-02  0.9934711E-01
         21   -1    0    0  503  501  0.00000000000E+00  0.00000000000E+00  0.32144865664E+03  0.32144865664E+03  0.00000000000E+00 0.  1.
         21   -1    0    0  504  502 -0.00000000000E+00 -0.00000000000E+00 -0.57279625265E+03  0.57279625265E+03  0.00000000000E+00 0. -1.
         25    1    1    2    0    0  0.20653654459E+03  0.19688490441E+03 -0.36102116472E+02  0.31360703539E+03  0.12500000000E+03 0.  0.
         21    1    1    2  503  502 -0.80396399976E+02 -0.94932987727E+02  0.14170746280E+03  0.18856526271E+03  0.00000000000E+00 0.  1.
         21    1    1    2  504  501 -0.12614014461E+03 -0.10195191668E+03 -0.35695294234E+03  0.39207261119E+03  0.00000000000E+00 0. -1.
<mgrwt>
<rscale>  4 0.58608147E+03</rscale>
<asrwt>0</asrwt>
<pdfrwt beam="1">  1       21 0.49453640E-01 0.58608147E+03</pdfrwt>
<pdfrwt beam="2">  1       21 0.88122500E-01 0.58608147E+03</pdfrwt>
<totfact> 0.36095875E+03</totfact>
</mgrwt>
</event>
<event>
 5    0  0.2720079E+000  0.4158462E+03  0.7546771E-02  0.1038427E+00
         21   -1    0    0  504  501  0.00000000000E+00  0.00000000000E+00  0.16940841360E+04  0.16940841360E+04  0.00000000000E+00 0. -1.
         21   -1    0    0  501  502 -0.00000000000E+00 -0.00000000000E+00 -0.62466865073E+02  0.62466865073E+02  0.00000000000E+00 0. -1.
         25    1    1    2    0    0  0.16124467676E+03 -0.15623326214E+03  0.48939585103E+03  0.55275851598E+03  0.12500000000E+03 0.  0.
         21    1    1    2  503  502 -0.14080379946E+03  0.54273464877E+02  0.17533536049E+03  0.23133051586E+03  0.00000000000E+00 0. -1.
         21    1    1    2  504  503 -0.20440877305E+02  0.10195979726E+03  0.96688605939E+03  0.97246196921E+03  0.00000000000E+00 0. -1.
<mgrwt>
<rscale>  4 0.41584616E+03</rscale>
<asrwt>0</asrwt>
<pdfrwt beam="1">  1       21 0.26062829E+00 0.41584616E+03</pdfrwt>
<pdfrwt beam="2">  1       21 0.96102882E-02 0.41584616E+03</pdfrwt>
<totfact> 0.42809345E+03</totfact>
</mgrwt>
</event>
<event>
 5    0  0.2720079E+000  0.5217312E+03  0.7546771E-02  0.1008257E+00
         21   -1    0    0  502  501  0.00000000000E+00  0.00000000000E+00  0.48610534125E+03  0.48610534125E+03  0.00000000000E+00 0.  1.
         21   -1    0    0  503  502 -0.00000000000E+00 -0.00000000000E+00 -0.46679503152E+03  0.46679503152E+03  0.00000000000E+00 0.  1.
         25    1    1    2    0    0  0.18843305107E+03 -0.18435527489E+03 -0.22687952187E+03  0.36958517226E+03  0.12500000000E+03 0.  0.
         21    1    1    2  503  504 -0.14863547026E+03  0.16724351926E+03 -0.92319622001E+02  0.24204505853E+03  0.00000000000E+00 0.  1.
         21    1    1    2  504  501 -0.39797580808E+02  0.17111755625E+02  0.33850945361E+03  0.34127014197E+03  0.00000000000E+00 0.  1.
<mgrwt>
<rscale>  4 0.52173120E+03</rscale>
<asrwt>0</asrwt>
<pdfrwt beam="1">  1       21 0.74785438E-01 0.52173120E+03</pdfrwt>
<pdfrwt beam="2">  1       21 0.71814620E-01 0.52173120E+03</pdfrwt>
<totfact> 0.23713068E+03</totfact>
</mgrwt>
</event>
<event>
 5    0  0.2720079E+000  0.5755778E+03  0.7546771E-02  0.9957411E-01
         21   -1    0    0  502  501  0.00000000000E+00  0.00000000000E+00  0.46327915477E+03  0.46327915477E+03  0.00000000000E+00 0. -1.
         21   -1    0    0  504  502 -0.00000000000E+00 -0.00000000000E+00 -0.33838539914E+03  0.33838539914E+03  0.00000000000E+00 0.  1.
         25    1    1    2    0    0  0.17131075335E+02  0.23669591039E+03 -0.23352113757E+03  0.35563401051E+03  0.12500000000E+03 0.  0.
         21    1    1    2  503  501  0.20478920795E+02 -0.74075817246E+02  0.20649289888E+03  0.22033140989E+03  0.00000000000E+00 0. -1.
         21    1    1    2  504  503 -0.37609996130E+02 -0.16262009315E+03  0.15192199433E+03  0.22569913351E+03  0.00000000000E+00 0. -1.
<mgrwt>
<rscale>  4 0.57557780E+03</rscale>
<asrwt>0</asrwt>
<pdfrwt beam="1">  1       21 0.71273716E-01 0.57557780E+03</pdfrwt>
<pdfrwt beam="2">  1       21 0.52059292E-01 0.57557780E+03</pdfrwt>
<totfact> 0.53053588E+03</totfact>
</mgrwt>
</event>
<event>
 5    0  0.2720079E+000  0.5270654E+03  0.7546771E-02  0.1006946E+00
         21   -1    0    0  504  501  0.00000000000E+00  0.00000000000E+00  0.46294173731E+03  0.46294173731E+03  0.00000000000E+00 0.  1.
         21   -1    0    0  501  502 -0.00000000000E+00 -0.00000000000E+00 -0.19928714035E+03  0.19928714035E+03  0.00000000000E+00 0.  1.
         25    1    1    2    0    0 -0.14687555573E+03 -0.16040399184E+03  0.21742097496E+03  0.33196197044E+03  0.12500000000E+03 0.  0.
         21    1    1    2  503  502  0.10779436099E+03  0.18344348283E+03 -0.54628884407E+02  0.21967123313E+03  0.00000000000E+00 0.  1.
         21    1    1    2  504  503  0.39081194734E+02 -0.23039490988E+02  0.10086250641E+03  0.11059567408E+03  0.00000000000E+00 0.  1.
<mgrwt>
<rscale>  4 0.52706539E+03</rscale>
<asrwt>0</asrwt>
<pdfrwt beam="1">  1       21 0.71221805E-01 0.52706539E+03</pdfrwt>
<pdfrwt beam="2">  1       21 0.30659560E-01 0.52706539E+03</pdfrwt>
<totfact> 0.16092250E+04</totfact>
</mgrwt>
</event>
<event>
 5    0  0.2720079E+000  0.4019830E+03  0.7546771E-02  0.1043095E+00
         21   -1    0    0  504  501  0.00000000000E+00  0.00000000000E+00  0.69152943363E+02  0.69152943363E+02  0.00000000000E+00 0.  1.
         21   -1    0    0  503  502 -0.00000000000E+00 -0.00000000000E+00 -0.14098088833E+04  0.14098088833E+04  0.00000000000E+00 0.  1.
         25    1    1    2    0    0 -0.17073638990E+03 -0.19165895796E+03 -0.66935625987E+03  0.72769971392E+03  0.12500000000E+03 0.  0.
         21    1    1    2  503  501  0.58149682012E+02  0.69894477143E+02 -0.51637095776E+03  0.52431439945E+03  0.00000000000E+00 0. -1.
         21    1    1    2  504  502  0.11258670789E+03  0.12176448082E+03 -0.15492872235E+03  0.22694771334E+03  0.00000000000E+00 0.  1.
<mgrwt>
<rscale>  4 0.40198297E+03</rscale>
<asrwt>0</asrwt>
<pdfrwt beam="1">  1       21 0.10638914E-01 0.40198297E+03</pdfrwt>
<pdfrwt beam="2">  1       21 0.21689367E+00 0.40198297E+03</pdfrwt>
<totfact> 0.67034531E+03</totfact>
</mgrwt>
</event>
<event>
 5    0  0.2720079E+000  0.6653771E+03  0.7546771E-02  0.9778345E-01
         21   -1    0    0  502  501  0.00000000000E+00  0.00000000000E+00  0.73847880993E+03  0.73847880993E+03  0.00000000000E+00 0.  1.
         21   -1    0    0  503  502 -0.00000000000E+00 -0.00000000000E+00 -0.42262549128E+03  0.42262549128E+03  0.00000000000E+00 0. -1.
         25    1    1    2    0    0  0.21090313720E+03  0.87902750383E+01  0.15499758567E+03  0.29018382757E+03  0.12500000000E+03 0.  0.
         21    1    1    2  503  504 -0.23609040696E+03 -0.18716165687E+02 -0.31510920050E+03  0.39418622928E+03  0.00000000000E+00 0. -1.
         21    1    1    2  504  501  0.25187269757E+02  0.99258906489E+01  0.47596493346E+03  0.47673424436E+03  0.00000000000E+00 0.  1.
<mgrwt>
<rscale>  4 0.66537707E+03</rscale>
<asrwt>0</asrwt>
<pdfrwt beam="1">  1       21 0.11361212E+00 0.66537707E+03</pdfrwt>
<pdfrwt beam="2">  1       21 0.65019306E-01 0.66537707E+03</pdfrwt>
<totfact> 0.10426062E+03</totfact>
</mgrwt>
</event>
<event>
 5    0  0.2720079E+000  0.4430781E+03  0.7546771E-02  0.1029807E+00
         21   -1    0    0  503  501  0.00000000000E+00  0.00000000000E+00  0.80867719783E+03  0.80867719783E+03  0.00000000000E+00 0. -1.
         21   -1    0    0  504  502 -0.00000000000E+00 -0.00000000000E+00 -0.16573933891E+03  0.16573933891E+03  0.00000000000E+00 0. -1.
         25    1    1    2    0    0 -0.20892493591E+03  0.73302673870E+02  0.21920510733E+03  0.33570640435E+03  0.12500000000E+03 0.  0.
         21    1    1    2  503  502  0.14181051528E+03 -0.24611610012E+03  0.19623563908E+03  0.34524162991E+03  0.00000000000E+00 0. -1.
         21    1    1    2  504  501  0.67114420628E+02  0.17281342625E+03  0.22749711250E+03  0.29346850247E+03  0.00000000000E+00 0. -1.
<mgrwt>
<rscale>  4 0.44307809E+03</rscale>
<asrwt>0</asrwt>
<pdfrwt beam="1">  1       21 0.12441187E+00 0.44307809E+03</pdfrwt>
<pdfrwt beam="2">  1       21 0.25498360E-01 0.44307809E+03</pdfrwt>
<totfact> 0.62022658E+03</totfact>
</mgrwt>
</event>
<event>
 5    0  0.2720079E+000  0.4557563E+03  0.7546771E-02  0.1026019E+00
         21   -1    0    0  502  501  0.00000000000E+00  0.00000000000E+00  0.87246854469E+02  0.87246854469E+02  0.00000000000E+00 0.  1.
         21   -1    0    0  504  502 -0.00000000000E+00 -0.00000000000E+00 -0.10551961450E+04  0.10551961450E+04  0.00000000000E+00 0.  1.
         25    1    1    2    0    0 -0.43640020874E+02 -0.20860588182E+03 -0.48179430351E+03  0.54145324475E+03  0.12500000000E+03 0.  0.
         21    1    1    2  503  501  0.22371085757E+02  0.42244195191E+01  0.34453407370E+02  0.41295865139E+02  0.00000000000E+00 0.  1.
         21    1    1    2  504  503  0.21268935117E+02  0.20438146230E+03 -0.52060839443E+03  0.55969388963E+03  0.00000000000E+00 0.  1.
<mgrwt>
<rscale>  4 0.45575634E+03</rscale>
<asrwt>0</asrwt>
<pdfrwt beam="1">  1       21 0.13422592E-01 0.45575634E+03</pdfrwt>
<pdfrwt beam="2">  1       21 0.16233788E+00 0.45575634E+03</pdfrwt>
<totfact> 0.10203926E+04</totfact>
</mgrwt>
</event>
<event>
 5    0  0.2720079E+000  0.4727266E+03  0.7546771E-02  0.1021153E+00
         21   -1    0    0  503  501  0.00000000000E+00  0.00000000000E+00  0.19734646799E+04  0.19734646799E+04  0.00000000000E+00 0.  1.
         21   -1    0    0  504  502 -0.00000000000E+00 -0.00000000000E+00 -0.16426362129E+03  0.16426362129E+03  0.00000000000E+00 0.  1.
         25    1    1    2    0    0 -0.28588355904E+03 -0.84490696428E+02  0.24604564135E+03  0.40624074727E+03  0.12500000000E+03 0.  0.
         21    1    1    2  503  502  0.19451813011E+03  0.65781179880E+02  0.16128113730E+04  0.16258305544E+04  0.00000000000E+00 0.  1.
         21    1    1    2  504  501  0.91365428932E+02  0.18709516547E+02 -0.49655955757E+02  0.10565699956E+03  0.00000000000E+00 0. -1.
<mgrwt>
<rscale>  4 0.47272655E+03</rscale>
<asrwt>0</asrwt>
<pdfrwt beam="1">  1       21 0.30360993E+00 0.47272655E+03</pdfrwt>
<pdfrwt beam="2">  1       21 0.25271328E-01 0.47272655E+03</pdfrwt>
<totfact> 0.37755621E+02</totfact>
</mgrwt>
</event>
<event>
 5    0  0.2720079E+000  0.5507459E+03  0.7546771E-02  0.1001321E+00
         21   -1    0    0  502  501  0.00000000000E+00  0.00000000000E+00  0.10972073965E+04  0.10972073965E+04  0.00000000000E+00 0.  1.
         21   -1    0    0  504  502 -0.00000000000E+00 -0.00000000000E+00 -0.20143667874E+03  0.20143667874E+03  0.00000000000E+00 0. -1.
         25    1    1    2    0    0  0.24115605437E+03 -0.94509319827E+01 -0.52740592398E+02  0.27686121570E+03  0.12500000000E+03 0.  0.
         21    1    1    2  503  501 -0.47640538787E+02 -0.15238228583E+02  0.71825811109E+03  0.71999759631E+03  0.00000000000E+00 0.  1.
         21    1    1    2  504  503 -0.19351551558E+03  0.24689160566E+02  0.23025319909E+03  0.30178526325E+03  0.00000000000E+00 0.  1.
<mgrwt>
<rscale>  4 0.55074588E+03</rscale>
<asrwt>0</asrwt>
<pdfrwt beam="1">  1       21 0.16880113E+00 0.55074588E+03</pdfrwt>
<pdfrwt beam="2">  1       21 0.30990259E-01 0.55074588E+03</pdfrwt>
<totfact> 0.17850524E+03</totfact>
</mgrwt>
</event>
<event>
 5    0  0.2720079E+000  0.3320256E+03  0.7546771E-02  0.1070244E+00
         21   -1    0    0  503  501  0.00000000000E+00  0.00000000000E+00  0.19281753115E+03  0.19281753115E+03  0.00000000000E+00 0.  1.
         21   -1    0    0  504  502 -0.00000000000E+00 -0.00000000000E+00 -0.43433046542E+03  0.43433046542E+03  0.00000000000E+00 0.  1.
         25    1    1    2    0    0  0.44540117327E+02  0.25882753422E+03 -0.12374023561E+03  0.31608884895E+03  0.12500000000E+03 0.  0.
         21    1    1    2  503  502 -0.64910099587E+01 -0.24645150912E+03 -0.11142455005E+03  0.27054742636E+03  0.00000000000E+00 0.  1.
         21    1    1    2  504  501 -0.38049107369E+02 -0.12376025102E+02 -0.63481486032E+01  0.40511721261E+02  0.00000000000E+00 0. -1.
<mgrwt>
<rscale>  4 0.33202557E+03</rscale>
<asrwt>0</asrwt>
<pdfrwt beam="1">  1       21 0.29664236E-01 0.33202557E+03</pdfrwt>
<pdfrwt beam="2">  1       21 0.66820071E-01 0.33202557E+03</pdfrwt>
<totfact> 0.20953312E+04</totfact>
</mgrwt>
</event>
<event>
 5    0  0.2720079E+000  0.6024335E+03  0.7546771E-02  0.9900370E-01
         21   -1    0    0  503  501  0.00000000000E+00  0.00000000000E+00  0.17041856115E+04  0.17041856115E+04  0.00000000000E+00 0.  1.
         21   -1    0    0  504  502 -0.00000000000E+00 -0.00000000000E+00 -0.91020061215E+02  0.91020061215E+02  0.00000000000E+00 0.  1.
         25    1    1    2    0    0 -0.77103094240E+02  0.18724880196E+03  0.88567816050E+03  0.91709203735E+03  0.12500000000E+03 0.  0.
         21    1    1    2  503  502  0.97941820243E+02  0.97973797535E+01  0.66222120412E+03  0.66949646152E+03  0.00000000000E+00 0.  1.
         21    1    1    2  504  501 -0.20838726003E+02 -0.19704618171E+03  0.65266185651E+02  0.20861717383E+03  0.00000000000E+00 0.  1.
<mgrwt>
<rscale>  4 0.60243346E+03</rscale>
<asrwt>0</asrwt>
<pdfrwt beam="1">  1       21 0.26218238E+00 0.60243346E+03</pdfrwt>
<pdfrwt beam="2">  1       21 0.14003088E-01 0.60243346E+03</pdfrwt>
<totfact> 0.19551372E+03</totfact>
</mgrwt>
</event>
<event>
 5    0  0.2720079E+000  0.4461310E+03  0.7546771E-02  0.1028882E+00
         21   -1    0    0  502  501  0.00000000000E+00  0.00000000000E+00  0.25560664964E+03  0.25560664964E+03  0.00000000000E+00 0.  1.
         21   -1    0    0  504  502 -0.00000000000E+00 -0.00000000000E+00 -0.33153673784E+03  0.33153673784E+03  0.00000000000E+00 0.  1.
         25    1    1    2    0    0  0.12546630527E+03  0.17727474643E+03 -0.10389846897E+03  0.27127112146E+03  0.12500000000E+03 0.  0.
         21    1    1    2  503  501  0.32694610170E+01 -0.30158113495E+02  0.10231904069E+03  0.10672107229E+03  0.00000000000E+00 0.  1.
         21    1    1    2  504  503 -0.12873576629E+03 -0.14711663294E+03 -0.74350659916E+02  0.20915119373E+03  0.00000000000E+00 0.  1.
<mgrwt>
<rscale>  4 0.44613098E+03</rscale>
<asrwt>0</asrwt>
<pdfrwt beam="1">  1       21 0.39324100E-01 0.44613098E+03</pdfrwt>
<pdfrwt beam="2">  1       21 0.51005652E-01 0.44613098E+03</pdfrwt>
<totfact> 0.20651920E+04</totfact>
</mgrwt>
</event>
<event>
 5    0  0.2720079E+000  0.3565847E+03  0.7546771E-02  0.1059944E+00
         21   -1    0    0  504  501  0.00000000000E+00  0.00000000000E+00  0.44060305032E+03  0.44060305032E+03  0.00000000000E+00 0.  1.
         21   -1    0    0  501  502 -0.00000000000E+00 -0.00000000000E+00 -0.31281599334E+03  0.31281599334E+03  0.00000000000E+00 0.  1.
         25    1    1    2    0    0  0.26284784485E+03  0.47621315229E+02 -0.78154094712E+02  0.30510627939E+03  0.12500000000E+03 0.  0.
         21    1    1    2  503  502 -0.31655196491E+02 -0.15816739548E+02 -0.75094683130E+02  0.83014650208E+02  0.00000000000E+00 0. -1.
         21    1    1    2  504  503 -0.23119264836E+03 -0.31804575681E+02  0.28103583482E+03  0.36529811407E+03  0.00000000000E+00 0.  1.
<mgrwt>
<rscale>  4 0.35658473E+03</rscale>
<asrwt>0</asrwt>
<pdfrwt beam="1">  1       21 0.67785084E-01 0.35658473E+03</pdfrwt>
<pdfrwt beam="2">  1       21 0.48125538E-01 0.35658473E+03</pdfrwt>
<totfact> 0.75153457E+03</totfact>
</mgrwt>
</event>
<event>
 5    0  0.2720079E+000  0.3579847E+03  0.7546771E-02  0.1059385E+00
         21   -1    0    0  503  501  0.00000000000E+00  0.00000000000E+00  0.53080352761E+03  0.53080352761E+03  0.00000000000E+00 0. -1.
         21   -1    0    0  504  502 -0.00000000000E+00 -0.00000000000E+00 -0.19548669491E+03  0.19548669491E+03  0.00000000000E+00 0. -1.
         25    1    1    2    0    0 -0.12534254282E+02  0.21088099802E+03  0.25038900137E+02  0.24673842298E+03  0.12500000000E+03 0.  0.
         21    1    1    2  503  502 -0.40698237627E+01 -0.10851510932E+03  0.35154812538E+03  0.36793773505E+03  0.00000000000E+00 0. -1.
         21    1    1    2  504  501  0.16604078045E+02 -0.10236588870E+03 -0.41270192821E+02  0.11161406449E+03  0.00000000000E+00 0.  1.
<mgrwt>
<rscale>  4 0.35798471E+03</rscale>
<asrwt>0</asrwt>
<pdfrwt beam="1">  1       21 0.81662081E-01 0.35798471E+03</pdfrwt>
<pdfrwt beam="2">  1       21 0.30074876E-01 0.35798471E+03</pdfrwt>
<totfact> 0.12837483E+04</totfact>
</mgrwt>
</event>
<event>
 5    0  0.2720079E+000  0.3972470E+03  0.7546771E-02  0.1044737E+00
         21   -1    0    0  503  501  0.00000000000E+00  0.00000000000E+00  0.15264777658E+04  0.15264777658E+04  0.00000000000E+00 0.  1.
         21   -1    0    0  504  502 -0.00000000000E+00 -0.00000000000E+00 -0.88347638676E+02  0.88347638676E+02  0.00000000000E+00 0.  1.
         25    1    1    2    0    0  0.14444631654E+03  0.17816473988E+03  0.20822648497E+03  0.33405191504E+03  0.12500000000E+03 0.  0.
         21    1    1    2  503  502 -0.46926417432E+02 -0.22897369425E+03  0.98440791762E+03  0.10117756617E+04  0.00000000000E+00 0.  1.
         21    1    1    2  504  501 -0.97519899112E+02  0.50808954373E+02  0.24549572454E+03  0.26899782775E+03  0.00000000000E+00 0. -1.
<mgrwt>
<rscale>  4 0.39724696E+03</rscale>
<asrwt>0</asrwt>
<pdfrwt beam="1">  1       21 0.23484271E+00 0.39724696E+03</pdfrwt>
<pdfrwt beam="2">  1       21 0.13591946E-01 0.39724696E+03</pdfrwt>
<totfact> 0.33166885E+03</totfact>
</mgrwt>
</event>
<event>
 5    0  0.2720079E+000  0.4464641E+03  0.7546771E-02  0.1028782E+00
         21   -1    0    0  503  501  0.00000000000E+00  0.00000000000E+00  0.29461627204E+02  0.29461627204E+02  0.00000000000E+00 0.  1.
         21   -1    0    0  504  502 -0.00000000000E+00 -0.00000000000E+00 -0.20483391585E+04  0.20483391585E+04  0.00000000000E+00 0.  1.
         25    1    1    2    0    0  0.43999499271E+02 -0.19627534816E+03 -0.11197847416E+04  0.11445535530E+04  0.12500000000E+03 0.  0.
         21    1    1    2  503  502 -0.19385779117E+02 -0.11176648533E+02 -0.21144892517E+02  0.30786886559E+02  0.00000000000E+00 0.  1.
         21    1    1    2  504  501 -0.24613720154E+02  0.20745199669E+03 -0.87794789722E+03  0.90246034615E+03  0.00000000000E+00 0.  1.
<mgrwt>
<rscale>  4 0.44646412E+03</rscale>
<asrwt>0</asrwt>
<pdfrwt beam="1">  1       21 0.45325581E-02 0.44646412E+03</pdfrwt>
<pdfrwt beam="2">  1       21 0.31512910E+00 0.44646412E+03</pdfrwt>
<totfact> 0.73967555E+03</totfact>
</mgrwt>
</event>
<event>
 5    0  0.2720079E+000  0.4305979E+03  0.7546771E-02  0.1033671E+00
         21   -1    0    0  502  501  0.00000000000E+00  0.00000000000E+00  0.44320721539E+03  0.44320721539E+03  0.00000000000E+00 0. -1.
         21   -1    0    0  503  502 -0.00000000000E+00 -0.00000000000E+00 -0.16778368228E+03  0.16778368228E+03  0.00000000000E+00 0. -1.
         25    1    1    2    0    0  0.59593699379E+02 -0.21296936409E+03  0.20665965339E+02  0.25487142086E+03  0.12500000000E+03 0.  0.
         21    1    1    2  503  504  0.12603683904E+02  0.12504669132E+03  0.18164374201E+03  0.22088453289E+03  0.00000000000E+00 0.  1.
         21    1    1    2  504  501 -0.72197383282E+02  0.87922672766E+02  0.73113825768E+02  0.13523494392E+03  0.00000000000E+00 0. -1.
<mgrwt>
<rscale>  4 0.43059785E+03</rscale>
<asrwt>0</asrwt>
<pdfrwt beam="1">  1       21 0.68185725E-01 0.43059785E+03</pdfrwt>
<pdfrwt beam="2">  1       21 0.25812874E-01 0.43059785E+03</pdfrwt>
<totfact> 0.25531786E+04</totfact>
</mgrwt>
</event>
<event>
 5    0  0.2720079E+000  0.6151418E+03  0.7546771E-02  0.9874480E-01
         21   -1    0    0  502  501  0.00000000000E+00  0.00000000000E+00  0.55736311029E+03  0.55736311029E+03  0.00000000000E+00 0.  1.
         21   -1    0    0  504  502 -0.00000000000E+00 -0.00000000000E+00 -0.69018018531E+03  0.69018018531E+03  0.00000000000E+00 0. -1.
         25    1    1    2    0    0 -0.12897018456E+03  0.21876958337E+03 -0.46100504653E+03  0.54096588805E+03  0.12500000000E+03 0.  0.
         21    1    1    2  503  501 -0.27651289879E+02  0.22112348665E+01  0.41974887107E+03  0.42066447218E+03  0.00000000000E+00 0.  1.
         21    1    1    2  504  503  0.15662147444E+03 -0.22098081824E+03 -0.91560899568E+02  0.28591293537E+03  0.00000000000E+00 0. -1.
<mgrwt>
<rscale>  4 0.61514182E+03</rscale>
<asrwt>0</asrwt>
<pdfrwt beam="1">  1       21 0.85748171E-01 0.61514182E+03</pdfrwt>
<pdfrwt beam="2">  1       21 0.10618157E+00 0.61514182E+03</pdfrwt>
<totfact> 0.66322077E+02</totfact>
</mgrwt>
</event>
<event>
 5    0  0.2720079E+000  0.4084693E+03  0.7546771E-02  0.1040886E+00
         21   -1    0    0  503  501  0.00000000000E+00  0.00000000000E+00  0.31516298264E+03  0.31516298264E+03  0.00000000000E+00 0. -1.
         21   -1    0    0  504  502 -0.00000000000E+00 -0.00000000000E+00 -0.23098410666E+03  0.23098410666E+03  0.00000000000E+00 0. -1.
         25    1    1    2    0    0  0.14445223069E+03  0.14321813979E+03 -0.12282019974E+02  0.23906846411E+03  0.12500000000E+03 0.  0.
         21    1    1    2  503  502 -0.13581983811E+03 -0.10026653556E+03 -0.31580949937E+02  0.17174912802E+03  0.00000000000E+00 0. -1.
         21    1    1    2  504  501 -0.86323925794E+01 -0.42951604227E+02  0.12804184588E+03  0.13532949717E+03  0.00000000000E+00 0. -1.
<mgrwt>
<rscale>  4 0.40846926E+03</rscale>
<asrwt>0</asrwt>
<pdfrwt beam="1">  1       21 0.48486612E-01 0.40846926E+03</pdfrwt>
<pdfrwt beam="2">  1       21 0.35536017E-01 0.40846926E+03</pdfrwt>
<totfact> 0.28552262E+04</totfact>
</mgrwt>
</event>
<event>
 5    0  0.2720079E+000  0.5127495E+03  0.7546771E-02  0.1010504E+00
         21   -1    0    0  502  501  0.00000000000E+00  0.00000000000E+00  0.23579229269E+03  0.23579229269E+03  0.00000000000E+00 0. -1.
         21   -1    0    0  504  502 -0.00000000000E+00 -0.00000000000E+00 -0.14952807268E+04  0.14952807268E+04  0.00000000000E+00 0.  1.
         25    1    1    2    0    0 -0.19395961496E+03 -0.14113612751E+03 -0.12505906460E+04  0.12795083832E+04  0.12500000000E+03 0.  0.
         21    1    1    2  503  501  0.73017530962E+02  0.32634098920E+02  0.18324186176E+03  0.19993529989E+03  0.00000000000E+00 0. -1.
         21    1    1    2  504  503  0.12094208400E+03  0.10850202859E+03 -0.19213964981E+03  0.25162933636E+03  0.00000000000E+00 0. -1.
<mgrwt>
<rscale>  4 0.51274946E+03</rscale>
<asrwt>0</asrwt>
<pdfrwt beam="1">  1       21 0.36275739E-01 0.51274946E+03</pdfrwt>
<pdfrwt beam="2">  1       21 0.23004318E+00 0.51274946E+03</pdfrwt>
<totfact> 0.50761940E+02</totfact>
</mgrwt>
</event>
<event>
 5    0  0.2720079E+000  0.6078755E+03  0.7546771E-02  0.9889200E-01
         21   -1    0    0  503  501  0.00000000000E+00  0.00000000000E+00  0.81296711315E+03  0.81296711315E+03  0.00000000000E+00 0. -1.
         21   -1    0    0  504  502 -0.00000000000E+00 -0.00000000000E+00 -0.13990838044E+03  0.13990838044E+03  0.00000000000E+00 0. -1.
         25    1    1    2    0    0  0.17656647257E+03 -0.16117630263E+03  0.55397541397E+03  0.61617146886E+03  0.12500000000E+03 0.  0.
         21    1    1    2  503  502 -0.45529292723E+02  0.10511484169E+02  0.12857468712E+03  0.13680225862E+03  0.00000000000E+00 0.  1.
         21    1    1    2  504  501 -0.13103717984E+03  0.15066481846E+03 -0.94913683731E+01  0.19990176611E+03  0.00000000000E+00 0. -1.
<mgrwt>
<rscale>  4 0.60787552E+03</rscale>
<asrwt>0</asrwt>
<pdfrwt beam="1">  1       21 0.12507186E+00 0.60787552E+03</pdfrwt>
<pdfrwt beam="2">  1       21 0.21524367E-01 0.60787552E+03</pdfrwt>
<totfact> 0.81152054E+03</totfact>
</mgrwt>
</event>
<event>
 5    0  0.2720079E+000  0.4489164E+03  0.7546771E-02  0.1028046E+00
         21   -1    0    0  503  501  0.00000000000E+00  0.00000000000E+00  0.23957952844E+04  0.23957952844E+04  0.00000000000E+00 0.  1.
         21   -1    0    0  504  502 -0.00000000000E+00 -0.00000000000E+00 -0.35521698691E+02  0.35521698691E+02  0.00000000000E+00 0.  1.
         25    1    1    2    0    0  0.37110538458E+02 -0.21589080188E+03  0.64866976708E+03  0.69597664984E+03  0.12500000000E+03 0.  0.
         21    1    1    2  503  502 -0.16718427831E+02  0.18644481835E+03  0.74787999087E+03  0.77095113779E+03  0.00000000000E+00 0.  1.
         21    1    1    2  504  501 -0.20392110627E+02  0.29445983534E+02  0.96372382776E+03  0.96438919546E+03  0.00000000000E+00 0.  1.
<mgrwt>
<rscale>  4 0.44891637E+03</rscale>
<asrwt>0</asrwt>
<pdfrwt beam="1">  1       21 0.36858376E+00 0.44891637E+03</pdfrwt>
<pdfrwt beam="2">  1       21 0.54648786E-02 0.44891637E+03</pdfrwt>
<totfact> 0.25222759E+03</totfact>
</mgrwt>
</event>
<event>
 5    0  0.2720079E+000  0.3190399E+03  0.7546771E-02  0.1076092E+00
         21   -1    0    0  503  501  0.00000000000E+00  0.00000000000E+00  0.49434644062E+02  0.49434644062E+02  0.00000000000E+00 0. -1.
         21   -1    0    0  504  502 -0.00000000000E+00 -0.00000000000E+00 -0.13987755220E+04  0.13987755220E+04  0.00000000000E+00 0. -1.
         25    1    1    2    0    0 -0.15463539547E+02  0.21091735315E+03 -0.68879296117E+03  0.73129063598E+03  0.12500000000E+03 0.  0.
         21    1    1    2  503  502 -0.39772881558E+02 -0.20002992254E+03 -0.60238046987E+03  0.63596861754E+03  0.00000000000E+00 0. -1.
         21    1    1    2  504  501  0.55236421106E+02 -0.10887430611E+02 -0.58167446893E+02  0.80950912533E+02  0.00000000000E+00 0.  1.
<mgrwt>
<rscale>  4 0.31903994E+03</rscale>
<asrwt>0</asrwt>
<pdfrwt beam="1">  1       21 0.76053309E-02 0.31903994E+03</pdfrwt>
<pdfrwt beam="2">  1       21 0.21519621E+00 0.31903994E+03</pdfrwt>
<totfact> 0.12983745E+04</totfact>
</mgrwt>
</event>
<event>
 5    0  0.2720079E+000  0.5197615E+03  0.7546771E-02  0.1008746E+00
         21   -1    0    0  503  501  0.00000000000E+00  0.00000000000E+00  0.60912667655E+03  0.60912667655E+03  0.00000000000E+00 0.  1.
         21   -1    0    0  504  502 -0.00000000000E+00 -0.00000000000E+00 -0.48509659280E+03  0.48509659280E+03  0.00000000000E+00 0.  1.
         25    1    1    2    0    0 -0.13316399442E+03 -0.22029889740E+03 -0.18370596863E+03  0.34005460813E+03  0.12500000000E+03 0.  0.
         21    1    1    2  503  502  0.77260644754E+00  0.27975555767E+02  0.46936424345E+03  0.47019785375E+03  0.00000000000E+00 0.  1.
         21    1    1    2  504  501  0.13239138797E+03  0.19232334163E+03 -0.16162819108E+03  0.28397080747E+03  0.00000000000E+00 0.  1.
<mgrwt>
<rscale>  4 0.51976152E+03</rscale>
<asrwt>0</asrwt>
<pdfrwt beam="1">  1       21 0.93711796E-01 0.51976152E+03</pdfrwt>
<pdfrwt beam="2">  1       21 0.74630245E-01 0.51976152E+03</pdfrwt>
<totfact> 0.12817761E+03</totfact>
</mgrwt>
</event>
<event>
 5    0  0.2720079E+000  0.4719515E+03  0.7546771E-02  0.1021371E+00
         21   -1    0    0  504  501  0.00000000000E+00  0.00000000000E+00  0.47370687920E+03  0.47370687920E+03  0.00000000000E+00 0. -1.
         21   -1    0    0  501  502 -0.00000000000E+00 -0.00000000000E+00 -0.23742444691E+04  0.23742444691E+04  0.00000000000E+00 0. -1.
         25    1    1    2    0    0  0.17864770042E+03 -0.17096650151E+03 -0.15158761426E+04  0.15409899497E+04  0.12500000000E+03 0.  0.
         21    1    1    2  503  502 -0.10538744838E+03  0.16040106698E+03 -0.83184243307E+03  0.85369599391E+03  0.00000000000E+00 0.  1.
         21    1    1    2  504  503 -0.73260252043E+02  0.10565434533E+02  0.44718098582E+03  0.45326540461E+03  0.00000000000E+00 0. -1.
<mgrwt>
<rscale>  4 0.47195154E+03</rscale>
<asrwt>0</asrwt>
<pdfrwt beam="1">  1       21 0.72877984E-01 0.47195154E+03</pdfrwt>
<pdfrwt beam="2">  1       21 0.36526837E+00 0.47195154E+03</pdfrwt>
<totfact> 0.17332170E+01</totfact>
</mgrwt>
</event>
<event>
 5    0  0.2720079E+000  0.4823063E+03  0.7546771E-02  0.1018503E+00
         21   -1    0    0  502  501  0.00000000000E+00  0.00000000000E+00  0.15506579049E+04  0.15506579049E+04  0.00000000000E+00 0. -1.
         21   -1    0    0  504  502 -0.00000000000E+00 -0.00000000000E+00 -0.69300612639E+02  0.69300612639E+02  0.00000000000E+00 0. -1.
         25    1    1    2    0    0 -0.12500363428E+03 -0.19255470343E+03  0.31843832930E+03  0.41198445597E+03  0.12500000000E+03 0.  0.
         21    1    1    2  503  501 -0.42572403337E+02  0.85375112983E+02  0.66471493405E+03  0.67152607023E+03  0.00000000000E+00 0. -1.
         21    1    1    2  504  503  0.16757603762E+03  0.10717959045E+03  0.49820402894E+03  0.53644799137E+03  0.00000000000E+00 0. -1.
<mgrwt>
<rscale>  4 0.48230630E+03</rscale>
<asrwt>0</asrwt>
<pdfrwt beam="1">  1       21 0.23856273E+00 0.48230630E+03</pdfrwt>
<pdfrwt beam="2">  1       21 0.10661634E-01 0.48230630E+03</pdfrwt>
<totfact> 0.47153922E+03</totfact>
</mgrwt>
</event>
<event>
 5    0  0.2720079E+000  0.6630571E+03  0.7546771E-02  0.9782582E-01
         21   -1    0    0  502  501  0.00000000000E+00  0.00000000000E+00  0.10168700235E+04  0.10168700235E+04  0.00000000000E+00 0. -1.
         21   -1    0    0  504  502 -0.00000000000E+00 -0.00000000000E+00 -0.18973627315E+03  0.18973627315E+03  0.00000000000E+00 0. -1.
         25    1    1    2    0    0 -0.10549180501E+03 -0.29991152568E+03  0.81251055082E+02  0.35114409879E+03  0.12500000000E+03 0.  0.
         21    1    1    2  503  501 -0.81596559909E+00  0.40020679858E+02  0.43383782967E+03  0.43568059753E+03  0.00000000000E+00 0. -1.
         21    1    1    2  504  503  0.10630777060E+03  0.25989084582E+03  0.31204486562E+03  0.41978160035E+03  0.00000000000E+00 0. -1.
<mgrwt>
<rscale>  4 0.66305713E+03</rscale>
<asrwt>0</asrwt>
<pdfrwt beam="1">  1       21 0.15644154E+00 0.66305713E+03</pdfrwt>
<pdfrwt beam="2">  1       21 0.29190196E-01 0.66305713E+03</pdfrwt>
<totfact> 0.24148599E+03</totfact>
</mgrwt>
</event>
<event>
 5    0  0.2720079E+000  0.6271036E+03  0.7546771E-02  0.9850717E-01
         21   -1    0    0  502  501  0.00000000000E+00  0.00000000000E+00  0.77542540297E+03  0.77542540297E+03  0.00000000000E+00 0. -1.
         21   -1    0    0  504  502 -0.00000000000E+00 -0.00000000000E+00 -0.18088318777E+03  0.18088318777E+03  0.00000000000E+00 0. -1.
         25    1    1    2    0    0  0.24605141101E+03  0.24251183516E+01  0.41056271886E+03  0.49470589664E+03  0.12500000000E+03 0.  0.
         21    1    1    2  503  501 -0.16392162500E+02  0.66434229067E+02  0.20959126626E+03  0.22047836328E+03  0.00000000000E+00 0. -1.
         21    1    1    2  504  503 -0.22965924851E+03 -0.68859347419E+02 -0.25611769910E+02  0.24112433081E+03  0.00000000000E+00 0. -1.
<mgrwt>
<rscale>  4 0.62710357E+03</rscale>
<asrwt>0</asrwt>
<pdfrwt beam="1">  1       21 0.11929621E+00 0.62710357E+03</pdfrwt>
<pdfrwt beam="2">  1       21 0.27828183E-01 0.62710357E+03</pdfrwt>
<totfact> 0.55251305E+03</totfact>
</mgrwt>
</event>
<event>
 5    0  0.2720079E+000  0.4712174E+03  0.7546771E-02  0.1021577E+00
         21   -1    0    0  503  501  0.00000000000E+00  0.00000000000E+00  0.95519690973E+02  0.95519690973E+02  0.00000000000E+00 0.  1.
         21   -1    0    0  504  502 -0.00000000000E+00 -0.00000000000E+00 -0.16266296760E+04  0.16266296760E+04  0.00000000000E+00 0.  1.
         25    1    1    2    0    0 -0.20485537968E+03  0.24392416670E+03 -0.10249548653E+04  0.10805656859E+04  0.12500000000E+03 0.  0.
         21    1    1    2  503  502  0.67101038641E+02  0.29460241193E+02 -0.38878093452E+02  0.82957587648E+02  0.00000000000E+00 0. -1.
         21    1    1    2  504  501  0.13775434104E+03 -0.27338440790E+03 -0.46727702632E+03  0.55862609345E+03  0.00000000000E+00 0.  1.
<mgrwt>
<rscale>  4 0.47121741E+03</rscale>
<asrwt>0</asrwt>
<pdfrwt beam="1">  1       21 0.14695337E-01 0.47121741E+03</pdfrwt>
<pdfrwt beam="2">  1       21 0.25025072E+00 0.47121741E+03</pdfrwt>
<totfact> 0.22284826E+03</totfact>
</mgrwt>
</event>
<event>
 5    0  0.2720079E+000  0.5042879E+03  0.7546771E-02  0.1012666E+00
         21   -1    0    0  504  501  0.00000000000E+00  0.00000000000E+00  0.13873531511E+04  0.13873531511E+04  0.00000000000E+00 0.  1.
         21   -1    0    0  501  502 -0.00000000000E+00 -0.00000000000E+00 -0.64102986939E+02  0.64102986939E+02  0.00000000000E+00 0. -1.
         25    1    1    2    0    0 -0.24378887306E+03 -0.68846415554E+02  0.41504189814E+03  0.50205340431E+03  0.12500000000E+03 0.  0.
         21    1    1    2  503  502  0.19780775375E+03  0.86555921276E+01  0.59133403225E+03  0.62360144677E+03  0.00000000000E+00 0.  1.
         21    1    1    2  504  503  0.45981119317E+02  0.60190823426E+02  0.31687423373E+03  0.32580128692E+03  0.00000000000E+00 0.  1.
<mgrwt>
<rscale>  4 0.50428794E+03</rscale>
<asrwt>0</asrwt>
<pdfrwt beam="1">  1       21 0.21343892E+00 0.50428794E+03</pdfrwt>
<pdfrwt beam="2">  1       21 0.98619991E-02 0.50428794E+03</pdfrwt>
<totfact> 0.77816012E+03</totfact>
</mgrwt>
</event>
<event>
 5    0  0.2720079E+000  0.8693020E+03  0.7546771E-02  0.9464790E-01
         21   -1    0    0  503  501  0.00000000000E+00  0.00000000000E+00  0.12494436964E+03  0.12494436964E+03  0.00000000000E+00 0. -1.
         21   -1    0    0  504  502 -0.00000000000E+00 -0.00000000000E+00 -0.17516550040E+04  0.17516550040E+04  0.00000000000E+00 0. -1.
         25    1    1    2    0    0 -0.38387301403E+03  0.44364462944E+02 -0.46150785594E+03  0.61476922301E+03  0.12500000000E+03 0.  0.
         21    1    1    2  503  502 -0.13510802465E+01  0.23660283583E+02  0.80915787201E+01  0.25042126172E+02  0.00000000000E+00 0. -1.
         21    1    1    2  504  501  0.38522409427E+03 -0.68024746526E+02 -0.11732943571E+04  0.12367880244E+04  0.00000000000E+00 0. -1.
<mgrwt>
<rscale>  4 0.86930200E+03</rscale>
<asrwt>0</asrwt>
<pdfrwt beam="1">  1       21 0.19222213E-01 0.86930200E+03</pdfrwt>
<pdfrwt beam="2">  1       21 0.26948535E+00 0.86930200E+03</pdfrwt>
<totfact> 0.89609301E+02</totfact>
</mgrwt>
</event>
<event>
 5    0  0.2720079E+000  0.6731307E+03  0.7546771E-02  0.9764319E-01
         21   -1    0    0  502  501  0.00000000000E+00  0.00000000000E+00  0.86869396521E+03  0.86869396521E+03  0.00000000000E+00 0.  1.
         21   -1    0    0  504  502 -0.00000000000E+00 -0.00000000000E+00 -0.10397684452E+04  0.10397684452E+04  0.00000000000E+00 0.  1.
         25    1    1    2    0    0 -0.45164682769E+03 -0.10893076365E+02 -0.49850670838E+03  0.68427878411E+03  0.12500000000E+03 0.  0.
         21    1    1    2  503  501  0.55203053270E+03  0.18204778487E+03  0.63328268430E+03  0.85960808700E+03  0.00000000000E+00 0.  1.
         21    1    1    2  504  503 -0.10038370501E+03 -0.17115470850E+03 -0.30585045587E+03  0.36457553926E+03  0.00000000000E+00 0.  1.
<mgrwt>
<rscale>  4 0.67313070E+03</rscale>
<asrwt>0</asrwt>
<pdfrwt beam="1">  1       21 0.13364523E+00 0.67313070E+03</pdfrwt>
<pdfrwt beam="2">  1       21 0.15996438E+00 0.67313070E+03</pdfrwt>
<totfact> 0.73004356E+01</totfact>
</mgrwt>
</event>
<event>
 5    0  0.2720079E+000  0.8391785E+03  0.7546771E-02  0.9504977E-01
         21   -1    0    0  502  501  0.00000000000E+00  0.00000000000E+00  0.51636315115E+03  0.51636315115E+03  0.00000000000E+00 0.  1.
         21   -1    0    0  503  502 -0.00000000000E+00 -0.00000000000E+00 -0.13208202025E+04  0.13208202025E+04  0.00000000000E+00 0.  1.
         25    1    1    2    0    0 -0.99012169168E+01 -0.21643478622E+03 -0.12288648910E+04  0.12540637827E+04  0.12500000000E+03 0.  0.
         21    1    1    2  503  504 -0.61509265824E+01  0.19509760121E+03  0.41849285527E+02  0.19963033486E+03  0.00000000000E+00 0. -1.
         21    1    1    2  504  501  0.16052143499E+02  0.21337185007E+02  0.38255855418E+03  0.38348923603E+03  0.00000000000E+00 0.  1.
<mgrwt>
<rscale>  4 0.83917849E+03</rscale>
<asrwt>0</asrwt>
<pdfrwt beam="1">  1       21 0.79440485E-01 0.83917849E+03</pdfrwt>
<pdfrwt beam="2">  1       21 0.20320311E+00 0.83917849E+03</pdfrwt>
<totfact> 0.12325324E+02</totfact>
</mgrwt>
</event>
<event>
 5    0  0.2720079E+000  0.4775227E+03  0.7546771E-02  0.1019818E+00
         21   -1    0    0  502  501  0.00000000000E+00  0.00000000000E+00  0.20799549523E+03  0.20799549523E+03  0.00000000000E+00 0.  1.
         21   -1    0    0  504  502 -0.00000000000E+00 -0.00000000000E+00 -0.90461604107E+03  0.90461604107E+03  0.00000000000E+00 0. -1.
         25    1    1    2    0    0  0.11283052410E+03 -0.19888764124E+03 -0.50798388364E+03  0.57092875829E+03  0.12500000000E+03 0.  0.
         21    1    1    2  503  501 -0.30061979713E+02  0.92972802432E+00  0.14330762783E+03  0.14642972107E+03  0.00000000000E+00 0.  1.
         21    1    1    2  504  503 -0.82768544384E+02  0.19795791322E+03 -0.33194429003E+03  0.39525305695E+03  0.00000000000E+00 0.  1.
<mgrwt>
<rscale>  4 0.47752274E+03</rscale>
<asrwt>0</asrwt>
<pdfrwt beam="1">  1       21 0.31999308E-01 0.47752274E+03</pdfrwt>
<pdfrwt beam="2">  1       21 0.13917170E+00 0.47752274E+03</pdfrwt>
<totfact> 0.29207653E+03</totfact>
</mgrwt>
</event>
<event>
 5    0  0.2720079E+000  0.7234435E+03  0.7546771E-02  0.9677960E-01
         21   -1    0    0  502  501  0.00000000000E+00  0.00000000000E+00  0.14176730698E+04  0.14176730698E+04  0.00000000000E+00 0.  1.
         21   -1    0    0  504  502 -0.00000000000E+00 -0.00000000000E+00 -0.24987588818E+03  0.24987588818E+03  0.00000000000E+00 0.  1.
         25    1    1    2    0    0  0.33527264258E+03 -0.54710285611E+02  0.23461297998E+03  0.43135740470E+03  0.12500000000E+03 0.  0.
         21    1    1    2  503  501  0.37619892306E+01  0.28178953643E+02  0.89334221371E+03  0.89379444885E+03  0.00000000000E+00 0.  1.
         21    1    1    2  504  503 -0.33903463181E+03  0.26531331968E+02  0.39841987975E+02  0.34239710447E+03  0.00000000000E+00 0. -1.
<mgrwt>
<rscale>  4 0.72344351E+03</rscale>
<asrwt>0</asrwt>
<pdfrwt beam="1">  1       21 0.21810354E+00 0.72344351E+03</pdfrwt>
<pdfrwt beam="2">  1       21 0.38442445E-01 0.72344351E+03</pdfrwt>
<totfact> 0.49812318E+02</totfact>
</mgrwt>
</event>
<event>
 5    0  0.2720079E+000  0.4992984E+03  0.7546771E-02  0.1013962E+00
         21   -1    0    0  502  501  0.00000000000E+00  0.00000000000E+00  0.10737196076E+04  0.10737196076E+04  0.00000000000E+00 0.  1.
         21   -1    0    0  504  502 -0.00000000000E+00 -0.00000000000E+00 -0.12104470958E+04  0.12104470958E+04  0.00000000000E+00 0.  1.
         25    1    1    2    0    0  0.24245702387E+03  0.45556132806E+02 -0.52873123799E+03  0.59669296266E+03  0.12500000000E+03 0.  0.
         21    1    1    2  503  501 -0.31547701625E+02 -0.15689964964E+02  0.10219140751E+04  0.10225213002E+04  0.00000000000E+00 0.  1.
         21    1    1    2  504  503 -0.21090932225E+03 -0.29866167842E+02 -0.62991032529E+03  0.66495244048E+03  0.00000000000E+00 0.  1.
<mgrwt>
<rscale>  4 0.49929836E+03</rscale>
<asrwt>0</asrwt>
<pdfrwt beam="1">  1       21 0.16518763E+00 0.49929836E+03</pdfrwt>
<pdfrwt beam="2">  1       21 0.18622263E+00 0.49929836E+03</pdfrwt>
<totfact> 0.28531896E+01</totfact>
</mgrwt>
</event>
<event>
 5    0  0.2720079E+000  0.4644252E+03  0.7546771E-02  0.1023506E+00
         21   -1    0    0  504  501  0.00000000000E+00  0.00000000000E+00  0.59389173451E+03  0.59389173451E+03  0.00000000000E+00 0.  1.
         21   -1    0    0  501  502 -0.00000000000E+00 -0.00000000000E+00 -0.30782158263E+03  0.30782158263E+03  0.00000000000E+00 0.  1.
         25    1    1    2    0    0  0.33964433370E+03  0.43692323854E+02 -0.95552662900E+02  0.37685886479E+03  0.12500000000E+03 0.  0.
         21    1    1    2  503  502 -0.79002063977E+02 -0.29109179838E+02  0.35616664413E+02  0.91417816903E+02  0.00000000000E+00 0. -1.
         21    1    1    2  504  503 -0.26064226973E+03 -0.14583144016E+02  0.34600615037E+03  0.43343663545E+03  0.00000000000E+00 0.  1.
<mgrwt>
<rscale>  4 0.46442516E+03</rscale>
<asrwt>0</asrwt>
<pdfrwt beam="1">  1       21 0.91367959E-01 0.46442516E+03</pdfrwt>
<pdfrwt beam="2">  1       21 0.47357166E-01 0.46442516E+03</pdfrwt>
<totfact> 0.37640098E+03</totfact>
</mgrwt>
</event>
<event>
 5    0  0.2720079E+000  0.6144591E+03  0.7546771E-02  0.9875854E-01
         21   -1    0    0  503  501  0.00000000000E+00  0.00000000000E+00  0.33065537158E+03  0.33065537158E+03  0.00000000000E+00 0.  1.
         21   -1    0    0  504  502 -0.00000000000E+00 -0.00000000000E+00 -0.56152045420E+03  0.56152045420E+03  0.00000000000E+00 0.  1.
         25    1    1    2    0    0  0.22901912485E+03  0.15452245537E+03 -0.57595215741E+02  0.30865702266E+03  0.12500000000E+03 0.  0.
         21    1    1    2  503  502 -0.48125636041E+02  0.27241344364E+02  0.15638063353E+03  0.16587064306E+03  0.00000000000E+00 0.  1.
         21    1    1    2  504  501 -0.18089348880E+03 -0.18176379974E+03 -0.32965050040E+03  0.41764816006E+03  0.00000000000E+00 0.  1.
<mgrwt>
<rscale>  4 0.61445909E+03</rscale>
<asrwt>0</asrwt>
<pdfrwt beam="1">  1       21 0.50870058E-01 0.61445909E+03</pdfrwt>
<pdfrwt beam="2">  1       21 0.86387761E-01 0.61445909E+03</pdfrwt>
<totfact> 0.35361641E+03</totfact>
</mgrwt>
</event>
<event>
 5    0  0.2720079E+000  0.9911207E+03  0.7546771E-02  0.9318337E-01
         21   -1    0    0  503  501  0.00000000000E+00  0.00000000000E+00  0.18179202794E+04  0.18179202794E+04  0.00000000000E+00 0.  1.
         21   -1    0    0  504  502 -0.00000000000E+00 -0.00000000000E+00 -0.47352238986E+03  0.47352238986E+03  0.00000000000E+00 0.  1.
         25    1    1    2    0    0  0.31337557062E+03  0.27498018237E+03  0.25892634449E+03  0.50644466710E+03  0.12500000000E+03 0.  0.
         21    1    1    2  503  502 -0.43174094801E+03 -0.10824463491E+03 -0.19669624041E+03  0.48662774086E+03  0.00000000000E+00 0.  1.
         21    1    1    2  504  501  0.11836537739E+03 -0.16673554746E+03  0.12821677855E+04  0.12983702613E+04  0.00000000000E+00 0.  1.
<mgrwt>
<rscale>  4 0.99112069E+03</rscale>
<asrwt>0</asrwt>
<pdfrwt beam="1">  1       21 0.27968004E+00 0.99112069E+03</pdfrwt>
<pdfrwt beam="2">  1       21 0.72849599E-01 0.99112069E+03</pdfrwt>
<totfact> 0.46578860E+01</totfact>
</mgrwt>
</event>
<event>
 5    0  0.2720079E+000  0.3537206E+03  0.7546771E-02  0.1061098E+00
         21   -1    0    0  503  501  0.00000000000E+00  0.00000000000E+00  0.13055071739E+04  0.13055071739E+04  0.00000000000E+00 0. -1.
         21   -1    0    0  504  502 -0.00000000000E+00 -0.00000000000E+00 -0.11390893256E+03  0.11390893256E+03  0.00000000000E+00 0. -1.
         25    1    1    2    0    0  0.22183194309E+03  0.63974203546E+02  0.10167947455E+03  0.28154187120E+03  0.12500000000E+03 0.  0.
         21    1    1    2  503  502 -0.16938786115E+03 -0.33211596501E-01  0.10056149739E+04  0.10197812140E+04  0.00000000000E+00 0. -1.
         21    1    1    2  504  501 -0.52444081936E+02 -0.63940991950E+02  0.84303792861E+02  0.11809302127E+03  0.00000000000E+00 0.  1.
<mgrwt>
<rscale>  4 0.35372061E+03</rscale>
<asrwt>0</asrwt>
<pdfrwt beam="1">  1       21 0.20084725E+00 0.35372061E+03</pdfrwt>
<pdfrwt beam="2">  1       21 0.17524452E-01 0.35372061E+03</pdfrwt>
<totfact> 0.34890673E+03</totfact>
</mgrwt>
</event>
<event>
 5    0  0.2720079E+000  0.4302294E+03  0.7546771E-02  0.1033788E+00
         21   -1    0    0  503  501  0.00000000000E+00  0.00000000000E+00  0.25369749701E+03  0.25369749701E+03  0.00000000000E+00 0. -1.
         21   -1    0    0  504  502 -0.00000000000E+00 -0.00000000000E+00 -0.35449240880E+03  0.35449240880E+03  0.00000000000E+00 0. -1.
         25    1    1    2    0    0  0.18457316032E+03  0.79388626056E+02  0.43783996940E+02  0.24064879772E+03  0.12500000000E+03 0.  0.
         21    1    1    2  503  502 -0.15590858708E+03  0.51620557305E+02  0.79693360850E+01  0.16442530152E+03  0.00000000000E+00 0. -1.
         21    1    1    2  504  501 -0.28664573236E+02 -0.13100918336E+03 -0.15254824481E+03  0.20311580657E+03  0.00000000000E+00 0. -1.
<mgrwt>
<rscale>  4 0.43022943E+03</rscale>
<asrwt>0</asrwt>
<pdfrwt beam="1">  1       21 0.39030384E-01 0.43022943E+03</pdfrwt>
<pdfrwt beam="2">  1       21 0.54537294E-01 0.43022943E+03</pdfrwt>
<totfact> 0.18246259E+04</totfact>
</mgrwt>
</event>
<event>
 5    0  0.2720079E+000  0.4127402E+03  0.7546771E-02  0.1039455E+00
         21   -1    0    0  503  501  0.00000000000E+00  0.00000000000E+00  0.11785761028E+04  0.11785761028E+04  0.00000000000E+00 0.  1.
         21   -1    0    0  504  502 -0.00000000000E+00 -0.00000000000E+00 -0.62027301736E+02  0.62027301736E+02  0.00000000000E+00 0.  1.
         25    1    1    2    0    0 -0.18214582166E+03  0.12238700174E+03  0.36944892811E+03  0.44751892589E+03  0.12500000000E+03 0.  0.
         21    1    1    2  503  502  0.13698991359E+03 -0.80656586228E+02  0.28021117182E+03  0.32216458859E+03  0.00000000000E+00 0.  1.
         21    1    1    2  504  501  0.45155908065E+02 -0.41730415515E+02  0.46688870118E+03  0.47091989011E+03  0.00000000000E+00 0.  1.
<mgrwt>
<rscale>  4 0.41274019E+03</rscale>
<asrwt>0</asrwt>
<pdfrwt beam="1">  1       21 0.18131938E+00 0.41274019E+03</pdfrwt>
<pdfrwt beam="2">  1       21 0.95426627E-02 0.41274019E+03</pdfrwt>
<totfact> 0.14013604E+04</totfact>
</mgrwt>
</event>
<event>
 5    0  0.2720079E+000  0.4786835E+03  0.7546771E-02  0.1019498E+00
         21   -1    0    0  502  501  0.00000000000E+00  0.00000000000E+00  0.70024742096E+03  0.70024742096E+03  0.00000000000E+00 0.  1.
         21   -1    0    0  504  502 -0.00000000000E+00 -0.00000000000E+00 -0.18231177290E+03  0.18231177290E+03  0.00000000000E+00 0.  1.
         25    1    1    2    0    0 -0.22876533810E+03  0.69995622195E+02  0.63384678680E+01  0.26999656149E+03  0.12500000000E+03 0.  0.
         21    1    1    2  503  501  0.47859850936E+02 -0.23727985323E+02  0.38092702018E+03  0.38465436086E+03  0.00000000000E+00 0.  1.
         21    1    1    2  504  503  0.18090548717E+03 -0.46267636872E+02  0.13067016000E+03  0.22790827151E+03  0.00000000000E+00 0.  1.
<mgrwt>
<rscale>  4 0.47868346E+03</rscale>
<asrwt>0</asrwt>
<pdfrwt beam="1">  1       21 0.10773037E+00 0.47868346E+03</pdfrwt>
<pdfrwt beam="2">  1       21 0.28047965E-01 0.47868346E+03</pdfrwt>
<totfact> 0.73073010E+03</totfact>
</mgrwt>
</event>
<event>
 5    0  0.2720079E+000  0.4935494E+03  0.7546771E-02  0.1015476E+00
         21   -1    0    0  504  501  0.00000000000E+00  0.00000000000E+00  0.56034385774E+03  0.56034385774E+03  0.00000000000E+00 0. -1.
         21   -1    0    0  503  502 -0.00000000000E+00 -0.00000000000E+00 -0.18274673957E+03  0.18274673957E+03  0.00000000000E+00 0.  1.
         25    1    1    2    0    0  0.21733165386E+03  0.77680379358E+02  0.41193827839E+02  0.26568631986E+03  0.12500000000E+03 0.  0.
         21    1    1    2  503  501 -0.13207516086E+03 -0.16483010905E+03  0.17007749140E+03  0.27118105768E+03  0.00000000000E+00 0. -1.
         21    1    1    2  504  502 -0.85256493008E+02  0.87149729690E+02  0.16632579893E+03  0.20622321977E+03  0.00000000000E+00 0. -1.
<mgrwt>
<rscale>  4 0.49354940E+03</rscale>
<asrwt>0</asrwt>
<pdfrwt beam="1">  1       21 0.86206746E-01 0.49354940E+03</pdfrwt>
<pdfrwt beam="2">  1       21 0.28114883E-01 0.49354940E+03</pdfrwt>
<totfact> 0.12402588E+04</totfact>
</mgrwt>
</event>
<event>
 5    0  0.2720079E+000  0.4351246E+03  0.7546771E-02  0.1032253E+00
         21   -1    0    0  502  501  0.00000000000E+00  0.00000000000E+00  0.10369405126E+04  0.10369405126E+04  0.00000000000E+00 0. -1.
         21   -1    0    0  503  502 -0.00000000000E+00 -0.00000000000E+00 -0.62071982955E+02  0.62071982955E+02  0.00000000000E+00 0. -1.
         25    1    1    2    0    0 -0.16634482402E+03 -0.13533749113E+03  0.40467176271E+03  0.47473263266E+03  0.12500000000E+03 0.  0.
         21    1    1    2  503  504  0.16235744954E+03  0.92373759726E+02  0.32115998742E+03  0.37153275821E+03  0.00000000000E+00 0. -1.
         21    1    1    2  504  501  0.39873744829E+01  0.42963731402E+02  0.24903677957E+03  0.25274710473E+03  0.00000000000E+00 0. -1.
<mgrwt>
<rscale>  4 0.43512456E+03</rscale>
<asrwt>0</asrwt>
<pdfrwt beam="1">  1       21 0.15952930E+00 0.43512456E+03</pdfrwt>
<pdfrwt beam="2">  1       21 0.95495366E-02 0.43512456E+03</pdfrwt>
<totfact> 0.20001605E+04</totfact>
</mgrwt>
</event>
<event>
 5    0  0.2720079E+000  0.4620967E+03  0.7546771E-02  0.1024175E+00
         21   -1    0    0  502  501  0.00000000000E+00  0.00000000000E+00  0.56973925091E+02  0.56973925091E+02  0.00000000000E+00 0. -1.
         21   -1    0    0  504  502 -0.00000000000E+00 -0.00000000000E+00 -0.19190178470E+04  0.19190178470E+04  0.00000000000E+00 0.  1.
         25    1    1    2    0    0 -0.66021794339E+02  0.22106966808E+03 -0.11317357375E+04  0.11617579158E+04  0.12500000000E+03 0.  0.
         21    1    1    2  503  501 -0.23267744027E+02 -0.43767848436E+02  0.75477925404E+01  0.50139621469E+02  0.00000000000E+00 0. -1.
         21    1    1    2  504  503  0.89289538367E+02 -0.17730181965E+03 -0.73785597696E+03  0.76409423479E+03  0.00000000000E+00 0.  1.
<mgrwt>
<rscale>  4 0.46209666E+03</rscale>
<asrwt>0</asrwt>
<pdfrwt beam="1">  1       21 0.87652208E-02 0.46209666E+03</pdfrwt>
<pdfrwt beam="2">  1       21 0.29523346E+00 0.46209666E+03</pdfrwt>
<totfact> 0.30535222E+03</totfact>
</mgrwt>
</event>
<event>
 5    0  0.2720079E+000  0.4456530E+03  0.7546771E-02  0.1029026E+00
         21   -1    0    0  504  501  0.00000000000E+00  0.00000000000E+00  0.15175007231E+04  0.15175007231E+04  0.00000000000E+00 0.  1.
         21   -1    0    0  501  502 -0.00000000000E+00 -0.00000000000E+00 -0.45955586352E+03  0.45955586352E+03  0.00000000000E+00 0. -1.
         25    1    1    2    0    0 -0.16498544395E+03 -0.12531159258E+03 -0.54396478455E+02  0.24800638867E+03  0.12500000000E+03 0.  0.
         21    1    1    2  503  502  0.84047678952E+02  0.84575740652E+02 -0.29531650945E+03  0.31847905582E+03  0.00000000000E+00 0. -1.
         21    1    1    2  504  503  0.80937764998E+02  0.40735851930E+02  0.14076578475E+04  0.14105711421E+04  0.00000000000E+00 0.  1.
<mgrwt>
<rscale>  4 0.44565299E+03</rscale>
<asrwt>0</asrwt>
<pdfrwt beam="1">  1       21 0.23346165E+00 0.44565299E+03</pdfrwt>
<pdfrwt beam="2">  1       21 0.70700903E-01 0.44565299E+03</pdfrwt>
<totfact> 0.11999754E+02</totfact>
</mgrwt>
</event>
<event>
 5    0  0.2720079E+000  0.5150076E+03  0.7546771E-02  0.1009934E+00
         21   -1    0    0  504  501  0.00000000000E+00  0.00000000000E+00  0.28362595211E+03  0.28362595211E+03  0.00000000000E+00 0.  1.
         21   -1    0    0  501  502 -0.00000000000E+00 -0.00000000000E+00 -0.95612689048E+03  0.95612689048E+03  0.00000000000E+00 0. -1.
         25    1    1    2    0    0  0.22499430859E+03 -0.91854817671E+02 -0.39274900281E+03  0.47847311903E+03  0.12500000000E+03 0.  0.
         21    1    1    2  503  502 -0.19412495174E+03  0.13267807270E+03 -0.49074505834E+03  0.54416787864E+03  0.00000000000E+00 0.  1.
         21    1    1    2  504  503 -0.30869356851E+02 -0.40823255030E+02  0.21099312278E+03  0.21711184491E+03  0.00000000000E+00 0.  1.
<mgrwt>
<rscale>  4 0.51500763E+03</rscale>
<asrwt>0</asrwt>
<pdfrwt beam="1">  1       21 0.43634763E-01 0.51500763E+03</pdfrwt>
<pdfrwt beam="2">  1       21 0.14709644E+00 0.51500763E+03</pdfrwt>
<totfact> 0.13167283E+03</totfact>
</mgrwt>
</event>
<event>
 5    0  0.2720079E+000  0.5657603E+03  0.7546771E-02  0.9979105E-01
         21   -1    0    0  504  501  0.00000000000E+00  0.00000000000E+00  0.10545488540E+03  0.10545488540E+03  0.00000000000E+00 0. -1.
         21   -1    0    0  501  502 -0.00000000000E+00 -0.00000000000E+00 -0.11131850653E+04  0.11131850653E+04  0.00000000000E+00 0. -1.
         25    1    1    2    0    0 -0.19142839193E+03 -0.13967588838E+03 -0.23409125383E+03  0.35577787754E+03  0.12500000000E+03 0.  0.
         21    1    1    2  503  502  0.13905058239E+03  0.14265001684E+03 -0.78440599079E+03  0.80930640066E+03  0.00000000000E+00 0. -1.
         21    1    1    2  504  503  0.52377809537E+02 -0.29741284574E+01  0.10767064730E+02  0.53555672481E+02  0.00000000000E+00 0. -1.
<mgrwt>
<rscale>  4 0.56576032E+03</rscale>
<asrwt>0</asrwt>
<pdfrwt beam="1">  1       21 0.16223829E-01 0.56576032E+03</pdfrwt>
<pdfrwt beam="2">  1       21 0.17125924E+00 0.56576032E+03</pdfrwt>
<totfact> 0.59635964E+03</totfact>
</mgrwt>
</event>
<event>
 5    0  0.2720079E+000  0.6190221E+03  0.7546771E-02  0.9866709E-01
         21   -1    0    0  504  501  0.00000000000E+00  0.00000000000E+00  0.34747658125E+03  0.34747658125E+03  0.00000000000E+00 0.  1.
         21   -1    0    0  503  502 -0.00000000000E+00 -0.00000000000E+00 -0.50841684089E+03  0.50841684089E+03  0.00000000000E+00 0.  1.
         25    1    1    2    0    0  0.21423550261E+03  0.17228551349E+03 -0.69318158366E+02  0.30985344248E+03  0.12500000000E+03 0.  0.
         21    1    1    2  503  501 -0.25816263178E+03 -0.14527841362E+03 -0.24487760169E+03  0.38434203741E+03  0.00000000000E+00 0.  1.
         21    1    1    2  504  502  0.43927129170E+02 -0.27007099875E+02  0.15325550041E+03  0.16169794225E+03  0.00000000000E+00 0.  1.
<mgrwt>
<rscale>  4 0.61902212E+03</rscale>
<asrwt>0</asrwt>
<pdfrwt beam="1">  1       21 0.53457936E-01 0.61902212E+03</pdfrwt>
<pdfrwt beam="2">  1       21 0.78217976E-01 0.61902212E+03</pdfrwt>
<totfact> 0.40050540E+03</totfact>
</mgrwt>
</event>
<event>
 5    0  0.2720079E+000  0.6664283E+03  0.7546771E-02  0.9776432E-01
         21   -1    0    0  504  501  0.00000000000E+00  0.00000000000E+00  0.86132668072E+02  0.86132668072E+02  0.00000000000E+00 0. -1.
         21   -1    0    0  501  502 -0.00000000000E+00 -0.00000000000E+00 -0.15489782491E+04  0.15489782491E+04  0.00000000000E+00 0. -1.
         25    1    1    2    0    0 -0.29093739356E+03 -0.27688219030E+01 -0.87424200032E+03  0.92982595601E+03  0.12500000000E+03 0.  0.
         21    1    1    2  503  502  0.31660999292E+03  0.61490219231E+02 -0.46280617454E+03  0.56410326171E+03  0.00000000000E+00 0. -1.
         21    1    1    2  504  503 -0.25672599352E+02 -0.58721397328E+02 -0.12579740614E+03  0.14118169943E+03  0.00000000000E+00 0. -1.
<mgrwt>
<rscale>  4 0.66642830E+03</rscale>
<asrwt>0</asrwt>
<pdfrwt beam="1">  1       21 0.13251182E-01 0.66642830E+03</pdfrwt>
<pdfrwt beam="2">  1       21 0.23830431E+00 0.66642830E+03</pdfrwt>
<totfact> 0.29915101E+03</totfact>
</mgrwt>
</event>
<event>
 5    0  0.2720079E+000  0.3047983E+03  0.7546771E-02  0.1082866E+00
         21   -1    0    0  502  501  0.00000000000E+00  0.00000000000E+00  0.18167983969E+04  0.18167983969E+04  0.00000000000E+00 0.  1.
         21   -1    0    0  503  502 -0.00000000000E+00 -0.00000000000E+00 -0.19449125682E+03  0.19449125682E+03  0.00000000000E+00 0.  1.
         25    1    1    2    0    0 -0.70869249550E+02  0.21722110340E+03 -0.86660245556E+02  0.27448580374E+03  0.12500000000E+03 0.  0.
         21    1    1    2  503  504  0.15064343976E+02 -0.26822238240E+02  0.21073839941E+02  0.37289055411E+02  0.00000000000E+00 0. -1.
         21    1    1    2  504  501  0.55804905574E+02 -0.19039886516E+03  0.16878935457E+04  0.16995147946E+04  0.00000000000E+00 0.  1.
<mgrwt>
<rscale>  4 0.30479827E+03</rscale>
<asrwt>0</asrwt>
<pdfrwt beam="1">  1       21 0.27950743E+00 0.30479827E+03</pdfrwt>
<pdfrwt beam="2">  1       21 0.29921733E-01 0.30479827E+03</pdfrwt>
<totfact> 0.42393479E+02</totfact>
</mgrwt>
</event>
<event>
 5    0  0.2720079E+000  0.8599131E+03  0.7546771E-02  0.9477128E-01
         21   -1    0    0  503  501  0.00000000000E+00  0.00000000000E+00  0.26578968650E+04  0.26578968650E+04  0.00000000000E+00 0.  1.
         21   -1    0    0  504  502 -0.00000000000E+00 -0.00000000000E+00 -0.13499765795E+03  0.13499765795E+03  0.00000000000E+00 0.  1.
         25    1    1    2    0    0 -0.37692194032E+03 -0.78006519809E+02  0.23569470743E+03  0.46832911648E+03  0.12500000000E+03 0.  0.
         21    1    1    2  503  502  0.12957041097E+03  0.65590556512E+02  0.12399000293E+04  0.12483760232E+04  0.00000000000E+00 0.  1.
         21    1    1    2  504  501  0.24735152936E+03  0.12415963297E+02  0.10473044703E+04  0.10761893833E+04  0.00000000000E+00 0. -1.
<mgrwt>
<rscale>  4 0.85991308E+03</rscale>
<asrwt>0</asrwt>
<pdfrwt beam="1">  1       21 0.40890717E+00 0.85991308E+03</pdfrwt>
<pdfrwt beam="2">  1       21 0.20768872E-01 0.85991308E+03</pdfrwt>
<totfact> 0.10236794E+02</totfact>
</mgrwt>
</event>
<event>
 5    0  0.2720079E+000  0.4705653E+03  0.7546771E-02  0.1021761E+00
         21   -1    0    0  504  501  0.00000000000E+00  0.00000000000E+00  0.65299897224E+02  0.65299897224E+02  0.00000000000E+00 0. -1.
         21   -1    0    0  503  502 -0.00000000000E+00 -0.00000000000E+00 -0.94322038555E+03  0.94322038555E+03  0.00000000000E+00 0. -1.
         25    1    1    2    0    0 -0.18833674010E+03  0.12272484619E+03 -0.40455949662E+03  0.47940119091E+03  0.12500000000E+03 0.  0.
         21    1    1    2  503  501  0.18716864101E+03 -0.97907143992E+02 -0.41414455751E+03  0.46490173535E+03  0.00000000000E+00 0. -1.
         21    1    1    2  504  502  0.11680990873E+01 -0.24817702195E+02 -0.59216434202E+02  0.64217356512E+02  0.00000000000E+00 0.  1.
<mgrwt>
<rscale>  4 0.47056529E+03</rscale>
<asrwt>0</asrwt>
<pdfrwt beam="1">  1       21 0.10046138E-01 0.47056529E+03</pdfrwt>
<pdfrwt beam="2">  1       21 0.14511083E+00 0.47056529E+03</pdfrwt>
<totfact> 0.23414237E+04</totfact>
</mgrwt>
</event>
<event>
 5    0  0.2720079E+000  0.4138491E+03  0.7546771E-02  0.1039087E+00
         21   -1    0    0  502  501  0.00000000000E+00  0.00000000000E+00  0.77942813859E+02  0.77942813859E+02  0.00000000000E+00 0. -1.
         21   -1    0    0  504  502 -0.00000000000E+00 -0.00000000000E+00 -0.12228469629E+04  0.12228469629E+04  0.00000000000E+00 0. -1.
         25    1    1    2    0    0 -0.64163074336E+02  0.19398382630E+03 -0.56879033863E+03  0.61716616425E+03  0.12500000000E+03 0.  0.
         21    1    1    2  503  501  0.14396152375E+02 -0.35719208598E+02  0.33989524341E+02  0.51365346597E+02  0.00000000000E+00 0. -1.
         21    1    1    2  504  503  0.49766921961E+02 -0.15826461770E+03 -0.61010333471E+03  0.63225826588E+03  0.00000000000E+00 0. -1.
<mgrwt>
<rscale>  4 0.41384914E+03</rscale>
<asrwt>0</asrwt>
<pdfrwt beam="1">  1       21 0.11991202E-01 0.41384914E+03</pdfrwt>
<pdfrwt beam="2">  1       21 0.18813031E+00 0.41384914E+03</pdfrwt>
<totfact> 0.83220368E+03</totfact>
</mgrwt>
</event>
<event>
 5    0  0.2720079E+000  0.9598133E+03  0.7546771E-02  0.9353753E-01
         21   -1    0    0  502  501  0.00000000000E+00  0.00000000000E+00  0.10309146994E+04  0.10309146994E+04  0.00000000000E+00 0. -1.
         21   -1    0    0  503  502 -0.00000000000E+00 -0.00000000000E+00 -0.76576878016E+03  0.76576878016E+03  0.00000000000E+00 0. -1.
         25    1    1    2    0    0 -0.69029673046E+02 -0.27652906000E+03  0.17121530156E+03  0.35520852506E+03  0.12500000000E+03 0.  0.
         21    1    1    2  503  504  0.95895382297E+02  0.30405917976E+03 -0.63552103364E+03  0.71100977022E+03  0.00000000000E+00 0. -1.
         21    1    1    2  504  501 -0.26865709251E+02 -0.27530119759E+02  0.72945165137E+03  0.73046518433E+03  0.00000000000E+00 0. -1.
<mgrwt>
<rscale>  4 0.95981334E+03</rscale>
<asrwt>0</asrwt>
<pdfrwt beam="1">  1       21 0.15860226E+00 0.95981334E+03</pdfrwt>
<pdfrwt beam="2">  1       21 0.11781058E+00 0.95981334E+03</pdfrwt>
<totfact> 0.95510069E+01</totfact>
</mgrwt>
</event>
<event>
 5    0  0.2720079E+000  0.8163525E+03  0.7546771E-02  0.9536645E-01
         21   -1    0    0  503  501  0.00000000000E+00  0.00000000000E+00  0.44995246499E+03  0.44995246499E+03  0.00000000000E+00 0.  1.
         21   -1    0    0  504  502 -0.00000000000E+00 -0.00000000000E+00 -0.46811615592E+03  0.46811615592E+03  0.00000000000E+00 0.  1.
         25    1    1    2    0    0 -0.38508214893E+03  0.28408423488E+02  0.10019864874E+03  0.41804314270E+03  0.12500000000E+03 0.  0.
         21    1    1    2  503  502  0.37267415410E+02  0.33026526693E+00  0.87309093498E+02  0.94930749149E+02  0.00000000000E+00 0.  1.
         21    1    1    2  504  501  0.34781473352E+03 -0.28738688755E+02 -0.20567143317E+03  0.40509472905E+03  0.00000000000E+00 0.  1.
<mgrwt>
<rscale>  4 0.81635253E+03</rscale>
<asrwt>0</asrwt>
<pdfrwt beam="1">  1       21 0.69223457E-01 0.81635253E+03</pdfrwt>
<pdfrwt beam="2">  1       21 0.72017870E-01 0.81635253E+03</pdfrwt>
<totfact> 0.26181059E+03</totfact>
</mgrwt>
</event>
<event>
 5    0  0.2720079E+000  0.3841562E+03  0.7546771E-02  0.1049408E+00
         21   -1    0    0  502  501  0.00000000000E+00  0.00000000000E+00  0.74964753649E+03  0.74964753649E+03  0.00000000000E+00 0.  1.
         21   -1    0    0  504  502 -0.00000000000E+00 -0.00000000000E+00 -0.24075674115E+03  0.24075674115E+03  0.00000000000E+00 0.  1.
         25    1    1    2    0    0  0.19269627205E+03 -0.18455930080E+03 -0.95261798543E+02  0.30966723921E+03  0.12500000000E+03 0.  0.
         21    1    1    2  503  501 -0.13433743631E+03  0.14512897389E+03  0.56825967926E+03  0.60168765064E+03  0.00000000000E+00 0.  1.
         21    1    1    2  504  503 -0.58358835744E+02  0.39430326910E+02  0.35892914633E+02  0.79049387793E+02  0.00000000000E+00 0.  1.
<mgrwt>
<rscale>  4 0.38415616E+03</rscale>
<asrwt>0</asrwt>
<pdfrwt beam="1">  1       21 0.11533039E+00 0.38415616E+03</pdfrwt>
<pdfrwt beam="2">  1       21 0.37039499E-01 0.38415616E+03</pdfrwt>
<totfact> 0.36555027E+03</totfact>
</mgrwt>
</event>
<event>
 5    0  0.2720079E+000  0.4650529E+03  0.7546771E-02  0.1023326E+00
         21   -1    0    0  502  501  0.00000000000E+00  0.00000000000E+00  0.97501668859E+02  0.97501668859E+02  0.00000000000E+00 0. -1.
         21   -1    0    0  504  502 -0.00000000000E+00 -0.00000000000E+00 -0.73963967743E+03  0.73963967743E+03  0.00000000000E+00 0. -1.
         25    1    1    2    0    0 -0.12029972513E+03 -0.16966640297E+03 -0.21233579035E+03  0.32244410373E+03  0.12500000000E+03 0.  0.
         21    1    1    2  503  501  0.17090120730E+02  0.14614929756E+02  0.18578004398E+02  0.29168658621E+02  0.00000000000E+00 0. -1.
         21    1    1    2  504  503  0.10320960440E+03  0.15505147322E+03 -0.44838022262E+03  0.48552858395E+03  0.00000000000E+00 0. -1.
<mgrwt>
<rscale>  4 0.46505292E+03</rscale>
<asrwt>0</asrwt>
<pdfrwt beam="1">  1       21 0.15000257E-01 0.46505292E+03</pdfrwt>
<pdfrwt beam="2">  1       21 0.11379071E+00 0.46505292E+03</pdfrwt>
<totfact> 0.21172523E+04</totfact>
</mgrwt>
</event>
<event>
 5    0  0.2720079E+000  0.7311430E+03  0.7546771E-02  0.9665407E-01
         21   -1    0    0  503  501  0.00000000000E+00  0.00000000000E+00  0.25021704619E+03  0.25021704619E+03  0.00000000000E+00 0.  1.
         21   -1    0    0  504  502 -0.00000000000E+00 -0.00000000000E+00 -0.16107019995E+04  0.16107019995E+04  0.00000000000E+00 0.  1.
         25    1    1    2    0    0  0.94293456462E+02 -0.21292868437E+03 -0.15468382268E+03  0.30623841294E+03  0.12500000000E+03 0.  0.
         21    1    1    2  503  502 -0.49711235290E+01  0.33539666702E+02  0.16543740968E+03  0.16887616124E+03  0.00000000000E+00 0.  1.
         21    1    1    2  504  501 -0.89322332933E+02  0.17938901767E+03 -0.13712385403E+04  0.13858044715E+04  0.00000000000E+00 0.  1.
<mgrwt>
<rscale>  4 0.73114299E+03</rscale>
<asrwt>0</asrwt>
<pdfrwt beam="1">  1       21 0.38494930E-01 0.73114299E+03</pdfrwt>
<pdfrwt beam="2">  1       21 0.24780031E+00 0.73114299E+03</pdfrwt>
<totfact> 0.31984603E+02</totfact>
</mgrwt>
</event>
<event>
 5    0  0.2720079E+000  0.8022327E+03  0.7546771E-02  0.9556791E-01
         21   -1    0    0  503  501  0.00000000000E+00  0.00000000000E+00  0.13304757585E+04  0.13304757585E+04  0.00000000000E+00 0. -1.
         21   -1    0    0  504  502 -0.00000000000E+00 -0.00000000000E+00 -0.17247801501E+03  0.17247801501E+03  0.00000000000E+00 0. -1.
         25    1    1    2    0    0  0.32246624555E+03 -0.13750321132E+03  0.54505066355E+03  0.65999760490E+03  0.12500000000E+03 0.  0.
         21    1    1    2  503  502 -0.35504975127E+03  0.16503774138E+03  0.22280442141E+03  0.45048817094E+03  0.00000000000E+00 0. -1.
         21    1    1    2  504  501  0.32583505715E+02 -0.27534530060E+02  0.39014265855E+03  0.39246799769E+03  0.00000000000E+00 0. -1.
<mgrwt>
<rscale>  4 0.80223265E+03</rscale>
<asrwt>0</asrwt>
<pdfrwt beam="1">  1       21 0.20468857E+00 0.80223265E+03</pdfrwt>
<pdfrwt beam="2">  1       21 0.26535080E-01 0.80223265E+03</pdfrwt>
<totfact> 0.12680679E+03</totfact>
</mgrwt>
</event>
<event>
 5    0  0.2720079E+000  0.4554208E+03  0.7546771E-02  0.1026118E+00
         21   -1    0    0  502  501  0.00000000000E+00  0.00000000000E+00  0.61087348523E+03  0.61087348523E+03  0.00000000000E+00 0. -1.
         21   -1    0    0  504  502 -0.00000000000E+00 -0.00000000000E+00 -0.21068634172E+03  0.21068634172E+03  0.00000000000E+00 0.  1.
         25    1    1    2    0    0  0.67764082551E+02  0.19912359605E+03 -0.36740109201E+02  0.24742072066E+03  0.12500000000E+03 0.  0.
         21    1    1    2  503  501  0.88050633787E+01 -0.18295223821E+02  0.36414979212E+03  0.36471538967E+03  0.00000000000E+00 0. -1.
         21    1    1    2  504  503 -0.76569145930E+02 -0.18082837223E+03  0.72777460586E+02  0.20942371662E+03  0.00000000000E+00 0. -1.
<mgrwt>
<rscale>  4 0.45542085E+03</rscale>
<asrwt>0</asrwt>
<pdfrwt beam="1">  1       21 0.93980535E-01 0.45542085E+03</pdfrwt>
<pdfrwt beam="2">  1       21 0.32413284E-01 0.45542085E+03</pdfrwt>
<totfact> 0.76965714E+03</totfact>
</mgrwt>
</event>
<event>
 5    0  0.2720079E+000  0.4823511E+03  0.7546771E-02  0.1018491E+00
         21   -1    0    0  502  501  0.00000000000E+00  0.00000000000E+00  0.67514565372E+03  0.67514565372E+03  0.00000000000E+00 0.  1.
         21   -1    0    0  504  502 -0.00000000000E+00 -0.00000000000E+00 -0.11708143484E+03  0.11708143484E+03  0.00000000000E+00 0. -1.
         25    1    1    2    0    0  0.73138901847E+02  0.21988488095E+03  0.16759475720E+03  0.31210841462E+03  0.12500000000E+03 0.  0.
         21    1    1    2  503  501 -0.29892539665E+02 -0.10632906401E+02  0.17060222740E+03  0.17352735410E+03  0.00000000000E+00 0.  1.
         21    1    1    2  504  503 -0.43246362182E+02 -0.20925197455E+03  0.21986723427E+03  0.30659131984E+03  0.00000000000E+00 0.  1.
<mgrwt>
<rscale>  4 0.48235108E+03</rscale>
<asrwt>0</asrwt>
<pdfrwt beam="1">  1       21 0.10386856E+00 0.48235108E+03</pdfrwt>
<pdfrwt beam="2">  1       21 0.18012529E-01 0.48235108E+03</pdfrwt>
<totfact> 0.18765447E+04</totfact>
</mgrwt>
</event>
<event>
 5    0  0.2720079E+000  0.5104049E+03  0.7546771E-02  0.1011098E+00
         21   -1    0    0  504  501  0.00000000000E+00  0.00000000000E+00  0.30997372004E+03  0.30997372004E+03  0.00000000000E+00 0. -1.
         21   -1    0    0  501  502 -0.00000000000E+00 -0.00000000000E+00 -0.77123893081E+03  0.77123893081E+03  0.00000000000E+00 0. -1.
         25    1    1    2    0    0 -0.19834752946E+03  0.10277914456E+03 -0.42888613812E+03  0.49947333709E+03  0.12500000000E+03 0.  0.
         21    1    1    2  503  502  0.20860739033E+03 -0.12960352874E+03 -0.25689148515E+03  0.35539745793E+03  0.00000000000E+00 0. -1.
         21    1    1    2  504  503 -0.10259860864E+02  0.26824384186E+02  0.22451241249E+03  0.22634185582E+03  0.00000000000E+00 0. -1.
<mgrwt>
<rscale>  4 0.51040487E+03</rscale>
<asrwt>0</asrwt>
<pdfrwt beam="1">  1       21 0.47688265E-01 0.51040487E+03</pdfrwt>
<pdfrwt beam="2">  1       21 0.11865214E+00 0.51040487E+03</pdfrwt>
<totfact> 0.19223980E+03</totfact>
</mgrwt>
</event>
<event>
 5    0  0.2720079E+000  0.8096706E+03  0.7546771E-02  0.9546124E-01
         21   -1    0    0  503  501  0.00000000000E+00  0.00000000000E+00  0.35614075127E+03  0.35614075127E+03  0.00000000000E+00 0. -1.
         21   -1    0    0  504  502 -0.00000000000E+00 -0.00000000000E+00 -0.74264895428E+03  0.74264895428E+03  0.00000000000E+00 0.  1.
         25    1    1    2    0    0 -0.10313788767E+03  0.34855891307E+03 -0.47672175577E+03  0.61238825281E+03  0.12500000000E+03 0.  0.
         21    1    1    2  503  502 -0.85102167585E+02 -0.73077592574E+02  0.10330092688E+03  0.15249195047E+03  0.00000000000E+00 0. -1.
         21    1    1    2  504  501  0.18824005525E+03 -0.27548132050E+03 -0.13087374121E+02  0.33390950227E+03  0.00000000000E+00 0. -1.
<mgrwt>
<rscale>  4 0.80967059E+03</rscale>
<asrwt>0</asrwt>
<pdfrwt beam="1">  1       21 0.54790886E-01 0.80967059E+03</pdfrwt>
<pdfrwt beam="2">  1       21 0.11425368E+00 0.80967059E+03</pdfrwt>
<totfact> 0.14505654E+03</totfact>
</mgrwt>
</event>
<event>
 5    0  0.2720079E+000  0.6073385E+03  0.7546771E-02  0.9890297E-01
         21   -1    0    0  503  501  0.00000000000E+00  0.00000000000E+00  0.33124267754E+03  0.33124267754E+03  0.00000000000E+00 0.  1.
         21   -1    0    0  504  502 -0.00000000000E+00 -0.00000000000E+00 -0.45093427901E+03  0.45093427901E+03  0.00000000000E+00 0. -1.
         25    1    1    2    0    0  0.81445434305E+02  0.19440644574E+03  0.10670805163E+03  0.26728043923E+03  0.12500000000E+03 0.  0.
         21    1    1    2  503  502  0.12285203718E+02 -0.51179269975E+02  0.11860734162E+03  0.12976110894E+03  0.00000000000E+00 0.  1.
         21    1    1    2  504  501 -0.93730638023E+02 -0.14322717576E+03 -0.34500699473E+03  0.38513540838E+03  0.00000000000E+00 0. -1.
<mgrwt>
<rscale>  4 0.60733850E+03</rscale>
<asrwt>0</asrwt>
<pdfrwt beam="1">  1       21 0.50960412E-01 0.60733850E+03</pdfrwt>
<pdfrwt beam="2">  1       21 0.69374504E-01 0.60733850E+03</pdfrwt>
<totfact> 0.58600536E+03</totfact>
</mgrwt>
</event>
<event>
 5    0  0.2720079E+000  0.4361694E+03  0.7546771E-02  0.1031929E+00
         21   -1    0    0  503  501  0.00000000000E+00  0.00000000000E+00  0.15389481747E+04  0.15389481747E+04  0.00000000000E+00 0.  1.
         21   -1    0    0  504  502 -0.00000000000E+00 -0.00000000000E+00 -0.41877093363E+03  0.41877093363E+03  0.00000000000E+00 0. -1.
         25    1    1    2    0    0 -0.22583833488E+03  0.91594100140E+02 -0.12448496945E+03  0.30085534780E+03  0.12500000000E+03 0.  0.
         21    1    1    2  503  502  0.90848434638E+02 -0.37625047826E+02  0.14232171360E+04  0.14266100022E+04  0.00000000000E+00 0.  1.
         21    1    1    2  504  501  0.13498990024E+03 -0.53969052314E+02 -0.17855492549E+03  0.23025375826E+03  0.00000000000E+00 0. -1.
<mgrwt>
<rscale>  4 0.43616935E+03</rscale>
<asrwt>0</asrwt>
<pdfrwt beam="1">  1       21 0.23676126E+00 0.43616935E+03</pdfrwt>
<pdfrwt beam="2">  1       21 0.64426298E-01 0.43616935E+03</pdfrwt>
<totfact> 0.14166915E+02</totfact>
</mgrwt>
</event>
<event>
 5    0  0.2720079E+000  0.6964601E+03  0.7546771E-02  0.9723305E-01
         21   -1    0    0  504  501  0.00000000000E+00  0.00000000000E+00  0.11597920861E+04  0.11597920861E+04  0.00000000000E+00 0. -1.
         21   -1    0    0  501  502 -0.00000000000E+00 -0.00000000000E+00 -0.80979181172E+03  0.80979181172E+03  0.00000000000E+00 0.  1.
         25    1    1    2    0    0 -0.23756363984E+03 -0.21087867302E+02 -0.60976772007E+03  0.66657546726E+03  0.12500000000E+03 0.  0.
         21    1    1    2  503  502  0.28117152454E+03  0.62612540944E+02 -0.49212972724E+02  0.29223222475E+03  0.00000000000E+00 0. -1.
         21    1    1    2  504  503 -0.43607884704E+02 -0.41524673642E+02  0.10089809671E+04  0.10107762058E+04  0.00000000000E+00 0. -1.
<mgrwt>
<rscale>  4 0.69646008E+03</rscale>
<asrwt>0</asrwt>
<pdfrwt beam="1">  1       21 0.17842955E+00 0.69646008E+03</pdfrwt>
<pdfrwt beam="2">  1       21 0.12458336E+00 0.69646008E+03</pdfrwt>
<totfact> 0.63471564E+01</totfact>
</mgrwt>
</event>
<event>
 5    0  0.2720079E+000  0.4005780E+03  0.7546771E-02  0.1043580E+00
         21   -1    0    0  503  501  0.00000000000E+00  0.00000000000E+00  0.41911204217E+03  0.41911204217E+03  0.00000000000E+00 0.  1.
         21   -1    0    0  504  502 -0.00000000000E+00 -0.00000000000E+00 -0.79942436134E+03  0.79942436134E+03  0.00000000000E+00 0.  1.
         25    1    1    2    0    0  0.20402189317E+03 -0.39199523752E+02 -0.59639108905E+03  0.64379256492E+03  0.12500000000E+03 0.  0.
         21    1    1    2  503  502 -0.86130011429E+02 -0.29701456038E+02  0.36294523934E+03  0.37420556132E+03  0.00000000000E+00 0.  1.
         21    1    1    2  504  501 -0.11789188174E+03  0.68900979790E+02 -0.14686646947E+03  0.20053827727E+03  0.00000000000E+00 0.  1.
<mgrwt>
<rscale>  4 0.40057805E+03</rscale>
<asrwt>0</asrwt>
<pdfrwt beam="1">  1       21 0.64478777E-01 0.40057805E+03</pdfrwt>
<pdfrwt beam="2">  1       21 0.12298836E+00 0.40057805E+03</pdfrwt>
<totfact> 0.95430127E+02</totfact>
</mgrwt>
</event>
<event>
 5    0  0.2720079E+000  0.4322242E+03  0.7546771E-02  0.1033160E+00
         21   -1    0    0  502  501  0.00000000000E+00  0.00000000000E+00  0.81263483524E+03  0.81263483524E+03  0.00000000000E+00 0.  1.
         21   -1    0    0  503  502 -0.00000000000E+00 -0.00000000000E+00 -0.10200885739E+03  0.10200885739E+03  0.00000000000E+00 0.  1.
         25    1    1    2    0    0  0.17867471442E+03  0.17750309944E+03  0.37345452158E+03  0.46746687965E+03  0.12500000000E+03 0.  0.
         21    1    1    2  503  504 -0.11882003662E+03 -0.65166806364E+02  0.72975538051E+02  0.15391667521E+03  0.00000000000E+00 0.  1.
         21    1    1    2  504  501 -0.59854677794E+02 -0.11233629307E+03  0.26419591822E+03  0.29326013776E+03  0.00000000000E+00 0.  1.
<mgrwt>
<rscale>  4 0.43222416E+03</rscale>
<asrwt>0</asrwt>
<pdfrwt beam="1">  1       21 0.12502074E+00 0.43222416E+03</pdfrwt>
<pdfrwt beam="2">  1       21 0.15693671E-01 0.43222416E+03</pdfrwt>
<totfact> 0.15478527E+04</totfact>
</mgrwt>
</event>
<event>
 5    0  0.2720079E+000  0.4559617E+03  0.7546771E-02  0.1025959E+00
         21   -1    0    0  502  501  0.00000000000E+00  0.00000000000E+00  0.12142769698E+04  0.12142769698E+04  0.00000000000E+00 0. -1.
         21   -1    0    0  503  502 -0.00000000000E+00 -0.00000000000E+00 -0.16624291100E+03  0.16624291100E+03  0.00000000000E+00 0. -1.
         25    1    1    2    0    0 -0.17235237350E+03 -0.14633064354E+03  0.25065338923E+03  0.35995849681E+03  0.12500000000E+03 0.  0.
         21    1    1    2  503  504  0.79181257261E+02  0.38978412570E+02 -0.87534031450E+02  0.12430283508E+03  0.00000000000E+00 0. -1.
         21    1    1    2  504  501  0.93171116242E+02  0.10735223097E+03  0.88491470106E+03  0.89625854894E+03  0.00000000000E+00 0. -1.
<mgrwt>
<rscale>  4 0.45596174E+03</rscale>
<asrwt>0</asrwt>
<pdfrwt beam="1">  1       21 0.18681184E+00 0.45596174E+03</pdfrwt>
<pdfrwt beam="2">  1       21 0.25575833E-01 0.45596174E+03</pdfrwt>
<totfact> 0.20104421E+03</totfact>
</mgrwt>
</event>
<event>
 5    0  0.2720079E+000  0.9091977E+03  0.7546771E-02  0.9414156E-01
         21   -1    0    0  504  501  0.00000000000E+00  0.00000000000E+00  0.10123747988E+04  0.10123747988E+04  0.00000000000E+00 0. -1.
         21   -1    0    0  503  502 -0.00000000000E+00 -0.00000000000E+00 -0.22559599922E+04  0.22559599922E+04  0.00000000000E+00 0. -1.
         25    1    1    2    0    0 -0.47083431689E+03 -0.21450977142E+03 -0.11317435058E+04  0.12506669256E+04  0.12500000000E+03 0.  0.
         21    1    1    2  503  501 -0.14507891123E+03 -0.34771975483E+03 -0.83358470821E+03  0.91477887172E+03  0.00000000000E+00 0.  1.
         21    1    1    2  504  502  0.61591322812E+03  0.56222952625E+03  0.72174302057E+03  0.11028889937E+04  0.00000000000E+00 0. -1.
<mgrwt>
<rscale>  4 0.90919773E+03</rscale>
<asrwt>0</asrwt>
<pdfrwt beam="1">  1       21 0.15574997E+00 0.90919773E+03</pdfrwt>
<pdfrwt beam="2">  1       21 0.34707076E+00 0.90919773E+03</pdfrwt>
<totfact> 0.26675238E+00</totfact>
</mgrwt>
</event>
<event>
 5    0  0.2720079E+000  0.8564680E+03  0.7546771E-02  0.9481697E-01
         21   -1    0    0  502  501  0.00000000000E+00  0.00000000000E+00  0.66045750265E+03  0.66045750265E+03  0.00000000000E+00 0.  1.
         21   -1    0    0  503  502 -0.00000000000E+00 -0.00000000000E+00 -0.33524333934E+03  0.33524333934E+03  0.00000000000E+00 0.  1.
         25    1    1    2    0    0  0.26205443497E+03 -0.30857491861E+03  0.99977693104E+02  0.43532923908E+03  0.12500000000E+03 0.  0.
         21    1    1    2  503  504 -0.26184769083E+03  0.34436486751E+03  0.11960183559E+03  0.44883847233E+03  0.00000000000E+00 0.  1.
         21    1    1    2  504  501 -0.20674413753E+00 -0.35789948899E+02  0.10563463461E+03  0.11153313057E+03  0.00000000000E+00 0.  1.
<mgrwt>
<rscale>  4 0.85646796E+03</rscale>
<asrwt>0</asrwt>
<pdfrwt beam="1">  1       21 0.10160885E+00 0.85646796E+03</pdfrwt>
<pdfrwt beam="2">  1       21 0.51575898E-01 0.85646796E+03</pdfrwt>
<totfact> 0.22008563E+03</totfact>
</mgrwt>
</event>
<event>
 5    0  0.3103916E+000  0.4185231E+03  0.7546771E-02  0.1037548E+00
         21   -1    0    0  503  501  0.00000000000E+00  0.00000000000E+00  0.81054673281E+02  0.81054673281E+02  0.00000000000E+00 0.  1.
         21   -1    0    0  504  502 -0.00000000000E+00 -0.00000000000E+00 -0.14697494409E+04  0.14697494409E+04  0.00000000000E+00 0.  1.
         25    1    1    2    0    0  0.20330966541E+03 -0.22731852802E+03 -0.93229944412E+03  0.98884568398E+03  0.12500000000E+03 0.  0.
         21    1    1    2  503  502 -0.17103939072E+03  0.14518105244E+03 -0.24139104969E+03  0.32954764456E+03  0.00000000000E+00 0.  1.
         21    1    1    2  504  501 -0.32270274684E+02  0.82137475588E+02 -0.21500427384E+03  0.23241078567E+03  0.00000000000E+00 0. -1.
<mgrwt>
<rscale>  4 0.41852305E+03</rscale>
<asrwt>0</asrwt>
<pdfrwt beam="1">  1       21 0.12469950E-01 0.41852305E+03</pdfrwt>
<pdfrwt beam="2">  1       21 0.22611530E+00 0.41852305E+03</pdfrwt>
<totfact> 0.43600097E+03</totfact>
</mgrwt>
</event>
<event>
 5    0  0.2720079E+000  0.5018734E+03  0.7546771E-02  0.1013291E+00
         21   -1    0    0  503  501  0.00000000000E+00  0.00000000000E+00  0.92123971089E+03  0.92123971089E+03  0.00000000000E+00 0.  1.
         21   -1    0    0  504  502 -0.00000000000E+00 -0.00000000000E+00 -0.10839412065E+03  0.10839412065E+03  0.00000000000E+00 0. -1.
         25    1    1    2    0    0 -0.89775763468E+02 -0.18620271761E+03  0.44793783132E+03  0.50892478863E+03  0.12500000000E+03 0.  0.
         21    1    1    2  503  502  0.65126625457E+02  0.16894192966E+03  0.28894964308E+02  0.18335149823E+03  0.00000000000E+00 0. -1.
         21    1    1    2  504  501  0.24649138011E+02  0.17260787954E+02  0.33601279462E+03  0.33735754468E+03  0.00000000000E+00 0.  1.
<mgrwt>
<rscale>  4 0.50187343E+03</rscale>
<asrwt>0</asrwt>
<pdfrwt beam="1">  1       21 0.14172918E+00 0.50187343E+03</pdfrwt>
<pdfrwt beam="2">  1       21 0.16676019E-01 0.50187343E+03</pdfrwt>
<totfact> 0.97486751E+03</totfact>
</mgrwt>
</event>
<event>
 5    0  0.2720079E+000  0.4887460E+03  0.7546771E-02  0.1016759E+00
         21   -1    0    0  502  501  0.00000000000E+00  0.00000000000E+00  0.17644256027E+03  0.17644256027E+03  0.00000000000E+00 0. -1.
         21   -1    0    0  504  502 -0.00000000000E+00 -0.00000000000E+00 -0.47476305051E+03  0.47476305051E+03  0.00000000000E+00 0. -1.
         25    1    1    2    0    0 -0.82296594506E+02  0.20018403783E+03 -0.19818710724E+02  0.25072726170E+03  0.12500000000E+03 0.  0.
         21    1    1    2  503  501  0.62555108245E+02 -0.43269481337E+02  0.45958030632E+01  0.76200465803E+02  0.00000000000E+00 0. -1.
         21    1    1    2  504  503  0.19741486261E+02 -0.15691455649E+03 -0.28309758257E+03  0.32427788327E+03  0.00000000000E+00 0. -1.
<mgrwt>
<rscale>  4 0.48874598E+03</rscale>
<asrwt>0</asrwt>
<pdfrwt beam="1">  1       21 0.27145009E-01 0.48874598E+03</pdfrwt>
<pdfrwt beam="2">  1       21 0.73040470E-01 0.48874598E+03</pdfrwt>
<totfact> 0.19521856E+04</totfact>
</mgrwt>
</event>
<event>
 5    0  0.2720079E+000  0.5322444E+03  0.7546771E-02  0.1005689E+00
         21   -1    0    0  503  501  0.00000000000E+00  0.00000000000E+00  0.27900987422E+03  0.27900987422E+03  0.00000000000E+00 0.  1.
         21   -1    0    0  504  502 -0.00000000000E+00 -0.00000000000E+00 -0.31758143348E+03  0.31758143348E+03  0.00000000000E+00 0.  1.
         25    1    1    2    0    0  0.27391066038E+01  0.23755701114E+03  0.20733223041E+02  0.26925026051E+03  0.12500000000E+03 0.  0.
         21    1    1    2  503  502  0.32763988212E+02  0.79838305753E+01  0.46655031806E+02  0.57566591588E+02  0.00000000000E+00 0.  1.
         21    1    1    2  504  501 -0.35503094815E+02 -0.24554084171E+03 -0.10595981412E+03  0.26977445561E+03  0.00000000000E+00 0.  1.
<mgrwt>
<rscale>  4 0.53224437E+03</rscale>
<asrwt>0</asrwt>
<pdfrwt beam="1">  1       21 0.42924596E-01 0.53224437E+03</pdfrwt>
<pdfrwt beam="2">  1       21 0.48858682E-01 0.53224437E+03</pdfrwt>
<totfact> 0.18490987E+04</totfact>
</mgrwt>
</event>
<event>
 5    0  0.2720079E+000  0.6318837E+03  0.7546771E-02  0.9841380E-01
         21   -1    0    0  504  501  0.00000000000E+00  0.00000000000E+00  0.20442603009E+03  0.20442603009E+03  0.00000000000E+00 0.  1.
         21   -1    0    0  501  502 -0.00000000000E+00 -0.00000000000E+00 -0.12516129638E+04  0.12516129638E+04  0.00000000000E+00 0.  1.
         25    1    1    2    0    0 -0.22592772711E+03 -0.21659068358E+03 -0.69553238288E+03  0.77288107606E+03  0.12500000000E+03 0.  0.
         21    1    1    2  503  502  0.20890791636E+03  0.20333077218E+03 -0.47533466084E+03  0.55761004315E+03  0.00000000000E+00 0.  1.
         21    1    1    2  504  503  0.17019810758E+02  0.13259911398E+02  0.12368011004E+03  0.12554787465E+03  0.00000000000E+00 0.  1.
<mgrwt>
<rscale>  4 0.63188368E+03</rscale>
<asrwt>0</asrwt>
<pdfrwt beam="1">  1       21 0.31450159E-01 0.63188368E+03</pdfrwt>
<pdfrwt beam="2">  1       21 0.19255584E+00 0.63188368E+03</pdfrwt>
<totfact> 0.11445101E+03</totfact>
</mgrwt>
</event>
<event>
 5    0  0.2720079E+000  0.4833087E+03  0.7546771E-02  0.1018230E+00
         21   -1    0    0  503  501  0.00000000000E+00  0.00000000000E+00  0.30889600507E+03  0.30889600507E+03  0.00000000000E+00 0.  1.
         21   -1    0    0  504  502 -0.00000000000E+00 -0.00000000000E+00 -0.36120282354E+03  0.36120282354E+03  0.00000000000E+00 0.  1.
         25    1    1    2    0    0  0.13136419653E+03 -0.15687064349E+03 -0.46503245765E+02  0.24423861854E+03  0.12500000000E+03 0.  0.
         21    1    1    2  503  502 -0.56748297374E+01 -0.40101629445E+02  0.14314564787E+03  0.14876498540E+03  0.00000000000E+00 0. -1.
         21    1    1    2  504  501 -0.12568936679E+03  0.19697227293E+03 -0.14894922057E+03  0.27709522467E+03  0.00000000000E+00 0.  1.
<mgrwt>
<rscale>  4 0.48330871E+03</rscale>
<asrwt>0</asrwt>
<pdfrwt beam="1">  1       21 0.47522463E-01 0.48330871E+03</pdfrwt>
<pdfrwt beam="2">  1       21 0.55569665E-01 0.48330871E+03</pdfrwt>
<totfact> 0.11462014E+04</totfact>
</mgrwt>
</event>
<event>
 5    0  0.2720079E+000  0.6059084E+03  0.7546771E-02  0.9893223E-01
         21   -1    0    0  502  501  0.00000000000E+00  0.00000000000E+00  0.14274060929E+04  0.14274060929E+04  0.00000000000E+00 0. -1.
         21   -1    0    0  504  502 -0.00000000000E+00 -0.00000000000E+00 -0.96717005485E+02  0.96717005485E+02  0.00000000000E+00 0.  1.
         25    1    1    2    0    0 -0.92268248578E+02  0.18117832459E+03  0.74014658242E+03  0.77767665419E+03  0.12500000000E+03 0.  0.
         21    1    1    2  503  501  0.65898789668E+02  0.11190756783E+03  0.32535318711E+03  0.35031507330E+03  0.00000000000E+00 0. -1.
         21    1    1    2  504  503  0.26369458910E+02 -0.29308589243E+03  0.26518931793E+03  0.39613137094E+03  0.00000000000E+00 0.  1.
<mgrwt>
<rscale>  4 0.60590841E+03</rscale>
<asrwt>0</asrwt>
<pdfrwt beam="1">  1       21 0.21960092E+00 0.60590841E+03</pdfrwt>
<pdfrwt beam="2">  1       21 0.14879540E-01 0.60590841E+03</pdfrwt>
<totfact> 0.32342009E+03</totfact>
</mgrwt>
</event>
<event>
 5    0  0.2720079E+000  0.6376724E+03  0.7546771E-02  0.9830190E-01
         21   -1    0    0  503  501  0.00000000000E+00  0.00000000000E+00  0.18202752461E+04  0.18202752461E+04  0.00000000000E+00 0. -1.
         21   -1    0    0  504  502 -0.00000000000E+00 -0.00000000000E+00 -0.10030733786E+03  0.10030733786E+03  0.00000000000E+00 0. -1.
         25    1    1    2    0    0  0.13185940129E+03  0.24781588999E+03  0.80855619365E+03  0.86497845946E+03  0.12500000000E+03 0.  0.
         21    1    1    2  503  502 -0.46679878995E+02 -0.33413570187E+02  0.79522741033E+03  0.79729675273E+03  0.00000000000E+00 0. -1.
         21    1    1    2  504  501 -0.85179522294E+02 -0.21440231980E+03  0.11618430426E+03  0.25830737177E+03  0.00000000000E+00 0. -1.
<mgrwt>
<rscale>  4 0.63767238E+03</rscale>
<asrwt>0</asrwt>
<pdfrwt beam="1">  1       21 0.28004232E+00 0.63767238E+03</pdfrwt>
<pdfrwt beam="2">  1       21 0.15431899E-01 0.63767238E+03</pdfrwt>
<totfact> 0.12521067E+03</totfact>
</mgrwt>
</event>
<event>
 5    0  0.2720079E+000  0.5275499E+03  0.7546771E-02  0.1006828E+00
         21   -1    0    0  503  501  0.00000000000E+00  0.00000000000E+00  0.61098902641E+02  0.61098902641E+02  0.00000000000E+00 0. -1.
         21   -1    0    0  504  502 -0.00000000000E+00 -0.00000000000E+00 -0.13103703496E+04  0.13103703496E+04  0.00000000000E+00 0. -1.
         25    1    1    2    0    0  0.24323909188E+03  0.80508112958E+02 -0.63809277107E+03  0.69888067405E+03  0.12500000000E+03 0.  0.
         21    1    1    2  503  502 -0.21713264223E+03 -0.10790650826E+03 -0.54118025081E+03  0.59301472386E+03  0.00000000000E+00 0. -1.
         21    1    1    2  504  501 -0.26106449654E+02  0.27398395304E+02 -0.69998425055E+02  0.79573854305E+02  0.00000000000E+00 0. -1.
<mgrwt>
<rscale>  4 0.52754986E+03</rscale>
<asrwt>0</asrwt>
<pdfrwt beam="1">  1       21 0.93998304E-02 0.52754986E+03</pdfrwt>
<pdfrwt beam="2">  1       21 0.20159546E+00 0.52754986E+03</pdfrwt>
<totfact> 0.10080899E+04</totfact>
</mgrwt>
</event>
<event>
 5    0  0.2720079E+000  0.4649147E+03  0.7546771E-02  0.1023365E+00
         21   -1    0    0  503  501  0.00000000000E+00  0.00000000000E+00  0.71791639671E+03  0.71791639671E+03  0.00000000000E+00 0. -1.
         21   -1    0    0  504  502 -0.00000000000E+00 -0.00000000000E+00 -0.11804973219E+03  0.11804973219E+03  0.00000000000E+00 0. -1.
         25    1    1    2    0    0  0.16293324147E+03 -0.13022099463E+03  0.29975132891E+03  0.38598006141E+03  0.12500000000E+03 0.  0.
         21    1    1    2  503  502 -0.18486207737E+02  0.12311242915E+02  0.25783738269E+03  0.25879223808E+03  0.00000000000E+00 0. -1.
         21    1    1    2  504  501 -0.14444703373E+03  0.11790975172E+03  0.42277952912E+02  0.19119382941E+03  0.00000000000E+00 0. -1.
<mgrwt>
<rscale>  4 0.46491469E+03</rscale>
<asrwt>0</asrwt>
<pdfrwt beam="1">  1       21 0.11044867E+00 0.46491469E+03</pdfrwt>
<pdfrwt beam="2">  1       21 0.18161498E-01 0.46491469E+03</pdfrwt>
<totfact> 0.15945614E+04</totfact>
</mgrwt>
</event>
<event>
 5    0  0.2720079E+000  0.6532504E+03  0.7546771E-02  0.9800699E-01
         21   -1    0    0  503  501  0.00000000000E+00  0.00000000000E+00  0.44547105569E+03  0.44547105569E+03  0.00000000000E+00 0. -1.
         21   -1    0    0  504  502 -0.00000000000E+00 -0.00000000000E+00 -0.34552056422E+03  0.34552056422E+03  0.00000000000E+00 0.  1.
         25    1    1    2    0    0  0.15582708042E+02 -0.20547013723E+03 -0.26580489801E+03  0.35880083875E+03  0.12500000000E+03 0.  0.
         21    1    1    2  503  502 -0.48429023232E+02  0.45763442214E+02  0.12019439704E+03  0.13742763919E+03  0.00000000000E+00 0. -1.
         21    1    1    2  504  501  0.32846315190E+02  0.15970669502E+03  0.24556099244E+03  0.29476314197E+03  0.00000000000E+00 0. -1.
<mgrwt>
<rscale>  4 0.65325038E+03</rscale>
<asrwt>0</asrwt>
<pdfrwt beam="1">  1       21 0.68534009E-01 0.65325038E+03</pdfrwt>
<pdfrwt beam="2">  1       21 0.53157010E-01 0.65325038E+03</pdfrwt>
<totfact> 0.54440448E+03</totfact>
</mgrwt>
</event>
<event>
 5    0  0.2720079E+000  0.5109402E+03  0.7546771E-02  0.1010962E+00
         21   -1    0    0  502  501  0.00000000000E+00  0.00000000000E+00  0.90978871804E+03  0.90978871804E+03  0.00000000000E+00 0.  1.
         21   -1    0    0  504  502 -0.00000000000E+00 -0.00000000000E+00 -0.63268186610E+03  0.63268186610E+03  0.00000000000E+00 0. -1.
         25    1    1    2    0    0  0.13441520203E+03  0.17509649342E+03 -0.48871448986E+03  0.55062971327E+03  0.12500000000E+03 0.  0.
         21    1    1    2  503  501 -0.69376827923E+01 -0.47696146365E+02  0.80579500313E+03  0.80723518314E+03  0.00000000000E+00 0.  1.
         21    1    1    2  504  503 -0.12747751924E+03 -0.12740034706E+03 -0.39973661337E+02  0.18460568773E+03  0.00000000000E+00 0. -1.
<mgrwt>
<rscale>  4 0.51094024E+03</rscale>
<asrwt>0</asrwt>
<pdfrwt beam="1">  1       21 0.13996750E+00 0.51094024E+03</pdfrwt>
<pdfrwt beam="2">  1       21 0.97335672E-01 0.51094024E+03</pdfrwt>
<totfact> 0.25036267E+02</totfact>
</mgrwt>
</event>
<event>
 5    0  0.2720079E+000  0.5268879E+03  0.7546771E-02  0.1006990E+00
         21   -1    0    0  504  501  0.00000000000E+00  0.00000000000E+00  0.49658909894E+03  0.49658909894E+03  0.00000000000E+00 0. -1.
         21   -1    0    0  503  502 -0.00000000000E+00 -0.00000000000E+00 -0.18522283882E+03  0.18522283882E+03  0.00000000000E+00 0. -1.
         25    1    1    2    0    0  0.41682378502E+02 -0.23049167586E+03  0.53539216827E+02  0.27084180079E+03  0.12500000000E+03 0.  0.
         21    1    1    2  503  501 -0.67803142323E+02  0.24502587982E+03  0.14169763926E+03  0.29105526771E+03  0.00000000000E+00 0. -1.
         21    1    1    2  504  502  0.26120763821E+02 -0.14534203963E+02  0.11612940403E+03  0.11991486925E+03  0.00000000000E+00 0. -1.
<mgrwt>
<rscale>  4 0.52688793E+03</rscale>
<asrwt>0</asrwt>
<pdfrwt beam="1">  1       21 0.76398323E-01 0.52688793E+03</pdfrwt>
<pdfrwt beam="2">  1       21 0.28495821E-01 0.52688793E+03</pdfrwt>
<totfact> 0.15861455E+04</totfact>
</mgrwt>
</event>
<event>
 5    0  0.2720079E+000  0.4430154E+03  0.7546771E-02  0.1029826E+00
         21   -1    0    0  504  501  0.00000000000E+00  0.00000000000E+00  0.19599009316E+03  0.19599009316E+03  0.00000000000E+00 0. -1.
         21   -1    0    0  501  502 -0.00000000000E+00 -0.00000000000E+00 -0.37494750027E+03  0.37494750027E+03  0.00000000000E+00 0. -1.
         25    1    1    2    0    0 -0.97459680547E+02  0.18871360308E+03 -0.19250466943E+03  0.31272073976E+03  0.12500000000E+03 0.  0.
         21    1    1    2  503  502  0.97461478874E+02 -0.15705826208E+03 -0.46266543478E+02  0.19054298884E+03  0.00000000000E+00 0. -1.
         21    1    1    2  504  503 -0.17983268694E-02 -0.31655341005E+02  0.59813805798E+02  0.67673864833E+02  0.00000000000E+00 0. -1.
<mgrwt>
<rscale>  4 0.44301545E+03</rscale>
<asrwt>0</asrwt>
<pdfrwt beam="1">  1       21 0.30152322E-01 0.44301545E+03</pdfrwt>
<pdfrwt beam="2">  1       21 0.57684231E-01 0.44301545E+03</pdfrwt>
<totfact> 0.27111608E+04</totfact>
</mgrwt>
</event>
<event>
 5    0  0.2720079E+000  0.4087320E+03  0.7546771E-02  0.1040797E+00
         21   -1    0    0  502  501  0.00000000000E+00  0.00000000000E+00  0.60850706856E+03  0.60850706856E+03  0.00000000000E+00 0. -1.
         21   -1    0    0  504  502 -0.00000000000E+00 -0.00000000000E+00 -0.90382909713E+02  0.90382909713E+02  0.00000000000E+00 0. -1.
         25    1    1    2    0    0 -0.67245631495E+02  0.19673267782E+03  0.23629034532E+03  0.33865003879E+03  0.12500000000E+03 0.  0.
         21    1    1    2  503  501 -0.11613833176E+02 -0.50646126837E+02  0.10810807889E+03  0.11994693829E+03  0.00000000000E+00 0. -1.
         21    1    1    2  504  503  0.78859464672E+02 -0.14608655099E+03  0.17372573463E+03  0.24029300119E+03  0.00000000000E+00 0. -1.
<mgrwt>
<rscale>  4 0.40873201E+03</rscale>
<asrwt>0</asrwt>
<pdfrwt beam="1">  1       21 0.93616470E-01 0.40873201E+03</pdfrwt>
<pdfrwt beam="2">  1       21 0.13905063E-01 0.40873201E+03</pdfrwt>
<totfact> 0.39833579E+04</totfact>
</mgrwt>
</event>
<event>
 5    0  0.2720079E+000  0.8197396E+03  0.7546771E-02  0.9531876E-01
         21   -1    0    0  504  501  0.00000000000E+00  0.00000000000E+00  0.70155262133E+03  0.70155262133E+03  0.00000000000E+00 0.  1.
         21   -1    0    0  501  502 -0.00000000000E+00 -0.00000000000E+00 -0.45220018426E+03  0.45220018426E+03  0.00000000000E+00 0.  1.
         25    1    1    2    0    0  0.50292566645E+02 -0.36565860840E+03 -0.18445162063E+03  0.43114146229E+03  0.12500000000E+03 0.  0.
         21    1    1    2  503  502 -0.28117845776E+02  0.37722962311E+03  0.10461797738E+03  0.39247639801E+03  0.00000000000E+00 0.  1.
         21    1    1    2  504  503 -0.22174720870E+02 -0.11571014710E+02  0.32918608031E+03  0.33013494529E+03  0.00000000000E+00 0.  1.
<mgrwt>
<rscale>  4 0.81973957E+03</rscale>
<asrwt>0</asrwt>
<pdfrwt beam="1">  1       21 0.10793117E+00 0.81973957E+03</pdfrwt>
<pdfrwt beam="2">  1       21 0.69569259E-01 0.81973957E+03</pdfrwt>
<totfact> 0.98091999E+02</totfact>
</mgrwt>
</event>
<event>
 5    0  0.2720079E+000  0.6373921E+03  0.7546771E-02  0.9830729E-01
         21   -1    0    0  504  501  0.00000000000E+00  0.00000000000E+00  0.14736815214E+03  0.14736815214E+03  0.00000000000E+00 0.  1.
         21   -1    0    0  503  502 -0.00000000000E+00 -0.00000000000E+00 -0.12709748505E+04  0.12709748505E+04  0.00000000000E+00 0.  1.
         25    1    1    2    0    0  0.20923332102E+03  0.11183592867E+03 -0.22632121909E+03  0.35090191190E+03  0.12500000000E+03 0.  0.
         21    1    1    2  503  501 -0.22219297022E+03 -0.14371481077E+03 -0.96005572146E+03  0.99585674228E+03  0.00000000000E+00 0. -1.
         21    1    1    2  504  502  0.12959649202E+02  0.31878882103E+02  0.62770242221E+02  0.71584348429E+02  0.00000000000E+00 0.  1.
<mgrwt>
<rscale>  4 0.63739205E+03</rscale>
<asrwt>0</asrwt>
<pdfrwt beam="1">  1       21 0.22672023E-01 0.63739205E+03</pdfrwt>
<pdfrwt beam="2">  1       21 0.19553460E+00 0.63739205E+03</pdfrwt>
<totfact> 0.20801795E+03</totfact>
</mgrwt>
</event>
<event>
 5    0  0.2720079E+000  0.5835801E+03  0.7546771E-02  0.9940070E-01
         21   -1    0    0  502  501  0.00000000000E+00  0.00000000000E+00  0.18397245781E+03  0.18397245781E+03  0.00000000000E+00 0.  1.
         21   -1    0    0  503  502 -0.00000000000E+00 -0.00000000000E+00 -0.62433961757E+03  0.62433961757E+03  0.00000000000E+00 0.  1.
         25    1    1    2    0    0  0.16554040235E+03 -0.19635473694E+03 -0.11299914328E+03  0.30716870594E+03  0.12500000000E+03 0.  0.
         21    1    1    2  503  504 -0.18007071390E+03  0.18199884936E+03 -0.37227107515E+03  0.45181278929E+03  0.00000000000E+00 0.  1.
         21    1    1    2  504  501  0.14530311554E+02  0.14355887581E+02  0.44903058663E+02  0.49330580165E+02  0.00000000000E+00 0.  1.
<mgrwt>
<rscale>  4 0.58358009E+03</rscale>
<asrwt>0</asrwt>
<pdfrwt beam="1">  1       21 0.28303455E-01 0.58358009E+03</pdfrwt>
<pdfrwt beam="2">  1       21 0.96052250E-01 0.58358009E+03</pdfrwt>
<totfact> 0.92510554E+03</totfact>
</mgrwt>
</event>
<event>
 5    0  0.2720079E+000  0.4632507E+03  0.7546771E-02  0.1023843E+00
         21   -1    0    0  502  501  0.00000000000E+00  0.00000000000E+00  0.44206355624E+03  0.44206355624E+03  0.00000000000E+00 0. -1.
         21   -1    0    0  503  502 -0.00000000000E+00 -0.00000000000E+00 -0.20413790484E+03  0.20413790484E+03  0.00000000000E+00 0. -1.
         25    1    1    2    0    0 -0.18299387064E+03 -0.86130611576E+02  0.20688016904E+02  0.23865924031E+03  0.12500000000E+03 0.  0.
         21    1    1    2  503  504  0.21079019182E+03  0.78667722690E+02  0.40661730794E+02  0.22863615617E+03  0.00000000000E+00 0. -1.
         21    1    1    2  504  501 -0.27796321175E+02  0.74628888853E+01  0.17657590370E+03  0.17890606460E+03  0.00000000000E+00 0. -1.
<mgrwt>
<rscale>  4 0.46325068E+03</rscale>
<asrwt>0</asrwt>
<pdfrwt beam="1">  1       21 0.68009778E-01 0.46325068E+03</pdfrwt>
<pdfrwt beam="2">  1       21 0.31405832E-01 0.46325068E+03</pdfrwt>
<totfact> 0.17286516E+04</totfact>
</mgrwt>
</event>
<event>
 5    0  0.2720079E+000  0.7423027E+03  0.7546771E-02  0.9647504E-01
         21   -1    0    0  504  501  0.00000000000E+00  0.00000000000E+00  0.23642410580E+03  0.23642410580E+03  0.00000000000E+00 0.  1.
         21   -1    0    0  503  502 -0.00000000000E+00 -0.00000000000E+00 -0.10352088603E+04  0.10352088603E+04  0.00000000000E+00 0.  1.
         25    1    1    2    0    0  0.15178425794E+03  0.32031632940E+03 -0.65136229551E+03  0.75202317242E+03  0.12500000000E+03 0.  0.
         21    1    1    2  503  501 -0.13286673591E+03 -0.30411066937E+03 -0.24908115657E+03  0.41494372064E+03  0.00000000000E+00 0.  1.
         21    1    1    2  504  502 -0.18917522034E+02 -0.16205660030E+02  0.10165869758E+03  0.10466607306E+03  0.00000000000E+00 0.  1.
<mgrwt>
<rscale>  4 0.74230271E+03</rscale>
<asrwt>0</asrwt>
<pdfrwt beam="1">  1       21 0.36372939E-01 0.74230271E+03</pdfrwt>
<pdfrwt beam="2">  1       21 0.15926290E+00 0.74230271E+03</pdfrwt>
<totfact> 0.14420513E+03</totfact>
</mgrwt>
</event>
<event>
 5    0  0.2720079E+000  0.5442134E+03  0.7546771E-02  0.1002842E+00
         21   -1    0    0  503  501  0.00000000000E+00  0.00000000000E+00  0.22370786346E+04  0.22370786346E+04  0.00000000000E+00 0. -1.
         21   -1    0    0  504  502 -0.00000000000E+00 -0.00000000000E+00 -0.64394713523E+02  0.64394713523E+02  0.00000000000E+00 0.  1.
         25    1    1    2    0    0  0.20756607676E+03  0.41130882156E+01  0.23302283668E+03  0.33619226066E+03  0.12500000000E+03 0.  0.
         21    1    1    2  503  502 -0.20819786979E+03 -0.26370454610E+02  0.85455553581E+03  0.87994711071E+03  0.00000000000E+00 0. -1.
         21    1    1    2  504  501  0.63179303779E+00  0.22257366394E+02  0.10851055486E+04  0.10853339768E+04  0.00000000000E+00 0. -1.
<mgrwt>
<rscale>  4 0.54421343E+03</rscale>
<asrwt>0</asrwt>
<pdfrwt beam="1">  1       21 0.34416588E+00 0.54421343E+03</pdfrwt>
<pdfrwt beam="2">  1       21 0.99068807E-02 0.54421343E+03</pdfrwt>
<totfact> 0.11903656E+03</totfact>
</mgrwt>
</event>
<event>
 5    0  0.2720079E+000  0.4641984E+03  0.7546771E-02  0.1023571E+00
         21   -1    0    0  504  501  0.00000000000E+00  0.00000000000E+00  0.18081477196E+04  0.18081477196E+04  0.00000000000E+00 0. -1.
         21   -1    0    0  503  502 -0.00000000000E+00 -0.00000000000E+00 -0.32040467740E+03  0.32040467740E+03  0.00000000000E+00 0.  1.
         25    1    1    2    0    0 -0.19274852791E+03 -0.12744733997E+03 -0.34071466316E+02  0.26491637227E+03  0.12500000000E+03 0.  0.
         21    1    1    2  503  501  0.15176630425E+03  0.11420487250E+03 -0.11777063478E+03  0.22348531590E+03  0.00000000000E+00 0.  1.
         21    1    1    2  504  502  0.40982223666E+02  0.13242467477E+02  0.16395851433E+04  0.16401507088E+04  0.00000000000E+00 0. -1.
<mgrwt>
<rscale>  4 0.46419843E+03</rscale>
<asrwt>0</asrwt>
<pdfrwt beam="1">  1       21 0.27817657E+00 0.46419843E+03</pdfrwt>
<pdfrwt beam="2">  1       21 0.49293028E-01 0.46419843E+03</pdfrwt>
<totfact> 0.13901776E+02</totfact>
</mgrwt>
</event>
<event>
 5    0  0.2720079E+000  0.3915307E+03  0.7546771E-02  0.1046752E+00
         21   -1    0    0  503  501  0.00000000000E+00  0.00000000000E+00  0.74217602541E+03  0.74217602541E+03  0.00000000000E+00 0.  1.
         21   -1    0    0  504  502 -0.00000000000E+00 -0.00000000000E+00 -0.26109931461E+03  0.26109931461E+03  0.00000000000E+00 0.  1.
         25    1    1    2    0    0  0.21905046822E+03 -0.89386321224E+02 -0.72320345876E+02  0.27717910180E+03  0.12500000000E+03 0.  0.
         21    1    1    2  503  502 -0.10520220301E+03  0.40367663844E+02  0.58696154881E+03  0.59767960614E+03  0.00000000000E+00 0.  1.
         21    1    1    2  504  501 -0.11384826521E+03  0.49018657380E+02 -0.33564492148E+02  0.12841663208E+03  0.00000000000E+00 0.  1.
<mgrwt>
<rscale>  4 0.39153071E+03</rscale>
<asrwt>0</asrwt>
<pdfrwt beam="1">  1       21 0.11418093E+00 0.39153071E+03</pdfrwt>
<pdfrwt beam="2">  1       21 0.40169126E-01 0.39153071E+03</pdfrwt>
<totfact> 0.31656660E+03</totfact>
</mgrwt>
</event>
<event>
 5    0  0.2720079E+000  0.4824778E+03  0.7546771E-02  0.1018456E+00
         21   -1    0    0  503  501  0.00000000000E+00  0.00000000000E+00  0.12522339887E+04  0.12522339887E+04  0.00000000000E+00 0.  1.
         21   -1    0    0  504  502 -0.00000000000E+00 -0.00000000000E+00 -0.12663178180E+03  0.12663178180E+03  0.00000000000E+00 0. -1.
         25    1    1    2    0    0  0.16145785422E+03 -0.12925302797E+03  0.23725818876E+02  0.24282277160E+03  0.12500000000E+03 0.  0.
         21    1    1    2  503  502 -0.12150362735E+03  0.78082990956E+02  0.31545632560E+03  0.34694780342E+03  0.00000000000E+00 0.  1.
         21    1    1    2  504  501 -0.39954226865E+02  0.51170037018E+02  0.78642006245E+03  0.78909519549E+03  0.00000000000E+00 0.  1.
<mgrwt>
<rscale>  4 0.48247778E+03</rscale>
<asrwt>0</asrwt>
<pdfrwt beam="1">  1       21 0.19265137E+00 0.48247778E+03</pdfrwt>
<pdfrwt beam="2">  1       21 0.19481813E-01 0.48247778E+03</pdfrwt>
<totfact> 0.30642454E+03</totfact>
</mgrwt>
</event>
<event>
 5    0  0.2720079E+000  0.1065327E+04  0.7546771E-02  0.9239662E-01
         21   -1    0    0  502  501  0.00000000000E+00  0.00000000000E+00  0.12383620243E+04  0.12383620243E+04  0.00000000000E+00 0. -1.
         21   -1    0    0  503  502 -0.00000000000E+00 -0.00000000000E+00 -0.58898576700E+03  0.58898576700E+03  0.00000000000E+00 0.  1.
         25    1    1    2    0    0 -0.25455698891E+01  0.28623913199E+03 -0.51641608794E+03  0.60353118933E+03  0.12500000000E+03 0.  0.
         21    1    1    2  503  504  0.31751323645E+02 -0.21599201352E+03  0.41264576202E+03  0.46683746783E+03  0.00000000000E+00 0. -1.
         21    1    1    2  504  501 -0.29205753756E+02 -0.70247118469E+02  0.75314658322E+03  0.75697913414E+03  0.00000000000E+00 0. -1.
<mgrwt>
<rscale>  4 0.10653266E+04</rscale>
<asrwt>0</asrwt>
<pdfrwt beam="1">  1       21 0.19051723E+00 0.10653266E+04</pdfrwt>
<pdfrwt beam="2">  1       21 0.90613195E-01 0.10653266E+04</pdfrwt>
<totfact> 0.10427277E+02</totfact>
</mgrwt>
</event>
<event>
 5    0  0.2720079E+000  0.8470384E+03  0.7546771E-02  0.9494321E-01
         21   -1    0    0  503  501  0.00000000000E+00  0.00000000000E+00  0.37114692675E+03  0.37114692675E+03  0.00000000000E+00 0. -1.
         21   -1    0    0  504  502 -0.00000000000E+00 -0.00000000000E+00 -0.97738662844E+03  0.97738662844E+03  0.00000000000E+00 0.  1.
         25    1    1    2    0    0 -0.14078755727E+03 -0.28316439377E+03 -0.79685965832E+03  0.86637955034E+03  0.12500000000E+03 0.  0.
         21    1    1    2  503  502  0.12894963806E+03  0.26416600557E+03  0.37851496063E+01  0.29398301824E+03  0.00000000000E+00 0. -1.
         21    1    1    2  504  501  0.11837919208E+02  0.18998388196E+02  0.18683480703E+03  0.18817098662E+03  0.00000000000E+00 0. -1.
<mgrwt>
<rscale>  4 0.84703844E+03</rscale>
<asrwt>0</asrwt>
<pdfrwt beam="1">  1       21 0.57099528E-01 0.84703844E+03</pdfrwt>
<pdfrwt beam="2">  1       21 0.15036717E+00 0.84703844E+03</pdfrwt>
<totfact> 0.63404987E+02</totfact>
</mgrwt>
</event>
<event>
 5    0  0.2720079E+000  0.7064792E+03  0.7546771E-02  0.9706216E-01
         21   -1    0    0  503  501  0.00000000000E+00  0.00000000000E+00  0.12288599756E+03  0.12288599756E+03  0.00000000000E+00 0.  1.
         21   -1    0    0  504  502 -0.00000000000E+00 -0.00000000000E+00 -0.24415675834E+04  0.24415675834E+04  0.00000000000E+00 0.  1.
         25    1    1    2    0    0 -0.16691139826E+03 -0.19617938932E+03 -0.45995711403E+03  0.54178530287E+03  0.12500000000E+03 0.  0.
         21    1    1    2  503  502  0.17779348498E+03  0.21855888082E+03 -0.19283013158E+04  0.19487751210E+04  0.00000000000E+00 0.  1.
         21    1    1    2  504  501 -0.10882086715E+02 -0.22379491498E+02  0.69576843972E+02  0.73893157113E+02  0.00000000000E+00 0.  1.
<mgrwt>
<rscale>  4 0.70647923E+03</rscale>
<asrwt>0</asrwt>
<pdfrwt beam="1">  1       21 0.18905538E-01 0.70647923E+03</pdfrwt>
<pdfrwt beam="2">  1       21 0.37562578E+00 0.70647923E+03</pdfrwt>
<totfact> 0.21302826E+02</totfact>
</mgrwt>
</event>
<event>
 5    0  0.2720079E+000  0.6312990E+03  0.7546771E-02  0.9842517E-01
         21   -1    0    0  503  501  0.00000000000E+00  0.00000000000E+00  0.22236622564E+04  0.22236622564E+04  0.00000000000E+00 0.  1.
         21   -1    0    0  504  502 -0.00000000000E+00 -0.00000000000E+00 -0.65260650434E+02  0.65260650434E+02  0.00000000000E+00 0. -1.
         25    1    1    2    0    0 -0.19374727929E+03 -0.19222008437E+03  0.11722566670E+04  0.12100815107E+04  0.12500000000E+03 0.  0.
         21    1    1    2  503  502  0.14738074723E+02  0.16978505830E+02  0.69248166177E+03  0.69284654318E+03  0.00000000000E+00 0.  1.
         21    1    1    2  504  501  0.17900920457E+03  0.17524157854E+03  0.29366327714E+03  0.38599485296E+03  0.00000000000E+00 0. -1.
<mgrwt>
<rscale>  4 0.63129904E+03</rscale>
<asrwt>0</asrwt>
<pdfrwt beam="1">  1       21 0.34210183E+00 0.63129904E+03</pdfrwt>
<pdfrwt beam="2">  1       21 0.10040102E-01 0.63129904E+03</pdfrwt>
<totfact> 0.11536748E+03</totfact>
</mgrwt>
</event>
<event>
 5    0  0.2720079E+000  0.5325742E+03  0.7546771E-02  0.1005610E+00
         21   -1    0    0  504  501  0.00000000000E+00  0.00000000000E+00  0.11814261418E+03  0.11814261418E+03  0.00000000000E+00 0. -1.
         21   -1    0    0  503  502 -0.00000000000E+00 -0.00000000000E+00 -0.24214376948E+04  0.24214376948E+04  0.00000000000E+00 0. -1.
         25    1    1    2    0    0  0.16925298755E+03  0.18849810401E+03 -0.15814048506E+04  0.16064384242E+04  0.12500000000E+03 0.  0.
         21    1    1    2  503  501 -0.17737328428E+03 -0.15474629522E+03 -0.80731587264E+03  0.84093199254E+03  0.00000000000E+00 0. -1.
         21    1    1    2  504  502  0.81202967314E+01 -0.33751808792E+02  0.85425642640E+02  0.92209892290E+02  0.00000000000E+00 0. -1.
<mgrwt>
<rscale>  4 0.53257419E+03</rscale>
<asrwt>0</asrwt>
<pdfrwt beam="1">  1       21 0.18175788E-01 0.53257419E+03</pdfrwt>
<pdfrwt beam="2">  1       21 0.37252886E+00 0.53257419E+03</pdfrwt>
<totfact> 0.26016698E+02</totfact>
</mgrwt>
</event>
<event>
 5    0  0.2720079E+000  0.6485954E+03  0.7546771E-02  0.9809418E-01
         21   -1    0    0  503  501  0.00000000000E+00  0.00000000000E+00  0.14191584980E+04  0.14191584980E+04  0.00000000000E+00 0. -1.
         21   -1    0    0  504  502 -0.00000000000E+00 -0.00000000000E+00 -0.15735635347E+03  0.15735635347E+03  0.00000000000E+00 0. -1.
         25    1    1    2    0    0 -0.30786557315E+03 -0.85907935538E+02  0.26801349524E+03  0.43545105138E+03  0.12500000000E+03 0.  0.
         21    1    1    2  503  502  0.21228832816E+02 -0.19420272422E+02  0.74935864496E+03  0.74991078742E+03  0.00000000000E+00 0. -1.
         21    1    1    2  504  501  0.28663674033E+03  0.10532820796E+03  0.24443000436E+03  0.39115301269E+03  0.00000000000E+00 0. -1.
<mgrwt>
<rscale>  4 0.64859536E+03</rscale>
<asrwt>0</asrwt>
<pdfrwt beam="1">  1       21 0.21833207E+00 0.64859536E+03</pdfrwt>
<pdfrwt beam="2">  1       21 0.24208671E-01 0.64859536E+03</pdfrwt>
<totfact> 0.12859525E+03</totfact>
</mgrwt>
</event>
<event>
 5    0  0.2720079E+000  0.3956076E+03  0.7546771E-02  0.1045311E+00
         21   -1    0    0  502  501  0.00000000000E+00  0.00000000000E+00  0.10086979572E+04  0.10086979572E+04  0.00000000000E+00 0.  1.
         21   -1    0    0  503  502 -0.00000000000E+00 -0.00000000000E+00 -0.19797207556E+03  0.19797207556E+03  0.00000000000E+00 0.  1.
         25    1    1    2    0    0  0.66352118417E+02 -0.20493224147E+03 -0.90404616089E+02  0.26494871546E+03  0.12500000000E+03 0.  0.
         21    1    1    2  503  504 -0.65098798051E+02  0.17623733193E+02  0.11263558208E+03  0.13128299140E+03  0.00000000000E+00 0. -1.
         21    1    1    2  504  501 -0.12533203665E+01  0.18730850828E+03  0.78849491569E+03  0.81043832594E+03  0.00000000000E+00 0.  1.
<mgrwt>
<rscale>  4 0.39560757E+03</rscale>
<asrwt>0</asrwt>
<pdfrwt beam="1">  1       21 0.15518430E+00 0.39560757E+03</pdfrwt>
<pdfrwt beam="2">  1       21 0.30457243E-01 0.39560757E+03</pdfrwt>
<totfact> 0.24820790E+03</totfact>
</mgrwt>
</event>
<event>
 5    0  0.2720079E+000  0.6678585E+03  0.7546771E-02  0.9773834E-01
         21   -1    0    0  503  501  0.00000000000E+00  0.00000000000E+00  0.37475420622E+03  0.37475420622E+03  0.00000000000E+00 0. -1.
         21   -1    0    0  504  502 -0.00000000000E+00 -0.00000000000E+00 -0.49365046294E+03  0.49365046294E+03  0.00000000000E+00 0.  1.
         25    1    1    2    0    0  0.16420043331E+03  0.15973605876E+03  0.11358204188E+03  0.28461073592E+03  0.12500000000E+03 0.  0.
         21    1    1    2  503  502 -0.16145024577E+03 -0.13534470010E+03 -0.37986612438E+03  0.43437615284E+03  0.00000000000E+00 0.  1.
         21    1    1    2  504  501 -0.27501875388E+01 -0.24391358656E+02  0.14738782579E+03  0.14941778040E+03  0.00000000000E+00 0. -1.
<mgrwt>
<rscale>  4 0.66785847E+03</rscale>
<asrwt>0</asrwt>
<pdfrwt beam="1">  1       21 0.57654494E-01 0.66785847E+03</pdfrwt>
<pdfrwt beam="2">  1       21 0.75946224E-01 0.66785847E+03</pdfrwt>
<totfact> 0.35955887E+03</totfact>
</mgrwt>
</event>
<event>
 5    0  0.2720079E+000  0.6879603E+03  0.7546771E-02  0.9738046E-01
         21   -1    0    0  504  501  0.00000000000E+00  0.00000000000E+00  0.27453062793E+03  0.27453062793E+03  0.00000000000E+00 0.  1.
         21   -1    0    0  501  502 -0.00000000000E+00 -0.00000000000E+00 -0.79792467600E+03  0.79792467600E+03  0.00000000000E+00 0. -1.
         25    1    1    2    0    0 -0.38226921503E+03  0.94884960849E+02 -0.31670726486E+03  0.52063557329E+03  0.12500000000E+03 0.  0.
         21    1    1    2  503  502  0.24606527203E+03 -0.11369905281E+03 -0.28521666041E+03  0.39347698292E+03  0.00000000000E+00 0. -1.
         21    1    1    2  504  503  0.13620394300E+03  0.18814091965E+02  0.78529877205E+02  0.15834274773E+03  0.00000000000E+00 0.  1.
<mgrwt>
<rscale>  4 0.68796028E+03</rscale>
<asrwt>0</asrwt>
<pdfrwt beam="1">  1       21 0.42235482E-01 0.68796028E+03</pdfrwt>
<pdfrwt beam="2">  1       21 0.12275764E+00 0.68796028E+03</pdfrwt>
<totfact> 0.21633013E+03</totfact>
</mgrwt>
</event>
<event>
 5    0  0.2720079E+000  0.4363404E+03  0.7546771E-02  0.1031876E+00
         21   -1    0    0  504  501  0.00000000000E+00  0.00000000000E+00  0.24259593282E+03  0.24259593282E+03  0.00000000000E+00 0. -1.
         21   -1    0    0  501  502 -0.00000000000E+00 -0.00000000000E+00 -0.34942072522E+03  0.34942072522E+03  0.00000000000E+00 0.  1.
         25    1    1    2    0    0 -0.14110200531E+03  0.15408819982E+03 -0.18728365900E+03  0.30716952673E+03  0.12500000000E+03 0.  0.
         21    1    1    2  503  502  0.12883085208E+03 -0.11867346680E+03 -0.21258052318E+02  0.17644456625E+03  0.00000000000E+00 0. -1.
         21    1    1    2  504  503  0.12271153235E+02 -0.35414733018E+02  0.10171691892E+03  0.10840256505E+03  0.00000000000E+00 0. -1.
<mgrwt>
<rscale>  4 0.43634040E+03</rscale>
<asrwt>0</asrwt>
<pdfrwt beam="1">  1       21 0.37322451E-01 0.43634040E+03</pdfrwt>
<pdfrwt beam="2">  1       21 0.53757034E-01 0.43634040E+03</pdfrwt>
<totfact> 0.20589598E+04</totfact>
</mgrwt>
</event>
<event>
 5    0  0.2720079E+000  0.6870726E+03  0.7546771E-02  0.9739599E-01
         21   -1    0    0  504  501  0.00000000000E+00  0.00000000000E+00  0.10994569075E+04  0.10994569075E+04  0.00000000000E+00 0.  1.
         21   -1    0    0  503  502 -0.00000000000E+00 -0.00000000000E+00 -0.15694048569E+03  0.15694048569E+03  0.00000000000E+00 0. -1.
         25    1    1    2    0    0  0.16715060872E+03  0.11384974880E+03 -0.23595029184E+02  0.23892010526E+03  0.12500000000E+03 0.  0.
         21    1    1    2  503  501 -0.17161743606E+03 -0.17520351591E+03  0.63531411413E+03  0.68100869301E+03  0.00000000000E+00 0.  1.
         21    1    1    2  504  502  0.44668273426E+01  0.61353767106E+02  0.33079733687E+03  0.33646859492E+03  0.00000000000E+00 0.  1.
<mgrwt>
<rscale>  4 0.68707260E+03</rscale>
<asrwt>0</asrwt>
<pdfrwt beam="1">  1       21 0.16914721E+00 0.68707260E+03</pdfrwt>
<pdfrwt beam="2">  1       21 0.24144691E-01 0.68707260E+03</pdfrwt>
<totfact> 0.27965740E+03</totfact>
</mgrwt>
</event>
<event>
 5    0  0.2720079E+000  0.6259577E+03  0.7546771E-02  0.9852969E-01
         21   -1    0    0  504  501  0.00000000000E+00  0.00000000000E+00  0.59559504779E+02  0.59559504779E+02  0.00000000000E+00 0.  1.
         21   -1    0    0  501  502 -0.00000000000E+00 -0.00000000000E+00 -0.21500240529E+04  0.21500240529E+04  0.00000000000E+00 0. -1.
         25    1    1    2    0    0 -0.16113403334E+03 -0.26200713553E+03 -0.10712240320E+04  0.11214980350E+04  0.12500000000E+03 0.  0.
         21    1    1    2  503  502  0.12545918935E+03  0.26550660185E+03 -0.10089146179E+04  0.10507818375E+04  0.00000000000E+00 0.  1.
         21    1    1    2  504  503  0.35674843983E+02 -0.34994663201E+01 -0.10325898296E+02  0.37303685252E+02  0.00000000000E+00 0.  1.
<mgrwt>
<rscale>  4 0.62595770E+03</rscale>
<asrwt>0</asrwt>
<pdfrwt beam="1">  1       21 0.91630029E-02 0.62595770E+03</pdfrwt>
<pdfrwt beam="2">  1       21 0.33077285E+00 0.62595770E+03</pdfrwt>
<totfact> 0.16013728E+03</totfact>
</mgrwt>
</event>
<event>
 5    0  0.2720079E+000  0.1305536E+04  0.7546771E-02  0.9025186E-01
         21   -1    0    0  504  501  0.00000000000E+00  0.00000000000E+00  0.13804955849E+04  0.13804955849E+04  0.00000000000E+00 0. -1.
         21   -1    0    0  503  502 -0.00000000000E+00 -0.00000000000E+00 -0.80498842994E+03  0.80498842994E+03  0.00000000000E+00 0.  1.
         25    1    1    2    0    0  0.16214539116E+03 -0.23484742690E+03  0.44691600496E+03  0.54479662011E+03  0.12500000000E+03 0.  0.
         21    1    1    2  503  501 -0.18090305038E+03  0.26293114408E+03 -0.72201681683E+03  0.78940926264E+03  0.00000000000E+00 0.  1.
         21    1    1    2  504  502  0.18757659213E+02 -0.28083717174E+02  0.85060796682E+03  0.85127813209E+03  0.00000000000E+00 0. -1.
<mgrwt>
<rscale>  4 0.13055362E+04</rscale>
<asrwt>0</asrwt>
<pdfrwt beam="1">  1       21 0.21238394E+00 0.13055362E+04</pdfrwt>
<pdfrwt beam="2">  1       21 0.12384437E+00 0.13055362E+04</pdfrwt>
<totfact> 0.31851065E+01</totfact>
</mgrwt>
</event>
<event>
 5    0  0.2720079E+000  0.7485014E+03  0.7546771E-02  0.9637704E-01
         21   -1    0    0  502  501  0.00000000000E+00  0.00000000000E+00  0.57288471136E+03  0.57288471136E+03  0.00000000000E+00 0. -1.
         21   -1    0    0  504  502 -0.00000000000E+00 -0.00000000000E+00 -0.40365485359E+03  0.40365485359E+03  0.00000000000E+00 0.  1.
         25    1    1    2    0    0 -0.90289546075E+02 -0.19458854565E+03 -0.32947919864E+03  0.41255114418E+03  0.12500000000E+03 0.  0.
         21    1    1    2  503  501 -0.68611083385E+01  0.22000955529E+02  0.22479997850E+03  0.22597820069E+03  0.00000000000E+00 0. -1.
         21    1    1    2  504  503  0.97150654413E+02  0.17258759012E+03  0.27390907790E+03  0.33801022007E+03  0.00000000000E+00 0. -1.
<mgrwt>
<rscale>  4 0.74850138E+03</rscale>
<asrwt>0</asrwt>
<pdfrwt beam="1">  1       21 0.88136110E-01 0.74850138E+03</pdfrwt>
<pdfrwt beam="2">  1       21 0.62100746E-01 0.74850138E+03</pdfrwt>
<totfact> 0.21134412E+03</totfact>
</mgrwt>
</event>
<event>
 5    0  0.2720079E+000  0.5990774E+03  0.7546771E-02  0.9907322E-01
         21   -1    0    0  504  501  0.00000000000E+00  0.00000000000E+00  0.12815706307E+04  0.12815706307E+04  0.00000000000E+00 0.  1.
         21   -1    0    0  503  502 -0.00000000000E+00 -0.00000000000E+00 -0.12178381418E+03  0.12178381418E+03  0.00000000000E+00 0.  1.
         25    1    1    2    0    0  0.21326293714E+03 -0.11595697809E+03  0.53344295942E+03  0.59926078804E+03  0.12500000000E+03 0.  0.
         21    1    1    2  503  501 -0.19416072771E+03  0.15551334667E+03  0.87861742888E+02  0.26382280993E+03  0.00000000000E+00 0.  1.
         21    1    1    2  504  502 -0.19102209431E+02 -0.39556368579E+02  0.53848211418E+03  0.54027084688E+03  0.00000000000E+00 0.  1.
<mgrwt>
<rscale>  4 0.59907743E+03</rscale>
<asrwt>0</asrwt>
<pdfrwt beam="1">  1       21 0.19716470E+00 0.59907743E+03</pdfrwt>
<pdfrwt beam="2">  1       21 0.18735972E-01 0.59907743E+03</pdfrwt>
<totfact> 0.29575215E+03</totfact>
</mgrwt>
</event>
<event>
 5    0  0.2720079E+000  0.7279409E+03  0.7546771E-02  0.9670608E-01
         21   -1    0    0  504  501  0.00000000000E+00  0.00000000000E+00  0.65734095626E+03  0.65734095626E+03  0.00000000000E+00 0. -1.
         21   -1    0    0  503  502 -0.00000000000E+00 -0.00000000000E+00 -0.41936674310E+03  0.41936674310E+03  0.00000000000E+00 0. -1.
         25    1    1    2    0    0 -0.36099807026E+03  0.57799738366E+02 -0.14749724058E+03  0.41357085543E+03  0.12500000000E+03 0.  0.
         21    1    1    2  503  501  0.31402185405E+03 -0.49031338325E+02  0.46969768657E+02  0.32127862693E+03  0.00000000000E+00 0. -1.
         21    1    1    2  504  502  0.46976216210E+02 -0.87684000413E+01  0.33850168508E+03  0.34185821700E+03  0.00000000000E+00 0. -1.
<mgrwt>
<rscale>  4 0.72794092E+03</rscale>
<asrwt>0</asrwt>
<pdfrwt beam="1">  1       21 0.10112938E+00 0.72794092E+03</pdfrwt>
<pdfrwt beam="2">  1       21 0.64517960E-01 0.72794092E+03</pdfrwt>
<totfact> 0.13966241E+03</totfact>
</mgrwt>
</event>
<event>
 5    0  0.2720079E+000  0.5660816E+03  0.7546771E-02  0.9978387E-01
         21   -1    0    0  503  501  0.00000000000E+00  0.00000000000E+00  0.10551547538E+03  0.10551547538E+03  0.00000000000E+00 0.  1.
         21   -1    0    0  504  502 -0.00000000000E+00 -0.00000000000E+00 -0.82416368571E+03  0.82416368571E+03  0.00000000000E+00 0.  1.
         25    1    1    2    0    0  0.16030188032E+03  0.16498685121E+03 -0.16723662439E+03  0.31066129859E+03  0.12500000000E+03 0.  0.
         21    1    1    2  503  502  0.18486567823E+02  0.11801162087E+02 -0.14909888641E+02  0.26520282724E+02  0.00000000000E+00 0.  1.
         21    1    1    2  504  501 -0.17878844814E+03 -0.17678801330E+03 -0.53650169729E+03  0.59249757977E+03  0.00000000000E+00 0.  1.
<mgrwt>
<rscale>  4 0.56608156E+03</rscale>
<asrwt>0</asrwt>
<pdfrwt beam="1">  1       21 0.16233150E-01 0.56608156E+03</pdfrwt>
<pdfrwt beam="2">  1       21 0.12679441E+00 0.56608156E+03</pdfrwt>
<totfact> 0.13523598E+04</totfact>
</mgrwt>
</event>
<event>
 5    0  0.2720079E+000  0.5233476E+03  0.7546771E-02  0.1007858E+00
         21   -1    0    0  504  501  0.00000000000E+00  0.00000000000E+00  0.23226531108E+03  0.23226531108E+03  0.00000000000E+00 0. -1.
         21   -1    0    0  503  502 -0.00000000000E+00 -0.00000000000E+00 -0.14697140652E+04  0.14697140652E+04  0.00000000000E+00 0. -1.
         25    1    1    2    0    0  0.99992712220E+02  0.17867633932E+03 -0.39428802206E+03  0.46153203689E+03  0.12500000000E+03 0.  0.
         21    1    1    2  503  501 -0.94702061103E+02 -0.21259562702E+03 -0.10271990121E+04  0.10532346326E+04  0.00000000000E+00 0. -1.
         21    1    1    2  504  502 -0.52906511165E+01  0.33919287697E+02  0.18403828000E+03  0.18721270676E+03  0.00000000000E+00 0. -1.
<mgrwt>
<rscale>  4 0.52334757E+03</rscale>
<asrwt>0</asrwt>
<pdfrwt beam="1">  1       21 0.35733126E-01 0.52334757E+03</pdfrwt>
<pdfrwt beam="2">  1       21 0.22610985E+00 0.52334757E+03</pdfrwt>
<totfact> 0.55188768E+02</totfact>
</mgrwt>
</event>
<event>
 5    0  0.2720079E+000  0.5059584E+03  0.7546771E-02  0.1012235E+00
         21   -1    0    0  503  501  0.00000000000E+00  0.00000000000E+00  0.65486423981E+02  0.65486423981E+02  0.00000000000E+00 0. -1.
         21   -1    0    0  504  502 -0.00000000000E+00 -0.00000000000E+00 -0.16642259293E+04  0.16642259293E+04  0.00000000000E+00 0. -1.
         25    1    1    2    0    0 -0.21359983144E+03  0.73061019352E+02 -0.48548715553E+03  0.54980503701E+03  0.12500000000E+03 0.  0.
         21    1    1    2  503  502  0.15831983424E+03 -0.78438312624E+02 -0.11103188662E+04  0.11242889857E+04  0.00000000000E+00 0. -1.
         21    1    1    2  504  501  0.55279997197E+02  0.53772932728E+01 -0.29334836587E+01  0.55618330606E+02  0.00000000000E+00 0. -1.
<mgrwt>
<rscale>  4 0.50595844E+03</rscale>
<asrwt>0</asrwt>
<pdfrwt beam="1">  1       21 0.10074834E-01 0.50595844E+03</pdfrwt>
<pdfrwt beam="2">  1       21 0.25603478E+00 0.50595844E+03</pdfrwt>
<totfact> 0.40351182E+03</totfact>
</mgrwt>
</event>
<event>
 5    0  0.2720079E+000  0.4180535E+03  0.7546771E-02  0.1037702E+00
         21   -1    0    0  502  501  0.00000000000E+00  0.00000000000E+00  0.44942025427E+03  0.44942025427E+03  0.00000000000E+00 0.  1.
         21   -1    0    0  504  502 -0.00000000000E+00 -0.00000000000E+00 -0.21017961761E+03  0.21017961761E+03  0.00000000000E+00 0. -1.
         25    1    1    2    0    0 -0.13305409108E+03 -0.15591072937E+03 -0.92646106509E+02  0.25733217393E+03  0.12500000000E+03 0.  0.
         21    1    1    2  503  501  0.35823673152E+02  0.95004709719E+02  0.21860899280E+03  0.24103759491E+03  0.00000000000E+00 0.  1.
         21    1    1    2  504  503  0.97230417926E+02  0.60906019654E+02  0.11327775036E+03  0.16123010304E+03  0.00000000000E+00 0.  1.
<mgrwt>
<rscale>  4 0.41805348E+03</rscale>
<asrwt>0</asrwt>
<pdfrwt beam="1">  1       21 0.69141577E-01 0.41805348E+03</pdfrwt>
<pdfrwt beam="2">  1       21 0.32335326E-01 0.41805348E+03</pdfrwt>
<totfact> 0.15911808E+04</totfact>
</mgrwt>
</event>
<event>
 5    0  0.2720079E+000  0.4986359E+03  0.7546771E-02  0.1014136E+00
         21   -1    0    0  503  501  0.00000000000E+00  0.00000000000E+00  0.60410216010E+03  0.60410216010E+03  0.00000000000E+00 0.  1.
         21   -1    0    0  504  502 -0.00000000000E+00 -0.00000000000E+00 -0.63296902596E+03  0.63296902596E+03  0.00000000000E+00 0.  1.
         25    1    1    2    0    0 -0.23887149500E+03 -0.16874249923E+03 -0.52604960226E+03  0.61472498420E+03  0.12500000000E+03 0.  0.
         21    1    1    2  503  502  0.27214574939E+03  0.10810936997E+03  0.45576119768E+03  0.54172798903E+03  0.00000000000E+00 0.  1.
         21    1    1    2  504  501 -0.33274254396E+02  0.60633129262E+02  0.41421538725E+02  0.80618212831E+02  0.00000000000E+00 0. -1.
<mgrwt>
<rscale>  4 0.49863594E+03</rscale>
<asrwt>0</asrwt>
<pdfrwt beam="1">  1       21 0.92938794E-01 0.49863594E+03</pdfrwt>
<pdfrwt beam="2">  1       21 0.97379850E-01 0.49863594E+03</pdfrwt>
<totfact> 0.70508720E+02</totfact>
</mgrwt>
</event>
<event>
 5    0  0.2720079E+000  0.5226702E+03  0.7546771E-02  0.1008025E+00
         21   -1    0    0  504  501  0.00000000000E+00  0.00000000000E+00  0.65612879099E+03  0.65612879099E+03  0.00000000000E+00 0. -1.
         21   -1    0    0  501  502 -0.00000000000E+00 -0.00000000000E+00 -0.11591639857E+03  0.11591639857E+03  0.00000000000E+00 0. -1.
         25    1    1    2    0    0  0.11710989599E+03 -0.21921137245E+03  0.24532188049E+03  0.37091262933E+03  0.12500000000E+03 0.  0.
         21    1    1    2  503  502 -0.13739040317E+03  0.20120822660E+03  0.25308494058E+03  0.35130166593E+03  0.00000000000E+00 0. -1.
         21    1    1    2  504  503  0.20280507173E+02  0.18003145847E+02  0.41805571342E+02  0.49830894301E+02  0.00000000000E+00 0. -1.
<mgrwt>
<rscale>  4 0.52267019E+03</rscale>
<asrwt>0</asrwt>
<pdfrwt beam="1">  1       21 0.10094289E+00 0.52267019E+03</pdfrwt>
<pdfrwt beam="2">  1       21 0.17833293E-01 0.52267019E+03</pdfrwt>
<totfact> 0.20314739E+04</totfact>
</mgrwt>
</event>
<event>
 5    0  0.2720079E+000  0.5833394E+03  0.7546771E-02  0.9940587E-01
         21   -1    0    0  502  501  0.00000000000E+00  0.00000000000E+00  0.14916380991E+04  0.14916380991E+04  0.00000000000E+00 0. -1.
         21   -1    0    0  504  502 -0.00000000000E+00 -0.00000000000E+00 -0.12863341749E+03  0.12863341749E+03  0.00000000000E+00 0. -1.
         25    1    1    2    0    0  0.19851227858E+03  0.21047881349E+03  0.16269543809E+03  0.35468755440E+03  0.12500000000E+03 0.  0.
         21    1    1    2  503  501 -0.22286962301E+02 -0.69196359944E+02  0.82031540833E+03  0.82353033585E+03  0.00000000000E+00 0. -1.
         21    1    1    2  504  503 -0.17622531628E+03 -0.14128245355E+03  0.37999383521E+03  0.44205362636E+03  0.00000000000E+00 0.  1.
<mgrwt>
<rscale>  4 0.58333941E+03</rscale>
<asrwt>0</asrwt>
<pdfrwt beam="1">  1       21 0.22948277E+00 0.58333941E+03</pdfrwt>
<pdfrwt beam="2">  1       21 0.19789758E-01 0.58333941E+03</pdfrwt>
<totfact> 0.16435544E+03</totfact>
</mgrwt>
</event>
<event>
 5    0  0.2720079E+000  0.8532727E+03  0.7546771E-02  0.9485955E-01
         21   -1    0    0  502  501  0.00000000000E+00  0.00000000000E+00  0.27096659552E+03  0.27096659552E+03  0.00000000000E+00 0.  1.
         21   -1    0    0  503  502 -0.00000000000E+00 -0.00000000000E+00 -0.84109021668E+03  0.84109021668E+03  0.00000000000E+00 0.  1.
         25    1    1    2    0    0 -0.42557914998E+03 -0.15046248914E+02 -0.19138981860E+03  0.48332087185E+03  0.12500000000E+03 0.  0.
         21    1    1    2  503  504  0.37880524413E+03  0.41353809775E+02 -0.41542972299E+03  0.56372458285E+03  0.00000000000E+00 0.  1.
         21    1    1    2  504  501  0.46773905855E+02 -0.26307560862E+02  0.36695920434E+02  0.65011357500E+02  0.00000000000E+00 0.  1.
<mgrwt>
<rscale>  4 0.85327266E+03</rscale>
<asrwt>0</asrwt>
<pdfrwt beam="1">  1       21 0.41687168E-01 0.85327266E+03</pdfrwt>
<pdfrwt beam="2">  1       21 0.12939850E+00 0.85327266E+03</pdfrwt>
<totfact> 0.18690429E+03</totfact>
</mgrwt>
</event>
<event>
 5    0  0.2720079E+000  0.6340235E+03  0.7546771E-02  0.9837229E-01
         21   -1    0    0  503  501  0.00000000000E+00  0.00000000000E+00  0.72881317969E+03  0.72881317969E+03  0.00000000000E+00 0.  1.
         21   -1    0    0  504  502 -0.00000000000E+00 -0.00000000000E+00 -0.16917299287E+03  0.16917299287E+03  0.00000000000E+00 0. -1.
         25    1    1    2    0    0 -0.19271263091E+03  0.70499881478E+02 -0.50065351956E+02  0.24543824247E+03  0.12500000000E+03 0.  0.
         21    1    1    2  503  502  0.20083240804E+02  0.25442058514E+02  0.12538021866E+03  0.12950225532E+03  0.00000000000E+00 0.  1.
         21    1    1    2  504  501  0.17262939011E+03 -0.95941939992E+02  0.48432532011E+03  0.52304567476E+03  0.00000000000E+00 0.  1.
<mgrwt>
<rscale>  4 0.63402351E+03</rscale>
<asrwt>0</asrwt>
<pdfrwt beam="1">  1       21 0.11212510E+00 0.63402351E+03</pdfrwt>
<pdfrwt beam="2">  1       21 0.26026615E-01 0.63402351E+03</pdfrwt>
<totfact> 0.73653994E+03</totfact>
</mgrwt>
</event>
<event>
 5    0  0.2720079E+000  0.8280788E+03  0.7546771E-02  0.9520241E-01
         21   -1    0    0  504  501  0.00000000000E+00  0.00000000000E+00  0.16751086279E+03  0.16751086279E+03  0.00000000000E+00 0. -1.
         21   -1    0    0  503  502 -0.00000000000E+00 -0.00000000000E+00 -0.17468852554E+04  0.17468852554E+04  0.00000000000E+00 0.  1.
         25    1    1    2    0    0  0.31345205361E+03  0.91974813526E+02 -0.14893047621E+04  0.15298252287E+04  0.12500000000E+03 0.  0.
         21    1    1    2  503  501 -0.25386143304E+03 -0.76679942505E+02 -0.14487106893E+03  0.30218052118E+03  0.00000000000E+00 0. -1.
         21    1    1    2  504  502 -0.59590620570E+02 -0.15294871021E+02  0.54801438361E+02  0.82390368284E+02  0.00000000000E+00 0. -1.
<mgrwt>
<rscale>  4 0.82807875E+03</rscale>
<asrwt>0</asrwt>
<pdfrwt beam="1">  1       21 0.25770902E-01 0.82807875E+03</pdfrwt>
<pdfrwt beam="2">  1       21 0.26875158E+00 0.82807875E+03</pdfrwt>
<totfact> 0.51729260E+02</totfact>
</mgrwt>
</event>
<event>
 5    0  0.2720079E+000  0.5125491E+03  0.7546771E-02  0.1010554E+00
         21   -1    0    0  502  501  0.00000000000E+00  0.00000000000E+00  0.11400820501E+04  0.11400820501E+04  0.00000000000E+00 0.  1.
         21   -1    0    0  503  502 -0.00000000000E+00 -0.00000000000E+00 -0.36010434003E+03  0.36010434003E+03  0.00000000000E+00 0. -1.
         25    1    1    2    0    0  0.11460845381E+03  0.39032323010E+03 -0.10688270685E+03  0.43878951066E+03  0.12500000000E+03 0.  0.
         21    1    1    2  503  504 -0.28340618558E+02  0.70751371129E+02  0.25100207175E+02  0.80243177761E+02  0.00000000000E+00 0.  1.
         21    1    1    2  504  501 -0.86267835251E+02 -0.46107460123E+03  0.86176020979E+03  0.98115370176E+03  0.00000000000E+00 0.  1.
<mgrwt>
<rscale>  4 0.51254908E+03</rscale>
<asrwt>0</asrwt>
<pdfrwt beam="1">  1       21 0.17539724E+00 0.51254908E+03</pdfrwt>
<pdfrwt beam="2">  1       21 0.55400668E-01 0.51254908E+03</pdfrwt>
<totfact> 0.48427798E+02</totfact>
</mgrwt>
</event>
<event>
 5    0  0.2720079E+000  0.3707429E+03  0.7546771E-02  0.1054409E+00
         21   -1    0    0  504  501  0.00000000000E+00  0.00000000000E+00  0.19942869785E+03  0.19942869785E+03  0.00000000000E+00 0.  1.
         21   -1    0    0  501  502 -0.00000000000E+00 -0.00000000000E+00 -0.67344435358E+03  0.67344435358E+03  0.00000000000E+00 0.  1.
         25    1    1    2    0    0  0.14489140863E+03 -0.15094176950E+03 -0.44617083953E+03  0.50839979949E+03  0.12500000000E+03 0.  0.
         21    1    1    2  503  502 -0.90531186114E+02  0.84499714999E+02 -0.16278772590E+03  0.20453836119E+03  0.00000000000E+00 0.  1.
         21    1    1    2  504  503 -0.54360222513E+02  0.66442054497E+02  0.13494290970E+03  0.15993489074E+03  0.00000000000E+00 0.  1.
<mgrwt>
<rscale>  4 0.37074288E+03</rscale>
<asrwt>0</asrwt>
<pdfrwt beam="1">  1       21 0.30681338E-01 0.37074288E+03</pdfrwt>
<pdfrwt beam="2">  1       21 0.10360682E+00 0.37074288E+03</pdfrwt>
<totfact> 0.69872637E+03</totfact>
</mgrwt>
</event>
<event>
 5    0  0.2720079E+000  0.5163674E+03  0.7546771E-02  0.1009593E+00
         21   -1    0    0  503  501  0.00000000000E+00  0.00000000000E+00  0.44117835533E+03  0.44117835533E+03  0.00000000000E+00 0.  1.
         21   -1    0    0  504  502 -0.00000000000E+00 -0.00000000000E+00 -0.20656571798E+03  0.20656571798E+03  0.00000000000E+00 0.  1.
         25    1    1    2    0    0  0.19768639570E+03  0.12962149367E+03 -0.13472544464E+02  0.26774643251E+03  0.12500000000E+03 0.  0.
         21    1    1    2  503  502 -0.19651067538E+02  0.10047789349E+02  0.11579930740E+03  0.11788385012E+03  0.00000000000E+00 0.  1.
         21    1    1    2  504  501 -0.17803532816E+03 -0.13966928302E+03  0.13228587441E+03  0.26211379068E+03  0.00000000000E+00 0. -1.
<mgrwt>
<rscale>  4 0.51636736E+03</rscale>
<asrwt>0</asrwt>
<pdfrwt beam="1">  1       21 0.67873593E-01 0.51636736E+03</pdfrwt>
<pdfrwt beam="2">  1       21 0.31779341E-01 0.51636736E+03</pdfrwt>
<totfact> 0.16737529E+04</totfact>
</mgrwt>
</event>
<event>
 5    0  0.2720079E+000  0.6922653E+03  0.7546771E-02  0.9730552E-01
         21   -1    0    0  502  501  0.00000000000E+00  0.00000000000E+00  0.12091033755E+04  0.12091033755E+04  0.00000000000E+00 0.  1.
         21   -1    0    0  503  502 -0.00000000000E+00 -0.00000000000E+00 -0.20417809137E+03  0.20417809137E+03  0.00000000000E+00 0.  1.
         25    1    1    2    0    0  0.23878340225E+03  0.13902678827E+03  0.39019718143E+03  0.49419105764E+03  0.12500000000E+03 0.  0.
         21    1    1    2  503  504 -0.25280070117E+03 -0.15599135763E+03 -0.68394327281E+01  0.29713343132E+03  0.00000000000E+00 0.  1.
         21    1    1    2  504  501  0.14017298919E+02  0.16964569354E+02  0.62156753539E+03  0.62195697788E+03  0.00000000000E+00 0.  1.
<mgrwt>
<rscale>  4 0.69226533E+03</rscale>
<asrwt>0</asrwt>
<pdfrwt beam="1">  1       21 0.18601590E+00 0.69226533E+03</pdfrwt>
<pdfrwt beam="2">  1       21 0.31412015E-01 0.69226533E+03</pdfrwt>
<totfact> 0.12517194E+03</totfact>
</mgrwt>
</event>
<event>
 5    0  0.2720079E+000  0.4866380E+03  0.7546771E-02  0.1017327E+00
         21   -1    0    0  504  501  0.00000000000E+00  0.00000000000E+00  0.27583762050E+03  0.27583762050E+03  0.00000000000E+00 0.  1.
         21   -1    0    0  503  502 -0.00000000000E+00 -0.00000000000E+00 -0.25129434580E+03  0.25129434580E+03  0.00000000000E+00 0.  1.
         25    1    1    2    0    0  0.90236246410E+02 -0.18510887948E+03 -0.54810982534E+02  0.24705691902E+03  0.12500000000E+03 0.  0.
         21    1    1    2  503  501 -0.10671616324E+03  0.20844760146E+03  0.50682629266E+02  0.23959856210E+03  0.00000000000E+00 0.  1.
         21    1    1    2  504  502  0.16479916829E+02 -0.23338721980E+02  0.28671627962E+02  0.40476485178E+02  0.00000000000E+00 0.  1.
<mgrwt>
<rscale>  4 0.48663797E+03</rscale>
<asrwt>0</asrwt>
<pdfrwt beam="1">  1       21 0.42436557E-01 0.48663797E+03</pdfrwt>
<pdfrwt beam="2">  1       21 0.38660669E-01 0.48663797E+03</pdfrwt>
<totfact> 0.31202479E+04</totfact>
</mgrwt>
</event>
<event>
 5    0  0.2720079E+000  0.5350983E+03  0.7546771E-02  0.1005003E+00
         21   -1    0    0  502  501  0.00000000000E+00  0.00000000000E+00  0.47469694414E+02  0.47469694414E+02  0.00000000000E+00 0.  1.
         21   -1    0    0  503  502 -0.00000000000E+00 -0.00000000000E+00 -0.23387221264E+04  0.23387221264E+04  0.00000000000E+00 0.  1.
         25    1    1    2    0    0  0.10246204374E+03  0.24771373313E+03 -0.11260872866E+04  0.11642843901E+04  0.12500000000E+03 0.  0.
         21    1    1    2  503  504 -0.91472901579E+02 -0.21643203974E+03 -0.11652981332E+04  0.11887513865E+04  0.00000000000E+00 0.  1.
         21    1    1    2  504  501 -0.10989142162E+02 -0.31281693392E+02  0.13298779118E+00  0.33156044286E+02  0.00000000000E+00 0.  1.
<mgrwt>
<rscale>  4 0.53509833E+03</rscale>
<asrwt>0</asrwt>
<pdfrwt beam="1">  1       21 0.73030307E-02 0.53509833E+03</pdfrwt>
<pdfrwt beam="2">  1       21 0.35980337E+00 0.53509833E+03</pdfrwt>
<totfact> 0.16490187E+03</totfact>
</mgrwt>
</event>
<event>
 5    0  0.2720079E+000  0.5627462E+03  0.7546771E-02  0.9985860E-01
         21   -1    0    0  504  501  0.00000000000E+00  0.00000000000E+00  0.53619705845E+02  0.53619705845E+02  0.00000000000E+00 0. -1.
         21   -1    0    0  503  502 -0.00000000000E+00 -0.00000000000E+00 -0.22436553350E+04  0.22436553350E+04  0.00000000000E+00 0.  1.
         25    1    1    2    0    0 -0.14826642171E+03  0.18519692016E+03 -0.16271924174E+04  0.16491394708E+04  0.12500000000E+03 0.  0.
         21    1    1    2  503  501  0.12634220656E+03 -0.20540427517E+03 -0.56873018829E+03  0.61774371425E+03  0.00000000000E+00 0. -1.
         21    1    1    2  504  502  0.21924215144E+02  0.20207355005E+02  0.58869765042E+01  0.30391855790E+02  0.00000000000E+00 0. -1.
<mgrwt>
<rscale>  4 0.56274620E+03</rscale>
<asrwt>0</asrwt>
<pdfrwt beam="1">  1       21 0.82491887E-02 0.56274620E+03</pdfrwt>
<pdfrwt beam="2">  1       21 0.34517761E+00 0.56274620E+03</pdfrwt>
<totfact> 0.16163271E+03</totfact>
</mgrwt>
</event>
<event>
 5    0  0.2720079E+000  0.5849312E+03  0.7546771E-02  0.9937172E-01
         21   -1    0    0  503  501  0.00000000000E+00  0.00000000000E+00  0.97413071901E+03  0.97413071901E+03  0.00000000000E+00 0.  1.
         21   -1    0    0  504  502 -0.00000000000E+00 -0.00000000000E+00 -0.13421525018E+03  0.13421525018E+03  0.00000000000E+00 0.  1.
         25    1    1    2    0    0 -0.18808303719E+03  0.18616124561E+03  0.15309328988E+03  0.33029349623E+03  0.12500000000E+03 0.  0.
         21    1    1    2  503  502  0.12784321253E+02  0.16850307548E+02  0.33490344955E+03  0.33557069636E+03  0.00000000000E+00 0.  1.
         21    1    1    2  504  501  0.17529871594E+03 -0.20301155316E+03  0.35191872939E+03  0.44248177660E+03  0.00000000000E+00 0.  1.
<mgrwt>
<rscale>  4 0.58493118E+03</rscale>
<asrwt>0</asrwt>
<pdfrwt beam="1">  1       21 0.14986626E+00 0.58493118E+03</pdfrwt>
<pdfrwt beam="2">  1       21 0.20648501E-01 0.58493118E+03</pdfrwt>
<totfact> 0.54619464E+03</totfact>
</mgrwt>
</event>
<event>
 5    0  0.2720079E+000  0.5643722E+03  0.7546771E-02  0.9982210E-01
         21   -1    0    0  504  501  0.00000000000E+00  0.00000000000E+00  0.10338372173E+04  0.10338372173E+04  0.00000000000E+00 0. -1.
         21   -1    0    0  501  502 -0.00000000000E+00 -0.00000000000E+00 -0.85722476333E+02  0.85722476333E+02  0.00000000000E+00 0.  1.
         25    1    1    2    0    0 -0.22503726522E+03  0.11103754947E+03  0.26264084570E+03  0.38415663727E+03  0.12500000000E+03 0.  0.
         21    1    1    2  503  502  0.22468915933E+03 -0.86125886746E+02  0.60269473343E+03  0.64895595258E+03  0.00000000000E+00 0. -1.
         21    1    1    2  504  503  0.34810589012E+00 -0.24911662720E+02  0.82779161803E+02  0.86447103746E+02  0.00000000000E+00 0. -1.
<mgrwt>
<rscale>  4 0.56437218E+03</rscale>
<asrwt>0</asrwt>
<pdfrwt beam="1">  1       21 0.15905187E+00 0.56437218E+03</pdfrwt>
<pdfrwt beam="2">  1       21 0.13188074E-01 0.56437218E+03</pdfrwt>
<totfact> 0.10819761E+04</totfact>
</mgrwt>
</event>
<event>
 5    0  0.2720079E+000  0.7014045E+03  0.7546771E-02  0.9714833E-01
         21   -1    0    0  504  501  0.00000000000E+00  0.00000000000E+00  0.81844882297E+03  0.81844882297E+03  0.00000000000E+00 0. -1.
         21   -1    0    0  503  502 -0.00000000000E+00 -0.00000000000E+00 -0.53680328257E+03  0.53680328257E+03  0.00000000000E+00 0. -1.
         25    1    1    2    0    0  0.54314906051E+03 -0.11518005949E+03  0.10092415400E+03  0.57800348865E+03  0.12500000000E+03 0.  0.
         21    1    1    2  503  501  0.69177415737E+02  0.62801929707E+02  0.13068944590E+03  0.16065281974E+03  0.00000000000E+00 0. -1.
         21    1    1    2  504  502 -0.61232647625E+03  0.52378129785E+02  0.50031940504E+02  0.61659579715E+03  0.00000000000E+00 0. -1.
<mgrwt>
<rscale>  4 0.70140451E+03</rscale>
<asrwt>0</asrwt>
<pdfrwt beam="1">  1       21 0.12591520E+00 0.70140451E+03</pdfrwt>
<pdfrwt beam="2">  1       21 0.82585120E-01 0.70140451E+03</pdfrwt>
<totfact> 0.45806658E+02</totfact>
</mgrwt>
</event>
<event>
 5    0  0.2720079E+000  0.4614114E+03  0.7546771E-02  0.1024373E+00
         21   -1    0    0  504  501  0.00000000000E+00  0.00000000000E+00  0.90104680192E+02  0.90104680192E+02  0.00000000000E+00 0. -1.
         21   -1    0    0  501  502 -0.00000000000E+00 -0.00000000000E+00 -0.99231094387E+03  0.99231094387E+03  0.00000000000E+00 0. -1.
         25    1    1    2    0    0 -0.18598915577E+03 -0.11701313321E+03 -0.25801862842E+03  0.36122382538E+03  0.12500000000E+03 0.  0.
         21    1    1    2  503  502  0.71965640601E+02  0.12118558207E+03 -0.56497744466E+03  0.58229246235E+03  0.00000000000E+00 0. -1.
         21    1    1    2  504  503  0.11402351517E+03 -0.41724488630E+01 -0.79210190597E+02  0.13889933634E+03  0.00000000000E+00 0. -1.
<mgrwt>
<rscale>  4 0.46141137E+03</rscale>
<asrwt>0</asrwt>
<pdfrwt beam="1">  1       21 0.13862258E-01 0.46141137E+03</pdfrwt>
<pdfrwt beam="2">  1       21 0.15266323E+00 0.46141137E+03</pdfrwt>
<totfact> 0.11379235E+04</totfact>
</mgrwt>
</event>
<event>
 5    0  0.2720079E+000  0.7915216E+03  0.7546771E-02  0.9572371E-01
         21   -1    0    0  503  501  0.00000000000E+00  0.00000000000E+00  0.49530325441E+03  0.49530325441E+03  0.00000000000E+00 0. -1.
         21   -1    0    0  504  502 -0.00000000000E+00 -0.00000000000E+00 -0.48021440096E+03  0.48021440096E+03  0.00000000000E+00 0.  1.
         25    1    1    2    0    0  0.13713965283E+03 -0.21027519061E+03 -0.17681761929E+03  0.33153040684E+03  0.12500000000E+03 0.  0.
         21    1    1    2  503  502  0.16334228977E+03 -0.84368709866E+02  0.60712062813E+01  0.18394467205E+03  0.00000000000E+00 0. -1.
         21    1    1    2  504  501 -0.30048194260E+03  0.29464390048E+03  0.18583526645E+03  0.46004257648E+03  0.00000000000E+00 0. -1.
<mgrwt>
<rscale>  4 0.79152162E+03</rscale>
<asrwt>0</asrwt>
<pdfrwt beam="1">  1       21 0.76200501E-01 0.79152162E+03</pdfrwt>
<pdfrwt beam="2">  1       21 0.73879138E-01 0.79152162E+03</pdfrwt>
<totfact> 0.19898990E+03</totfact>
</mgrwt>
</event>
<event>
 5    0  0.2720079E+000  0.5465029E+03  0.7546771E-02  0.1002307E+00
         21   -1    0    0  504  501  0.00000000000E+00  0.00000000000E+00  0.12882356525E+03  0.12882356525E+03  0.00000000000E+00 0. -1.
         21   -1    0    0  501  502 -0.00000000000E+00 -0.00000000000E+00 -0.10712072277E+04  0.10712072277E+04  0.00000000000E+00 0.  1.
         25    1    1    2    0    0  0.17058293230E+03 -0.18790851902E+03 -0.83655208620E+03  0.88309260060E+03  0.12500000000E+03 0.  0.
         21    1    1    2  503  502 -0.13436492516E+03  0.13783667107E+03 -0.14741351830E+03  0.24245334888E+03  0.00000000000E+00 0. -1.
         21    1    1    2  504  503 -0.36218007146E+02  0.50071847947E+02  0.41581942064E+02  0.74484843453E+02  0.00000000000E+00 0. -1.
<mgrwt>
<rscale>  4 0.54650286E+03</rscale>
<asrwt>0</asrwt>
<pdfrwt beam="1">  1       21 0.19819010E-01 0.54650286E+03</pdfrwt>
<pdfrwt beam="2">  1       21 0.16480111E+00 0.54650286E+03</pdfrwt>
<totfact> 0.45831239E+03</totfact>
</mgrwt>
</event>
<event>
 5    0  0.2720079E+000  0.4473899E+03  0.7546771E-02  0.1028503E+00
         21   -1    0    0  503  501  0.00000000000E+00  0.00000000000E+00  0.56918772119E+03  0.56918772119E+03  0.00000000000E+00 0. -1.
         21   -1    0    0  504  502 -0.00000000000E+00 -0.00000000000E+00 -0.12350519406E+04  0.12350519406E+04  0.00000000000E+00 0. -1.
         25    1    1    2    0    0  0.28137356662E+03 -0.10189255353E+03 -0.11619140650E+04  0.12063260218E+04  0.12500000000E+03 0.  0.
         21    1    1    2  503  502 -0.25889725593E+03  0.12280891767E+03  0.48842771716E+03  0.56627860129E+03  0.00000000000E+00 0. -1.
         21    1    1    2  504  501 -0.22476310693E+02 -0.20916364136E+02  0.76221284348E+01  0.31635038690E+02  0.00000000000E+00 0.  1.
<mgrwt>
<rscale>  4 0.44738989E+03</rscale>
<asrwt>0</asrwt>
<pdfrwt beam="1">  1       21 0.87567343E-01 0.44738989E+03</pdfrwt>
<pdfrwt beam="2">  1       21 0.19000799E+00 0.44738989E+03</pdfrwt>
<totfact> 0.14053251E+02</totfact>
</mgrwt>
</event>
<event>
 5    0  0.2720079E+000  0.5876450E+03  0.7546771E-02  0.9931376E-01
         21   -1    0    0  503  501  0.00000000000E+00  0.00000000000E+00  0.28122062507E+03  0.28122062507E+03  0.00000000000E+00 0. -1.
         21   -1    0    0  504  502 -0.00000000000E+00 -0.00000000000E+00 -0.53380893174E+03  0.53380893174E+03  0.00000000000E+00 0. -1.
         25    1    1    2    0    0  0.22170843005E+03  0.14351310532E+03 -0.72867157699E+02  0.30113993762E+03  0.12500000000E+03 0.  0.
         21    1    1    2  503  502  0.66158972776E+01 -0.24371707430E+02  0.11774749755E+03  0.12042517759E+03  0.00000000000E+00 0. -1.
         21    1    1    2  504  501 -0.22832432733E+03 -0.11914139789E+03 -0.29746864652E+03  0.39346444160E+03  0.00000000000E+00 0. -1.
<mgrwt>
<rscale>  4 0.58764499E+03</rscale>
<asrwt>0</asrwt>
<pdfrwt beam="1">  1       21 0.43264712E-01 0.58764499E+03</pdfrwt>
<pdfrwt beam="2">  1       21 0.82124450E-01 0.58764499E+03</pdfrwt>
<totfact> 0.56521426E+03</totfact>
</mgrwt>
</event>
<event>
 5    0  0.2720079E+000  0.7040578E+03  0.7546771E-02  0.9710318E-01
         21   -1    0    0  502  501  0.00000000000E+00  0.00000000000E+00  0.95865941631E+02  0.95865941631E+02  0.00000000000E+00 0. -1.
         21   -1    0    0  504  502 -0.00000000000E+00 -0.00000000000E+00 -0.19098573826E+04  0.19098573826E+04  0.00000000000E+00 0. -1.
         25    1    1    2    0    0 -0.85116145672E+02  0.29110031476E+03 -0.39240026542E+03  0.51145588257E+03  0.12500000000E+03 0.  0.
         21    1    1    2  503  501  0.36030520471E+02 -0.85757650571E+02 -0.48242734702E+02  0.10478518258E+03  0.00000000000E+00 0. -1.
         21    1    1    2  504  503  0.49085625200E+02 -0.20534266419E+03 -0.13733484408E+04  0.13894822591E+04  0.00000000000E+00 0. -1.
<mgrwt>
<rscale>  4 0.70405776E+03</rscale>
<asrwt>0</asrwt>
<pdfrwt beam="1">  1       21 0.14748608E-01 0.70405776E+03</pdfrwt>
<pdfrwt beam="2">  1       21 0.29382419E+00 0.70405776E+03</pdfrwt>
<totfact> 0.10972030E+03</totfact>
</mgrwt>
</event>
<event>
 5    0  0.2720079E+000  0.4581883E+03  0.7546771E-02  0.1025308E+00
         21   -1    0    0  503  501  0.00000000000E+00  0.00000000000E+00  0.40145181622E+03  0.40145181622E+03  0.00000000000E+00 0. -1.
         21   -1    0    0  504  502 -0.00000000000E+00 -0.00000000000E+00 -0.16735078956E+04  0.16735078956E+04  0.00000000000E+00 0. -1.
         25    1    1    2    0    0  0.22080814925E+03 -0.57772576315E+02 -0.94323402689E+03  0.97847296275E+03  0.12500000000E+03 0.  0.
         21    1    1    2  503  502 -0.19413412014E+03  0.38532530597E+02 -0.69816771136E+03  0.72567965777E+03  0.00000000000E+00 0. -1.
         21    1    1    2  504  501 -0.26674029114E+02  0.19240045717E+02  0.36934565890E+03  0.37080709127E+03  0.00000000000E+00 0. -1.
<mgrwt>
<rscale>  4 0.45818827E+03</rscale>
<asrwt>0</asrwt>
<pdfrwt beam="1">  1       21 0.61761818E-01 0.45818827E+03</pdfrwt>
<pdfrwt beam="2">  1       21 0.25746275E+00 0.45818827E+03</pdfrwt>
<totfact> 0.11444039E+02</totfact>
</mgrwt>
</event>
<event>
 5    0  0.2720079E+000  0.3959987E+03  0.7546771E-02  0.1045174E+00
         21   -1    0    0  503  501  0.00000000000E+00  0.00000000000E+00  0.24078043459E+02  0.24078043459E+02  0.00000000000E+00 0. -1.
         21   -1    0    0  504  502 -0.00000000000E+00 -0.00000000000E+00 -0.30319809554E+04  0.30319809554E+04  0.00000000000E+00 0. -1.
         25    1    1    2    0    0  0.20048872663E+03 -0.15996521553E+02 -0.19936344706E+04  0.20076491278E+04  0.12500000000E+03 0.  0.
         21    1    1    2  503  502 -0.46007517252E+02  0.26974196721E+02 -0.54597880254E+02  0.76323177742E+02  0.00000000000E+00 0. -1.
         21    1    1    2  504  501 -0.15448120938E+03 -0.10977675168E+02 -0.95967056112E+03  0.97208669330E+03  0.00000000000E+00 0. -1.
<mgrwt>
<rscale>  4 0.39599868E+03</rscale>
<asrwt>0</asrwt>
<pdfrwt beam="1">  1       21 0.37043137E-02 0.39599868E+03</pdfrwt>
<pdfrwt beam="2">  1       21 0.46645870E+00 0.39599868E+03</pdfrwt>
<totfact> 0.11648456E+03</totfact>
</mgrwt>
</event>
<event>
 5    0  0.2720079E+000  0.1192278E+04  0.7546771E-02  0.9119643E-01
         21   -1    0    0  502  501  0.00000000000E+00  0.00000000000E+00  0.33810102044E+03  0.33810102044E+03  0.00000000000E+00 0.  1.
         21   -1    0    0  504  502 -0.00000000000E+00 -0.00000000000E+00 -0.16480867415E+04  0.16480867415E+04  0.00000000000E+00 0.  1.
         25    1    1    2    0    0 -0.34246991787E+03  0.46330825746E+03 -0.10645783674E+04  0.12169191782E+04  0.12500000000E+03 0.  0.
         21    1    1    2  503  501  0.47506840506E+02 -0.22462225237E+02  0.11605212154E+03  0.12739523685E+03  0.00000000000E+00 0.  1.
         21    1    1    2  504  503  0.29496307736E+03 -0.44084603222E+03 -0.36145947518E+03  0.64187334680E+03  0.00000000000E+00 0.  1.
<mgrwt>
<rscale>  4 0.11922775E+04</rscale>
<asrwt>0</asrwt>
<pdfrwt beam="1">  1       21 0.52015541E-01 0.11922775E+04</pdfrwt>
<pdfrwt beam="2">  1       21 0.25355181E+00 0.11922775E+04</pdfrwt>
<totfact> 0.13815980E+02</totfact>
</mgrwt>
</event>
<event>
 5    0  0.2720079E+000  0.5188636E+03  0.7546771E-02  0.1008969E+00
         21   -1    0    0  502  501  0.00000000000E+00  0.00000000000E+00  0.78461857810E+03  0.78461857810E+03  0.00000000000E+00 0. -1.
         21   -1    0    0  503  502 -0.00000000000E+00 -0.00000000000E+00 -0.51325002328E+03  0.51325002328E+03  0.00000000000E+00 0.  1.
         25    1    1    2    0    0  0.19738386849E+03  0.93925309516E+02 -0.42855294399E+03  0.49705631583E+03  0.12500000000E+03 0.  0.
         21    1    1    2  503  504 -0.10575412903E+03 -0.85236351297E+02  0.50516997526E+02  0.14491769536E+03  0.00000000000E+00 0. -1.
         21    1    1    2  504  501 -0.91629739466E+02 -0.86889582190E+01  0.64940450129E+03  0.65589459019E+03  0.00000000000E+00 0. -1.
<mgrwt>
<rscale>  4 0.51886362E+03</rscale>
<asrwt>0</asrwt>
<pdfrwt beam="1">  1       21 0.12071055E+00 0.51886362E+03</pdfrwt>
<pdfrwt beam="2">  1       21 0.78961542E-01 0.51886362E+03</pdfrwt>
<totfact> 0.60207458E+02</totfact>
</mgrwt>
</event>
<event>
 5    0  0.2720079E+000  0.4491441E+03  0.7546771E-02  0.1027978E+00
         21   -1    0    0  502  501  0.00000000000E+00  0.00000000000E+00  0.69222980579E+03  0.69222980579E+03  0.00000000000E+00 0.  1.
         21   -1    0    0  503  502 -0.00000000000E+00 -0.00000000000E+00 -0.14592033988E+03  0.14592033988E+03  0.00000000000E+00 0. -1.
         25    1    1    2    0    0  0.56764216649E+02 -0.20170920783E+03  0.49614118294E+02  0.24898863739E+03  0.12500000000E+03 0.  0.
         21    1    1    2  503  504 -0.39786060578E+02  0.18597499922E+03  0.15139061335E+03  0.24308177382E+03  0.00000000000E+00 0.  1.
         21    1    1    2  504  501 -0.16978156071E+02  0.15734208607E+02  0.34530473426E+03  0.34607973446E+03  0.00000000000E+00 0.  1.
<mgrwt>
<rscale>  4 0.44914406E+03</rscale>
<asrwt>0</asrwt>
<pdfrwt beam="1">  1       21 0.10649689E+00 0.44914406E+03</pdfrwt>
<pdfrwt beam="2">  1       21 0.22449284E-01 0.44914406E+03</pdfrwt>
<totfact> 0.11704417E+04</totfact>
</mgrwt>
</event>
<event>
 5    0  0.2720079E+000  0.1126359E+04  0.7546771E-02  0.9179875E-01
         21   -1    0    0  504  501  0.00000000000E+00  0.00000000000E+00  0.18651203043E+04  0.18651203043E+04  0.00000000000E+00 0.  1.
         21   -1    0    0  503  502 -0.00000000000E+00 -0.00000000000E+00 -0.30602788406E+03  0.30602788406E+03  0.00000000000E+00 0.  1.
         25    1    1    2    0    0  0.15224895663E+02  0.47273349414E+03  0.68246619034E+03  0.83969866910E+03  0.12500000000E+03 0.  0.
         21    1    1    2  503  501 -0.19182362109E+02 -0.50055593659E+03  0.48964433418E+02  0.50331076326E+03  0.00000000000E+00 0.  1.
         21    1    1    2  504  502  0.39574664462E+01  0.27822442449E+02  0.82766179643E+03  0.82813875596E+03  0.00000000000E+00 0.  1.
<mgrwt>
<rscale>  4 0.11263585E+04</rscale>
<asrwt>0</asrwt>
<pdfrwt beam="1">  1       21 0.28694158E+00 0.11263585E+04</pdfrwt>
<pdfrwt beam="2">  1       21 0.47081214E-01 0.11263585E+04</pdfrwt>
<totfact> 0.10709488E+02</totfact>
</mgrwt>
</event>
<event>
 5    0  0.2720079E+000  0.5421510E+03  0.7546771E-02  0.1003327E+00
         21   -1    0    0  504  501  0.00000000000E+00  0.00000000000E+00  0.44085182314E+03  0.44085182314E+03  0.00000000000E+00 0. -1.
         21   -1    0    0  503  502 -0.00000000000E+00 -0.00000000000E+00 -0.65584550224E+03  0.65584550224E+03  0.00000000000E+00 0. -1.
         25    1    1    2    0    0  0.42778968663E+03 -0.53943407090E+02 -0.29760594256E+03  0.53861693643E+03  0.12500000000E+03 0.  0.
         21    1    1    2  503  501 -0.20534571479E+02  0.90324278998E+02 -0.75697992427E+02  0.11962579178E+03  0.00000000000E+00 0.  1.
         21    1    1    2  504  502 -0.40725511515E+03 -0.36380871908E+02  0.15831025589E+03  0.43845459717E+03  0.00000000000E+00 0. -1.
<mgrwt>
<rscale>  4 0.54215096E+03</rscale>
<asrwt>0</asrwt>
<pdfrwt beam="1">  1       21 0.67823358E-01 0.54215096E+03</pdfrwt>
<pdfrwt beam="2">  1       21 0.10089931E+00 0.54215096E+03</pdfrwt>
<totfact> 0.13214383E+03</totfact>
</mgrwt>
</event>
<event>
 5    0  0.2720079E+000  0.3709512E+03  0.7546771E-02  0.1054330E+00
         21   -1    0    0  504  501  0.00000000000E+00  0.00000000000E+00  0.75025862481E+03  0.75025862481E+03  0.00000000000E+00 0.  1.
         21   -1    0    0  501  502 -0.00000000000E+00 -0.00000000000E+00 -0.33985630514E+03  0.33985630514E+03  0.00000000000E+00 0. -1.
         25    1    1    2    0    0  0.11460656290E+03 -0.18761192897E+03 -0.26901723043E+03  0.36922644870E+03  0.12500000000E+03 0.  0.
         21    1    1    2  503  502 -0.35341048790E+02  0.99164395481E+01  0.49641468902E+02  0.61738164353E+02  0.00000000000E+00 0.  1.
         21    1    1    2  504  503 -0.79265514109E+02  0.17769548942E+03  0.62977808121E+03  0.65915031689E+03  0.00000000000E+00 0.  1.
<mgrwt>
<rscale>  4 0.37095117E+03</rscale>
<asrwt>0</asrwt>
<pdfrwt beam="1">  1       21 0.11542440E+00 0.37095117E+03</pdfrwt>
<pdfrwt beam="2">  1       21 0.52285586E-01 0.37095117E+03</pdfrwt>
<totfact> 0.17911444E+03</totfact>
</mgrwt>
</event>
<event>
 5    0  0.2720079E+000  0.7665625E+03  0.7546771E-02  0.9609719E-01
         21   -1    0    0  503  501  0.00000000000E+00  0.00000000000E+00  0.22045089094E+03  0.22045089094E+03  0.00000000000E+00 0.  1.
         21   -1    0    0  504  502 -0.00000000000E+00 -0.00000000000E+00 -0.12647334014E+04  0.12647334014E+04  0.00000000000E+00 0.  1.
         25    1    1    2    0    0  0.30260498260E+03 -0.35488462572E+01 -0.70648111256E+03  0.77866740796E+03  0.12500000000E+03 0.  0.
         21    1    1    2  503  502  0.89965162391E+02 -0.85252961566E+02  0.62540781717E+02  0.13882776119E+03  0.00000000000E+00 0.  1.
         21    1    1    2  504  501 -0.39257014499E+03  0.88801807823E+02 -0.40034217962E+03  0.56768912319E+03  0.00000000000E+00 0.  1.
<mgrwt>
<rscale>  4 0.76656253E+03</rscale>
<asrwt>0</asrwt>
<pdfrwt beam="1">  1       21 0.33915521E-01 0.76656253E+03</pdfrwt>
<pdfrwt beam="2">  1       21 0.19457437E+00 0.76656253E+03</pdfrwt>
<totfact> 0.91594851E+02</totfact>
</mgrwt>
</event>
<event>
 5    0  0.2720079E+000  0.7728378E+03  0.7546771E-02  0.9600187E-01
         21   -1    0    0  502  501  0.00000000000E+00  0.00000000000E+00  0.33026106185E+03  0.33026106185E+03  0.00000000000E+00 0.  1.
         21   -1    0    0  503  502 -0.00000000000E+00 -0.00000000000E+00 -0.56026356601E+03  0.56026356601E+03  0.00000000000E+00 0. -1.
         25    1    1    2    0    0  0.36015454556E+03  0.12242939704E+03 -0.22174009342E+03  0.45770506112E+03  0.12500000000E+03 0.  0.
         21    1    1    2  503  504 -0.33985832650E+03 -0.12344457416E+03 -0.69584773320E+02  0.36821771503E+03  0.00000000000E+00 0.  1.
         21    1    1    2  504  501 -0.20296219063E+02  0.10151771253E+01  0.61322362578E+02  0.64601851715E+02  0.00000000000E+00 0.  1.
<mgrwt>
<rscale>  4 0.77283779E+03</rscale>
<asrwt>0</asrwt>
<pdfrwt beam="1">  1       21 0.50809395E-01 0.77283779E+03</pdfrwt>
<pdfrwt beam="2">  1       21 0.86194394E-01 0.77283779E+03</pdfrwt>
<totfact> 0.34427735E+03</totfact>
</mgrwt>
</event>
<event>
 5    0  0.2720079E+000  0.5581956E+03  0.7546771E-02  0.9996146E-01
         21   -1    0    0  502  501  0.00000000000E+00  0.00000000000E+00  0.41150753247E+03  0.41150753247E+03  0.00000000000E+00 0.  1.
         21   -1    0    0  503  502 -0.00000000000E+00 -0.00000000000E+00 -0.52810628863E+03  0.52810628863E+03  0.00000000000E+00 0.  1.
         25    1    1    2    0    0 -0.91720212314E+02  0.36259271203E+03 -0.29111762083E+03  0.49016379030E+03  0.12500000000E+03 0.  0.
         21    1    1    2  503  504  0.34442285903E+01 -0.14640644556E+03 -0.17016029260E+02  0.14743220565E+03  0.00000000000E+00 0. -1.
         21    1    1    2  504  501  0.88275983724E+02 -0.21618626648E+03  0.19153489392E+03  0.30201782514E+03  0.00000000000E+00 0.  1.
<mgrwt>
<rscale>  4 0.55819558E+03</rscale>
<asrwt>0</asrwt>
<pdfrwt beam="1">  1       21 0.63308851E-01 0.55819558E+03</pdfrwt>
<pdfrwt beam="2">  1       21 0.81247122E-01 0.55819558E+03</pdfrwt>
<totfact> 0.25713237E+03</totfact>
</mgrwt>
</event>
<event>
 5    0  0.2720079E+000  0.4339047E+03  0.7546771E-02  0.1032634E+00
         21   -1    0    0  503  501  0.00000000000E+00  0.00000000000E+00  0.64097988492E+03  0.64097988492E+03  0.00000000000E+00 0.  1.
         21   -1    0    0  504  502 -0.00000000000E+00 -0.00000000000E+00 -0.26453938156E+03  0.26453938156E+03  0.00000000000E+00 0.  1.
         25    1    1    2    0    0 -0.84912538109E+02 -0.18518575578E+03 -0.16885356519E+02  0.23961222535E+03  0.12500000000E+03 0.  0.
         21    1    1    2  503  502  0.29159833589E+02  0.29081404686E+01  0.46227774810E+03  0.46320564500E+03  0.00000000000E+00 0.  1.
         21    1    1    2  504  501  0.55752704520E+02  0.18227761531E+03 -0.68951888209E+02  0.20270139613E+03  0.00000000000E+00 0.  1.
<mgrwt>
<rscale>  4 0.43390472E+03</rscale>
<asrwt>0</asrwt>
<pdfrwt beam="1">  1       21 0.98612290E-01 0.43390472E+03</pdfrwt>
<pdfrwt beam="2">  1       21 0.40698366E-01 0.43390472E+03</pdfrwt>
<totfact> 0.43467677E+03</totfact>
</mgrwt>
</event>
<event>
 5    0  0.2720079E+000  0.9307276E+03  0.7546771E-02  0.9387965E-01
         21   -1    0    0  503  501  0.00000000000E+00  0.00000000000E+00  0.81935647363E+03  0.81935647363E+03  0.00000000000E+00 0.  1.
         21   -1    0    0  504  502 -0.00000000000E+00 -0.00000000000E+00 -0.53293441342E+03  0.53293441342E+03  0.00000000000E+00 0. -1.
         25    1    1    2    0    0 -0.27069460821E+03  0.44017561435E+03 -0.11394527140E+02  0.53177530746E+03  0.12500000000E+03 0.  0.
         21    1    1    2  503  502  0.29383464289E+02 -0.12922013362E+03  0.39369682915E+03  0.41540152165E+03  0.00000000000E+00 0.  1.
         21    1    1    2  504  501  0.24131114392E+03 -0.31095548073E+03 -0.95880241798E+02  0.40511405794E+03  0.00000000000E+00 0.  1.
<mgrwt>
<rscale>  4 0.93072757E+03</rscale>
<asrwt>0</asrwt>
<pdfrwt beam="1">  1       21 0.12605484E+00 0.93072757E+03</pdfrwt>
<pdfrwt beam="2">  1       21 0.81989910E-01 0.93072757E+03</pdfrwt>
<totfact> 0.43956004E+02</totfact>
</mgrwt>
</event>
<event>
 5    0  0.2720079E+000  0.7537785E+03  0.7546771E-02  0.9629441E-01
         21   -1    0    0  503  501  0.00000000000E+00  0.00000000000E+00  0.83250784151E+02  0.83250784151E+02  0.00000000000E+00 0. -1.
         21   -1    0    0  504  502 -0.00000000000E+00 -0.00000000000E+00 -0.22710044985E+04  0.22710044985E+04  0.00000000000E+00 0. -1.
         25    1    1    2    0    0  0.33856507928E+03  0.16665669058E+03 -0.12648893380E+04  0.13258849131E+04  0.12500000000E+03 0.  0.
         21    1    1    2  503  502 -0.18440922597E+02 -0.16884763495E+02  0.12865890718E+02  0.28119281792E+02  0.00000000000E+00 0. -1.
         21    1    1    2  504  501 -0.32012415668E+03 -0.14977192709E+03 -0.93573026705E+03  0.10002510877E+04  0.00000000000E+00 0. -1.
<mgrwt>
<rscale>  4 0.75377851E+03</rscale>
<asrwt>0</asrwt>
<pdfrwt beam="1">  1       21 0.12807811E-01 0.75377851E+03</pdfrwt>
<pdfrwt beam="2">  1       21 0.34938536E+00 0.75377851E+03</pdfrwt>
<totfact> 0.63713922E+02</totfact>
</mgrwt>
</event>
<event>
 5    0  0.2720079E+000  0.4438317E+03  0.7546771E-02  0.1029578E+00
         21   -1    0    0  503  501  0.00000000000E+00  0.00000000000E+00  0.48436772321E+03  0.48436772321E+03  0.00000000000E+00 0.  1.
         21   -1    0    0  504  502 -0.00000000000E+00 -0.00000000000E+00 -0.11747066092E+04  0.11747066092E+04  0.00000000000E+00 0. -1.
         25    1    1    2    0    0 -0.11706844219E+03  0.18807183332E+03 -0.66509623962E+03  0.71207727292E+03  0.12500000000E+03 0.  0.
         21    1    1    2  503  502 -0.80689289658E+01 -0.46030396737E+02  0.44116701596E+03  0.44363525673E+03  0.00000000000E+00 0.  1.
         21    1    1    2  504  501  0.12513737116E+03 -0.14204143658E+03 -0.46640966233E+03  0.50336180276E+03  0.00000000000E+00 0. -1.
<mgrwt>
<rscale>  4 0.44383166E+03</rscale>
<asrwt>0</asrwt>
<pdfrwt beam="1">  1       21 0.74518111E-01 0.44383166E+03</pdfrwt>
<pdfrwt beam="2">  1       21 0.18072409E+00 0.44383166E+03</pdfrwt>
<totfact> 0.23723156E+02</totfact>
</mgrwt>
</event>
<event>
 5    0  0.2720079E+000  0.4888192E+03  0.7546771E-02  0.1016739E+00
         21   -1    0    0  504  501  0.00000000000E+00  0.00000000000E+00  0.59717888153E+03  0.59717888153E+03  0.00000000000E+00 0. -1.
         21   -1    0    0  501  502 -0.00000000000E+00 -0.00000000000E+00 -0.12281743589E+03  0.12281743589E+03  0.00000000000E+00 0. -1.
         25    1    1    2    0    0  0.21663692936E+01  0.22472875430E+03  0.31281705655E+03  0.40495335168E+03  0.12500000000E+03 0.  0.
         21    1    1    2  503  502  0.13998848089E+01 -0.20036274472E+03  0.57975272709E+02  0.20858648421E+03  0.00000000000E+00 0. -1.
         21    1    1    2  504  503 -0.35662541025E+01 -0.24366009582E+02  0.10356911638E+03  0.10645648153E+03  0.00000000000E+00 0.  1.
<mgrwt>
<rscale>  4 0.48881917E+03</rscale>
<asrwt>0</asrwt>
<pdfrwt beam="1">  1       21 0.91873672E-01 0.48881917E+03</pdfrwt>
<pdfrwt beam="2">  1       21 0.18894990E-01 0.48881917E+03</pdfrwt>
<totfact> 0.23034403E+04</totfact>
</mgrwt>
</event>
<event>
 5    0  0.2720079E+000  0.9132953E+03  0.7546771E-02  0.9409113E-01
         21   -1    0    0  504  501  0.00000000000E+00  0.00000000000E+00  0.28927861194E+03  0.28927861194E+03  0.00000000000E+00 0. -1.
         21   -1    0    0  501  502 -0.00000000000E+00 -0.00000000000E+00 -0.80205632297E+03  0.80205632297E+03  0.00000000000E+00 0.  1.
         25    1    1    2    0    0  0.21905602806E+03  0.40106853030E+02 -0.73034611039E+03  0.77370830683E+03  0.12500000000E+03 0.  0.
         21    1    1    2  503  502 -0.20878477550E+03 -0.21389686376E+02  0.19368396761E+03  0.28559075699E+03  0.00000000000E+00 0. -1.
         21    1    1    2  504  503 -0.10271252551E+02 -0.18717166654E+02  0.23884431760E+02  0.32035871098E+02  0.00000000000E+00 0. -1.
<mgrwt>
<rscale>  4 0.91329527E+03</rscale>
<asrwt>0</asrwt>
<pdfrwt beam="1">  1       21 0.44504403E-01 0.91329527E+03</pdfrwt>
<pdfrwt beam="2">  1       21 0.12339328E+00 0.91329527E+03</pdfrwt>
<totfact> 0.18240822E+03</totfact>
</mgrwt>
</event>
<event>
 5    0  0.2720079E+000  0.3846714E+03  0.7546771E-02  0.1049221E+00
         21   -1    0    0  504  501  0.00000000000E+00  0.00000000000E+00  0.83638265903E+03  0.83638265903E+03  0.00000000000E+00 0. -1.
         21   -1    0    0  501  502 -0.00000000000E+00 -0.00000000000E+00 -0.10707053782E+03  0.10707053782E+03  0.00000000000E+00 0. -1.
         25    1    1    2    0    0  0.18374441104E+03  0.91448849505E+02  0.27755662321E+03  0.36713428027E+03  0.12500000000E+03 0.  0.
         21    1    1    2  503  502 -0.62185493102E+02 -0.84968045871E+02 -0.32176784965E+01  0.10534209902E+03  0.00000000000E+00 0. -1.
         21    1    1    2  504  503 -0.12155891794E+03 -0.64808036348E+01  0.45497317650E+03  0.47097681756E+03  0.00000000000E+00 0. -1.
<mgrwt>
<rscale>  4 0.38467138E+03</rscale>
<asrwt>0</asrwt>
<pdfrwt beam="1">  1       21 0.12867425E+00 0.38467138E+03</pdfrwt>
<pdfrwt beam="2">  1       21 0.16472391E-01 0.38467138E+03</pdfrwt>
<totfact> 0.13339456E+04</totfact>
</mgrwt>
</event>
<event>
 5    0  0.2720079E+000  0.5315895E+03  0.7546771E-02  0.1005847E+00
         21   -1    0    0  504  501  0.00000000000E+00  0.00000000000E+00  0.85778965167E+03  0.85778965167E+03  0.00000000000E+00 0. -1.
         21   -1    0    0  501  502 -0.00000000000E+00 -0.00000000000E+00 -0.14845752884E+03  0.14845752884E+03  0.00000000000E+00 0. -1.
         25    1    1    2    0    0  0.18500835114E+03  0.16500044551E+03  0.17842276414E+03  0.33001957483E+03  0.12500000000E+03 0.  0.
         21    1    1    2  503  502 -0.21187215207E+03 -0.13987523643E+03  0.15276222738E+03  0.29629577909E+03  0.00000000000E+00 0. -1.
         21    1    1    2  504  503  0.26863800935E+02 -0.25125209076E+02  0.37814713131E+03  0.37993182659E+03  0.00000000000E+00 0. -1.
<mgrwt>
<rscale>  4 0.53158953E+03</rscale>
<asrwt>0</asrwt>
<pdfrwt beam="1">  1       21 0.13196764E+00 0.53158953E+03</pdfrwt>
<pdfrwt beam="2">  1       21 0.22839620E-01 0.53158953E+03</pdfrwt>
<totfact> 0.64159580E+03</totfact>
</mgrwt>
</event>
<event>
 5    0  0.2720079E+000  0.6065340E+03  0.7546771E-02  0.9891942E-01
         21   -1    0    0  504  501  0.00000000000E+00  0.00000000000E+00  0.54427496040E+03  0.54427496040E+03  0.00000000000E+00 0.  1.
         21   -1    0    0  501  502 -0.00000000000E+00 -0.00000000000E+00 -0.90313147909E+03  0.90313147909E+03  0.00000000000E+00 0. -1.
         25    1    1    2    0    0  0.15830618307E+03 -0.15882235013E+03 -0.66528343816E+03  0.71310058168E+03  0.12500000000E+03 0.  0.
         21    1    1    2  503  502 -0.20796603447E+03  0.15208721171E+03 -0.13443257278E+03  0.29060713701E+03  0.00000000000E+00 0.  1.
         21    1    1    2  504  503  0.49659851401E+02  0.67351384294E+01  0.44085949225E+03  0.44369872080E+03  0.00000000000E+00 0.  1.
<mgrwt>
<rscale>  4 0.60653399E+03</rscale>
<asrwt>0</asrwt>
<pdfrwt beam="1">  1       21 0.83734610E-01 0.60653399E+03</pdfrwt>
<pdfrwt beam="2">  1       21 0.13894330E+00 0.60653399E+03</pdfrwt>
<totfact> 0.35225889E+02</totfact>
</mgrwt>
</event>
<event>
 5    0  0.2720079E+000  0.6165602E+03  0.7546771E-02  0.9871632E-01
         21   -1    0    0  502  501  0.00000000000E+00  0.00000000000E+00  0.59850678955E+03  0.59850678955E+03  0.00000000000E+00 0. -1.
         21   -1    0    0  503  502 -0.00000000000E+00 -0.00000000000E+00 -0.25956913581E+03  0.25956913581E+03  0.00000000000E+00 0. -1.
         25    1    1    2    0    0  0.20333845500E+03 -0.24273668630E+03  0.12721334118E+02  0.34066766577E+03  0.12500000000E+03 0.  0.
         21    1    1    2  503  504 -0.15998098777E+03  0.21489147320E+03  0.10089944620E+03  0.28627427398E+03  0.00000000000E+00 0. -1.
         21    1    1    2  504  501 -0.43357467232E+02  0.27845213101E+02  0.22531687342E+03  0.23113398561E+03  0.00000000000E+00 0. -1.
<mgrwt>
<rscale>  4 0.61656023E+03</rscale>
<asrwt>0</asrwt>
<pdfrwt beam="1">  1       21 0.92077967E-01 0.61656023E+03</pdfrwt>
<pdfrwt beam="2">  1       21 0.39933713E-01 0.61656023E+03</pdfrwt>
<totfact> 0.50592296E+03</totfact>
</mgrwt>
</event>
<event>
 5    0  0.2720079E+000  0.5346830E+03  0.7546771E-02  0.1005103E+00
         21   -1    0    0  503  501  0.00000000000E+00  0.00000000000E+00  0.12669490562E+03  0.12669490562E+03  0.00000000000E+00 0. -1.
         21   -1    0    0  504  502 -0.00000000000E+00 -0.00000000000E+00 -0.71982919891E+03  0.71982919891E+03  0.00000000000E+00 0.  1.
         25    1    1    2    0    0 -0.18095027583E+03  0.15384182851E+03 -0.29981836673E+03  0.40240074994E+03  0.12500000000E+03 0.  0.
         21    1    1    2  503  502 -0.32372266860E+02  0.54520826310E+01  0.15571135819E+02  0.36333856627E+02  0.00000000000E+00 0. -1.
         21    1    1    2  504  501  0.21332254269E+03 -0.15929391114E+03 -0.30888706237E+03  0.40778949796E+03  0.00000000000E+00 0.  1.
<mgrwt>
<rscale>  4 0.53468303E+03</rscale>
<asrwt>0</asrwt>
<pdfrwt beam="1">  1       21 0.19491524E-01 0.53468303E+03</pdfrwt>
<pdfrwt beam="2">  1       21 0.11074295E+00 0.53468303E+03</pdfrwt>
<totfact> 0.13607221E+04</totfact>
</mgrwt>
</event>
<event>
 5    0  0.2720079E+000  0.5236990E+03  0.7546771E-02  0.1007772E+00
         21   -1    0    0  502  501  0.00000000000E+00  0.00000000000E+00  0.13731332553E+03  0.13731332553E+03  0.00000000000E+00 0. -1.
         21   -1    0    0  504  502 -0.00000000000E+00 -0.00000000000E+00 -0.56923440404E+03  0.56923440404E+03  0.00000000000E+00 0.  1.
         25    1    1    2    0    0  0.20421609366E+03  0.66485608604E+02 -0.49661774458E+02  0.25340844679E+03  0.12500000000E+03 0.  0.
         21    1    1    2  503  501 -0.25098609670E+02 -0.12560319143E+02 -0.56381074280E+00  0.28071688708E+02  0.00000000000E+00 0. -1.
         21    1    1    2  504  503 -0.17911748399E+03 -0.53925289461E+02 -0.38169549331E+03  0.42506759407E+03  0.00000000000E+00 0.  1.
<mgrwt>
<rscale>  4 0.52369900E+03</rscale>
<asrwt>0</asrwt>
<pdfrwt beam="1">  1       21 0.21125127E-01 0.52369900E+03</pdfrwt>
<pdfrwt beam="2">  1       21 0.87574523E-01 0.52369900E+03</pdfrwt>
<totfact> 0.20693763E+04</totfact>
</mgrwt>
</event>
<event>
 5    0  0.2720079E+000  0.4353084E+03  0.7546771E-02  0.1032196E+00
         21   -1    0    0  502  501  0.00000000000E+00  0.00000000000E+00  0.23707908641E+03  0.23707908641E+03  0.00000000000E+00 0. -1.
         21   -1    0    0  504  502 -0.00000000000E+00 -0.00000000000E+00 -0.59138100301E+03  0.59138100301E+03  0.00000000000E+00 0.  1.
         25    1    1    2    0    0  0.54497309075E+02  0.20982419441E+03 -0.31097686229E+03  0.39915881318E+03  0.12500000000E+03 0.  0.
         21    1    1    2  503  501  0.23229737692E+02 -0.42680556106E+02  0.15268544794E+03  0.16023138455E+03  0.00000000000E+00 0. -1.
         21    1    1    2  504  503 -0.77727046766E+02 -0.16714363830E+03 -0.19601050225E+03  0.26906989169E+03  0.00000000000E+00 0.  1.
<mgrwt>
<rscale>  4 0.43530841E+03</rscale>
<asrwt>0</asrwt>
<pdfrwt beam="1">  1       21 0.36473706E-01 0.43530841E+03</pdfrwt>
<pdfrwt beam="2">  1       21 0.90981692E-01 0.43530841E+03</pdfrwt>
<totfact> 0.65937988E+03</totfact>
</mgrwt>
</event>
<event>
 5    0  0.2720079E+000  0.4153412E+03  0.7546771E-02  0.1038593E+00
         21   -1    0    0  503  501  0.00000000000E+00  0.00000000000E+00  0.11509637089E+03  0.11509637089E+03  0.00000000000E+00 0.  1.
         21   -1    0    0  504  502 -0.00000000000E+00 -0.00000000000E+00 -0.69662140093E+03  0.69662140093E+03  0.00000000000E+00 0.  1.
         25    1    1    2    0    0 -0.13544226752E+03  0.14921054741E+03 -0.30570696470E+03  0.38689810487E+03  0.12500000000E+03 0.  0.
         21    1    1    2  503  502  0.11968907775E+03 -0.12526136298E+03 -0.32477027024E+03  0.36809185378E+03  0.00000000000E+00 0.  1.
         21    1    1    2  504  501  0.15753189770E+02 -0.23949184430E+02  0.48952204901E+02  0.56727813174E+02  0.00000000000E+00 0.  1.
<mgrwt>
<rscale>  4 0.41534118E+03</rscale>
<asrwt>0</asrwt>
<pdfrwt beam="1">  1       21 0.17707134E-01 0.41534118E+03</pdfrwt>
<pdfrwt beam="2">  1       21 0.10717252E+00 0.41534118E+03</pdfrwt>
<totfact> 0.18275594E+04</totfact>
</mgrwt>
</event>
<event>
 5    0  0.2720079E+000  0.4510504E+03  0.7546771E-02  0.1027409E+00
         21   -1    0    0  503  501  0.00000000000E+00  0.00000000000E+00  0.73637132054E+02  0.73637132054E+02  0.00000000000E+00 0.  1.
         21   -1    0    0  504  502 -0.00000000000E+00 -0.00000000000E+00 -0.80761668454E+03  0.80761668454E+03  0.00000000000E+00 0.  1.
         25    1    1    2    0    0 -0.20360345725E+03 -0.47899429658E+02 -0.33193972210E+03  0.41177384846E+03  0.12500000000E+03 0.  0.
         21    1    1    2  503  502  0.14931250933E+02 -0.33473779938E+02 -0.52684854516E+02  0.64180449462E+02  0.00000000000E+00 0.  1.
         21    1    1    2  504  501  0.18867220631E+03  0.81373209595E+02 -0.34935497587E+03  0.40529951867E+03  0.00000000000E+00 0.  1.
<mgrwt>
<rscale>  4 0.45105035E+03</rscale>
<asrwt>0</asrwt>
<pdfrwt beam="1">  1       21 0.11328789E-01 0.45105035E+03</pdfrwt>
<pdfrwt beam="2">  1       21 0.12424872E+00 0.45105035E+03</pdfrwt>
<totfact> 0.28468170E+04</totfact>
</mgrwt>
</event>
<event>
 5    0  0.2720079E+000  0.4166780E+03  0.7546771E-02  0.1038153E+00
         21   -1    0    0  503  501  0.00000000000E+00  0.00000000000E+00  0.10975339823E+03  0.10975339823E+03  0.00000000000E+00 0. -1.
         21   -1    0    0  504  502 -0.00000000000E+00 -0.00000000000E+00 -0.11525415067E+04  0.11525415067E+04  0.00000000000E+00 0. -1.
         25    1    1    2    0    0  0.12071819669E+03  0.15976587483E+03 -0.81568248346E+03  0.84915306723E+03  0.12500000000E+03 0.  0.
         21    1    1    2  503  502 -0.46306189314E+02 -0.15180957302E+02  0.63554851197E+02  0.80087100984E+02  0.00000000000E+00 0. -1.
         21    1    1    2  504  501 -0.74412007381E+02 -0.14458491753E+03 -0.29066047620E+03  0.33305473670E+03  0.00000000000E+00 0. -1.
<mgrwt>
<rscale>  4 0.41667799E+03</rscale>
<asrwt>0</asrwt>
<pdfrwt beam="1">  1       21 0.16885139E-01 0.41667799E+03</pdfrwt>
<pdfrwt beam="2">  1       21 0.17731407E+00 0.41667799E+03</pdfrwt>
<totfact> 0.52599310E+03</totfact>
</mgrwt>
</event>
<event>
 5    0  0.2720079E+000  0.4631068E+03  0.7546771E-02  0.1023884E+00
         21   -1    0    0  503  501  0.00000000000E+00  0.00000000000E+00  0.58870851615E+03  0.58870851615E+03  0.00000000000E+00 0.  1.
         21   -1    0    0  504  502 -0.00000000000E+00 -0.00000000000E+00 -0.29119566619E+03  0.29119566619E+03  0.00000000000E+00 0.  1.
         25    1    1    2    0    0  0.22497789423E+03  0.31748842366E+02 -0.10582589863E+02  0.25953811491E+03  0.12500000000E+03 0.  0.
         21    1    1    2  503  502 -0.19171739285E+03 -0.24679139712E+02 -0.95317406633E+02  0.21552268249E+03  0.00000000000E+00 0.  1.
         21    1    1    2  504  501 -0.33260501371E+02 -0.70697026543E+01  0.40341284646E+03  0.40484338494E+03  0.00000000000E+00 0.  1.
<mgrwt>
<rscale>  4 0.46310685E+03</rscale>
<asrwt>0</asrwt>
<pdfrwt beam="1">  1       21 0.90570541E-01 0.46310685E+03</pdfrwt>
<pdfrwt beam="2">  1       21 0.44799333E-01 0.46310685E+03</pdfrwt>
<totfact> 0.43211758E+03</totfact>
</mgrwt>
</event>
<event>
 5    0  0.2720079E+000  0.5822419E+03  0.7546771E-02  0.9942949E-01
         21   -1    0    0  502  501  0.00000000000E+00  0.00000000000E+00  0.22422017946E+03  0.22422017946E+03  0.00000000000E+00 0. -1.
         21   -1    0    0  503  502 -0.00000000000E+00 -0.00000000000E+00 -0.71260699868E+03  0.71260699868E+03  0.00000000000E+00 0. -1.
         25    1    1    2    0    0  0.17142769307E+03  0.17528913472E+03 -0.89806437821E+02  0.28948908611E+03  0.12500000000E+03 0.  0.
         21    1    1    2  503  504 -0.16642173117E+03 -0.11951190478E+03 -0.49506001707E+03  0.53578326635E+03  0.00000000000E+00 0. -1.
         21    1    1    2  504  501 -0.50059619017E+01 -0.55777229931E+02  0.96479635673E+02  0.11155482568E+03  0.00000000000E+00 0. -1.
<mgrwt>
<rscale>  4 0.58224195E+03</rscale>
<asrwt>0</asrwt>
<pdfrwt beam="1">  1       21 0.34495413E-01 0.58224195E+03</pdfrwt>
<pdfrwt beam="2">  1       21 0.10963184E+00 0.58224195E+03</pdfrwt>
<totfact> 0.44921829E+03</totfact>
</mgrwt>
</event>
<event>
 5    0  0.2720079E+000  0.4615847E+03  0.7546771E-02  0.1024323E+00
         21   -1    0    0  504  501  0.00000000000E+00  0.00000000000E+00  0.64182746078E+02  0.64182746078E+02  0.00000000000E+00 0.  1.
         21   -1    0    0  501  502 -0.00000000000E+00 -0.00000000000E+00 -0.12578222506E+04  0.12578222506E+04  0.00000000000E+00 0.  1.
         25    1    1    2    0    0 -0.20191147745E+03 -0.48622195629E+01 -0.57335462466E+03  0.62060648686E+03  0.12500000000E+03 0.  0.
         21    1    1    2  503  502  0.22232176299E+03 -0.13320726478E+02 -0.63315500956E+03  0.67118527560E+03  0.00000000000E+00 0.  1.
         21    1    1    2  504  503 -0.20410285536E+02  0.18182946041E+02  0.12870129715E+02  0.30213234207E+02  0.00000000000E+00 0.  1.
<mgrwt>
<rscale>  4 0.46158473E+03</rscale>
<asrwt>0</asrwt>
<pdfrwt beam="1">  1       21 0.98742679E-02 0.46158473E+03</pdfrwt>
<pdfrwt beam="2">  1       21 0.19351113E+00 0.46158473E+03</pdfrwt>
<totfact> 0.10682168E+04</totfact>
</mgrwt>
</event>
<event>
 5    0  0.2720079E+000  0.4878371E+03  0.7546771E-02  0.1017003E+00
         21   -1    0    0  502  501  0.00000000000E+00  0.00000000000E+00  0.12867648564E+03  0.12867648564E+03  0.00000000000E+00 0.  1.
         21   -1    0    0  504  502 -0.00000000000E+00 -0.00000000000E+00 -0.55832109220E+03  0.55832109220E+03  0.00000000000E+00 0.  1.
         25    1    1    2    0    0  0.14038041119E+03 -0.18602774754E+03 -0.31142725431E+03  0.40856445933E+03  0.12500000000E+03 0.  0.
         21    1    1    2  503  501  0.84863517168E+01  0.37998658624E+02 -0.32331706541E+01  0.39068780570E+02  0.00000000000E+00 0.  1.
         21    1    1    2  504  503 -0.14886676290E+03  0.14802908892E+03 -0.11498418159E+03  0.23936433794E+03  0.00000000000E+00 0.  1.
<mgrwt>
<rscale>  4 0.48783708E+03</rscale>
<asrwt>0</asrwt>
<pdfrwt beam="1">  1       21 0.19796382E-01 0.48783708E+03</pdfrwt>
<pdfrwt beam="2">  1       21 0.85895553E-01 0.48783708E+03</pdfrwt>
<totfact> 0.24726822E+04</totfact>
</mgrwt>
</event>
<event>
 5    0  0.2720079E+000  0.3671404E+03  0.7546771E-02  0.1055792E+00
         21   -1    0    0  503  501  0.00000000000E+00  0.00000000000E+00  0.33833090005E+03  0.33833090005E+03  0.00000000000E+00 0. -1.
         21   -1    0    0  504  502 -0.00000000000E+00 -0.00000000000E+00 -0.20973816405E+03  0.20973816405E+03  0.00000000000E+00 0.  1.
         25    1    1    2    0    0  0.19193546250E+03 -0.65569714331E+02 -0.11844487240E+02  0.23854538579E+03  0.12500000000E+03 0.  0.
         21    1    1    2  503  502 -0.78551690392E+02  0.53871869126E+01  0.16128323179E+03  0.17947610065E+03  0.00000000000E+00 0. -1.
         21    1    1    2  504  501 -0.11338377211E+03  0.60182527418E+02 -0.20846008552E+02  0.13004757767E+03  0.00000000000E+00 0. -1.
<mgrwt>
<rscale>  4 0.36714044E+03</rscale>
<asrwt>0</asrwt>
<pdfrwt beam="1">  1       21 0.52050908E-01 0.36714044E+03</pdfrwt>
<pdfrwt beam="2">  1       21 0.32267410E-01 0.36714044E+03</pdfrwt>
<totfact> 0.30168378E+04</totfact>
</mgrwt>
</event>
<event>
 5    0  0.2720079E+000  0.6210338E+03  0.7546771E-02  0.9862703E-01
         21   -1    0    0  504  501  0.00000000000E+00  0.00000000000E+00  0.12900716615E+04  0.12900716615E+04  0.00000000000E+00 0.  1.
         21   -1    0    0  503  502 -0.00000000000E+00 -0.00000000000E+00 -0.25990175784E+03  0.25990175784E+03  0.00000000000E+00 0.  1.
         25    1    1    2    0    0  0.15067451545E+03 -0.21792699484E+03  0.32278597443E+02  0.29472341702E+03  0.12500000000E+03 0.  0.
         21    1    1    2  503  501 -0.18324742964E+03  0.27039987662E+03  0.81337531487E+02  0.33661774726E+03  0.00000000000E+00 0.  1.
         21    1    1    2  504  502  0.32572914184E+02 -0.52472881773E+02  0.91655377471E+03  0.91863225503E+03  0.00000000000E+00 0.  1.
<mgrwt>
<rscale>  4 0.62103385E+03</rscale>
<asrwt>0</asrwt>
<pdfrwt beam="1">  1       21 0.19847256E+00 0.62103385E+03</pdfrwt>
<pdfrwt beam="2">  1       21 0.39984887E-01 0.62103385E+03</pdfrwt>
<totfact> 0.64090236E+02</totfact>
</mgrwt>
</event>
<event>
 5    0  0.2720079E+000  0.4669844E+03  0.7546771E-02  0.1022775E+00
         21   -1    0    0  503  501  0.00000000000E+00  0.00000000000E+00  0.11677811997E+04  0.11677811997E+04  0.00000000000E+00 0.  1.
         21   -1    0    0  504  502 -0.00000000000E+00 -0.00000000000E+00 -0.92923390625E+02  0.92923390625E+02  0.00000000000E+00 0. -1.
         25    1    1    2    0    0  0.51631358284E+02 -0.23456012321E+03  0.24270453565E+03  0.36361344885E+03  0.12500000000E+03 0.  0.
         21    1    1    2  503  502 -0.53137615452E+02  0.18336098618E+03  0.25952775588E+03  0.32217931886E+03  0.00000000000E+00 0.  1.
         21    1    1    2  504  501  0.15062571683E+01  0.51199137028E+02  0.57262551753E+03  0.57491182260E+03  0.00000000000E+00 0.  1.
<mgrwt>
<rscale>  4 0.46698442E+03</rscale>
<asrwt>0</asrwt>
<pdfrwt beam="1">  1       21 0.17965864E+00 0.46698442E+03</pdfrwt>
<pdfrwt beam="2">  1       21 0.14295907E-01 0.46698442E+03</pdfrwt>
<totfact> 0.67726232E+03</totfact>
</mgrwt>
</event>
<event>
 5    0  0.2720079E+000  0.6245114E+03  0.7546771E-02  0.9855818E-01
         21   -1    0    0  502  501  0.00000000000E+00  0.00000000000E+00  0.16140360009E+03  0.16140360009E+03  0.00000000000E+00 0.  1.
         21   -1    0    0  503  502 -0.00000000000E+00 -0.00000000000E+00 -0.14642405531E+04  0.14642405531E+04  0.00000000000E+00 0.  1.
         25    1    1    2    0    0  0.10759515265E+03 -0.25227686248E+03 -0.10938629575E+04  0.11346283541E+04  0.12500000000E+03 0.  0.
         21    1    1    2  503  504 -0.64691023755E+02  0.24473043787E+03 -0.29854289458E+03  0.39141509383E+03  0.00000000000E+00 0.  1.
         21    1    1    2  504  501 -0.42904128895E+02  0.75464246085E+01  0.89568899066E+02  0.99600705222E+02  0.00000000000E+00 0.  1.
<mgrwt>
<rscale>  4 0.62451145E+03</rscale>
<asrwt>0</asrwt>
<pdfrwt beam="1">  1       21 0.24831323E-01 0.62451145E+03</pdfrwt>
<pdfrwt beam="2">  1       21 0.22526778E+00 0.62451145E+03</pdfrwt>
<totfact> 0.11120132E+03</totfact>
</mgrwt>
</event>
<event>
 5    0  0.2720079E+000  0.5214659E+03  0.7546771E-02  0.1008323E+00
         21   -1    0    0  504  501  0.00000000000E+00  0.00000000000E+00  0.12279223285E+04  0.12279223285E+04  0.00000000000E+00 0. -1.
         21   -1    0    0  501  502 -0.00000000000E+00 -0.00000000000E+00 -0.96134601895E+02  0.96134601895E+02  0.00000000000E+00 0.  1.
         25    1    1    2    0    0 -0.22727237854E+03  0.21440328779E+02  0.13137699443E+03  0.29154302669E+03  0.12500000000E+03 0.  0.
         21    1    1    2  503  502  0.16333746851E+03  0.21201535486E+02  0.50509244553E+03  0.53126924648E+03  0.00000000000E+00 0. -1.
         21    1    1    2  504  503  0.63934910030E+02 -0.42641864264E+02  0.49531828661E+03  0.50124465718E+03  0.00000000000E+00 0. -1.
<mgrwt>
<rscale>  4 0.52146590E+03</rscale>
<asrwt>0</asrwt>
<pdfrwt beam="1">  1       21 0.18891112E+00 0.52146590E+03</pdfrwt>
<pdfrwt beam="2">  1       21 0.14789940E-01 0.52146590E+03</pdfrwt>
<totfact> 0.53822406E+03</totfact>
</mgrwt>
</event>
<event>
 5    0  0.2720079E+000  0.6406205E+03  0.7546771E-02  0.9824540E-01
         21   -1    0    0  502  501  0.00000000000E+00  0.00000000000E+00  0.14374804444E+04  0.14374804444E+04  0.00000000000E+00 0.  1.
         21   -1    0    0  504  502 -0.00000000000E+00 -0.00000000000E+00 -0.89582218477E+02  0.89582218477E+02  0.00000000000E+00 0. -1.
         25    1    1    2    0    0  0.49698047493E+02  0.33724765256E+03  0.67446327795E+03  0.76598406536E+03  0.12500000000E+03 0.  0.
         21    1    1    2  503  501 -0.51989220272E+01 -0.64461009335E+02  0.22680099430E+03  0.23584092420E+03  0.00000000000E+00 0.  1.
         21    1    1    2  504  503 -0.44499125466E+02 -0.27278664322E+03  0.44663395365E+03  0.52523767329E+03  0.00000000000E+00 0. -1.
<mgrwt>
<rscale>  4 0.64062046E+03</rscale>
<asrwt>0</asrwt>
<pdfrwt beam="1">  1       21 0.22115082E+00 0.64062046E+03</pdfrwt>
<pdfrwt beam="2">  1       21 0.13781881E-01 0.64062046E+03</pdfrwt>
<totfact> 0.36078845E+03</totfact>
</mgrwt>
</event>
<event>
 5    0  0.2720079E+000  0.5900795E+03  0.7546771E-02  0.9926204E-01
         21   -1    0    0  503  501  0.00000000000E+00  0.00000000000E+00  0.96365367451E+03  0.96365367451E+03  0.00000000000E+00 0.  1.
         21   -1    0    0  504  502 -0.00000000000E+00 -0.00000000000E+00 -0.26513898082E+03  0.26513898082E+03  0.00000000000E+00 0.  1.
         25    1    1    2    0    0 -0.29243856865E+03  0.12955723224E+03  0.17026404295E+03  0.38330175734E+03  0.12500000000E+03 0.  0.
         21    1    1    2  503  502  0.94128778607E+02 -0.17878080187E+03  0.59671885746E+03  0.62999698168E+03  0.00000000000E+00 0.  1.
         21    1    1    2  504  501  0.19830979004E+03  0.49223569635E+02 -0.68468206722E+02  0.21549391631E+03  0.00000000000E+00 0.  1.
<mgrwt>
<rscale>  4 0.59007954E+03</rscale>
<asrwt>0</asrwt>
<pdfrwt beam="1">  1       21 0.14825441E+00 0.59007954E+03</pdfrwt>
<pdfrwt beam="2">  1       21 0.40790613E-01 0.59007954E+03</pdfrwt>
<totfact> 0.14469217E+03</totfact>
</mgrwt>
</event>
<event>
 5    0  0.2720079E+000  0.4998750E+03  0.7546771E-02  0.1013812E+00
         21   -1    0    0  503  501  0.00000000000E+00  0.00000000000E+00  0.54329566310E+03  0.54329566310E+03  0.00000000000E+00 0. -1.
         21   -1    0    0  504  502 -0.00000000000E+00 -0.00000000000E+00 -0.14520235189E+03  0.14520235189E+03  0.00000000000E+00 0. -1.
         25    1    1    2    0    0 -0.22189515585E+03 -0.67552097021E+02  0.77496473885E+02  0.27464786449E+03  0.12500000000E+03 0.  0.
         21    1    1    2  503  502  0.19487641654E+03  0.11952112572E+02  0.27396415838E+03  0.33641645440E+03  0.00000000000E+00 0. -1.
         21    1    1    2  504  501  0.27018739316E+02  0.55599984449E+02  0.46632678943E+02  0.77433696091E+02  0.00000000000E+00 0. -1.
<mgrwt>
<rscale>  4 0.49987501E+03</rscale>
<asrwt>0</asrwt>
<pdfrwt beam="1">  1       21 0.83583947E-01 0.49987501E+03</pdfrwt>
<pdfrwt beam="2">  1       21 0.22338824E-01 0.49987501E+03</pdfrwt>
<totfact> 0.20852014E+04</totfact>
</mgrwt>
</event>
<event>
 5    0  0.2720079E+000  0.6155043E+03  0.7546771E-02  0.9873752E-01
         21   -1    0    0  502  501  0.00000000000E+00  0.00000000000E+00  0.30927381275E+03  0.30927381275E+03  0.00000000000E+00 0.  1.
         21   -1    0    0  503  502 -0.00000000000E+00 -0.00000000000E+00 -0.14421937772E+04  0.14421937772E+04  0.00000000000E+00 0. -1.
         25    1    1    2    0    0  0.95696627120E+02 -0.30532852332E+03 -0.12599649165E+04  0.13059555668E+04  0.12500000000E+03 0.  0.
         21    1    1    2  503  504 -0.50924854347E+02  0.14236569015E+03 -0.85709489560E+02  0.17380289734E+03  0.00000000000E+00 0.  1.
         21    1    1    2  504  501 -0.44771772774E+02  0.16296283317E+03  0.21275444161E+03  0.27170912583E+03  0.00000000000E+00 0.  1.
<mgrwt>
<rscale>  4 0.61550427E+03</rscale>
<asrwt>0</asrwt>
<pdfrwt beam="1">  1       21 0.47580586E-01 0.61550427E+03</pdfrwt>
<pdfrwt beam="2">  1       21 0.22187597E+00 0.61550427E+03</pdfrwt>
<totfact> 0.31211825E+02</totfact>
</mgrwt>
</event>
<event>
 5    0  0.2720079E+000  0.6032639E+03  0.7546771E-02  0.9898658E-01
         21   -1    0    0  504  501  0.00000000000E+00  0.00000000000E+00  0.75842729707E+03  0.75842729707E+03  0.00000000000E+00 0.  1.
         21   -1    0    0  501  502 -0.00000000000E+00 -0.00000000000E+00 -0.15526088963E+03  0.15526088963E+03  0.00000000000E+00 0.  1.
         25    1    1    2    0    0 -0.26569907026E+03  0.10859282681E+03  0.47273079589E+03  0.56699894476E+03  0.12500000000E+03 0.  0.
         21    1    1    2  503  502  0.19358701309E+03 -0.82102930863E+02  0.18722009691E+02  0.21110977368E+03  0.00000000000E+00 0.  1.
         21    1    1    2  504  503  0.72112057168E+02 -0.26489895949E+02  0.11171360185E+03  0.13557946826E+03  0.00000000000E+00 0. -1.
<mgrwt>
<rscale>  4 0.60326389E+03</rscale>
<asrwt>0</asrwt>
<pdfrwt beam="1">  1       21 0.11668112E+00 0.60326389E+03</pdfrwt>
<pdfrwt beam="2">  1       21 0.23886291E-01 0.60326389E+03</pdfrwt>
<totfact> 0.79354784E+03</totfact>
</mgrwt>
</event>
<event>
 5    0  0.2720079E+000  0.8136719E+03  0.7546771E-02  0.9540436E-01
         21   -1    0    0  502  501  0.00000000000E+00  0.00000000000E+00  0.10088900303E+04  0.10088900303E+04  0.00000000000E+00 0.  1.
         21   -1    0    0  504  502 -0.00000000000E+00 -0.00000000000E+00 -0.17663137234E+03  0.17663137234E+03  0.00000000000E+00 0. -1.
         25    1    1    2    0    0 -0.33450815365E+03 -0.19932185702E+03  0.25770438127E+03  0.48338541110E+03  0.12500000000E+03 0.  0.
         21    1    1    2  503  501  0.44787818233E+00  0.26548480495E+02  0.51022018593E+02  0.57517552041E+02  0.00000000000E+00 0.  1.
         21    1    1    2  504  503  0.33406027546E+03  0.17277337652E+03  0.52353225809E+03  0.64461843950E+03  0.00000000000E+00 0.  1.
<mgrwt>
<rscale>  4 0.81367192E+03</rscale>
<asrwt>0</asrwt>
<pdfrwt beam="1">  1       21 0.15521385E+00 0.81367192E+03</pdfrwt>
<pdfrwt beam="2">  1       21 0.27174058E-01 0.81367192E+03</pdfrwt>
<totfact> 0.27511825E+03</totfact>
</mgrwt>
</event>
<event>
 5    0  0.2720079E+000  0.4963475E+03  0.7546771E-02  0.1014737E+00
         21   -1    0    0  502  501  0.00000000000E+00  0.00000000000E+00  0.51524770791E+03  0.51524770791E+03  0.00000000000E+00 0. -1.
         21   -1    0    0  504  502 -0.00000000000E+00 -0.00000000000E+00 -0.21019942418E+03  0.21019942418E+03  0.00000000000E+00 0. -1.
         25    1    1    2    0    0  0.79500278330E+02  0.28409927237E+03  0.10584352535E+03  0.33743227865E+03  0.12500000000E+03 0.  0.
         21    1    1    2  503  501 -0.56018722871E+02 -0.11121358084E+03  0.17059924996E+03  0.21121236224E+03  0.00000000000E+00 0. -1.
         21    1    1    2  504  503 -0.23481555459E+02 -0.17288569153E+03  0.28605508418E+02  0.17680249120E+03  0.00000000000E+00 0.  1.
<mgrwt>
<rscale>  4 0.49634752E+03</rscale>
<asrwt>0</asrwt>
<pdfrwt beam="1">  1       21 0.79268878E-01 0.49634752E+03</pdfrwt>
<pdfrwt beam="2">  1       21 0.32338373E-01 0.49634752E+03</pdfrwt>
<totfact> 0.11404234E+04</totfact>
</mgrwt>
</event>
<event>
 5    0  0.2720079E+000  0.5982823E+03  0.7546771E-02  0.9908976E-01
         21   -1    0    0  502  501  0.00000000000E+00  0.00000000000E+00  0.36833205421E+03  0.36833205421E+03  0.00000000000E+00 0.  1.
         21   -1    0    0  504  502 -0.00000000000E+00 -0.00000000000E+00 -0.50732627760E+03  0.50732627760E+03  0.00000000000E+00 0. -1.
         25    1    1    2    0    0  0.11883518470E+03 -0.23874651891E+03 -0.26509951090E+03  0.39626310968E+03  0.12500000000E+03 0.  0.
         21    1    1    2  503  501 -0.11573892765E+02 -0.19429995116E+02  0.19104651468E+03  0.19238048361E+03  0.00000000000E+00 0.  1.
         21    1    1    2  504  503 -0.10726129193E+03  0.25817651402E+03 -0.64941227180E+02  0.28701473852E+03  0.00000000000E+00 0.  1.
<mgrwt>
<rscale>  4 0.59828232E+03</rscale>
<asrwt>0</asrwt>
<pdfrwt beam="1">  1       21 0.56666470E-01 0.59828232E+03</pdfrwt>
<pdfrwt beam="2">  1       21 0.78050197E-01 0.59828232E+03</pdfrwt>
<totfact> 0.35642214E+03</totfact>
</mgrwt>
</event>
<event>
 5    0  0.2720079E+000  0.5770552E+03  0.7546771E-02  0.9954187E-01
         21   -1    0    0  504  501  0.00000000000E+00  0.00000000000E+00  0.70668988715E+02  0.70668988715E+02  0.00000000000E+00 0. -1.
         21   -1    0    0  501  502 -0.00000000000E+00 -0.00000000000E+00 -0.14005485858E+04  0.14005485858E+04  0.00000000000E+00 0.  1.
         25    1    1    2    0    0  0.27885867908E+02 -0.22253846140E+03 -0.11390409742E+04  0.11676216550E+04  0.12500000000E+03 0.  0.
         21    1    1    2  503  502 -0.10561204873E+02  0.20669429583E+03 -0.18860859990E+03  0.28001299065E+03  0.00000000000E+00 0. -1.
         21    1    1    2  504  503 -0.17324663036E+02  0.15844165563E+02 -0.22300230491E+01  0.23582928879E+02  0.00000000000E+00 0. -1.
<mgrwt>
<rscale>  4 0.57705518E+03</rscale>
<asrwt>0</asrwt>
<pdfrwt beam="1">  1       21 0.10872152E-01 0.57705518E+03</pdfrwt>
<pdfrwt beam="2">  1       21 0.21546902E+00 0.57705518E+03</pdfrwt>
<totfact> 0.61841340E+03</totfact>
</mgrwt>
</event>
<event>
 5    0  0.2720079E+000  0.6340346E+03  0.7546771E-02  0.9837207E-01
         21   -1    0    0  503  501  0.00000000000E+00  0.00000000000E+00  0.33317150223E+03  0.33317150223E+03  0.00000000000E+00 0. -1.
         21   -1    0    0  504  502 -0.00000000000E+00 -0.00000000000E+00 -0.44024112120E+03  0.44024112120E+03  0.00000000000E+00 0.  1.
         25    1    1    2    0    0 -0.80332879595E+02 -0.29814207360E+03  0.11992068697E+02  0.33333298262E+03  0.12500000000E+03 0.  0.
         21    1    1    2  503  502 -0.93600485837E+01  0.58848864558E+02  0.91339945892E+02  0.10905863141E+03  0.00000000000E+00 0. -1.
         21    1    1    2  504  501  0.89692928178E+02  0.23929320904E+03 -0.21040163355E+03  0.33102100939E+03  0.00000000000E+00 0. -1.
<mgrwt>
<rscale>  4 0.63403460E+03</rscale>
<asrwt>0</asrwt>
<pdfrwt beam="1">  1       21 0.51257154E-01 0.63403460E+03</pdfrwt>
<pdfrwt beam="2">  1       21 0.67729403E-01 0.63403460E+03</pdfrwt>
<totfact> 0.60733801E+03</totfact>
</mgrwt>
</event>
<event>
 5    0  0.2720079E+000  0.4664416E+03  0.7546771E-02  0.1022929E+00
         21   -1    0    0  502  501  0.00000000000E+00  0.00000000000E+00  0.23417900226E+03  0.23417900226E+03  0.00000000000E+00 0.  1.
         21   -1    0    0  503  502 -0.00000000000E+00 -0.00000000000E+00 -0.37213963603E+03  0.37213963603E+03  0.00000000000E+00 0.  1.
         25    1    1    2    0    0 -0.15823432839E+03  0.12710849657E+03 -0.10923239386E+03  0.26220485970E+03  0.12500000000E+03 0.  0.
         21    1    1    2  503  504  0.16626714135E+03 -0.15601683245E+03 -0.11313711976E+03  0.25453098469E+03  0.00000000000E+00 0.  1.
         21    1    1    2  504  501 -0.80328129585E+01  0.28908335883E+02  0.84408879846E+02  0.89582793908E+02  0.00000000000E+00 0.  1.
<mgrwt>
<rscale>  4 0.46644156E+03</rscale>
<asrwt>0</asrwt>
<pdfrwt beam="1">  1       21 0.36027539E-01 0.46644156E+03</pdfrwt>
<pdfrwt beam="2">  1       21 0.57252252E-01 0.46644156E+03</pdfrwt>
<totfact> 0.19157082E+04</totfact>
</mgrwt>
</event>
<event>
 5    0  0.2720079E+000  0.4471886E+03  0.7546771E-02  0.1028564E+00
         21   -1    0    0  502  501  0.00000000000E+00  0.00000000000E+00  0.30397201520E+03  0.30397201520E+03  0.00000000000E+00 0.  1.
         21   -1    0    0  504  502 -0.00000000000E+00 -0.00000000000E+00 -0.19258875174E+03  0.19258875174E+03  0.00000000000E+00 0. -1.
         25    1    1    2    0    0 -0.86974019746E+02 -0.19350370123E+03 -0.13471958206E+02  0.24660627761E+03  0.12500000000E+03 0.  0.
         21    1    1    2  503  501  0.15984586553E+01  0.29312178347E+02  0.30100241768E+02  0.42045016637E+02  0.00000000000E+00 0.  1.
         21    1    1    2  504  503  0.85375561090E+02  0.16419152288E+03  0.94754979903E+02  0.20790947269E+03  0.00000000000E+00 0.  1.
<mgrwt>
<rscale>  4 0.44718859E+03</rscale>
<asrwt>0</asrwt>
<pdfrwt beam="1">  1       21 0.46764925E-01 0.44718859E+03</pdfrwt>
<pdfrwt beam="2">  1       21 0.29629039E-01 0.44718859E+03</pdfrwt>
<totfact> 0.43935275E+04</totfact>
</mgrwt>
</event>
<event>
 5    0  0.2720079E+000  0.4573566E+03  0.7546771E-02  0.1025551E+00
         21   -1    0    0  502  501  0.00000000000E+00  0.00000000000E+00  0.34505783061E+03  0.34505783061E+03  0.00000000000E+00 0.  1.
         21   -1    0    0  503  502 -0.00000000000E+00 -0.00000000000E+00 -0.47257884969E+03  0.47257884969E+03  0.00000000000E+00 0.  1.
         25    1    1    2    0    0  0.16565699720E+03 -0.12918930006E+03 -0.34421581314E+03  0.42218673829E+03  0.12500000000E+03 0.  0.
         21    1    1    2  503  504 -0.11164075835E+03  0.11157506506E+03 -0.13437111587E+02  0.15840836480E+03  0.00000000000E+00 0. -1.
         21    1    1    2  504  501 -0.54016238847E+02  0.17614234998E+02  0.23013190565E+03  0.23704157722E+03  0.00000000000E+00 0.  1.
<mgrwt>
<rscale>  4 0.45735660E+03</rscale>
<asrwt>0</asrwt>
<pdfrwt beam="1">  1       21 0.53085820E-01 0.45735660E+03</pdfrwt>
<pdfrwt beam="2">  1       21 0.72704439E-01 0.45735660E+03</pdfrwt>
<totfact> 0.50284154E+03</totfact>
</mgrwt>
</event>
<event>
 5    0  0.2720079E+000  0.5427116E+03  0.7546771E-02  0.1003195E+00
         21   -1    0    0  504  501  0.00000000000E+00  0.00000000000E+00  0.85757071839E+02  0.85757071839E+02  0.00000000000E+00 0.  1.
         21   -1    0    0  501  502 -0.00000000000E+00 -0.00000000000E+00 -0.16097875604E+04  0.16097875604E+04  0.00000000000E+00 0.  1.
         25    1    1    2    0    0  0.19076337864E+03  0.15849598230E+03 -0.82309103211E+03  0.86868607113E+03  0.12500000000E+03 0.  0.
         21    1    1    2  503  502 -0.22579915590E+03 -0.13807356521E+03 -0.73030790384E+03  0.77678774618E+03  0.00000000000E+00 0.  1.
         21    1    1    2  504  503  0.35035777261E+02 -0.20422417086E+02  0.29368447369E+02  0.50070814940E+02  0.00000000000E+00 0.  1.
<mgrwt>
<rscale>  4 0.54271155E+03</rscale>
<asrwt>0</asrwt>
<pdfrwt beam="1">  1       21 0.13193397E-01 0.54271155E+03</pdfrwt>
<pdfrwt beam="2">  1       21 0.24765959E+00 0.54271155E+03</pdfrwt>
<totfact> 0.27425542E+03</totfact>
</mgrwt>
</event>
<event>
 5    0  0.2720079E+000  0.4513382E+03  0.7546771E-02  0.1027324E+00
         21   -1    0    0  504  501  0.00000000000E+00  0.00000000000E+00  0.76175258823E+02  0.76175258823E+02  0.00000000000E+00 0. -1.
         21   -1    0    0  501  502 -0.00000000000E+00 -0.00000000000E+00 -0.90508618005E+03  0.90508618005E+03  0.00000000000E+00 0. -1.
         25    1    1    2    0    0  0.21748530388E+03  0.91450714434E+01 -0.27962874714E+03  0.37576685053E+03  0.12500000000E+03 0.  0.
         21    1    1    2  503  502 -0.16538086807E+03 -0.61399095890E+02 -0.43555836635E+03  0.46992741035E+03  0.00000000000E+00 0. -1.
         21    1    1    2  504  503 -0.52104435806E+02  0.52254024447E+02 -0.11372380774E+03  0.13556717799E+03  0.00000000000E+00 0.  1.
<mgrwt>
<rscale>  4 0.45133821E+03</rscale>
<asrwt>0</asrwt>
<pdfrwt beam="1">  1       21 0.11719270E-01 0.45133821E+03</pdfrwt>
<pdfrwt beam="2">  1       21 0.13924403E+00 0.45133821E+03</pdfrwt>
<totfact> 0.19891147E+04</totfact>
</mgrwt>
</event>
<event>
 5    0  0.2720079E+000  0.5241712E+03  0.7546771E-02  0.1007656E+00
         21   -1    0    0  503  501  0.00000000000E+00  0.00000000000E+00  0.77200960625E+02  0.77200960625E+02  0.00000000000E+00 0. -1.
         21   -1    0    0  504  502 -0.00000000000E+00 -0.00000000000E+00 -0.13816815108E+04  0.13816815108E+04  0.00000000000E+00 0. -1.
         25    1    1    2    0    0 -0.96165289279E+02  0.22972464382E+03 -0.54516552114E+03  0.61225127217E+03  0.12500000000E+03 0.  0.
         21    1    1    2  503  502 -0.51429537266E+00 -0.22763456914E+02  0.22570791488E+02  0.32060569222E+02  0.00000000000E+00 0. -1.
         21    1    1    2  504  501  0.96679584652E+02 -0.20696118691E+03 -0.78188582057E+03  0.81457063008E+03  0.00000000000E+00 0. -1.
<mgrwt>
<rscale>  4 0.52417123E+03</rscale>
<asrwt>0</asrwt>
<pdfrwt beam="1">  1       21 0.11877071E-01 0.52417123E+03</pdfrwt>
<pdfrwt beam="2">  1       21 0.21256639E+00 0.52417123E+03</pdfrwt>
<totfact> 0.55908627E+03</totfact>
</mgrwt>
</event>
<event>
 5    0  0.2720079E+000  0.4645149E+03  0.7546771E-02  0.1023480E+00
         21   -1    0    0  504  501  0.00000000000E+00  0.00000000000E+00  0.33894974150E+03  0.33894974150E+03  0.00000000000E+00 0. -1.
         21   -1    0    0  501  502 -0.00000000000E+00 -0.00000000000E+00 -0.72543311562E+03  0.72543311562E+03  0.00000000000E+00 0.  1.
         25    1    1    2    0    0 -0.27716493416E+03 -0.11337732931E+03 -0.55203621186E+03  0.64034662390E+03  0.12500000000E+03 0.  0.
         21    1    1    2  503  502  0.11109700761E+03 -0.39907430232E+01 -0.55008897036E+02  0.12403406743E+03  0.00000000000E+00 0. -1.
         21    1    1    2  504  503  0.16606792656E+03  0.11736807233E+03  0.22056173477E+03  0.30000216579E+03  0.00000000000E+00 0. -1.
<mgrwt>
<rscale>  4 0.46451488E+03</rscale>
<asrwt>0</asrwt>
<pdfrwt beam="1">  1       21 0.52146114E-01 0.46451488E+03</pdfrwt>
<pdfrwt beam="2">  1       21 0.11160509E+00 0.46451488E+03</pdfrwt>
<totfact> 0.18832549E+03</totfact>
</mgrwt>
</event>
<event>
 5    0  0.2720079E+000  0.4444407E+03  0.7546771E-02  0.1029393E+00
         21   -1    0    0  503  501  0.00000000000E+00  0.00000000000E+00  0.66993273537E+03  0.66993273537E+03  0.00000000000E+00 0.  1.
         21   -1    0    0  504  502 -0.00000000000E+00 -0.00000000000E+00 -0.26626793031E+03  0.26626793031E+03  0.00000000000E+00 0.  1.
         25    1    1    2    0    0  0.20521701306E+03  0.12361874417E+02 -0.12542863619E+03  0.27133776215E+03  0.12500000000E+03 0.  0.
         21    1    1    2  503  502 -0.31057335904E+02 -0.18677534969E+02  0.48332123957E+03  0.48467806742E+03  0.00000000000E+00 0.  1.
         21    1    1    2  504  501 -0.17415967716E+03  0.63156605520E+01  0.45772201694E+02  0.18018483611E+03  0.00000000000E+00 0.  1.
<mgrwt>
<rscale>  4 0.44444067E+03</rscale>
<asrwt>0</asrwt>
<pdfrwt beam="1">  1       21 0.10306657E+00 0.44444067E+03</pdfrwt>
<pdfrwt beam="2">  1       21 0.40964297E-01 0.44444067E+03</pdfrwt>
<totfact> 0.38369286E+03</totfact>
</mgrwt>
</event>
<event>
 5    0  0.2720079E+000  0.5967820E+03  0.7546771E-02  0.9912105E-01
         21   -1    0    0  502  501  0.00000000000E+00  0.00000000000E+00  0.53365097585E+03  0.53365097585E+03  0.00000000000E+00 0. -1.
         21   -1    0    0  504  502 -0.00000000000E+00 -0.00000000000E+00 -0.33565918313E+03  0.33565918313E+03  0.00000000000E+00 0. -1.
         25    1    1    2    0    0 -0.17293071420E+03  0.11043784639E+03  0.85630762751E+02  0.25506700562E+03  0.12500000000E+03 0.  0.
         21    1    1    2  503  501 -0.95354445951E+02  0.57252841301E+02  0.24663053584E+03  0.27054940290E+03  0.00000000000E+00 0. -1.
         21    1    1    2  504  503  0.26828516015E+03 -0.16769068769E+03 -0.13426950588E+03  0.34369375046E+03  0.00000000000E+00 0. -1.
<mgrwt>
<rscale>  4 0.59678197E+03</rscale>
<asrwt>0</asrwt>
<pdfrwt beam="1">  1       21 0.82100150E-01 0.59678197E+03</pdfrwt>
<pdfrwt beam="2">  1       21 0.51639874E-01 0.59678197E+03</pdfrwt>
<totfact> 0.38763036E+03</totfact>
</mgrwt>
</event>
<event>
 5    0  0.2720079E+000  0.4839944E+03  0.7546771E-02  0.1018043E+00
         21   -1    0    0  502  501  0.00000000000E+00  0.00000000000E+00  0.23235609821E+04  0.23235609821E+04  0.00000000000E+00 0.  1.
         21   -1    0    0  503  502 -0.00000000000E+00 -0.00000000000E+00 -0.68774605444E+02  0.68774605444E+02  0.00000000000E+00 0.  1.
         25    1    1    2    0    0  0.33040341234E+03 -0.13870323248E+02  0.87631809696E+03  0.94494296538E+03  0.12500000000E+03 0.  0.
         21    1    1    2  503  504 -0.63452473310E+02  0.10525248817E+03  0.19300361479E+03  0.22881149000E+03  0.00000000000E+00 0.  1.
         21    1    1    2  504  501 -0.26695093903E+03 -0.91382164926E+02  0.11854646649E+04  0.12185811321E+04  0.00000000000E+00 0.  1.
<mgrwt>
<rscale>  4 0.48399442E+03</rscale>
<asrwt>0</asrwt>
<pdfrwt beam="1">  1       21 0.35747086E+00 0.48399442E+03</pdfrwt>
<pdfrwt beam="2">  1       21 0.10580710E-01 0.48399442E+03</pdfrwt>
<totfact> 0.90107999E+02</totfact>
</mgrwt>
</event>
<event>
 5    0  0.2720079E+000  0.5727613E+03  0.7546771E-02  0.9963587E-01
         21   -1    0    0  503  501  0.00000000000E+00  0.00000000000E+00  0.10426656325E+03  0.10426656325E+03  0.00000000000E+00 0. -1.
         21   -1    0    0  504  502 -0.00000000000E+00 -0.00000000000E+00 -0.10174196435E+04  0.10174196435E+04  0.00000000000E+00 0.  1.
         25    1    1    2    0    0 -0.13154508158E+03  0.22159750081E+03 -0.39093286215E+03  0.48462672601E+03  0.12500000000E+03 0.  0.
         21    1    1    2  503  502  0.16404940862E+03 -0.22789520341E+03 -0.53282980634E+03  0.60229231668E+03  0.00000000000E+00 0.  1.
         21    1    1    2  504  501 -0.32504327043E+02  0.62977026084E+01  0.10609588239E+02  0.34767164067E+02  0.00000000000E+00 0. -1.
<mgrwt>
<rscale>  4 0.57276133E+03</rscale>
<asrwt>0</asrwt>
<pdfrwt beam="1">  1       21 0.16041009E-01 0.57276133E+03</pdfrwt>
<pdfrwt beam="2">  1       21 0.15652611E+00 0.57276133E+03</pdfrwt>
<totfact> 0.78447280E+03</totfact>
</mgrwt>
</event>
<event>
 5    0  0.2720079E+000  0.5541135E+03  0.7546771E-02  0.1000546E+00
         21   -1    0    0  504  501  0.00000000000E+00  0.00000000000E+00  0.73360276042E+03  0.73360276042E+03  0.00000000000E+00 0. -1.
         21   -1    0    0  503  502 -0.00000000000E+00 -0.00000000000E+00 -0.13071634420E+04  0.13071634420E+04  0.00000000000E+00 0. -1.
         25    1    1    2    0    0 -0.17006755679E+03 -0.12129887823E+03 -0.23888638030E+03  0.34106904642E+03  0.12500000000E+03 0.  0.
         21    1    1    2  503  501  0.10908115685E+03  0.13921228387E+03 -0.10079900289E+04  0.10233878332E+04  0.00000000000E+00 0. -1.
         21    1    1    2  504  502  0.60986399940E+02 -0.17913405635E+02  0.67331572762E+03  0.67630932282E+03  0.00000000000E+00 0. -1.
<mgrwt>
<rscale>  4 0.55411352E+03</rscale>
<asrwt>0</asrwt>
<pdfrwt beam="1">  1       21 0.11286196E+00 0.55411352E+03</pdfrwt>
<pdfrwt beam="2">  1       21 0.20110207E+00 0.55411352E+03</pdfrwt>
<totfact> 0.60346476E+01</totfact>
</mgrwt>
</event>
<event>
 5    0  0.2720079E+000  0.5074246E+03  0.7546771E-02  0.1011859E+00
         21   -1    0    0  503  501  0.00000000000E+00  0.00000000000E+00  0.46620613846E+03  0.46620613846E+03  0.00000000000E+00 0. -1.
         21   -1    0    0  504  502 -0.00000000000E+00 -0.00000000000E+00 -0.38845186912E+03  0.38845186912E+03  0.00000000000E+00 0. -1.
         25    1    1    2    0    0  0.15262341562E+03 -0.18888056887E+03 -0.36948259922E+02  0.27560832753E+03  0.12500000000E+03 0.  0.
         21    1    1    2  503  502 -0.95403304597E+02 -0.14603693240E+02  0.28924575137E+03  0.30492320848E+03  0.00000000000E+00 0. -1.
         21    1    1    2  504  501 -0.57220111022E+02  0.20348426211E+03 -0.17454322211E+03  0.27412647157E+03  0.00000000000E+00 0. -1.
<mgrwt>
<rscale>  4 0.50742458E+03</rscale>
<asrwt>0</asrwt>
<pdfrwt beam="1">  1       21 0.71724021E-01 0.50742458E+03</pdfrwt>
<pdfrwt beam="2">  1       21 0.59761826E-01 0.50742458E+03</pdfrwt>
<totfact> 0.39477499E+03</totfact>
</mgrwt>
</event>
<event>
 5    0  0.2720079E+000  0.5060354E+03  0.7546771E-02  0.1012215E+00
         21   -1    0    0  503  501  0.00000000000E+00  0.00000000000E+00  0.16278851320E+04  0.16278851320E+04  0.00000000000E+00 0. -1.
         21   -1    0    0  504  502 -0.00000000000E+00 -0.00000000000E+00 -0.60640551103E+02  0.60640551103E+02  0.00000000000E+00 0. -1.
         25    1    1    2    0    0  0.21408852114E+03 -0.63504912245E+02  0.52517643674E+03  0.58421062851E+03  0.12500000000E+03 0.  0.
         21    1    1    2  503  502 -0.23843364889E+03  0.74627375158E+02  0.47572562624E+03  0.53734041492E+03  0.00000000000E+00 0. -1.
         21    1    1    2  504  501  0.24345127752E+02 -0.11122462913E+02  0.56634251791E+03  0.56697463966E+03  0.00000000000E+00 0. -1.
<mgrwt>
<rscale>  4 0.50603538E+03</rscale>
<asrwt>0</asrwt>
<pdfrwt beam="1">  1       21 0.25044383E+00 0.50603538E+03</pdfrwt>
<pdfrwt beam="2">  1       21 0.93293168E-02 0.50603538E+03</pdfrwt>
<totfact> 0.50160748E+03</totfact>
</mgrwt>
</event>
<event>
 5    0  0.2720079E+000  0.3830524E+03  0.7546771E-02  0.1049811E+00
         21   -1    0    0  504  501  0.00000000000E+00  0.00000000000E+00  0.42463016902E+03  0.42463016902E+03  0.00000000000E+00 0.  1.
         21   -1    0    0  501  502 -0.00000000000E+00 -0.00000000000E+00 -0.21992008903E+03  0.21992008903E+03  0.00000000000E+00 0. -1.
         25    1    1    2    0    0  0.20452354791E+03  0.29881227481E+02 -0.82374887925E+02  0.25521244399E+03  0.12500000000E+03 0.  0.
         21    1    1    2  503  502 -0.11629817013E+03 -0.38308563038E+02  0.43189680244E+02  0.12983897279E+03  0.00000000000E+00 0.  1.
         21    1    1    2  504  503 -0.88225377780E+02  0.84273355577E+01  0.24389528768E+03  0.25949884127E+03  0.00000000000E+00 0.  1.
<mgrwt>
<rscale>  4 0.38305236E+03</rscale>
<asrwt>0</asrwt>
<pdfrwt beam="1">  1       21 0.65327718E-01 0.38305236E+03</pdfrwt>
<pdfrwt beam="2">  1       21 0.33833860E-01 0.38305236E+03</pdfrwt>
<totfact> 0.16668032E+04</totfact>
</mgrwt>
</event>
<event>
 5    0  0.2720079E+000  0.3988469E+03  0.7546771E-02  0.1044180E+00
         21   -1    0    0  502  501  0.00000000000E+00  0.00000000000E+00  0.14551022153E+03  0.14551022153E+03  0.00000000000E+00 0.  1.
         21   -1    0    0  503  502 -0.00000000000E+00 -0.00000000000E+00 -0.45017633759E+03  0.45017633759E+03  0.00000000000E+00 0.  1.
         25    1    1    2    0    0  0.87040665130E+02  0.20605855295E+03 -0.21390042525E+03  0.33378825107E+03  0.12500000000E+03 0.  0.
         21    1    1    2  503  504 -0.94019996029E+02 -0.10296039439E+03 -0.71827112618E+02  0.15684303164E+03  0.00000000000E+00 0. -1.
         21    1    1    2  504  501  0.69793308994E+01 -0.10309815856E+03 -0.18938578185E+02  0.10505527641E+03  0.00000000000E+00 0.  1.
<mgrwt>
<rscale>  4 0.39884687E+03</rscale>
<asrwt>0</asrwt>
<pdfrwt beam="1">  1       21 0.22386188E-01 0.39884687E+03</pdfrwt>
<pdfrwt beam="2">  1       21 0.69257899E-01 0.39884687E+03</pdfrwt>
<totfact> 0.32752795E+04</totfact>
</mgrwt>
</event>
<event>
 5    0  0.2720079E+000  0.4341370E+03  0.7546771E-02  0.1032561E+00
         21   -1    0    0  503  501  0.00000000000E+00  0.00000000000E+00  0.52699421262E+03  0.52699421262E+03  0.00000000000E+00 0.  1.
         21   -1    0    0  504  502 -0.00000000000E+00 -0.00000000000E+00 -0.12975986816E+03  0.12975986816E+03  0.00000000000E+00 0.  1.
         25    1    1    2    0    0 -0.11193963019E+03 -0.19002332309E+03  0.82337204050E+02  0.26654035210E+03  0.12500000000E+03 0.  0.
         21    1    1    2  503  502  0.18331090392E+02  0.84520063210E+02  0.90568084944E+02  0.12522878252E+03  0.00000000000E+00 0.  1.
         21    1    1    2  504  501  0.93608539796E+02  0.10550325988E+03  0.22432905547E+03  0.26498494617E+03  0.00000000000E+00 0.  1.
<mgrwt>
<rscale>  4 0.43413702E+03</rscale>
<asrwt>0</asrwt>
<pdfrwt beam="1">  1       21 0.81076032E-01 0.43413702E+03</pdfrwt>
<pdfrwt beam="2">  1       21 0.19963057E-01 0.43413702E+03</pdfrwt>
<totfact> 0.28214148E+04</totfact>
</mgrwt>
</event>
<event>
 5    0  0.2720079E+000  0.4617051E+03  0.7546771E-02  0.1024288E+00
         21   -1    0    0  503  501  0.00000000000E+00  0.00000000000E+00  0.28617331482E+03  0.28617331482E+03  0.00000000000E+00 0. -1.
         21   -1    0    0  504  502 -0.00000000000E+00 -0.00000000000E+00 -0.24589140797E+03  0.24589140797E+03  0.00000000000E+00 0.  1.
         25    1    1    2    0    0  0.16997022965E+03 -0.11345089978E+03  0.48719006552E+01  0.23960325759E+03  0.12500000000E+03 0.  0.
         21    1    1    2  503  502 -0.13875231468E+02 -0.43809787415E+02  0.53045934800E+02  0.70183265245E+02  0.00000000000E+00 0. -1.
         21    1    1    2  504  501 -0.15609499818E+03  0.15726068720E+03 -0.17635928603E+02  0.22227819995E+03  0.00000000000E+00 0.  1.
<mgrwt>
<rscale>  4 0.46170506E+03</rscale>
<asrwt>0</asrwt>
<pdfrwt beam="1">  1       21 0.44026664E-01 0.46170506E+03</pdfrwt>
<pdfrwt beam="2">  1       21 0.37829448E-01 0.46170506E+03</pdfrwt>
<totfact> 0.30386122E+04</totfact>
</mgrwt>
</event>
<event>
 5    0  0.2720079E+000  0.7793501E+03  0.7546771E-02  0.9590398E-01
         21   -1    0    0  502  501  0.00000000000E+00  0.00000000000E+00  0.25891088823E+03  0.25891088823E+03  0.00000000000E+00 0.  1.
         21   -1    0    0  503  502 -0.00000000000E+00 -0.00000000000E+00 -0.69795794267E+03  0.69795794267E+03  0.00000000000E+00 0.  1.
         25    1    1    2    0    0  0.22623027303E+03  0.14242566888E+03  0.72303524750E+02  0.30383878502E+03  0.12500000000E+03 0.  0.
         21    1    1    2  503  504 -0.23509427571E+03 -0.12295212149E+03 -0.54898973989E+03  0.60973459566E+03  0.00000000000E+00 0.  1.
         21    1    1    2  504  501  0.88640026760E+01 -0.19473547389E+02  0.37639160703E+02  0.43295450220E+02  0.00000000000E+00 0.  1.
<mgrwt>
<rscale>  4 0.77935010E+03</rscale>
<asrwt>0</asrwt>
<pdfrwt beam="1">  1       21 0.39832445E-01 0.77935010E+03</pdfrwt>
<pdfrwt beam="2">  1       21 0.10737814E+00 0.77935010E+03</pdfrwt>
<totfact> 0.33682442E+03</totfact>
</mgrwt>
</event>
<event>
 5    0  0.2720079E+000  0.5253232E+03  0.7546771E-02  0.1007373E+00
         21   -1    0    0  502  501  0.00000000000E+00  0.00000000000E+00  0.13616580998E+03  0.13616580998E+03  0.00000000000E+00 0. -1.
         21   -1    0    0  504  502 -0.00000000000E+00 -0.00000000000E+00 -0.56297802172E+03  0.56297802172E+03  0.00000000000E+00 0. -1.
         25    1    1    2    0    0 -0.20109510929E+03 -0.11478557722E+03 -0.14677060618E+03  0.30129982170E+03  0.12500000000E+03 0.  0.
         21    1    1    2  503  501 -0.23276496317E+02  0.31933587384E+01 -0.20582803248E+01  0.23584514808E+02  0.00000000000E+00 0. -1.
         21    1    1    2  504  503  0.22437160561E+03  0.11159221849E+03 -0.27798332524E+03  0.37425949520E+03  0.00000000000E+00 0. -1.
<mgrwt>
<rscale>  4 0.52532322E+03</rscale>
<asrwt>0</asrwt>
<pdfrwt beam="1">  1       21 0.20948586E-01 0.52532322E+03</pdfrwt>
<pdfrwt beam="2">  1       21 0.86612002E-01 0.52532322E+03</pdfrwt>
<totfact> 0.21577774E+04</totfact>
</mgrwt>
</event>
<event>
 5    0  0.2720079E+000  0.5337994E+03  0.7546771E-02  0.1005315E+00
         21   -1    0    0  502  501  0.00000000000E+00  0.00000000000E+00  0.12832806332E+03  0.12832806332E+03  0.00000000000E+00 0.  1.
         21   -1    0    0  504  502 -0.00000000000E+00 -0.00000000000E+00 -0.15424183726E+04  0.15424183726E+04  0.00000000000E+00 0. -1.
         25    1    1    2    0    0 -0.14255182042E+03  0.14591334422E+03 -0.48417409197E+03  0.54005673485E+03  0.12500000000E+03 0.  0.
         21    1    1    2  503  501 -0.12637526251E+03 -0.68804370311E+02  0.15523417115E+02  0.14472637917E+03  0.00000000000E+00 0.  1.
         21    1    1    2  504  503  0.26892708294E+03 -0.77108973906E+02 -0.94543963443E+03  0.98596332191E+03  0.00000000000E+00 0. -1.
<mgrwt>
<rscale>  4 0.53379941E+03</rscale>
<asrwt>0</asrwt>
<pdfrwt beam="1">  1       21 0.19742779E-01 0.53379941E+03</pdfrwt>
<pdfrwt beam="2">  1       21 0.23729514E+00 0.53379941E+03</pdfrwt>
<totfact> 0.15006183E+03</totfact>
</mgrwt>
</event>
<event>
 5    0  0.2720079E+000  0.5104767E+03  0.7546771E-02  0.1011080E+00
         21   -1    0    0  504  501  0.00000000000E+00  0.00000000000E+00  0.64634285901E+03  0.64634285901E+03  0.00000000000E+00 0.  1.
         21   -1    0    0  501  502 -0.00000000000E+00 -0.00000000000E+00 -0.24668012031E+03  0.24668012031E+03  0.00000000000E+00 0.  1.
         25    1    1    2    0    0  0.23821763704E+03 -0.48646187052E+01 -0.11949546472E+03  0.29440698565E+03  0.12500000000E+03 0.  0.
         21    1    1    2  503  502 -0.15904090302E+03 -0.17327480957E+02  0.14627247905E+03  0.21677151233E+03  0.00000000000E+00 0.  1.
         21    1    1    2  504  503 -0.79176734024E+02  0.22192099663E+02  0.37288572436E+03  0.38184448134E+03  0.00000000000E+00 0.  1.
<mgrwt>
<rscale>  4 0.51047669E+03</rscale>
<asrwt>0</asrwt>
<pdfrwt beam="1">  1       21 0.99437363E-01 0.51047669E+03</pdfrwt>
<pdfrwt beam="2">  1       21 0.37950788E-01 0.51047669E+03</pdfrwt>
<totfact> 0.47988988E+03</totfact>
</mgrwt>
</event>
<event>
 5    0  0.2720079E+000  0.4868832E+03  0.7546771E-02  0.1017260E+00
         21   -1    0    0  503  501  0.00000000000E+00  0.00000000000E+00  0.38129983355E+03  0.38129983355E+03  0.00000000000E+00 0. -1.
         21   -1    0    0  504  502 -0.00000000000E+00 -0.00000000000E+00 -0.20228880795E+03  0.20228880795E+03  0.00000000000E+00 0.  1.
         25    1    1    2    0    0  0.22309869976E+03  0.30711249759E+02  0.79127198454E+02  0.26944818469E+03  0.12500000000E+03 0.  0.
         21    1    1    2  503  502  0.37266170440E+01 -0.41844327938E+02  0.74630955166E+02  0.85642366409E+02  0.00000000000E+00 0. -1.
         21    1    1    2  504  501 -0.22682531681E+03  0.11133078178E+02  0.25252871986E+02  0.22849809040E+03  0.00000000000E+00 0. -1.
<mgrwt>
<rscale>  4 0.48688324E+03</rscale>
<asrwt>0</asrwt>
<pdfrwt beam="1">  1       21 0.58661513E-01 0.48688324E+03</pdfrwt>
<pdfrwt beam="2">  1       21 0.31121355E-01 0.48688324E+03</pdfrwt>
<totfact> 0.24280681E+04</totfact>
</mgrwt>
</event>
<event>
 5    0  0.2720079E+000  0.5710968E+03  0.7546771E-02  0.9967255E-01
         21   -1    0    0  503  501  0.00000000000E+00  0.00000000000E+00  0.53434884393E+03  0.53434884393E+03  0.00000000000E+00 0.  1.
         21   -1    0    0  504  502 -0.00000000000E+00 -0.00000000000E+00 -0.17071257894E+03  0.17071257894E+03  0.00000000000E+00 0.  1.
         25    1    1    2    0    0 -0.61839358797E+02 -0.24739355840E+03  0.24810505006E+03  0.37710581393E+03  0.12500000000E+03 0.  0.
         21    1    1    2  503  502  0.23912132821E+02 -0.22460645058E+02  0.23397824729E+02  0.40295519286E+02  0.00000000000E+00 0.  1.
         21    1    1    2  504  501  0.37927225975E+02  0.26985420345E+03  0.92133390199E+02  0.28766008966E+03  0.00000000000E+00 0.  1.
<mgrwt>
<rscale>  4 0.57109676E+03</rscale>
<asrwt>0</asrwt>
<pdfrwt beam="1">  1       21 0.82207514E-01 0.57109676E+03</pdfrwt>
<pdfrwt beam="2">  1       21 0.26263474E-01 0.57109676E+03</pdfrwt>
<totfact> 0.15568534E+04</totfact>
</mgrwt>
</event>
<event>
 5    0  0.2720079E+000  0.8663458E+03  0.7546771E-02  0.9468657E-01
         21   -1    0    0  504  501  0.00000000000E+00  0.00000000000E+00  0.27080259317E+03  0.27080259317E+03  0.00000000000E+00 0.  1.
         21   -1    0    0  501  502 -0.00000000000E+00 -0.00000000000E+00 -0.11099778747E+04  0.11099778747E+04  0.00000000000E+00 0. -1.
         25    1    1    2    0    0  0.17564103171E+03  0.11722553204E+03 -0.10429826701E+04  0.10714613608E+04  0.12500000000E+03 0.  0.
         21    1    1    2  503  502 -0.15288928391E+03 -0.82079750355E+02  0.10704965680E+03  0.20389175455E+03  0.00000000000E+00 0.  1.
         21    1    1    2  504  503 -0.22751747802E+02 -0.35145781681E+02  0.96757731821E+02  0.10542735255E+03  0.00000000000E+00 0.  1.
<mgrwt>
<rscale>  4 0.86634575E+03</rscale>
<asrwt>0</asrwt>
<pdfrwt beam="1">  1       21 0.41661937E-01 0.86634575E+03</pdfrwt>
<pdfrwt beam="2">  1       21 0.17076583E+00 0.86634575E+03</pdfrwt>
<totfact> 0.86518196E+02</totfact>
</mgrwt>
</event>
<event>
 5    0  0.2720079E+000  0.7430196E+03  0.7546771E-02  0.9646366E-01
         21   -1    0    0  502  501  0.00000000000E+00  0.00000000000E+00  0.67045882099E+03  0.67045882099E+03  0.00000000000E+00 0. -1.
         21   -1    0    0  504  502 -0.00000000000E+00 -0.00000000000E+00 -0.25899987715E+03  0.25899987715E+03  0.00000000000E+00 0. -1.
         25    1    1    2    0    0 -0.30104604403E+02 -0.23308289408E+03  0.41783543098E+03  0.49542443430E+03  0.12500000000E+03 0.  0.
         21    1    1    2  503  501  0.62530416988E+01 -0.30090397607E+02  0.13214836396E+03  0.13567506276E+03  0.00000000000E+00 0. -1.
         21    1    1    2  504  503  0.23851562704E+02  0.26317329168E+03 -0.13852485109E+03  0.29835920108E+03  0.00000000000E+00 0. -1.
<mgrwt>
<rscale>  4 0.74301956E+03</rscale>
<asrwt>0</asrwt>
<pdfrwt beam="1">  1       21 0.10314751E+00 0.74301956E+03</pdfrwt>
<pdfrwt beam="2">  1       21 0.39846135E-01 0.74301956E+03</pdfrwt>
<totfact> 0.37479881E+03</totfact>
</mgrwt>
</event>
<event>
 5    0  0.2720079E+000  0.5341439E+03  0.7546771E-02  0.1005232E+00
         21   -1    0    0  503  501  0.00000000000E+00  0.00000000000E+00  0.13360887597E+03  0.13360887597E+03  0.00000000000E+00 0.  1.
         21   -1    0    0  504  502 -0.00000000000E+00 -0.00000000000E+00 -0.11067429833E+04  0.11067429833E+04  0.00000000000E+00 0.  1.
         25    1    1    2    0    0  0.18734804381E+03 -0.12578954410E+03 -0.77680978907E+03  0.81852351665E+03  0.12500000000E+03 0.  0.
         21    1    1    2  503  502 -0.53359370700E+02 -0.62129712085E+02  0.40308874109E+02  0.91280495711E+02  0.00000000000E+00 0. -1.
         21    1    1    2  504  501 -0.13398867311E+03  0.18791925618E+03 -0.23663319236E+03  0.33054784690E+03  0.00000000000E+00 0.  1.
<mgrwt>
<rscale>  4 0.53414393E+03</rscale>
<asrwt>0</asrwt>
<pdfrwt beam="1">  1       21 0.20555211E-01 0.53414393E+03</pdfrwt>
<pdfrwt beam="2">  1       21 0.17026815E+00 0.53414393E+03</pdfrwt>
<totfact> 0.39093920E+03</totfact>
</mgrwt>
</event>
<event>
 5    0  0.2720079E+000  0.3885079E+03  0.7546771E-02  0.1047833E+00
         21   -1    0    0  502  501  0.00000000000E+00  0.00000000000E+00  0.27947024469E+03  0.27947024469E+03  0.00000000000E+00 0.  1.
         21   -1    0    0  503  502 -0.00000000000E+00 -0.00000000000E+00 -0.36419827497E+03  0.36419827497E+03  0.00000000000E+00 0.  1.
         25    1    1    2    0    0  0.85182941554E+02 -0.19308303918E+03 -0.24588229408E+03  0.34730432778E+03  0.12500000000E+03 0.  0.
         21    1    1    2  503  504  0.12874666302E+02  0.17660678703E+02  0.74269418758E+02  0.77418364535E+02  0.00000000000E+00 0. -1.
         21    1    1    2  504  501 -0.98057607856E+02  0.17542236047E+03  0.86884845042E+02  0.21894582734E+03  0.00000000000E+00 0.  1.
<mgrwt>
<rscale>  4 0.38850790E+03</rscale>
<asrwt>0</asrwt>
<pdfrwt beam="1">  1       21 0.42995423E-01 0.38850790E+03</pdfrwt>
<pdfrwt beam="2">  1       21 0.56030503E-01 0.38850790E+03</pdfrwt>
<totfact> 0.14276115E+04</totfact>
</mgrwt>
</event>
<event>
 5    0  0.2720079E+000  0.7715949E+03  0.7546771E-02  0.9602067E-01
         21   -1    0    0  504  501  0.00000000000E+00  0.00000000000E+00  0.11452074569E+04  0.11452074569E+04  0.00000000000E+00 0. -1.
         21   -1    0    0  501  502 -0.00000000000E+00 -0.00000000000E+00 -0.20792290187E+03  0.20792290187E+03  0.00000000000E+00 0.  1.
         25    1    1    2    0    0  0.30159340038E+03  0.52568563509E+02  0.54316339652E+03  0.63590369424E+03  0.12500000000E+03 0.  0.
         21    1    1    2  503  502 -0.29690044856E+03  0.33424257945E+02 -0.14987583865E+02  0.29915160879E+03  0.00000000000E+00 0.  1.
         21    1    1    2  504  503 -0.46929518210E+01 -0.85992821453E+02  0.40910874237E+03  0.41807505573E+03  0.00000000000E+00 0. -1.
<mgrwt>
<rscale>  4 0.77159493E+03</rscale>
<asrwt>0</asrwt>
<pdfrwt beam="1">  1       21 0.17618576E+00 0.77159493E+03</pdfrwt>
<pdfrwt beam="2">  1       21 0.31988139E-01 0.77159493E+03</pdfrwt>
<totfact> 0.13903132E+03</totfact>
</mgrwt>
</event>
<event>
 5    0  0.2720079E+000  0.4802489E+03  0.7546771E-02  0.1019067E+00
         21   -1    0    0  503  501  0.00000000000E+00  0.00000000000E+00  0.94143044198E+02  0.94143044198E+02  0.00000000000E+00 0.  1.
         21   -1    0    0  504  502 -0.00000000000E+00 -0.00000000000E+00 -0.15003812524E+04  0.15003812524E+04  0.00000000000E+00 0.  1.
         25    1    1    2    0    0 -0.10615282210E+03 -0.18679488807E+03 -0.90444704351E+03  0.93798198617E+03  0.12500000000E+03 0.  0.
         21    1    1    2  503  502 -0.62613296850E+02  0.42037439714E+02  0.29205724631E+02  0.80873639904E+02  0.00000000000E+00 0.  1.
         21    1    1    2  504  501  0.16876611895E+03  0.14475744836E+03 -0.53099688933E+03  0.57566867054E+03  0.00000000000E+00 0.  1.
<mgrwt>
<rscale>  4 0.48024892E+03</rscale>
<asrwt>0</asrwt>
<pdfrwt beam="1">  1       21 0.14483546E-01 0.48024892E+03</pdfrwt>
<pdfrwt beam="2">  1       21 0.23082788E+00 0.48024892E+03</pdfrwt>
<totfact> 0.30122614E+03</totfact>
</mgrwt>
</event>
<event>
 5    0  0.2720079E+000  0.5277443E+03  0.7546771E-02  0.1006781E+00
         21   -1    0    0  502  501  0.00000000000E+00  0.00000000000E+00  0.33884931758E+03  0.33884931758E+03  0.00000000000E+00 0. -1.
         21   -1    0    0  504  502 -0.00000000000E+00 -0.00000000000E+00 -0.82142204675E+03  0.82142204675E+03  0.00000000000E+00 0.  1.
         25    1    1    2    0    0 -0.22229837217E+03 -0.39524867567E+02 -0.18520873391E+03  0.31765713677E+03  0.12500000000E+03 0.  0.
         21    1    1    2  503  501  0.17379343611E+02  0.19730825691E+02  0.25333281520E+03  0.25469366369E+03  0.00000000000E+00 0. -1.
         21    1    1    2  504  503  0.20491902856E+03  0.19794041876E+02 -0.55069681046E+03  0.58792056386E+03  0.00000000000E+00 0.  1.
<mgrwt>
<rscale>  4 0.52774426E+03</rscale>
<asrwt>0</asrwt>
<pdfrwt beam="1">  1       21 0.52130664E-01 0.52774426E+03</pdfrwt>
<pdfrwt beam="2">  1       21 0.12637262E+00 0.52774426E+03</pdfrwt>
<totfact> 0.13441171E+03</totfact>
</mgrwt>
</event>
<event>
 5    0  0.2720079E+000  0.6696504E+03  0.7546771E-02  0.9770590E-01
         21   -1    0    0  502  501  0.00000000000E+00  0.00000000000E+00  0.49106362385E+03  0.49106362385E+03  0.00000000000E+00 0. -1.
         21   -1    0    0  504  502 -0.00000000000E+00 -0.00000000000E+00 -0.25685908694E+03  0.25685908694E+03  0.00000000000E+00 0.  1.
         25    1    1    2    0    0  0.10358770513E+03  0.21839828167E+03  0.31646359729E+03  0.41737564675E+03  0.12500000000E+03 0.  0.
         21    1    1    2  503  501  0.28094897659E+02 -0.62605085637E+01  0.42576697665E+02  0.51393505679E+02  0.00000000000E+00 0. -1.
         21    1    1    2  504  503 -0.13168260279E+03 -0.21213777311E+03 -0.12483575804E+03  0.27915355836E+03  0.00000000000E+00 0.  1.
<mgrwt>
<rscale>  4 0.66965043E+03</rscale>
<asrwt>0</asrwt>
<pdfrwt beam="1">  1       21 0.75548250E-01 0.66965043E+03</pdfrwt>
<pdfrwt beam="2">  1       21 0.39516783E-01 0.66965043E+03</pdfrwt>
<totfact> 0.81389760E+03</totfact>
</mgrwt>
</event>
<event>
 5    0  0.4822629E+001  0.4061230E+03  0.7546771E-02  0.1041680E+00
         21   -1    0    0  503  501  0.00000000000E+00  0.00000000000E+00  0.69531301749E+02  0.69531301749E+02  0.00000000000E+00 0. -1.
         21   -1    0    0  504  502 -0.00000000000E+00 -0.00000000000E+00 -0.73830709445E+03  0.73830709445E+03  0.00000000000E+00 0.  1.
         25    1    1    2    0    0  0.18639408528E+03 -0.78434414647E+02 -0.34005068567E+03  0.41491466744E+03  0.12500000000E+03 0.  0.
         21    1    1    2  503  502 -0.15735271456E+03  0.53208073300E+02 -0.30618350432E+03  0.34833793098E+03  0.00000000000E+00 0. -1.
         21    1    1    2  504  501 -0.29041370716E+02  0.25226341347E+02 -0.22541602714E+02  0.44585797781E+02  0.00000000000E+00 0. -1.
<mgrwt>
<rscale>  4 0.40612301E+03</rscale>
<asrwt>0</asrwt>
<pdfrwt beam="1">  1       21 0.10697123E-01 0.40612301E+03</pdfrwt>
<pdfrwt beam="2">  1       21 0.11358571E+00 0.40612301E+03</pdfrwt>
<totfact> 0.40096962E+04</totfact>
</mgrwt>
</event>
<event>
 5    0  0.2720079E+000  0.3503165E+03  0.7546771E-02  0.1062485E+00
         21   -1    0    0  503  501  0.00000000000E+00  0.00000000000E+00  0.22077347567E+03  0.22077347567E+03  0.00000000000E+00 0. -1.
         21   -1    0    0  504  502 -0.00000000000E+00 -0.00000000000E+00 -0.33075754611E+03  0.33075754611E+03  0.00000000000E+00 0. -1.
         25    1    1    2    0    0 -0.13367337341E+03 -0.15190091477E+03 -0.10774325882E+03  0.26110547388E+03  0.12500000000E+03 0.  0.
         21    1    1    2  503  502  0.57655452601E+02  0.18065238275E+03 -0.50062393779E+02  0.19612668834E+03  0.00000000000E+00 0. -1.
         21    1    1    2  504  501  0.76017920805E+02 -0.28751467978E+02  0.47821582161E+02  0.94298859563E+02  0.00000000000E+00 0.  1.
<mgrwt>
<rscale>  4 0.35031648E+03</rscale>
<asrwt>0</asrwt>
<pdfrwt beam="1">  1       21 0.33965150E-01 0.35031648E+03</pdfrwt>
<pdfrwt beam="2">  1       21 0.50885776E-01 0.35031648E+03</pdfrwt>
<totfact> 0.28716703E+04</totfact>
</mgrwt>
</event>
<event>
 5    0  0.2720079E+000  0.4617299E+03  0.7546771E-02  0.1024281E+00
         21   -1    0    0  502  501  0.00000000000E+00  0.00000000000E+00  0.85565312751E+03  0.85565312751E+03  0.00000000000E+00 0.  1.
         21   -1    0    0  504  502 -0.00000000000E+00 -0.00000000000E+00 -0.74831115794E+02  0.74831115794E+02  0.00000000000E+00 0.  1.
         25    1    1    2    0    0 -0.21877377041E+03 -0.43261705789E+02  0.52983260284E+03  0.58828660094E+03  0.12500000000E+03 0.  0.
         21    1    1    2  503  501  0.33147672375E+02  0.29464603149E+02  0.67934014518E+02  0.81129287876E+02  0.00000000000E+00 0.  1.
         21    1    1    2  504  503  0.18562609804E+03  0.13797102640E+02  0.18305539436E+03  0.26106835449E+03  0.00000000000E+00 0.  1.
<mgrwt>
<rscale>  4 0.46172995E+03</rscale>
<asrwt>0</asrwt>
<pdfrwt beam="1">  1       21 0.13163894E+00 0.46172995E+03</pdfrwt>
<pdfrwt beam="2">  1       21 0.11512480E-01 0.46172995E+03</pdfrwt>
<totfact> 0.23743851E+04</totfact>
</mgrwt>
</event>
<event>
 5    0  0.2720079E+000  0.5922404E+03  0.7546771E-02  0.9921637E-01
         21   -1    0    0  503  501  0.00000000000E+00  0.00000000000E+00  0.84563506245E+03  0.84563506245E+03  0.00000000000E+00 0.  1.
         21   -1    0    0  504  502 -0.00000000000E+00 -0.00000000000E+00 -0.22340894016E+03  0.22340894016E+03  0.00000000000E+00 0.  1.
         25    1    1    2    0    0  0.13296167894E+03 -0.15014324287E+03  0.30994119220E+03  0.38975677553E+03  0.12500000000E+03 0.  0.
         21    1    1    2  503  502 -0.37862957291E+02 -0.20045610654E+01  0.45094046224E+03  0.45253168097E+03  0.00000000000E+00 0.  1.
         21    1    1    2  504  501 -0.95098721644E+02  0.15214780393E+03 -0.13865553215E+03  0.22675554612E+03  0.00000000000E+00 0.  1.
<mgrwt>
<rscale>  4 0.59224038E+03</rscale>
<asrwt>0</asrwt>
<pdfrwt beam="1">  1       21 0.13009770E+00 0.59224038E+03</pdfrwt>
<pdfrwt beam="2">  1       21 0.34370606E-01 0.59224038E+03</pdfrwt>
<totfact> 0.29144189E+03</totfact>
</mgrwt>
</event>
<event>
 5    0  0.2720079E+000  0.4453450E+03  0.7546771E-02  0.1029119E+00
         21   -1    0    0  503  501  0.00000000000E+00  0.00000000000E+00  0.14081606888E+03  0.14081606888E+03  0.00000000000E+00 0. -1.
         21   -1    0    0  504  502 -0.00000000000E+00 -0.00000000000E+00 -0.84289766422E+03  0.84289766422E+03  0.00000000000E+00 0. -1.
         25    1    1    2    0    0 -0.21250112691E+03  0.10041378284E+03 -0.40250430717E+03  0.48257058967E+03  0.12500000000E+03 0.  0.
         21    1    1    2  503  502  0.16076421915E+03 -0.68172404600E+02 -0.36931509981E+03  0.40851714023E+03  0.00000000000E+00 0.  1.
         21    1    1    2  504  501  0.51736907763E+02 -0.32241378244E+02  0.69737811649E+02  0.92626003204E+02  0.00000000000E+00 0. -1.
<mgrwt>
<rscale>  4 0.44534497E+03</rscale>
<asrwt>0</asrwt>
<pdfrwt beam="1">  1       21 0.21664011E-01 0.44534497E+03</pdfrwt>
<pdfrwt beam="2">  1       21 0.12967656E+00 0.44534497E+03</pdfrwt>
<totfact> 0.76313766E+03</totfact>
</mgrwt>
</event>
<event>
 5    0  0.2720079E+000  0.4749512E+03  0.7546771E-02  0.1020532E+00
         21   -1    0    0  502  501  0.00000000000E+00  0.00000000000E+00  0.48731179907E+02  0.48731179907E+02  0.00000000000E+00 0.  1.
         21   -1    0    0  504  502 -0.00000000000E+00 -0.00000000000E+00 -0.33233305718E+04  0.33233305718E+04  0.00000000000E+00 0.  1.
         25    1    1    2    0    0 -0.17806217557E+03  0.15994351885E+03 -0.19082462567E+04  0.19272562995E+04  0.12500000000E+03 0.  0.
         21    1    1    2  503  501  0.28266754811E+02 -0.20243969188E+02  0.22183646461E+02  0.41242476724E+02  0.00000000000E+00 0.  1.
         21    1    1    2  504  503  0.14979542076E+03 -0.13969954966E+03 -0.13885367816E+04  0.14035629755E+04  0.00000000000E+00 0.  1.
<mgrwt>
<rscale>  4 0.47495120E+03</rscale>
<asrwt>0</asrwt>
<pdfrwt beam="1">  1       21 0.74971064E-02 0.47495120E+03</pdfrwt>
<pdfrwt beam="2">  1       21 0.51128150E+00 0.47495120E+03</pdfrwt>
<totfact> 0.15759100E+02</totfact>
</mgrwt>
</event>
<event>
 5    0  0.2720079E+000  0.5566653E+03  0.7546771E-02  0.9999628E-01
         21   -1    0    0  503  501  0.00000000000E+00  0.00000000000E+00  0.16376618867E+03  0.16376618867E+03  0.00000000000E+00 0.  1.
         21   -1    0    0  504  502 -0.00000000000E+00 -0.00000000000E+00 -0.61127464044E+03  0.61127464044E+03  0.00000000000E+00 0.  1.
         25    1    1    2    0    0 -0.16681355138E+03  0.11350356851E+03 -0.16103642075E+02  0.23789524644E+03  0.12500000000E+03 0.  0.
         21    1    1    2  503  502  0.16037158984E+03 -0.84185670781E+02 -0.46080810706E+03  0.49512663585E+03  0.00000000000E+00 0.  1.
         21    1    1    2  504  501  0.64419615431E+01 -0.29317897732E+02  0.29403297365E+02  0.42018946820E+02  0.00000000000E+00 0.  1.
<mgrwt>
<rscale>  4 0.55666531E+03</rscale>
<asrwt>0</asrwt>
<pdfrwt beam="1">  1       21 0.25194798E-01 0.55666531E+03</pdfrwt>
<pdfrwt beam="2">  1       21 0.94042252E-01 0.55666531E+03</pdfrwt>
<totfact> 0.12319044E+04</totfact>
</mgrwt>
</event>
<event>
 5    0  0.2720079E+000  0.6441963E+03  0.7546771E-02  0.9817731E-01
         21   -1    0    0  503  501  0.00000000000E+00  0.00000000000E+00  0.60321944370E+03  0.60321944370E+03  0.00000000000E+00 0. -1.
         21   -1    0    0  504  502 -0.00000000000E+00 -0.00000000000E+00 -0.24597448254E+03  0.24597448254E+03  0.00000000000E+00 0.  1.
         25    1    1    2    0    0 -0.20129502315E+03  0.21623651151E+03  0.14633573158E+02  0.32111844655E+03  0.12500000000E+03 0.  0.
         21    1    1    2  503  502  0.13252818603E+02  0.25385553076E+02  0.17832876880E+03  0.18061343607E+03  0.00000000000E+00 0. -1.
         21    1    1    2  504  501  0.18804220454E+03 -0.24162206458E+03  0.16428261920E+03  0.34746204362E+03  0.00000000000E+00 0. -1.
<mgrwt>
<rscale>  4 0.64419630E+03</rscale>
<asrwt>0</asrwt>
<pdfrwt beam="1">  1       21 0.92802991E-01 0.64419630E+03</pdfrwt>
<pdfrwt beam="2">  1       21 0.37842228E-01 0.64419630E+03</pdfrwt>
<totfact> 0.55135125E+03</totfact>
</mgrwt>
</event>
<event>
 5    0  0.2720079E+000  0.4659045E+03  0.7546771E-02  0.1023083E+00
         21   -1    0    0  504  501  0.00000000000E+00  0.00000000000E+00  0.19269077367E+03  0.19269077367E+03  0.00000000000E+00 0.  1.
         21   -1    0    0  503  502 -0.00000000000E+00 -0.00000000000E+00 -0.66880280354E+03  0.66880280354E+03  0.00000000000E+00 0.  1.
         25    1    1    2    0    0  0.18650442236E+03  0.13647818516E+03 -0.25310084772E+03  0.36482219464E+03  0.12500000000E+03 0.  0.
         21    1    1    2  503  501 -0.18359427263E+03 -0.60127636910E+02 -0.31963899270E+03  0.37348530803E+03  0.00000000000E+00 0.  1.
         21    1    1    2  504  502 -0.29101497237E+01 -0.76350548255E+02  0.96627810547E+02  0.12318607454E+03  0.00000000000E+00 0.  1.
<mgrwt>
<rscale>  4 0.46590454E+03</rscale>
<asrwt>0</asrwt>
<pdfrwt beam="1">  1       21 0.29644735E-01 0.46590454E+03</pdfrwt>
<pdfrwt beam="2">  1       21 0.10289274E+00 0.46590454E+03</pdfrwt>
<totfact> 0.73624473E+03</totfact>
</mgrwt>
</event>
<event>
 5    0  0.2720079E+000  0.8125286E+03  0.7546771E-02  0.9542057E-01
         21   -1    0    0  504  501  0.00000000000E+00  0.00000000000E+00  0.19439147440E+04  0.19439147440E+04  0.00000000000E+00 0.  1.
         21   -1    0    0  501  502 -0.00000000000E+00 -0.00000000000E+00 -0.29892778340E+03  0.29892778340E+03  0.00000000000E+00 0.  1.
         25    1    1    2    0    0  0.47187238981E+02 -0.40094446862E+03  0.27470685350E+03  0.50405551063E+03  0.12500000000E+03 0.  0.
         21    1    1    2  503  502 -0.37555035094E+02  0.34490389531E+03 -0.19835403030E+02  0.34750902273E+03  0.00000000000E+00 0.  1.
         21    1    1    2  504  503 -0.96322038871E+01  0.56040573305E+02  0.13901155101E+04  0.13912779941E+04  0.00000000000E+00 0.  1.
<mgrwt>
<rscale>  4 0.81252858E+03</rscale>
<asrwt>0</asrwt>
<pdfrwt beam="1">  1       21 0.29906380E+00 0.81252858E+03</pdfrwt>
<pdfrwt beam="2">  1       21 0.45988891E-01 0.81252858E+03</pdfrwt>
<totfact> 0.10315291E+02</totfact>
</mgrwt>
</event>
<event>
 5    0  0.2720079E+000  0.4426873E+03  0.7546771E-02  0.1029925E+00
         21   -1    0    0  504  501  0.00000000000E+00  0.00000000000E+00  0.67269964053E+02  0.67269964053E+02  0.00000000000E+00 0.  1.
         21   -1    0    0  501  502 -0.00000000000E+00 -0.00000000000E+00 -0.11947369907E+04  0.11947369907E+04  0.00000000000E+00 0.  1.
         25    1    1    2    0    0  0.20600879991E+03  0.75150075371E+02 -0.75394665130E+03  0.79507717391E+03  0.12500000000E+03 0.  0.
         21    1    1    2  503  502 -0.17255779058E+03 -0.65501667290E+02 -0.38765757280E+03  0.42935422818E+03  0.00000000000E+00 0.  1.
         21    1    1    2  504  503 -0.33451009327E+02 -0.96484080808E+01  0.14137197477E+02  0.37575552637E+02  0.00000000000E+00 0.  1.
<mgrwt>
<rscale>  4 0.44268731E+03</rscale>
<asrwt>0</asrwt>
<pdfrwt beam="1">  1       21 0.10349225E-01 0.44268731E+03</pdfrwt>
<pdfrwt beam="2">  1       21 0.18380569E+00 0.44268731E+03</pdfrwt>
<totfact> 0.11517944E+04</totfact>
</mgrwt>
</event>
<event>
 5    0  0.2720079E+000  0.9315648E+03  0.7546771E-02  0.9386962E-01
         21   -1    0    0  502  501  0.00000000000E+00  0.00000000000E+00  0.42301845145E+03  0.42301845145E+03  0.00000000000E+00 0. -1.
         21   -1    0    0  504  502 -0.00000000000E+00 -0.00000000000E+00 -0.11606176475E+04  0.11606176475E+04  0.00000000000E+00 0. -1.
         25    1    1    2    0    0 -0.22447462444E+03 -0.38559509137E+03 -0.30432845083E+03  0.55435840166E+03  0.12500000000E+03 0.  0.
         21    1    1    2  503  501  0.58088003954E+02 -0.71257769491E+01  0.23186605349E+03  0.23913774203E+03  0.00000000000E+00 0. -1.
         21    1    1    2  504  503  0.16638662048E+03  0.39272086832E+03 -0.66513679877E+03  0.79013995530E+03  0.00000000000E+00 0. -1.
<mgrwt>
<rscale>  4 0.93156479E+03</rscale>
<asrwt>0</asrwt>
<pdfrwt beam="1">  1       21 0.65079763E-01 0.93156479E+03</pdfrwt>
<pdfrwt beam="2">  1       21 0.17855656E+00 0.93156479E+03</pdfrwt>
<totfact> 0.28342093E+02</totfact>
</mgrwt>
</event>
<event>
 5    0  0.2720079E+000  0.4401188E+03  0.7546771E-02  0.1030710E+00
         21   -1    0    0  503  501  0.00000000000E+00  0.00000000000E+00  0.65416402245E+03  0.65416402245E+03  0.00000000000E+00 0. -1.
         21   -1    0    0  504  502 -0.00000000000E+00 -0.00000000000E+00 -0.12128748866E+03  0.12128748866E+03  0.00000000000E+00 0. -1.
         25    1    1    2    0    0  0.18755861158E+03 -0.86262028656E+02  0.96119456142E+02  0.25977551889E+03  0.12500000000E+03 0.  0.
         21    1    1    2  503  502 -0.12043057488E+02  0.24143189703E+02  0.25178929998E+03  0.25323068619E+03  0.00000000000E+00 0. -1.
         21    1    1    2  504  501 -0.17551555409E+03  0.62118838953E+02  0.18496777767E+03  0.26244530603E+03  0.00000000000E+00 0. -1.
<mgrwt>
<rscale>  4 0.44011880E+03</rscale>
<asrwt>0</asrwt>
<pdfrwt beam="1">  1       21 0.10064062E+00 0.44011880E+03</pdfrwt>
<pdfrwt beam="2">  1       21 0.18659614E-01 0.44011880E+03</pdfrwt>
<totfact> 0.19182192E+04</totfact>
</mgrwt>
</event>
<event>
 5    0  0.2720079E+000  0.5464035E+03  0.7546771E-02  0.1002330E+00
         21   -1    0    0  503  501  0.00000000000E+00  0.00000000000E+00  0.77351631700E+03  0.77351631700E+03  0.00000000000E+00 0.  1.
         21   -1    0    0  504  502 -0.00000000000E+00 -0.00000000000E+00 -0.94897996288E+03  0.94897996288E+03  0.00000000000E+00 0. -1.
         25    1    1    2    0    0  0.66060099073E+02  0.33919485648E+03 -0.66354932487E+03  0.75851156477E+03  0.12500000000E+03 0.  0.
         21    1    1    2  503  502  0.73312737421E+02 -0.24417094512E+03  0.66942037061E+03  0.71632244170E+03  0.00000000000E+00 0.  1.
         21    1    1    2  504  501 -0.13937283649E+03 -0.95023911361E+02 -0.18133469162E+03  0.24766227341E+03  0.00000000000E+00 0.  1.
<mgrwt>
<rscale>  4 0.54640351E+03</rscale>
<asrwt>0</asrwt>
<pdfrwt beam="1">  1       21 0.11900251E+00 0.54640351E+03</pdfrwt>
<pdfrwt beam="2">  1       21 0.14599692E+00 0.54640351E+03</pdfrwt>
<totfact> 0.13368039E+02</totfact>
</mgrwt>
</event>
<event>
 5    0  0.2720079E+000  0.3776411E+03  0.7546771E-02  0.1051809E+00
         21   -1    0    0  502  501  0.00000000000E+00  0.00000000000E+00  0.44210277235E+03  0.44210277235E+03  0.00000000000E+00 0.  1.
         21   -1    0    0  504  502 -0.00000000000E+00 -0.00000000000E+00 -0.27726554448E+03  0.27726554448E+03  0.00000000000E+00 0. -1.
         25    1    1    2    0    0 -0.26736977094E+03  0.77300175015E+02 -0.85156254654E+02  0.31676252805E+03  0.12500000000E+03 0.  0.
         21    1    1    2  503  501  0.19698918702E+03 -0.63567465351E+02  0.25764109722E+03  0.33049129705E+03  0.00000000000E+00 0.  1.
         21    1    1    2  504  503  0.70380583918E+02 -0.13732709664E+02 -0.76476146989E+01  0.72114491733E+02  0.00000000000E+00 0.  1.
<mgrwt>
<rscale>  4 0.37764107E+03</rscale>
<asrwt>0</asrwt>
<pdfrwt beam="1">  1       21 0.68015811E-01 0.37764107E+03</pdfrwt>
<pdfrwt beam="2">  1       21 0.42656238E-01 0.37764107E+03</pdfrwt>
<totfact> 0.95192301E+03</totfact>
</mgrwt>
</event>
<event>
 5    0  0.2720079E+000  0.6463780E+03  0.7546771E-02  0.9813599E-01
         21   -1    0    0  503  501  0.00000000000E+00  0.00000000000E+00  0.61640049528E+03  0.61640049528E+03  0.00000000000E+00 0.  1.
         21   -1    0    0  504  502 -0.00000000000E+00 -0.00000000000E+00 -0.28312883396E+03  0.28312883396E+03  0.00000000000E+00 0.  1.
         25    1    1    2    0    0  0.28776232979E+03 -0.17688950994E+03  0.10702049985E+03  0.37573320929E+03  0.12500000000E+03 0.  0.
         21    1    1    2  503  502 -0.24896819613E+03  0.12278961471E+03 -0.10563624585E+02  0.27780216401E+03  0.00000000000E+00 0.  1.
         21    1    1    2  504  501 -0.38794133656E+02  0.54099895228E+02  0.23681478605E+03  0.24599395594E+03  0.00000000000E+00 0.  1.
<mgrwt>
<rscale>  4 0.64637803E+03</rscale>
<asrwt>0</asrwt>
<pdfrwt beam="1">  1       21 0.94830845E-01 0.64637803E+03</pdfrwt>
<pdfrwt beam="2">  1       21 0.43558282E-01 0.64637803E+03</pdfrwt>
<totfact> 0.39037994E+03</totfact>
</mgrwt>
</event>
<event>
 5    0  0.2720079E+000  0.4900725E+03  0.7546771E-02  0.1016403E+00
         21   -1    0    0  503  501  0.00000000000E+00  0.00000000000E+00  0.59293099662E+02  0.59293099662E+02  0.00000000000E+00 0.  1.
         21   -1    0    0  504  502 -0.00000000000E+00 -0.00000000000E+00 -0.12708915237E+04  0.12708915237E+04  0.00000000000E+00 0.  1.
         25    1    1    2    0    0  0.15807169350E+03  0.17947499779E+03 -0.54804450562E+03  0.61088109748E+03  0.12500000000E+03 0.  0.
         21    1    1    2  503  502  0.70440963768E+01 -0.44233126033E+02 -0.39356634172E+02  0.59624939293E+02  0.00000000000E+00 0. -1.
         21    1    1    2  504  501 -0.16511578988E+03 -0.13524187175E+03 -0.62419728421E+03  0.65967858656E+03  0.00000000000E+00 0.  1.
<mgrwt>
<rscale>  4 0.49007254E+03</rscale>
<asrwt>0</asrwt>
<pdfrwt beam="1">  1       21 0.91220153E-02 0.49007254E+03</pdfrwt>
<pdfrwt beam="2">  1       21 0.19552177E+00 0.49007254E+03</pdfrwt>
<totfact> 0.11822430E+04</totfact>
</mgrwt>
</event>
<event>
 5    0  0.2720079E+000  0.7870318E+03  0.7546771E-02  0.9578980E-01
         21   -1    0    0  502  501  0.00000000000E+00  0.00000000000E+00  0.40516745895E+03  0.40516745895E+03  0.00000000000E+00 0.  1.
         21   -1    0    0  503  502 -0.00000000000E+00 -0.00000000000E+00 -0.13076616015E+04  0.13076616015E+04  0.00000000000E+00 0.  1.
         25    1    1    2    0    0  0.31492890976E+03  0.14326853379E+02 -0.10571265336E+04  0.11101923189E+04  0.12500000000E+03 0.  0.
         21    1    1    2  503  504 -0.27990944074E+03  0.51010856775E+02 -0.12687933413E+03  0.31152811743E+03  0.00000000000E+00 0.  1.
         21    1    1    2  504  501 -0.35019469025E+02 -0.65337710154E+02  0.28151172521E+03  0.29110862407E+03  0.00000000000E+00 0.  1.
<mgrwt>
<rscale>  4 0.78703183E+03</rscale>
<asrwt>0</asrwt>
<pdfrwt beam="1">  1       21 0.62333455E-01 0.78703183E+03</pdfrwt>
<pdfrwt beam="2">  1       21 0.20117871E+00 0.78703183E+03</pdfrwt>
<totfact> 0.22473633E+02</totfact>
</mgrwt>
</event>
<event>
 5    0  0.2720079E+000  0.6762144E+03  0.7546771E-02  0.9758796E-01
         21   -1    0    0  504  501  0.00000000000E+00  0.00000000000E+00  0.10520910950E+03  0.10520910950E+03  0.00000000000E+00 0.  1.
         21   -1    0    0  503  502 -0.00000000000E+00 -0.00000000000E+00 -0.16744282978E+04  0.16744282978E+04  0.00000000000E+00 0. -1.
         25    1    1    2    0    0 -0.20029795481E+03  0.10427396983E+03 -0.14046409480E+04  0.14281573878E+04  0.12500000000E+03 0.  0.
         21    1    1    2  503  501  0.20487646162E+03 -0.12554440933E+03 -0.19816855653E+03  0.31145872927E+03  0.00000000000E+00 0.  1.
         21    1    1    2  504  502 -0.45785068136E+01  0.21270439506E+02  0.33590316277E+02  0.40021290197E+02  0.00000000000E+00 0.  1.
<mgrwt>
<rscale>  4 0.67621441E+03</rscale>
<asrwt>0</asrwt>
<pdfrwt beam="1">  1       21 0.16186017E-01 0.67621441E+03</pdfrwt>
<pdfrwt beam="2">  1       21 0.25760436E+00 0.67621441E+03</pdfrwt>
<totfact> 0.15542642E+03</totfact>
</mgrwt>
</event>
<event>
 5    0  0.2720079E+000  0.4982851E+03  0.7546771E-02  0.1014227E+00
         21   -1    0    0  502  501  0.00000000000E+00  0.00000000000E+00  0.81683720602E+03  0.81683720602E+03  0.00000000000E+00 0. -1.
         21   -1    0    0  504  502 -0.00000000000E+00 -0.00000000000E+00 -0.22336269193E+03  0.22336269193E+03  0.00000000000E+00 0. -1.
         25    1    1    2    0    0  0.16783524842E+03  0.16429661226E+03  0.10791677405E+03  0.28711161163E+03  0.12500000000E+03 0.  0.
         21    1    1    2  503  501 -0.32544980600E+02 -0.65552038635E+01  0.53778919210E+03  0.53881291893E+03  0.00000000000E+00 0. -1.
         21    1    1    2  504  503 -0.13529026782E+03 -0.15774140840E+03 -0.52231452067E+02  0.21427536740E+03  0.00000000000E+00 0. -1.
<mgrwt>
<rscale>  4 0.49828511E+03</rscale>
<asrwt>0</asrwt>
<pdfrwt beam="1">  1       21 0.12566726E+00 0.49828511E+03</pdfrwt>
<pdfrwt beam="2">  1       21 0.34363492E-01 0.49828511E+03</pdfrwt>
<totfact> 0.32810881E+03</totfact>
</mgrwt>
</event>
<event>
 5    0  0.2720079E+000  0.3374620E+03  0.7546771E-02  0.1067882E+00
         21   -1    0    0  502  501  0.00000000000E+00  0.00000000000E+00  0.59169547677E+03  0.59169547677E+03  0.00000000000E+00 0. -1.
         21   -1    0    0  504  502 -0.00000000000E+00 -0.00000000000E+00 -0.28667876321E+03  0.28667876321E+03  0.00000000000E+00 0. -1.
         25    1    1    2    0    0 -0.19366863770E+03 -0.11812720998E+03 -0.16835970693E+03  0.30892000564E+03  0.12500000000E+03 0.  0.
         21    1    1    2  503  501  0.13046860951E+03  0.90954396651E+02  0.47471356138E+03  0.50064730668E+03  0.00000000000E+00 0. -1.
         21    1    1    2  504  503  0.63200028191E+02  0.27172813332E+02 -0.13371408876E+01  0.68806927657E+02  0.00000000000E+00 0.  1.
<mgrwt>
<rscale>  4 0.33746202E+03</rscale>
<asrwt>0</asrwt>
<pdfrwt beam="1">  1       21 0.91030073E-01 0.33746202E+03</pdfrwt>
<pdfrwt beam="2">  1       21 0.44104425E-01 0.33746202E+03</pdfrwt>
<totfact> 0.46296744E+03</totfact>
</mgrwt>
</event>
<event>
 5    0  0.2720079E+000  0.8232176E+03  0.7546771E-02  0.9527006E-01
         21   -1    0    0  502  501  0.00000000000E+00  0.00000000000E+00  0.11937352674E+04  0.11937352674E+04  0.00000000000E+00 0. -1.
         21   -1    0    0  504  502 -0.00000000000E+00 -0.00000000000E+00 -0.23631079415E+03  0.23631079415E+03  0.00000000000E+00 0. -1.
         25    1    1    2    0    0 -0.32182271245E+03  0.12016985626E+03  0.47146721502E+03  0.59658778687E+03  0.12500000000E+03 0.  0.
         21    1    1    2  503  501 -0.21767844891E+02 -0.21434897280E+02  0.47480709028E+03  0.47578888897E+03  0.00000000000E+00 0. -1.
         21    1    1    2  504  503  0.34359055734E+03 -0.98734958979E+02  0.11150167938E+02  0.35766938569E+03  0.00000000000E+00 0. -1.
<mgrwt>
<rscale>  4 0.82321760E+03</rscale>
<asrwt>0</asrwt>
<pdfrwt beam="1">  1       21 0.18365158E+00 0.82321760E+03</pdfrwt>
<pdfrwt beam="2">  1       21 0.36355508E-01 0.82321760E+03</pdfrwt>
<totfact> 0.93456626E+02</totfact>
</mgrwt>
</event>
<event>
 5    0  0.2720079E+000  0.5097875E+03  0.7546771E-02  0.1011255E+00
         21   -1    0    0  502  501  0.00000000000E+00  0.00000000000E+00  0.62883591020E+03  0.62883591020E+03  0.00000000000E+00 0. -1.
         21   -1    0    0  503  502 -0.00000000000E+00 -0.00000000000E+00 -0.51101245753E+03  0.51101245753E+03  0.00000000000E+00 0. -1.
         25    1    1    2    0    0 -0.18948594864E+03  0.14883401429E+03 -0.23787495226E+03  0.36092378898E+03  0.12500000000E+03 0.  0.
         21    1    1    2  503  504  0.15343437026E+03 -0.17872356648E+03 -0.14463004772E+03  0.27640924350E+03  0.00000000000E+00 0. -1.
         21    1    1    2  504  501  0.36051578380E+02  0.29889552184E+02  0.50032845264E+03  0.50251533525E+03  0.00000000000E+00 0. -1.
<mgrwt>
<rscale>  4 0.50978752E+03</rscale>
<asrwt>0</asrwt>
<pdfrwt beam="1">  1       21 0.96743986E-01 0.50978752E+03</pdfrwt>
<pdfrwt beam="2">  1       21 0.78617301E-01 0.50978752E+03</pdfrwt>
<totfact> 0.10570492E+03</totfact>
</mgrwt>
</event>
<event>
 5    0  0.2720079E+000  0.8004666E+03  0.7546771E-02  0.9559342E-01
         21   -1    0    0  503  501  0.00000000000E+00  0.00000000000E+00  0.17809421803E+03  0.17809421803E+03  0.00000000000E+00 0. -1.
         21   -1    0    0  504  502 -0.00000000000E+00 -0.00000000000E+00 -0.11529700041E+04  0.11529700041E+04  0.00000000000E+00 0. -1.
         25    1    1    2    0    0  0.10069124352E+03  0.29846539663E+03 -0.86296700939E+03  0.92712317348E+03  0.12500000000E+03 0.  0.
         21    1    1    2  503  502 -0.40114176018E+02  0.21411392582E+02  0.23686209208E+02  0.51270179994E+02  0.00000000000E+00 0. -1.
         21    1    1    2  504  501 -0.60577067501E+02 -0.31987678921E+03 -0.13559498586E+03  0.35267086862E+03  0.00000000000E+00 0. -1.
<mgrwt>
<rscale>  4 0.80046657E+03</rscale>
<asrwt>0</asrwt>
<pdfrwt beam="1">  1       21 0.27399111E-01 0.80046657E+03</pdfrwt>
<pdfrwt beam="2">  1       21 0.17738000E+00 0.80046657E+03</pdfrwt>
<totfact> 0.18470485E+03</totfact>
</mgrwt>
</event>
<event>
 5    0  0.2720079E+000  0.5503852E+03  0.7546771E-02  0.1001405E+00
         21   -1    0    0  503  501  0.00000000000E+00  0.00000000000E+00  0.10328560425E+03  0.10328560425E+03  0.00000000000E+00 0. -1.
         21   -1    0    0  504  502 -0.00000000000E+00 -0.00000000000E+00 -0.13475431042E+04  0.13475431042E+04  0.00000000000E+00 0. -1.
         25    1    1    2    0    0 -0.70921188250E+01 -0.20095437445E+03 -0.28869948467E+03  0.37337026021E+03  0.12500000000E+03 0.  0.
         21    1    1    2  503  502 -0.47098322697E+02 -0.34690388725E+02  0.27831666001E+02  0.64778674756E+02  0.00000000000E+00 0. -1.
         21    1    1    2  504  501  0.54190441522E+02  0.23564476317E+03 -0.98338968131E+03  0.10126797735E+04  0.00000000000E+00 0. -1.
<mgrwt>
<rscale>  4 0.55038518E+03</rscale>
<asrwt>0</asrwt>
<pdfrwt beam="1">  1       21 0.15890093E-01 0.55038518E+03</pdfrwt>
<pdfrwt beam="2">  1       21 0.20731432E+00 0.55038518E+03</pdfrwt>
<totfact> 0.35038702E+03</totfact>
</mgrwt>
</event>
<event>
 5    0  0.2720079E+000  0.4131456E+03  0.7546771E-02  0.1039321E+00
         21   -1    0    0  504  501  0.00000000000E+00  0.00000000000E+00  0.11429106844E+04  0.11429106844E+04  0.00000000000E+00 0. -1.
         21   -1    0    0  501  502 -0.00000000000E+00 -0.00000000000E+00 -0.11326841304E+03  0.11326841304E+03  0.00000000000E+00 0.  1.
         25    1    1    2    0    0  0.25339173668E+03 -0.44754354116E+02  0.19853973873E+03  0.34821452049E+03  0.12500000000E+03 0.  0.
         21    1    1    2  503  502 -0.12572130593E+03 -0.17767469061E+02  0.95828438436E+02  0.15907425730E+03  0.00000000000E+00 0.  1.
         21    1    1    2  504  503 -0.12767043075E+03  0.62521823177E+02  0.73527409417E+03  0.74889031962E+03  0.00000000000E+00 0. -1.
<mgrwt>
<rscale>  4 0.41314559E+03</rscale>
<asrwt>0</asrwt>
<pdfrwt beam="1">  1       21 0.17583240E+00 0.41314559E+03</pdfrwt>
<pdfrwt beam="2">  1       21 0.17425910E-01 0.41314559E+03</pdfrwt>
<totfact> 0.50872331E+03</totfact>
</mgrwt>
</event>
<event>
 5    0  0.2720079E+000  0.4590624E+03  0.7546771E-02  0.1025053E+00
         21   -1    0    0  503  501  0.00000000000E+00  0.00000000000E+00  0.56277618305E+03  0.56277618305E+03  0.00000000000E+00 0.  1.
         21   -1    0    0  504  502 -0.00000000000E+00 -0.00000000000E+00 -0.11532920545E+03  0.11532920545E+03  0.00000000000E+00 0. -1.
         25    1    1    2    0    0 -0.17238646180E+03  0.12213150071E+03  0.11744136300E+03  0.27212252649E+03  0.12500000000E+03 0.  0.
         21    1    1    2  503  502  0.27083561667E+00 -0.24745930125E+02  0.98264090557E+02  0.10133245237E+03  0.00000000000E+00 0.  1.
         21    1    1    2  504  501  0.17211562618E+03 -0.97385570589E+02  0.23174152404E+03  0.30465040965E+03  0.00000000000E+00 0.  1.
<mgrwt>
<rscale>  4 0.45906245E+03</rscale>
<asrwt>0</asrwt>
<pdfrwt beam="1">  1       21 0.86580950E-01 0.45906245E+03</pdfrwt>
<pdfrwt beam="2">  1       21 0.17742955E-01 0.45906245E+03</pdfrwt>
<totfact> 0.30067645E+04</totfact>
</mgrwt>
</event>
<event>
 5    0  0.2720079E+000  0.5496671E+03  0.7546771E-02  0.1001571E+00
         21   -1    0    0  503  501  0.00000000000E+00  0.00000000000E+00  0.16405479041E+03  0.16405479041E+03  0.00000000000E+00 0.  1.
         21   -1    0    0  504  502 -0.00000000000E+00 -0.00000000000E+00 -0.56152745703E+03  0.56152745703E+03  0.00000000000E+00 0.  1.
         25    1    1    2    0    0  0.22391144843E+03 -0.10597597550E+03 -0.27550285461E+03  0.39101670938E+03  0.12500000000E+03 0.  0.
         21    1    1    2  503  502  0.19682162233E+02  0.38454496022E+01  0.25192120515E+02  0.32199657278E+02  0.00000000000E+00 0.  1.
         21    1    1    2  504  501 -0.24359361066E+03  0.10213052590E+03 -0.14716193252E+03  0.30236588078E+03  0.00000000000E+00 0.  1.
<mgrwt>
<rscale>  4 0.54966708E+03</rscale>
<asrwt>0</asrwt>
<pdfrwt beam="1">  1       21 0.25239199E-01 0.54966708E+03</pdfrwt>
<pdfrwt beam="2">  1       21 0.86388839E-01 0.54966708E+03</pdfrwt>
<totfact> 0.15051461E+04</totfact>
</mgrwt>
</event>
<event>
 5    0  0.2720079E+000  0.6500938E+03  0.7546771E-02  0.9806603E-01
         21   -1    0    0  503  501  0.00000000000E+00  0.00000000000E+00  0.13348466881E+04  0.13348466881E+04  0.00000000000E+00 0. -1.
         21   -1    0    0  504  502 -0.00000000000E+00 -0.00000000000E+00 -0.53816512507E+03  0.53816512507E+03  0.00000000000E+00 0. -1.
         25    1    1    2    0    0  0.62287096411E+02  0.21296161859E+03 -0.48265094363E+03  0.54571903646E+03  0.12500000000E+03 0.  0.
         21    1    1    2  503  502 -0.14529686894E+03 -0.16950413254E+03  0.11234466514E+04  0.11454148635E+04  0.00000000000E+00 0. -1.
         21    1    1    2  504  501  0.83009772529E+02 -0.43457486050E+02  0.15588585531E+03  0.18187791321E+03  0.00000000000E+00 0.  1.
<mgrwt>
<rscale>  4 0.65009376E+03</rscale>
<asrwt>0</asrwt>
<pdfrwt beam="1">  1       21 0.20536103E+00 0.65009376E+03</pdfrwt>
<pdfrwt beam="2">  1       21 0.82794635E-01 0.65009376E+03</pdfrwt>
<totfact> 0.11509602E+02</totfact>
</mgrwt>
</event>
<event>
 5    0  0.2720079E+000  0.5091495E+03  0.7546771E-02  0.1011418E+00
         21   -1    0    0  502  501  0.00000000000E+00  0.00000000000E+00  0.53072329271E+03  0.53072329271E+03  0.00000000000E+00 0. -1.
         21   -1    0    0  504  502 -0.00000000000E+00 -0.00000000000E+00 -0.45399514904E+03  0.45399514904E+03  0.00000000000E+00 0.  1.
         25    1    1    2    0    0  0.29876124745E+03 -0.87318856381E+02 -0.76317936890E+02  0.34399461209E+03  0.12500000000E+03 0.  0.
         21    1    1    2  503  501 -0.25033181857E+03 -0.42525304653E+02  0.32973413611E+03  0.41617186527E+03  0.00000000000E+00 0. -1.
         21    1    1    2  504  503 -0.48429428878E+02  0.12984416103E+03 -0.17668805556E+03  0.22455196439E+03  0.00000000000E+00 0. -1.
<mgrwt>
<rscale>  4 0.50914946E+03</rscale>
<asrwt>0</asrwt>
<pdfrwt beam="1">  1       21 0.81649737E-01 0.50914946E+03</pdfrwt>
<pdfrwt beam="2">  1       21 0.69845408E-01 0.50914946E+03</pdfrwt>
<totfact> 0.20704812E+03</totfact>
</mgrwt>
</event>
<event>
 5    0  0.2720079E+000  0.3851773E+03  0.7546771E-02  0.1049037E+00
         21   -1    0    0  502  501  0.00000000000E+00  0.00000000000E+00  0.55203470908E+03  0.55203470908E+03  0.00000000000E+00 0. -1.
         21   -1    0    0  504  502 -0.00000000000E+00 -0.00000000000E+00 -0.19525675006E+03  0.19525675006E+03  0.00000000000E+00 0.  1.
         25    1    1    2    0    0 -0.13521898573E+03 -0.16519685503E+03 -0.66497044220E+00  0.24738556385E+03  0.12500000000E+03 0.  0.
         21    1    1    2  503  501  0.59277576428E+02  0.50267984040E+02  0.35366202715E+03  0.36210154754E+03  0.00000000000E+00 0. -1.
         21    1    1    2  504  503  0.75941409306E+02  0.11492887099E+03  0.37809023133E+01  0.13780434774E+03  0.00000000000E+00 0.  1.
<mgrwt>
<rscale>  4 0.38517731E+03</rscale>
<asrwt>0</asrwt>
<pdfrwt beam="1">  1       21 0.84928416E-01 0.38517731E+03</pdfrwt>
<pdfrwt beam="2">  1       21 0.30039500E-01 0.38517731E+03</pdfrwt>
<totfact> 0.11637115E+04</totfact>
</mgrwt>
</event>
<event>
 5    0  0.2720079E+000  0.4055280E+03  0.7546771E-02  0.1041882E+00
         21   -1    0    0  503  501  0.00000000000E+00  0.00000000000E+00  0.24321745108E+03  0.24321745108E+03  0.00000000000E+00 0.  1.
         21   -1    0    0  504  502 -0.00000000000E+00 -0.00000000000E+00 -0.42758786645E+03  0.42758786645E+03  0.00000000000E+00 0.  1.
         25    1    1    2    0    0 -0.18138161975E+03  0.92185851441E+02 -0.10306902469E+03  0.26008796020E+03  0.12500000000E+03 0.  0.
         21    1    1    2  503  502  0.70766557462E+02 -0.11983721136E+02  0.13614635080E+03  0.15390693312E+03  0.00000000000E+00 0.  1.
         21    1    1    2  504  501  0.11061506229E+03 -0.80202130304E+02 -0.21744774148E+03  0.25681042421E+03  0.00000000000E+00 0.  1.
<mgrwt>
<rscale>  4 0.40552798E+03</rscale>
<asrwt>0</asrwt>
<pdfrwt beam="1">  1       21 0.37418069E-01 0.40552798E+03</pdfrwt>
<pdfrwt beam="2">  1       21 0.65782749E-01 0.40552798E+03</pdfrwt>
<totfact> 0.13294146E+04</totfact>
</mgrwt>
</event>
<event>
 5    0  0.2720079E+000  0.4696949E+03  0.7546771E-02  0.1022006E+00
         21   -1    0    0  502  501  0.00000000000E+00  0.00000000000E+00  0.14601752952E+04  0.14601752952E+04  0.00000000000E+00 0.  1.
         21   -1    0    0  503  502 -0.00000000000E+00 -0.00000000000E+00 -0.52858251508E+03  0.52858251508E+03  0.00000000000E+00 0.  1.
         25    1    1    2    0    0 -0.71336911387E+02 -0.19261990309E+03 -0.18872379411E+03  0.30566820648E+03  0.12500000000E+03 0.  0.
         21    1    1    2  503  504  0.22778677472E+03 -0.12678292268E+02 -0.22072217299E+03  0.31743634241E+03  0.00000000000E+00 0.  1.
         21    1    1    2  504  501 -0.15644986334E+03  0.20529819535E+03  0.13410387473E+04  0.13656532614E+04  0.00000000000E+00 0.  1.
<mgrwt>
<rscale>  4 0.46969488E+03</rscale>
<asrwt>0</asrwt>
<pdfrwt beam="1">  1       21 0.22464235E+00 0.46969488E+03</pdfrwt>
<pdfrwt beam="2">  1       21 0.81320387E-01 0.46969488E+03</pdfrwt>
<totfact> 0.97660764E+01</totfact>
</mgrwt>
</event>
