<event>
 5    0  0.1911311E+001  0.2819195E+03  0.7546771E-02  0.1094645E+00
         21   -1    0    0  502  501  0.00000000000E+00  0.00000000000E+00  0.29211937936E+04  0.29211937936E+04  0.00000000000E+00 0. -1.
         21   -1    0    0  504  502 -0.00000000000E+00 -0.00000000000E+00 -0.12970024075E+04  0.12970024075E+04  0.00000000000E+00 0. -1.
         25    1    1    2    0    0  0.25133816371E+03  0.23189688022E+03 -0.11960382065E+04  0.12502317493E+04  0.12500000000E+03 0.  0.
         21    1    1    2  503  501 -0.16410649104E+03 -0.19163238823E+03  0.28547484494E+04  0.28658755420E+04  0.00000000000E+00 0. -1.
         21    1    1    2  504  503 -0.87231672679E+02 -0.40264491991E+02 -0.34518856719E+02  0.10208890979E+03  0.00000000000E+00 0. -1.
<mgrwt>
<rscale>  4 0.28191952E+03</rscale>
<asrwt>0</asrwt>
<pdfrwt beam="1">  1       21 0.44941443E+00 0.28191952E+03</pdfrwt>
<pdfrwt beam="2">  1       21 0.19953883E+00 0.28191952E+03</pdfrwt>
<totfact> 0.46706798E-01</totfact>
</mgrwt>
</event>
<event>
 5    0  0.1911311E+001  0.2990748E+03  0.7546771E-02  0.1085704E+00
         21   -1    0    0  504  501  0.00000000000E+00  0.00000000000E+00  0.93345305363E+03  0.93345305363E+03  0.00000000000E+00 0.  1.
         21   -1    0    0  503  502 -0.00000000000E+00 -0.00000000000E+00 -0.22456987893E+03  0.22456987893E+03  0.00000000000E+00 0.  1.
         25    1    1    2    0    0  0.23436878178E+03  0.12102225727E+03  0.37062741430E+03  0.47176773190E+03  0.12500000000E+03 0.  0.
         21    1    1    2  503  501 -0.26594868275E+03 -0.70299845303E+02 -0.61652957820E+02  0.28190753327E+03  0.00000000000E+00 0.  1.
         21    1    1    2  504  502  0.31579900968E+02 -0.50722411963E+02  0.39990871822E+03  0.40434766740E+03  0.00000000000E+00 0.  1.
<mgrwt>
<rscale>  4 0.29907480E+03</rscale>
<asrwt>0</asrwt>
<pdfrwt beam="1">  1       21 0.14360816E+00 0.29907480E+03</pdfrwt>
<pdfrwt beam="2">  1       21 0.34549212E-01 0.29907480E+03</pdfrwt>
<totfact> 0.24987325E+03</totfact>
</mgrwt>
</event>
<event>
 5    0  0.1911311E+001  0.2205493E+03  0.7546771E-02  0.1133474E+00
         21   -1    0    0  504  501  0.00000000000E+00  0.00000000000E+00  0.18015681653E+04  0.18015681653E+04  0.00000000000E+00 0.  1.
         21   -1    0    0  503  502 -0.00000000000E+00 -0.00000000000E+00 -0.94061047405E+02  0.94061047405E+02  0.00000000000E+00 0.  1.
         25    1    1    2    0    0 -0.19679601776E+03 -0.20911784072E+03  0.10116475950E+04  0.10590159585E+04  0.12500000000E+03 0.  0.
         21    1    1    2  503  501  0.77237959147E+02  0.15267178877E+03  0.51284295741E+02  0.17861818611E+03  0.00000000000E+00 0.  1.
         21    1    1    2  504  502  0.11955805862E+03  0.56446051955E+02  0.64457522725E+03  0.65799506817E+03  0.00000000000E+00 0.  1.
<mgrwt>
<rscale>  4 0.22054927E+03</rscale>
<asrwt>0</asrwt>
<pdfrwt beam="1">  1       21 0.27716431E+00 0.22054927E+03</pdfrwt>
<pdfrwt beam="2">  1       21 0.14470932E-01 0.22054927E+03</pdfrwt>
<totfact> 0.18736991E+03</totfact>
</mgrwt>
</event>
<event>
 5    0  0.1911311E+001  0.2250722E+03  0.7546771E-02  0.1130157E+00
         21   -1    0    0  502  501  0.00000000000E+00  0.00000000000E+00  0.12666255158E+03  0.12666255158E+03  0.00000000000E+00 0. -1.
         21   -1    0    0  504  502 -0.00000000000E+00 -0.00000000000E+00 -0.68763465952E+03  0.68763465952E+03  0.00000000000E+00 0. -1.
         25    1    1    2    0    0 -0.18592969223E+03 -0.16484304137E+03 -0.38538757498E+03  0.47528061363E+03  0.12500000000E+03 0.  0.
         21    1    1    2  503  501  0.41839881855E+02  0.12230327929E+03 -0.36583226238E+02  0.13433912416E+03  0.00000000000E+00 0. -1.
         21    1    1    2  504  503  0.14408981037E+03  0.42539762084E+02 -0.13900130673E+03  0.20467747332E+03  0.00000000000E+00 0. -1.
<mgrwt>
<rscale>  4 0.22507221E+03</rscale>
<asrwt>0</asrwt>
<pdfrwt beam="1">  1       21 0.19486546E-01 0.22507221E+03</pdfrwt>
<pdfrwt beam="2">  1       21 0.10578995E+00 0.22507221E+03</pdfrwt>
<totfact> 0.17042103E+04</totfact>
</mgrwt>
</event>
