<event>
 5    0  0.1041609E-002  0.3387132E+03  0.7546771E-02  0.1067345E+00
         21   -1    0    0  503  502  0.00000000000E+00  0.00000000000E+00  0.79027388065E+02  0.79027388065E+02  0.00000000000E+00 0.  1.
          1   -1    0    0  502    0 -0.00000000000E+00 -0.00000000000E+00 -0.14616380284E+04  0.14616380284E+04  0.00000000000E+00 0.  1.
         25    1    1    2    0    0 -0.16091044728E+03 -0.21507021438E+03 -0.71065935611E+03  0.76994096500E+03  0.12500000000E+03 0.  0.
         21    1    1    2  503  501 -0.50615931651E+02 -0.22616825713E+02 -0.65009273073E+02  0.85438275543E+02  0.00000000000E+00 0.  1.
          1    1    1    2  501    0  0.21152637893E+03  0.23768704009E+03 -0.60694201116E+03  0.68528617593E+03  0.00000000000E+00 0.  1.
<mgrwt>
<rscale>  4 0.33871324E+03</rscale>
<asrwt>0</asrwt>
<pdfrwt beam="1">  1       21 0.12158060E-01 0.33871324E+03</pdfrwt>
<pdfrwt beam="2">  1        1 0.22486739E+00 0.33871324E+03</pdfrwt>
<totfact> 0.47054588E+03</totfact>
</mgrwt>
</event>
<event>
 5    0  0.1041609E-002  0.2926038E+03  0.7546771E-02  0.1088997E+00
         21   -1    0    0  501  502  0.00000000000E+00  0.00000000000E+00  0.22952935579E+03  0.22952935579E+03  0.00000000000E+00 0. -1.
         -2   -1    0    0    0  501 -0.00000000000E+00 -0.00000000000E+00 -0.47544929861E+03  0.47544929861E+03  0.00000000000E+00 0. -1.
         25    1    1    2    0    0  0.10848209449E+03 -0.19148413162E+03 -0.25894524436E+03  0.36209415497E+03  0.12500000000E+03 0.  0.
         21    1    1    2  503  502 -0.67372070274E+02 -0.52044624074E+02 -0.33643221484E+02  0.91539636769E+02  0.00000000000E+00 0.  1.
         -2    1    1    2    0  503 -0.41110024215E+02  0.24352875570E+03  0.46668523021E+02  0.25134486266E+03  0.00000000000E+00 0. -1.
<mgrwt>
<rscale>  4 0.29260378E+03</rscale>
<asrwt>0</asrwt>
<pdfrwt beam="1">  1       21 0.35312209E-01 0.29260378E+03</pdfrwt>
<pdfrwt beam="2">  1       -2 0.73146045E-01 0.29260378E+03</pdfrwt>
<totfact> 0.10655569E+03</totfact>
</mgrwt>
</event>
<event>
 5    0  0.1041609E-002  0.4818066E+03  0.7546771E-02  0.1018640E+00
          1   -1    0    0  502    0 -0.00000000000E+00  0.00000000000E+00  0.13281596396E+04  0.13281596396E+04  0.00000000000E+00 0. -1.
         21   -1    0    0  503  502  0.00000000000E+00 -0.00000000000E+00 -0.38561469889E+03  0.38561469889E+03  0.00000000000E+00 0. -1.
         25    1    1    2    0    0 -0.21341480943E+03  0.29280965857E+02  0.58335709734E+03  0.63429784712E+03  0.12500000000E+03 0.  0.
         21    1    1    2  503  501  0.23152411619E+03  0.20330689651E+03 -0.26921773829E+03  0.40916414941E+03  0.00000000000E+00 0. -1.
          1    1    1    2  501    0 -0.18109306758E+02 -0.23258786237E+03  0.62840558165E+03  0.67031234195E+03  0.00000000000E+00 0. -1.
<mgrwt>
<rscale>  4 0.48180657E+03</rscale>
<asrwt>0</asrwt>
<pdfrwt beam="1">  1       21 0.59325339E-01 0.48180657E+03</pdfrwt>
<pdfrwt beam="2">  1        1 0.20433225E+00 0.48180657E+03</pdfrwt>
<totfact> 0.24482228E+02</totfact>
</mgrwt>
</event>
<event>
 5    0  0.1041609E-002  0.4261286E+03  0.7546771E-02  0.1035090E+00
         21   -1    0    0  503  502  0.00000000000E+00  0.00000000000E+00  0.22189180266E+03  0.22189180266E+03  0.00000000000E+00 0. -1.
          2   -1    0    0  502    0 -0.00000000000E+00 -0.00000000000E+00 -0.24942615805E+04  0.24942615805E+04  0.00000000000E+00 0. -1.
         25    1    1    2    0    0 -0.18669306410E+03 -0.29250903378E+03 -0.99707130479E+03  0.10631048969E+04  0.12500000000E+03 0.  0.
         21    1    1    2  503  501 -0.83474757471E+01  0.33108050739E+02 -0.13243736602E+04  0.13248137285E+04  0.00000000000E+00 0.  1.
          2    1    1    2  501    0  0.19504053984E+03  0.25940098304E+03  0.49075187159E+02  0.32823475773E+03  0.00000000000E+00 0. -1.
<mgrwt>
<rscale>  4 0.42612856E+03</rscale>
<asrwt>0</asrwt>
<pdfrwt beam="1">  1       21 0.34137200E-01 0.42612856E+03</pdfrwt>
<pdfrwt beam="2">  1        2 0.38373255E+00 0.42612856E+03</pdfrwt>
<totfact> 0.38297237E+02</totfact>
</mgrwt>
</event>
<event>
 5    0  0.1041609E-002  0.4293162E+03  0.7546771E-02  0.1034076E+00
          2   -1    0    0  502    0 -0.00000000000E+00  0.00000000000E+00  0.14313256152E+04  0.14313256152E+04  0.00000000000E+00 0.  1.
         21   -1    0    0  503  502  0.00000000000E+00 -0.00000000000E+00 -0.14229002209E+03  0.14229002209E+03  0.00000000000E+00 0.  1.
         25    1    1    2    0    0 -0.95933226709E+01 -0.22378135476E+03  0.59153520203E+03  0.64475500915E+03  0.12500000000E+03 0.  0.
         21    1    1    2  503  501 -0.27809640433E+03  0.69622368038E+02  0.34170099486E+03  0.44603189810E+03  0.00000000000E+00 0.  1.
          2    1    1    2  501    0  0.28768972700E+03  0.15415898672E+03  0.35579939627E+03  0.48282873008E+03  0.00000000000E+00 0.  1.
<mgrwt>
<rscale>  4 0.42931624E+03</rscale>
<asrwt>0</asrwt>
<pdfrwt beam="1">  1       21 0.21890774E-01 0.42931624E+03</pdfrwt>
<pdfrwt beam="2">  1        2 0.22020393E+00 0.42931624E+03</pdfrwt>
<totfact> 0.34432799E+03</totfact>
</mgrwt>
</event>
<event>
 5    0  0.1041609E-002  0.2693872E+03  0.7546771E-02  0.1101631E+00
          2   -1    0    0  502    0 -0.00000000000E+00  0.00000000000E+00  0.77551662742E+03  0.77551662742E+03  0.00000000000E+00 0. -1.
         21   -1    0    0  503  502  0.00000000000E+00 -0.00000000000E+00 -0.11637193379E+03  0.11637193379E+03  0.00000000000E+00 0. -1.
         25    1    1    2    0    0 -0.11865470110E+03  0.22131198635E+03  0.31009458180E+03  0.41814062594E+03  0.12500000000E+03 0.  0.
         21    1    1    2  503  501  0.12476637887E+03 -0.48221087919E+02  0.22110189308E+03  0.25841433733E+03  0.00000000000E+00 0.  1.
          2    1    1    2  501    0 -0.61116777704E+01 -0.17309089843E+03  0.12794821875E+03  0.21533359795E+03  0.00000000000E+00 0. -1.
<mgrwt>
<rscale>  4 0.26938716E+03</rscale>
<asrwt>0</asrwt>
<pdfrwt beam="1">  1       21 0.17903375E-01 0.26938716E+03</pdfrwt>
<pdfrwt beam="2">  1        2 0.11931025E+00 0.26938716E+03</pdfrwt>
<totfact> 0.13006151E+04</totfact>
</mgrwt>
</event>
<event>
 5    0  0.1041609E-002  0.3331487E+03  0.7546771E-02  0.1069752E+00
          2   -1    0    0  502    0 -0.00000000000E+00  0.00000000000E+00  0.38816696093E+04  0.38816696093E+04  0.00000000000E+00 0. -1.
         21   -1    0    0  503  502  0.00000000000E+00 -0.00000000000E+00 -0.31916762373E+02  0.31916762373E+02  0.00000000000E+00 0. -1.
         25    1    1    2    0    0  0.91581745134E+00  0.20259574241E+03  0.95043823722E+03  0.97979779360E+03  0.12500000000E+03 0.  0.
         21    1    1    2  503  501  0.19054728378E+03 -0.38217904905E+02  0.11347431719E+04  0.11512649311E+04  0.00000000000E+00 0. -1.
          2    1    1    2  501    0 -0.19146310123E+03 -0.16437783750E+03  0.17645714378E+04  0.17825236469E+04  0.00000000000E+00 0. -1.
<mgrwt>
<rscale>  4 0.33314867E+03</rscale>
<asrwt>0</asrwt>
<pdfrwt beam="1">  1       21 0.49102742E-02 0.33314867E+03</pdfrwt>
<pdfrwt beam="2">  1        2 0.59717956E+00 0.33314867E+03</pdfrwt>
<totfact> 0.18739560E+03</totfact>
</mgrwt>
</event>
<event>
 5    0  0.1041609E-002  0.3524243E+03  0.7546771E-02  0.1061624E+00
         21   -1    0    0  503  502  0.00000000000E+00  0.00000000000E+00  0.82832003821E+02  0.82832003821E+02  0.00000000000E+00 0.  1.
          2   -1    0    0  502    0 -0.00000000000E+00 -0.00000000000E+00 -0.19037560593E+04  0.19037560593E+04  0.00000000000E+00 0.  1.
         25    1    1    2    0    0 -0.21837105876E+03 -0.28158062304E+03 -0.12015680227E+04  0.12595095393E+04  0.12500000000E+03 0.  0.
         21    1    1    2  503  501  0.47575012491E+02  0.15005975912E+03 -0.19077836304E+03  0.24734125601E+03  0.00000000000E+00 0. -1.
          2    1    1    2  501    0  0.17079604627E+03  0.13152086392E+03 -0.42857766981E+03  0.47973726781E+03  0.00000000000E+00 0.  1.
<mgrwt>
<rscale>  4 0.35242433E+03</rscale>
<asrwt>0</asrwt>
<pdfrwt beam="1">  1       21 0.12743386E-01 0.35242433E+03</pdfrwt>
<pdfrwt beam="2">  1        2 0.29288554E+00 0.35242433E+03</pdfrwt>
<totfact> 0.53722488E+03</totfact>
</mgrwt>
</event>
<event>
 5    0  0.1041609E-002  0.3208977E+03  0.7546771E-02  0.1075237E+00
          1   -1    0    0  502    0 -0.00000000000E+00  0.00000000000E+00  0.86701587523E+03  0.86701587523E+03  0.00000000000E+00 0.  1.
         21   -1    0    0  503  502  0.00000000000E+00 -0.00000000000E+00 -0.59706494926E+03  0.59706494926E+03  0.00000000000E+00 0.  1.
         25    1    1    2    0    0  0.17518936915E+03  0.24444273554E+03 -0.19065835608E+03  0.37738465094E+03  0.12500000000E+03 0.  0.
         21    1    1    2  503  501 -0.11909596299E+03 -0.46085543265E+02 -0.28543397151E+03  0.31269838150E+03  0.00000000000E+00 0.  1.
          1    1    1    2  501    0 -0.56093406154E+02 -0.19835719228E+03  0.74604325355E+03  0.77399779206E+03  0.00000000000E+00 0.  1.
<mgrwt>
<rscale>  4 0.32089770E+03</rscale>
<asrwt>0</asrwt>
<pdfrwt beam="1">  1       21 0.91856146E-01 0.32089770E+03</pdfrwt>
<pdfrwt beam="2">  1        1 0.13338706E+00 0.32089770E+03</pdfrwt>
<totfact> 0.21094378E+02</totfact>
</mgrwt>
</event>
<event>
 5    0  0.1041609E-002  0.3094243E+03  0.7546771E-02  0.1080622E+00
         -3   -1    0    0    0  501 -0.00000000000E+00  0.00000000000E+00  0.49169089820E+03  0.49169089820E+03  0.00000000000E+00 0.  1.
         21   -1    0    0  501  502  0.00000000000E+00 -0.00000000000E+00 -0.22920466150E+03  0.22920466150E+03  0.00000000000E+00 0.  1.
         25    1    1    2    0    0  0.21953476292E+03 -0.13867700599E+03  0.23133981744E+03  0.36955369739E+03  0.12500000000E+03 0.  0.
         21    1    1    2  503  502  0.39539201377E+02  0.64730171642E+01  0.44879792216E+02  0.60161816346E+02  0.00000000000E+00 0.  1.
         -3    1    1    2    0  503 -0.25907396429E+03  0.13220398883E+03 -0.13733372956E+02  0.29118004597E+03  0.00000000000E+00 0.  1.
<mgrwt>
<rscale>  4 0.30942430E+03</rscale>
<asrwt>0</asrwt>
<pdfrwt beam="1">  1       21 0.35262256E-01 0.30942430E+03</pdfrwt>
<pdfrwt beam="2">  1       -3 0.75644754E-01 0.30942430E+03</pdfrwt>
<totfact> 0.63514025E+02</totfact>
</mgrwt>
</event>
<event>
 5    0  0.1041609E-002  0.3260836E+03  0.7546771E-02  0.1072883E+00
         21   -1    0    0  501  502  0.00000000000E+00  0.00000000000E+00  0.14007102032E+03  0.14007102032E+03  0.00000000000E+00 0. -1.
         -1   -1    0    0    0  501 -0.00000000000E+00 -0.00000000000E+00 -0.11088383893E+04  0.11088383893E+04  0.00000000000E+00 0. -1.
         25    1    1    2    0    0 -0.39396999302E+02 -0.28888840874E+03 -0.38947387786E+03  0.50231816391E+03  0.12500000000E+03 0.  0.
         21    1    1    2  503  502  0.68088204420E+02  0.70659557452E+02  0.26840081764E+02  0.10173085387E+03  0.00000000000E+00 0. -1.
         -1    1    1    2    0  503 -0.28691205118E+02  0.21822885128E+03 -0.60613357290E+03  0.64486039185E+03  0.00000000000E+00 0. -1.
<mgrwt>
<rscale>  4 0.32608357E+03</rscale>
<asrwt>0</asrwt>
<pdfrwt beam="1">  1       21 0.21549387E-01 0.32608357E+03</pdfrwt>
<pdfrwt beam="2">  1       -1 0.17059052E+00 0.32608357E+03</pdfrwt>
<totfact> 0.48297917E+02</totfact>
</mgrwt>
</event>
<event>
 5    0  0.1041609E-002  0.2814111E+03  0.7546771E-02  0.1094921E+00
          2   -1    0    0  502    0 -0.00000000000E+00  0.00000000000E+00  0.83510603622E+03  0.83510603622E+03  0.00000000000E+00 0.  1.
         21   -1    0    0  503  502  0.00000000000E+00 -0.00000000000E+00 -0.10535637179E+03  0.10535637179E+03  0.00000000000E+00 0.  1.
         25    1    1    2    0    0  0.18943923979E+03  0.93292182298E+02  0.27609170576E+03  0.36938095083E+03  0.12500000000E+03 0.  0.
         21    1    1    2  503  501 -0.88547262532E+02  0.92591221438E+02  0.11700399157E+03  0.17350413837E+03  0.00000000000E+00 0.  1.
          2    1    1    2  501    0 -0.10089197726E+03 -0.18588340374E+03  0.33665396711E+03  0.39757731881E+03  0.00000000000E+00 0.  1.
<mgrwt>
<rscale>  4 0.28141106E+03</rscale>
<asrwt>0</asrwt>
<pdfrwt beam="1">  1       21 0.16208673E-01 0.28141106E+03</pdfrwt>
<pdfrwt beam="2">  1        2 0.12847785E+00 0.28141106E+03</pdfrwt>
<totfact> 0.14192271E+04</totfact>
</mgrwt>
</event>
<event>
 5    0  0.1041609E-002  0.3796366E+03  0.7546771E-02  0.1051068E+00
         21   -1    0    0  503  502  0.00000000000E+00  0.00000000000E+00  0.39602385617E+03  0.39602385617E+03  0.00000000000E+00 0.  1.
          4   -1    0    0  502    0 -0.00000000000E+00 -0.00000000000E+00 -0.68332389208E+03  0.68332389208E+03  0.00000000000E+00 0.  1.
         25    1    1    2    0    0 -0.21332566143E+03 -0.16708455821E+03 -0.36015333176E+03  0.46771840866E+03  0.12500000000E+03 0.  0.
         21    1    1    2  503  501 -0.92839345225E+02 -0.27623276313E+02 -0.15529545154E+03  0.18302695617E+03  0.00000000000E+00 0.  1.
          4    1    1    2  501    0  0.30616500665E+03  0.19470783453E+03  0.22814874740E+03  0.42860238341E+03  0.00000000000E+00 0.  1.
<mgrwt>
<rscale>  4 0.37963663E+03</rscale>
<asrwt>0</asrwt>
<pdfrwt beam="1">  1       21 0.60926747E-01 0.37963663E+03</pdfrwt>
<pdfrwt beam="2">  1        4 0.10512675E+00 0.37963663E+03</pdfrwt>
<totfact> 0.76971410E+01</totfact>
</mgrwt>
</event>
<event>
 5    0  0.1041609E-002  0.2772355E+03  0.7546771E-02  0.1097209E+00
         21   -1    0    0  503  502  0.00000000000E+00  0.00000000000E+00  0.86102932293E+02  0.86102932293E+02  0.00000000000E+00 0. -1.
          2   -1    0    0  502    0 -0.00000000000E+00 -0.00000000000E+00 -0.92100230671E+03  0.92100230671E+03  0.00000000000E+00 0. -1.
         25    1    1    2    0    0 -0.13018428201E+03 -0.19479378830E+03 -0.29760499793E+03  0.39885624232E+03  0.12500000000E+03 0.  0.
         21    1    1    2  503  501  0.30949886226E+02 -0.17406499164E+02 -0.16198375151E+03  0.16583008600E+03  0.00000000000E+00 0.  1.
          2    1    1    2  501    0  0.99234395789E+02  0.21220028746E+03 -0.37531062498E+03  0.44241891068E+03  0.00000000000E+00 0. -1.
<mgrwt>
<rscale>  4 0.27723547E+03</rscale>
<asrwt>0</asrwt>
<pdfrwt beam="1">  1       21 0.13246604E-01 0.27723547E+03</pdfrwt>
<pdfrwt beam="2">  1        2 0.14169267E+00 0.27723547E+03</pdfrwt>
<totfact> 0.18049029E+04</totfact>
</mgrwt>
</event>
<event>
 5    0  0.1041609E-002  0.6899404E+03  0.7546771E-02  0.9734592E-01
         -3   -1    0    0    0  501 -0.00000000000E+00  0.00000000000E+00  0.13447485263E+04  0.13447485263E+04  0.00000000000E+00 0. -1.
         21   -1    0    0  501  502  0.00000000000E+00 -0.00000000000E+00 -0.35981083717E+03  0.35981083717E+03  0.00000000000E+00 0. -1.
         25    1    1    2    0    0 -0.26441207749E+03 -0.53358800599E+03  0.40336424567E+03  0.73003946575E+03  0.12500000000E+03 0.  0.
         21    1    1    2  503  502 -0.14973006128E+03  0.88837264300E+02  0.13736266290E+03  0.22176485731E+03  0.00000000000E+00 0. -1.
         -3    1    1    2    0  503  0.41414213876E+03  0.44475074169E+03  0.44421078060E+03  0.75275504046E+03  0.00000000000E+00 0. -1.
<mgrwt>
<rscale>  4 0.68994038E+03</rscale>
<asrwt>0</asrwt>
<pdfrwt beam="1">  1       21 0.55355514E-01 0.68994038E+03</pdfrwt>
<pdfrwt beam="2">  1       -3 0.20688439E+00 0.68994038E+03</pdfrwt>
<totfact> 0.19126950E+01</totfact>
</mgrwt>
</event>
<event>
 5    0  0.1041609E-002  0.6994086E+03  0.7546771E-02  0.9718244E-01
          2   -1    0    0  502    0 -0.00000000000E+00  0.00000000000E+00  0.14928322846E+04  0.14928322846E+04  0.00000000000E+00 0. -1.
         21   -1    0    0  503  502  0.00000000000E+00 -0.00000000000E+00 -0.50454494677E+03  0.50454494677E+03  0.00000000000E+00 0. -1.
         25    1    1    2    0    0  0.21483174684E+03 -0.35205210306E+03 -0.13584065342E+03  0.45185290288E+03  0.12500000000E+03 0.  0.
         21    1    1    2  503  501  0.12433053011E+02 -0.27777855258E+03  0.54107079855E+02  0.28327209741E+03  0.00000000000E+00 0.  1.
          2    1    1    2  501    0 -0.22726479985E+03  0.62983065564E+03  0.10700209114E+04  0.12622522311E+04  0.00000000000E+00 0. -1.
<mgrwt>
<rscale>  4 0.69940860E+03</rscale>
<asrwt>0</asrwt>
<pdfrwt beam="1">  1       21 0.77622300E-01 0.69940860E+03</pdfrwt>
<pdfrwt beam="2">  1        2 0.22966650E+00 0.69940860E+03</pdfrwt>
<totfact> 0.21256471E+02</totfact>
</mgrwt>
</event>
<event>
 5    0  0.1041609E-002  0.4109025E+03  0.7546771E-02  0.1040069E+00
         21   -1    0    0  503  502  0.00000000000E+00  0.00000000000E+00  0.12241298908E+03  0.12241298908E+03  0.00000000000E+00 0.  1.
          2   -1    0    0  502    0 -0.00000000000E+00 -0.00000000000E+00 -0.14553917190E+04  0.14553917190E+04  0.00000000000E+00 0.  1.
         25    1    1    2    0    0 -0.65014129541E+02  0.27774328422E+03 -0.70832116029E+03  0.77376484483E+03  0.12500000000E+03 0.  0.
         21    1    1    2  503  501 -0.15560556106E+03 -0.53303756006E+01 -0.19103819448E+03  0.24644897096E+03  0.00000000000E+00 0. -1.
          2    1    1    2  501    0  0.22061969060E+03 -0.27241290862E+03 -0.43361937512E+03  0.55759089227E+03  0.00000000000E+00 0.  1.
<mgrwt>
<rscale>  4 0.41090248E+03</rscale>
<asrwt>0</asrwt>
<pdfrwt beam="1">  1       21 0.18832767E-01 0.41090248E+03</pdfrwt>
<pdfrwt beam="2">  1        2 0.22390642E+00 0.41090248E+03</pdfrwt>
<totfact> 0.44658822E+03</totfact>
</mgrwt>
</event>
<event>
 5    0  0.1041609E-002  0.4523500E+03  0.7546771E-02  0.1027024E+00
         -4   -1    0    0    0  501 -0.00000000000E+00  0.00000000000E+00  0.21173384155E+04  0.21173384155E+04  0.00000000000E+00 0.  1.
         21   -1    0    0  501  502  0.00000000000E+00 -0.00000000000E+00 -0.14842864160E+03  0.14842864160E+03  0.00000000000E+00 0.  1.
         25    1    1    2    0    0 -0.20901355077E+03  0.91141425376E+02  0.46642690161E+03  0.53401542897E+03  0.12500000000E+03 0.  0.
         21    1    1    2  503  502 -0.15050100722E+03  0.45331110906E+02 -0.22724497140E+02  0.15881393377E+03  0.00000000000E+00 0.  1.
         -4    1    1    2    0  503  0.35951455799E+03 -0.13647253628E+03  0.15252073694E+04  0.15729376944E+04  0.00000000000E+00 0.  1.
<mgrwt>
<rscale>  4 0.45235002E+03</rscale>
<asrwt>0</asrwt>
<pdfrwt beam="1">  1       21 0.22835177E-01 0.45235002E+03</pdfrwt>
<pdfrwt beam="2">  1       -4 0.32574435E+00 0.45235002E+03</pdfrwt>
<totfact> 0.17791963E+01</totfact>
</mgrwt>
</event>
<event>
 5    0  0.1041609E-002  0.3950768E+03  0.7546771E-02  0.1045498E+00
          2   -1    0    0  502    0 -0.00000000000E+00  0.00000000000E+00  0.10544111926E+04  0.10544111926E+04  0.00000000000E+00 0.  1.
         21   -1    0    0  503  502  0.00000000000E+00 -0.00000000000E+00 -0.40710731638E+03  0.40710731638E+03  0.00000000000E+00 0.  1.
         25    1    1    2    0    0 -0.28225673176E+03  0.25973665920E+03  0.72106805530E+03  0.82625427995E+03  0.12500000000E+03 0.  0.
         21    1    1    2  503  501  0.37354145618E+02 -0.30070971261E+02  0.19774486643E+03  0.20347635663E+03  0.00000000000E+00 0. -1.
          2    1    1    2  501    0  0.24490258614E+03 -0.22966568793E+03 -0.27150904555E+03  0.43178787237E+03  0.00000000000E+00 0.  1.
<mgrwt>
<rscale>  4 0.39507675E+03</rscale>
<asrwt>0</asrwt>
<pdfrwt beam="1">  1       21 0.62631895E-01 0.39507675E+03</pdfrwt>
<pdfrwt beam="2">  1        2 0.16221711E+00 0.39507675E+03</pdfrwt>
<totfact> 0.66820322E+02</totfact>
</mgrwt>
</event>
<event>
 5    0  0.1041609E-002  0.5649630E+03  0.7546771E-02  0.9980887E-01
         21   -1    0    0  501  502  0.00000000000E+00  0.00000000000E+00  0.46242661586E+03  0.46242661586E+03  0.00000000000E+00 0. -1.
         -2   -1    0    0    0  501 -0.00000000000E+00 -0.00000000000E+00 -0.90970713668E+03  0.90970713668E+03  0.00000000000E+00 0. -1.
         25    1    1    2    0    0 -0.20066799136E+03  0.84977256348E+02 -0.16402413324E+03  0.30002948711E+03  0.12500000000E+03 0.  0.
         21    1    1    2  503  502 -0.27773477377E+03 -0.84509851899E+02  0.23006361587E+03  0.37041569483E+03  0.00000000000E+00 0. -1.
         -2    1    1    2    0  503  0.47840276513E+03 -0.46740444906E+00 -0.51332000346E+03  0.70168857059E+03  0.00000000000E+00 0. -1.
<mgrwt>
<rscale>  4 0.56496300E+03</rscale>
<asrwt>0</asrwt>
<pdfrwt beam="1">  1       21 0.71142557E-01 0.56496300E+03</pdfrwt>
<pdfrwt beam="2">  1       -2 0.13995494E+00 0.56496300E+03</pdfrwt>
<totfact> 0.48787091E+01</totfact>
</mgrwt>
</event>
<event>
 5    0  0.1041609E-002  0.6012743E+03  0.7546771E-02  0.9902766E-01
          1   -1    0    0  502    0 -0.00000000000E+00  0.00000000000E+00  0.10346962299E+04  0.10346962299E+04  0.00000000000E+00 0. -1.
         21   -1    0    0  503  502  0.00000000000E+00 -0.00000000000E+00 -0.38549275828E+03  0.38549275828E+03  0.00000000000E+00 0. -1.
         25    1    1    2    0    0  0.18887761862E+03  0.24907050278E+03  0.19080324444E+03  0.38696478943E+03  0.12500000000E+03 0.  0.
         21    1    1    2  503  501  0.28398266318E+03  0.50051334211E+02  0.36627464321E+03  0.46616349417E+03  0.00000000000E+00 0. -1.
          1    1    1    2  501    0 -0.47286028180E+03 -0.29912183699E+03  0.92125583999E+02  0.56706070459E+03  0.00000000000E+00 0. -1.
<mgrwt>
<rscale>  4 0.60127435E+03</rscale>
<asrwt>0</asrwt>
<pdfrwt beam="1">  1       21 0.59306579E-01 0.60127435E+03</pdfrwt>
<pdfrwt beam="2">  1        1 0.15918403E+00 0.60127435E+03</pdfrwt>
<totfact> 0.38733964E+02</totfact>
</mgrwt>
</event>
<event>
 5    0  0.1041609E-002  0.3738167E+03  0.7546771E-02  0.1053243E+00
          2   -1    0    0  502    0 -0.00000000000E+00  0.00000000000E+00  0.14944532397E+03  0.14944532397E+03  0.00000000000E+00 0. -1.
         21   -1    0    0  503  502  0.00000000000E+00 -0.00000000000E+00 -0.11450016120E+04  0.11450016120E+04  0.00000000000E+00 0. -1.
         25    1    1    2    0    0 -0.18639117403E+03 -0.12433962783E+03 -0.11841245307E+03  0.28257480752E+03  0.12500000000E+03 0.  0.
         21    1    1    2  503  501 -0.14121487375E+03  0.45134033496E+02 -0.15252673265E+03  0.21270431524E+03  0.00000000000E+00 0.  1.
          2    1    1    2  501    0  0.32760604777E+03  0.79205594337E+02 -0.72461710234E+03  0.79916781324E+03  0.00000000000E+00 0. -1.
<mgrwt>
<rscale>  4 0.37381665E+03</rscale>
<asrwt>0</asrwt>
<pdfrwt beam="1">  1       21 0.17615409E+00 0.37381665E+03</pdfrwt>
<pdfrwt beam="2">  1        2 0.22991589E-01 0.37381665E+03</pdfrwt>
<totfact> 0.51370803E+02</totfact>
</mgrwt>
</event>
<event>
 5    0  0.1041609E-002  0.1623214E+03  0.7546771E-02  0.1186101E+00
         21   -1    0    0  503  502  0.00000000000E+00  0.00000000000E+00  0.48518099978E+02  0.48518099978E+02  0.00000000000E+00 0.  1.
          2   -1    0    0  502    0 -0.00000000000E+00 -0.00000000000E+00 -0.14303126344E+04  0.14303126344E+04  0.00000000000E+00 0.  1.
         25    1    1    2    0    0  0.17178620059E+03  0.12348757994E+03 -0.65037219925E+03  0.69524720688E+03  0.12500000000E+03 0.  0.
         21    1    1    2  503  501 -0.15835497538E+03 -0.63055302637E+02 -0.27900010102E+03  0.32694544772E+03  0.00000000000E+00 0.  1.
          2    1    1    2  501    0 -0.13431225219E+02 -0.60432277299E+02 -0.45242223412E+03  0.45663807975E+03  0.00000000000E+00 0.  1.
<mgrwt>
<rscale>  4 0.16232145E+03</rscale>
<asrwt>0</asrwt>
<pdfrwt beam="1">  1       21 0.74643213E-02 0.16232145E+03</pdfrwt>
<pdfrwt beam="2">  1        2 0.22004815E+00 0.16232145E+03</pdfrwt>
<totfact> 0.26066792E+04</totfact>
</mgrwt>
</event>
<event>
 5    0  0.1041609E-002  0.4201152E+03  0.7546771E-02  0.1037029E+00
          2   -1    0    0  502    0 -0.00000000000E+00  0.00000000000E+00  0.79076990910E+03  0.79076990910E+03  0.00000000000E+00 0. -1.
         21   -1    0    0  503  502  0.00000000000E+00 -0.00000000000E+00 -0.32371261051E+03  0.32371261051E+03  0.00000000000E+00 0. -1.
         25    1    1    2    0    0  0.19945100695E+03  0.16579647170E+02 -0.12953832246E+03  0.26918537453E+03  0.12500000000E+03 0.  0.
         21    1    1    2  503  501  0.16743972512E+03 -0.90179652143E+02  0.77450601903E+02  0.20534611499E+03  0.00000000000E+00 0.  1.
          2    1    1    2  501    0 -0.36689073207E+03  0.73600004973E+02  0.51914501914E+03  0.63995103009E+03  0.00000000000E+00 0. -1.
<mgrwt>
<rscale>  4 0.42011520E+03</rscale>
<asrwt>0</asrwt>
<pdfrwt beam="1">  1       21 0.49801940E-01 0.42011520E+03</pdfrwt>
<pdfrwt beam="2">  1        2 0.12165691E+00 0.42011520E+03</pdfrwt>
<totfact> 0.16191013E+03</totfact>
</mgrwt>
</event>
<event>
 5    0  0.1041609E-002  0.2399470E+03  0.7546771E-02  0.1119828E+00
         21   -1    0    0  503  502  0.00000000000E+00  0.00000000000E+00  0.22987433245E+03  0.22987433245E+03  0.00000000000E+00 0. -1.
          1   -1    0    0  502    0 -0.00000000000E+00 -0.00000000000E+00 -0.82200093339E+03  0.82200093339E+03  0.00000000000E+00 0. -1.
         25    1    1    2    0    0 -0.66428135163E+02  0.20405488209E+03 -0.32883541829E+03  0.41207866284E+03  0.12500000000E+03 0.  0.
         21    1    1    2  503  501 -0.45302938266E+01 -0.67642259062E+02 -0.41694411049E+03  0.42241968472E+03  0.00000000000E+00 0.  1.
          1    1    1    2  501    0  0.70958428989E+02 -0.13641262303E+03  0.15365292784E+03  0.21737691828E+03  0.00000000000E+00 0. -1.
<mgrwt>
<rscale>  4 0.23994696E+03</rscale>
<asrwt>0</asrwt>
<pdfrwt beam="1">  1       21 0.35365281E-01 0.23994696E+03</pdfrwt>
<pdfrwt beam="2">  1        1 0.12646168E+00 0.23994696E+03</pdfrwt>
<totfact> 0.18646379E+03</totfact>
</mgrwt>
</event>
<event>
 5    0  0.1041609E-002  0.3403030E+03  0.7546771E-02  0.1066667E+00
          2   -1    0    0  502    0 -0.00000000000E+00  0.00000000000E+00  0.31348058991E+03  0.31348058991E+03  0.00000000000E+00 0. -1.
         21   -1    0    0  503  502  0.00000000000E+00 -0.00000000000E+00 -0.71001290283E+03  0.71001290283E+03  0.00000000000E+00 0. -1.
         25    1    1    2    0    0 -0.25772477137E+03  0.21486977387E+02 -0.22826363371E+03  0.36689649010E+03  0.12500000000E+03 0.  0.
         21    1    1    2  503  501  0.43845292965E+02  0.11689635604E+03 -0.33137282486E+03  0.35411172930E+03  0.00000000000E+00 0. -1.
          2    1    1    2  501    0  0.21387947841E+03 -0.13838333343E+03  0.16310414566E+03  0.30248527334E+03  0.00000000000E+00 0. -1.
<mgrwt>
<rscale>  4 0.34030303E+03</rscale>
<asrwt>0</asrwt>
<pdfrwt beam="1">  1       21 0.10923275E+00 0.34030303E+03</pdfrwt>
<pdfrwt beam="2">  1        2 0.48227783E-01 0.34030303E+03</pdfrwt>
<totfact> 0.80700652E+02</totfact>
</mgrwt>
</event>
<event>
 5    0  0.1041609E-002  0.2603308E+03  0.7546771E-02  0.1106945E+00
         21   -1    0    0  503  502  0.00000000000E+00  0.00000000000E+00  0.72835986279E+03  0.72835986279E+03  0.00000000000E+00 0. -1.
          1   -1    0    0  502    0 -0.00000000000E+00 -0.00000000000E+00 -0.99696602759E+02  0.99696602759E+02  0.00000000000E+00 0. -1.
         25    1    1    2    0    0 -0.15279024253E+03 -0.15602179575E+03  0.26504223847E+03  0.36545868048E+03  0.12500000000E+03 0.  0.
         21    1    1    2  503  501 -0.28670979477E+02  0.21260835419E+02  0.15003206507E+01  0.35725329235E+02  0.00000000000E+00 0.  1.
          1    1    1    2  501    0  0.18146122201E+03  0.13476096034E+03  0.36212070091E+03  0.42687245584E+03  0.00000000000E+00 0. -1.
<mgrwt>
<rscale>  4 0.26033080E+03</rscale>
<asrwt>0</asrwt>
<pdfrwt beam="1">  1       21 0.11205536E+00 0.26033080E+03</pdfrwt>
<pdfrwt beam="2">  1        1 0.15337939E-01 0.26033080E+03</pdfrwt>
<totfact> 0.23620540E+03</totfact>
</mgrwt>
</event>
