<LesHouchesEvents version="3.0">
  <!--
  <scalesfunctionalform>
    muR  H_T/2 := sum_i mT(i)/2, i=final state
    muF1 H_T/2 := sum_i mT(i)/2, i=final state
    muF2 H_T/2 := sum_i mT(i)/2, i=final state
    QES  H_T/2 := sum_i mT(i)/2, i=final state
  </scalesfunctionalform>
HERWIG6   
  -->
  <header>
       63
  </header>
  <init>
   2212   2212 0.65000000D+04 0.65000000D+04 -1 -1   244800   244800 -4   1
 0.62128997D-04 0.33207187D-05 0.17405255D-05     66
  </init>
  <event>
  5     66 -.17405255E-05 0.12086707E+02 0.75467711E-02 0.95314036E-01
       -2 -1    0    0    0  501 0.00000000E+00 0.00000000E+00 0.23246232E+03 0.23246254E+03 0.32000000E+00 0.0000E+00 0.9000E+01
        2 -1    0    0  502    0 0.00000000E+00 0.00000000E+00 -.20666969E+04 0.20666969E+04 0.32000000E+00 0.0000E+00 0.9000E+01
       25  1    1    2    0    0 -.41778873E+03 -.16762755E+03 -.14039875E+04 0.14796798E+04 0.12500000E+03 0.0000E+00 0.9000E+01
        2  1    1    2  502    0 0.42798366E+03 0.17413070E+03 -.53906709E+03 0.70998940E+03 0.32000000E+00 0.0000E+00 0.9000E+01
       -2  1    1    2    0  501 -.10194929E+02 -.65031415E+01 0.10881999E+03 0.10949028E+03 0.32000000E+00 0.0000E+00 0.9000E+01
#aMCatNLO 1  0  0  1  2 0.44730127D+02 0.00000000D+00  -5  6  0 0.00000000D+00 0.00000000D+00 0.00000000D+00 0.00000000D+00 0.00000000D+00
  <mgrwgt>
 -.2700853132D-02    5    4    0
 0.693130168066305D+03 0.000000000000000D+00 0.000000000000000D+00 0.693130168066305D+03
 0.693130168066305D+03 0.000000000000000D+00 0.000000000000000D+00 -.693130168066305D+03
 0.596458138198581D+03 -.417881719130007D+03 -.167665386876592D+03 -.370675730907474D+03
 0.464378255889660D+03 0.428071803060687D+03 0.174165438100476D+03 0.454763250358319D+02
 0.325423942044369D+03 -.101900839306800D+02 -.650005122388438D+01 0.325199405871642D+03
 0.000000000000000D+00 -.000000000000000D+00 0.000000000000000D+00 0.000000000000000D+00
 0.140645036859285D+04 0.000000000000000D+00 0.000000000000000D+00 0.140645036859285D+04
 0.694192475390185D+03 0.000000000000000D+00 0.000000000000000D+00 -.694192475390185D+03
 0.586982487272022D+03 -.400695678183111D+03 -.175971350979743D+03 -.370675730907474D+03
 0.474610779712651D+03 0.441707894020578D+03 0.167575154604113D+03 0.454763250358319D+02
 0.325388529509903D+03 -.738921325513784D+00 -.110677708967350D+02 0.325199405871642D+03
 0.713661047488463D+03 -.402732945119534D+02 0.194639672723651D+02 0.712257893202669D+03
 0.693130168066305D+03 0.000000000000000D+00 0.000000000000000D+00 0.693130168066305D+03
 0.693130168066305D+03 0.000000000000000D+00 0.000000000000000D+00 -.693130168066305D+03
 0.596458138198581D+03 -.417881719130007D+03 -.167665386876592D+03 -.370675730907474D+03
 0.464378255889660D+03 0.428071803060687D+03 0.174165438100476D+03 0.454763250358319D+02
 0.000000000000000D+00 -.000000000000000D+00 0.000000000000000D+00 0.000000000000000D+00
 0.325423942044369D+03 -.101900839306800D+02 -.650005122388438D+01 0.325199405871642D+03
 0.140645036859285D+04 0.000000000000000D+00 0.000000000000000D+00 0.140645036859285D+04
 0.694192475390185D+03 0.000000000000000D+00 0.000000000000000D+00 -.694192475390185D+03
 0.586982487272022D+03 -.400695678183111D+03 -.175971350979743D+03 -.370675730907474D+03
 0.474610779712651D+03 0.441707894020578D+03 0.167575154604113D+03 0.454763250358319D+02
 0.713661047488463D+03 -.402732945119534D+02 0.194639672723651D+02 0.712257893202669D+03
 0.325388529509903D+03 -.738921325513784D+00 -.110677708967350D+02 0.325199405871642D+03
0.542405290347D-05 0.000000000000D+00 0.000000000000D+00 0.407744559693D-06 0.000000000000D+00  6 -2 2 25 2 -2 21 0 0.35763453D-01 0.31795338D+00 0.22161727D+06 0.22161727D+06 0.22161727D+06 0.10944183D+01  1  2  2  1  6  1       -2 0.316147090963D-04 0.100000000000D+01
0.446077714919D-05 0.000000000000D+00 -.208297913352D-07 0.407744559693D-06 0.000000000000D+00  6 -2 2 25 2 -2 21 2 0.35763453D-01 0.31795338D+00 0.22161727D+06 0.22161727D+06 0.22161727D+06 0.10944183D+01  1  2  3  1  6  1       -2 0.311417147490D-04 0.100000000000D+01
-.311301529928D-05 0.000000000000D+00 0.000000000000D+00 0.407744559693D-06 0.000000000000D+00  6 -2 2 25 2 -2 21 2 0.35763453D-01 0.31795338D+00 0.22161727D+06 0.22161727D+06 0.22161727D+06 0.10944183D+01  1  2 15  1  6  1       -2 -.217326782345D-04 0.100000000000D+01
-.919579116097D-03 0.000000000000D+00 -.367438634981D-05 0.407744559693D-06 0.000000000000D+00  6 -2 2 25 2 -2 21 2 0.72603646D-01 0.31795338D+00 0.22161727D+06 0.22161727D+06 0.22161727D+06 0.10944183D+01  1  2  5  1  6  1       -2 -.156599468393D-02 0.100000000000D+01
-.701983511484D-04 0.000000000000D+00 -.281384271807D-06 0.407744559693D-06 0.000000000000D+00  6 21 2 25 2 2 -2 2 0.72603646D-01 0.31795338D+00 0.22161727D+06 0.22161727D+06 0.22161727D+06 0.10944183D+01  3  4  5  5  5  1       -2 -.117588219412D-02 0.100000000000D+01
  </mgrwgt>
  </event>
  <event>
  5     66 0.17405255E-05 0.14285188E+03 0.75467711E-02 0.93851205E-01
       -2 -1    0    0    0  501 0.00000000E+00 0.00000000E+00 0.66777572E+03 0.66777580E+03 0.32000000E+00 0.0000E+00 0.9000E+01
        2 -1    0    0  502    0 -.00000000E+00 -.00000000E+00 -.29176995E+04 0.29176995E+04 0.32000000E+00 0.0000E+00 0.9000E+01
       25  1    1    2    0    0 0.19629187E+02 0.50273911E+03 -.72848130E+03 0.89411516E+03 0.12500000E+03 0.0000E+00 0.9000E+01
        2  1    1    2  502    0 0.72623363E+02 -.35403056E+03 -.20773528E+04 0.21085555E+04 0.32000000E+00 0.0000E+00 0.9000E+01
       -2  1    1    2    0  501 -.92252550E+02 -.14870855E+03 0.55591034E+03 0.58280457E+03 0.32000000E+00 0.0000E+00 0.9000E+01
#aMCatNLO 1  0  0  5  4 0.16414372D+02 0.00000000D+00  -5  6  0 0.00000000D+00 0.00000000D+00 0.00000000D+00 0.00000000D+00 0.00000000D+00
  <mgrwgt>
 0.4161858011D-03    7    2    0
 0.139583989769934D+04 0.000000000000000D+00 0.000000000000000D+00 0.139583989769934D+04
 0.139583989769934D+04 -.000000000000000D+00 -.000000000000000D+00 -.139583989769934D+04
 0.561246309630174D+03 0.196221148817533D+02 0.502767647445046D+03 -.214969963863864D+03
 0.103391532342064D+04 0.726279067295804D+02 -.354063173310124D+03 -.968682276328858D+03
 0.119651816234785D+04 -.922500216113338D+02 -.148704474134922D+03 0.118365224019272D+04
 0.000000000000000D+00 0.000000000000000D+00 0.000000000000000D+00 0.000000000000000D+00
 0.139583989769934D+04 0.000000000000000D+00 0.000000000000000D+00 0.139583989769934D+04
 0.139583989769934D+04 -.000000000000000D+00 -.000000000000000D+00 -.139583989769934D+04
 0.560426922944049D+03 0.194936624186478D+02 0.502560585640140D+03 -.213321801152816D+03
 0.103118724366977D+04 0.723914140473939D+02 -.354444392949177D+03 -.965647858686783D+03
 0.117948656855816D+04 -.105703748845361D+03 -.139428831232229D+03 0.116643683237043D+04
 0.205790602266892D+02 0.138186723793196D+02 -.868736145873449D+01 0.125328274691717D+02
0.171360835443D-02 0.000000000000D+00 0.000000000000D+00 0.151994567570D-04 0.000000000000D+00  6 -2 2 25 2 -2 21 0 0.10273473D+00 0.44887685D+00 0.27819034D+06 0.27819034D+06 0.27819034D+06 0.10869854D+01  1  2  2  4  6  5       -2 0.345826541072D-03 0.100000000000D+01
0.265991767669D-03 0.000000000000D+00 -.658070728444D-05 0.151994567570D-04 0.000000000000D+00  6 -2 2 25 2 -2 21 2 0.10273473D+00 0.44887685D+00 0.27819034D+06 0.27819034D+06 0.27819034D+06 0.10869854D+01  1  2  3  4  6  5       -2 0.634252736324D-04 0.100000000000D+01
-.951155593600D-03 0.000000000000D+00 0.000000000000D+00 0.151994567570D-04 0.000000000000D+00  6 -2 2 25 2 -2 21 2 0.10273473D+00 0.44887685D+00 0.27819034D+06 0.27819034D+06 0.27819034D+06 0.10869854D+01  1  2 15  4  6  5       -2 -.226801394343D-03 0.100000000000D+01
0.741057507912D-10 0.000000000000D+00 0.000000000000D+00 0.151994567570D-04 0.000000000000D+00  6 -2 2 25 2 -2 21 2 0.10273473D+00 0.44887685D+00 0.28691617D+06 0.28691617D+06 0.28691617D+06 0.10859876D+01  1  2 12  4  6  5       -2 0.175896650365D-10 0.100000000000D+01
-.313513953333D-04 0.000000000000D+00 0.000000000000D+00 0.151994567570D-04 0.000000000000D+00  6 -2 2 25 2 -2 21 2 0.10273473D+00 0.44887685D+00 0.27819034D+06 0.27819034D+06 0.27819034D+06 0.10869854D+01  1  2  4  4  6  5       -2 -.747568560183D-05 0.100000000000D+01
-.583147721085D-01 0.000000000000D+00 0.000000000000D+00 0.151994567570D-04 0.000000000000D+00  6 -2 2 25 2 -2 21 2 0.10273473D+00 0.44887685D+00 0.27819034D+06 0.27819034D+06 0.27819034D+06 0.10869854D+01  1  2  5  4  6  5       -2 -.139050558226D-01 0.100000000000D+01
0.593263586507D-01 0.000000000000D+00 -.000000000000D+00 0.151994567570D-04 0.000000000000D+00  6 -2 2 25 2 -2 21 2 0.10273473D+00 0.44887685D+00 0.27819034D+06 0.27819034D+06 0.27819034D+06 0.10869854D+01  1  2  6  4  6  5       -2 0.141462668713D-01 0.100000000000D+01
  </mgrwgt>
  </event>
  <event>
  6     66 0.17405255E-05 0.14671713E+03 0.75467711E-02 0.91929633E-01
       -2 -1    0    0    0  501 0.00000000E+00 0.00000000E+00 0.46441528E+03 0.46441539E+03 0.32000000E+00 0.0000E+00 0.9000E+01
        2 -1    0    0  503    0 0.00000000E+00 0.00000000E+00 -.32840867E+04 0.32840867E+04 0.32000000E+00 0.0000E+00 0.9000E+01
       25  1    1    2    0    0 0.53797182E+03 0.30911619E+03 -.41419309E+03 0.75640426E+03 0.12500000E+03 0.0000E+00 0.9000E+01
        2  1    1    2  502    0 -.15513972E+03 -.56037623E+01 -.18455289E+04 0.18520466E+04 0.32000000E+00 0.0000E+00 0.9000E+01
       -2  1    1    2    0  501 -.36694281E+03 -.29721694E+03 0.97671144E+02 0.48220814E+03 0.32000000E+00 0.0000E+00 0.9000E+01
       21  1    1    2  503  502 -.15889290E+02 -.62954825E+01 -.65762061E+03 0.65784309E+03 0.75000000E+00 0.0000E+00 0.9000E+01
#aMCatNLO 2  0  0  2  4 0.17091010D+02 0.00000000D+00  -5  6  0 0.00000000D+00 0.00000000D+00 0.00000000D+00 0.00000000D+00 0.00000000D+00
  <mgrwgt>
 0.3119959878D-03    3    2    0
 0.110424378850782D+04 0.000000000000000D+00 0.000000000000000D+00 0.110424378850782D+04
 0.110424378850782D+04 0.000000000000000D+00 0.000000000000000D+00 -.110424378850782D+04
 0.648317203274074D+03 0.533273149825573D+03 0.307232004812718D+03 0.160992046247590D+03
 0.786323696070983D+03 -.160814479377231D+03 -.784576041784379D+01 -.769663629301027D+03
 0.773846677670577D+03 -.372458670448342D+03 -.299386244394874D+03 0.608671583053436D+03
 0.000000000000000D+00 -.000000000000000D+00 -.000000000000000D+00 -.000000000000000D+00
 0.110454091418172D+04 0.000000000000000D+00 0.000000000000000D+00 0.110454091418172D+04
 0.138082606507838D+04 0.000000000000000D+00 0.000000000000000D+00 -.138082606507838D+04
 0.653049119846400D+03 0.537954515704785D+03 0.309086804975563D+03 0.160992046247590D+03
 0.785167873206627D+03 -.155161400085733D+03 -.560595847520884D+01 -.769663629301027D+03
 0.770336714796405D+03 -.366903826038809D+03 -.297185364014828D+03 0.608671583053436D+03
 0.276813271410676D+03 -.158892895802434D+02 -.629548248552637D+01 -.276285150896660D+03
-.244147943987D-08 0.000000000000D+00 0.000000000000D+00 0.106570912784D-05 0.000000000000D+00  6 -2 2 25 2 -2 21 2 0.71429261D-01 0.50528916D+00 0.40794421D+06 0.40794421D+06 0.40794421D+06 0.10748125D+01  1  2 13  2  6  2        2 -.736042997359D-09 0.100000000000D+01
-.101389822138D-02 0.000000000000D+00 0.000000000000D+00 0.106570912784D-05 0.000000000000D+00  6 -2 2 25 2 -2 21 2 0.71429261D-01 0.51311376D+00 0.40794421D+06 0.40794421D+06 0.40794421D+06 0.10748125D+01  1  2 13  2  6  2        2 -.282258077150D-03 0.100000000000D+01
0.197141858116D-02 0.000000000000D+00 0.000000000000D+00 0.106570912784D-05 0.489373782791D-07  6 -2 2 25 2 -2 21 2 0.71448481D-01 0.50524389D+00 0.40794421D+06 0.40794421D+06 0.40794421D+06 0.10748125D+01  1  2  1  2  6  2        2 0.594254800969D-03 0.100000000000D+01
  </mgrwgt>
  </event>
  <event>
  5     66 0.17405255E-05 0.51299168E+02 0.75467711E-02 0.92780840E-01
       -2 -1    0    0    0  501 0.00000000E+00 0.00000000E+00 0.37325050E+03 0.37325064E+03 0.32000000E+00 0.0000E+00 0.9000E+01
        2 -1    0    0  502    0 0.00000000E+00 0.00000000E+00 -.43023524E+04 0.43023524E+04 0.32000000E+00 0.0000E+00 0.9000E+01
       25  1    1    2    0    0 0.45630952E+03 -.21017878E+03 -.15616647E+03 0.54074621E+03 0.12500000E+03 0.0000E+00 0.9000E+01
        2  1    1    2  502    0 -.41427091E+03 0.23960558E+03 -.39354455E+04 0.39644372E+04 0.32000000E+00 0.0000E+00 0.9000E+01
       -2  1    1    2    0  501 -.42038605E+02 -.29426800E+02 0.16251013E+03 0.17041955E+03 0.32000000E+00 0.0000E+00 0.9000E+01
#aMCatNLO 1  0  0  2  1 0.17781948D+03 0.00000000D+00  -5  6  0 0.00000000D+00 0.00000000D+00 0.00000000D+00 0.00000000D+00 0.00000000D+00
  <mgrwgt>
 0.3526573006D-02    7    2    0
 0.126722355297388D+04 0.000000000000000D+00 0.000000000000000D+00 0.126722355297388D+04
 0.126722355297388D+04 0.000000000000000D+00 0.000000000000000D+00 -.126722355297388D+04
 0.755630921260286D+03 0.456348746289428D+03 -.210215974599796D+03 0.550370924875028D+03
 0.121265595968077D+04 -.414322725293669D+03 0.239633966021357D+03 -.111420227884500D+04
 0.566160225006693D+03 -.420260209957597D+02 -.294179914215613D+02 0.563831353969974D+03
 0.000000000000000D+00 -.000000000000000D+00 -.000000000000000D+00 -.000000000000000D+00
 0.134955434854515D+04 0.000000000000000D+00 0.000000000000000D+00 0.134955434854515D+04
 0.137012891665141D+04 0.000000000000000D+00 0.000000000000000D+00 -.137012891665141D+04
 0.787962482807338D+03 0.510188336640842D+03 -.205084325387780D+03 0.550370924875028D+03
 0.118829409622677D+04 -.330579061240928D+03 0.247615882392611D+03 -.111420227884500D+04
 0.564420870401460D+03 -.259204643003238D+01 -.256593943894138D+02 0.563831353969974D+03
 0.179005815760984D+03 -.177017228969881D+03 -.168721626154169D+02 -.205745681062592D+02
0.141548409982D-01 0.000000000000D+00 0.000000000000D+00 0.365802924551D-04 0.000000000000D+00  6 -2 2 25 2 -2 21 0 0.57423166D-01 0.66190037D+00 0.27441097D+06 0.27441097D+06 0.27441097D+06 0.10874282D+01  1  2  2  2  6  2        2 0.978405822276D-03 0.100000000000D+01
0.436328032542D-02 0.000000000000D+00 -.543583164885D-04 0.365802924551D-04 0.000000000000D+00  6 -2 2 25 2 -2 21 2 0.57423166D-01 0.66190037D+00 0.27441097D+06 0.27441097D+06 0.27441097D+06 0.10874282D+01  1  2  3  2  6  2        2 0.356638588896D-03 0.100000000000D+01
-.788432186895D-02 0.000000000000D+00 0.000000000000D+00 0.365802924551D-04 0.000000000000D+00  6 -2 2 25 2 -2 21 2 0.57423166D-01 0.66190037D+00 0.27441097D+06 0.27441097D+06 0.27441097D+06 0.10874282D+01  1  2 15  2  6  2        2 -.644435657586D-03 0.100000000000D+01
-.389448038933D-03 0.000000000000D+00 0.000000000000D+00 0.365802924551D-04 0.000000000000D+00  6 -2 2 25 2 -2 21 2 0.57423166D-01 0.66190037D+00 0.27441097D+06 0.27441097D+06 0.27441097D+06 0.10874282D+01  1  2  4  2  6  2        2 -.318320595274D-04 0.100000000000D+01
-.554550421664D-01 0.000000000000D+00 -.157872130415D-01 0.365802924551D-04 0.000000000000D+00  6 -2 2 25 2 -2 21 2 0.57423166D-01 0.72291889D+00 0.27441097D+06 0.27441097D+06 0.27441097D+06 0.10874282D+01  1  2  5  2  6  2        2 -.182042510497D-02 0.100000000000D+01
0.573606935066D-01 0.000000000000D+00 0.172621328194D-01 0.365802924551D-04 0.000000000000D+00  6 -2 2 25 2 -2 21 2 0.57423166D-01 0.66190037D+00 0.27441097D+06 0.27441097D+06 0.27441097D+06 0.10874282D+01  1  2  6  2  6  2        2 0.468845347183D-02 0.100000000000D+01
-.766123298976D-03 0.000000000000D+00 -.229810950145D-03 0.365802924551D-04 0.000000000000D+00  6 -2 21 25 2 -2 -2 2 0.57423166D-01 0.72291889D+00 0.27441097D+06 0.27441097D+06 0.27441097D+06 0.10874282D+01  1  2  5  6  6  2        2 -.232055094746D-06 0.100000000000D+01
  </mgrwgt>
  </event>
  <event>
  6     66 -.17405255E-05 0.21990190E+02 0.75467711E-02 0.94149805E-01
       -2 -1    0    0    0  501 0.00000000E+00 0.00000000E+00 0.41210196E+03 0.41210209E+03 0.32000000E+00 0.0000E+00 0.9000E+01
        2 -1    0    0  503    0 0.00000000E+00 0.00000000E+00 -.17772001E+04 0.17772002E+04 0.32000000E+00 0.0000E+00 0.9000E+01
       25  1    1    2    0    0 0.50630434E+03 0.83117168E+01 -.51207135E+03 0.73092766E+03 0.12500000E+03 0.0000E+00 0.9000E+01
        2  1    1    2  502    0 -.11361770E+02 -.22819374E+02 -.63738348E+03 0.63789311E+03 0.32000000E+00 0.0000E+00 0.9000E+01
       -2  1    1    2    0  501 -.48890358E+03 0.10953067E+02 0.10466012E+03 0.50010051E+03 0.32000000E+00 0.0000E+00 0.9000E+01
       21  1    1    2  503  502 -.60389863E+01 0.35545904E+01 -.32030346E+03 0.32038098E+03 0.75000000E+00 0.0000E+00 0.9000E+01
#aMCatNLO 2  0  0  2  4 0.70074581D+01 0.00000000D+00  -5  6  0 0.00000000D+00 0.00000000D+00 0.00000000D+00 0.00000000D+00 0.00000000D+00
  <mgrwgt>
 -.1854783766D-02    3    2    0
 0.774793783934060D+03 0.000000000000000D+00 0.000000000000000D+00 0.774793783934060D+03
 0.774793783934060D+03 0.000000000000000D+00 0.000000000000000D+00 -.774793783934060D+03
 0.534320108296401D+03 0.504207676324575D+03 0.954199504601915D+01 -.124725889837642D+03
 0.339627859712129D+03 -.126866725549511D+02 -.220424125347794D+02 -.338674273427687D+03
 0.675639599859589D+03 -.491521003769624D+03 0.125004174887603D+02 0.463400163265329D+03
 0.000000000000000D+00 -.000000000000000D+00 0.000000000000000D+00 -.000000000000000D+00
 0.774873763057344D+03 0.000000000000000D+00 0.000000000000000D+00 0.774873763057344D+03
 0.945168505749181D+03 0.000000000000000D+00 0.000000000000000D+00 -.945168505749181D+03
 0.536268659871978D+03 0.506293792013255D+03 0.831409249009771D+01 -.124725889837642D+03
 0.339632453364295D+03 -.113630872176692D+02 -.228214842935739D+02 -.338674273427687D+03
 0.673702298917918D+03 -.488891718475282D+03 0.109528014333860D+02 0.463400163265329D+03
 0.170438856652334D+03 -.603898632030368D+01 0.355459037009024D+01 -.170294742691837D+03
-.163290719718D-07 0.000000000000D+00 0.000000000000D+00 0.494542520908D-05 0.000000000000D+00  6 -2 2 25 2 -2 21 2 0.63393702D-01 0.27342505D+00 0.27200311D+06 0.27200311D+06 0.27200311D+06 0.10877138D+01  1  2 13  2  6  2        2 -.521919615338D-07 0.100000000000D+01
-.445029404335D-02 0.000000000000D+00 0.000000000000D+00 0.494542520908D-05 0.000000000000D+00  6 -2 2 25 2 -2 21 2 0.63393702D-01 0.29271060D+00 0.27200311D+06 0.27200311D+06 0.27200311D+06 0.10877138D+01  1  2 13  2  6  2        2 -.121570659853D-01 0.100000000000D+01
0.322368681144D-02 0.000000000000D+00 0.000000000000D+00 0.494542520908D-05 0.473278008667D-06  6 -2 2 25 2 -2 21 2 0.63400246D-01 0.27341513D+00 0.27200311D+06 0.27200311D+06 0.27200311D+06 0.10877138D+01  1  2  1  2  6  2        2 0.103023344116D-01 0.100000000000D+01
  </mgrwgt>
  </event>
  <event>
  5     66 0.17405255E-05 0.36434148E+02 0.75467711E-02 0.89204637E-01
       -2 -1    0    0    0  501 0.00000000E+00 0.00000000E+00 0.47730761E+03 0.47730772E+03 0.32000000E+00 0.0000E+00 0.9000E+01
        2 -1    0    0  502    0 0.00000000E+00 0.00000000E+00 -.20137546E+04 0.20137546E+04 0.32000000E+00 0.0000E+00 0.9000E+01
       25  1    1    2    0    0 -.56162951E+03 -.11770162E+03 -.54820618E+03 0.80339056E+03 0.12500000E+03 0.0000E+00 0.9000E+01
        2  1    1    2  502    0 0.56372424E+03 0.81320807E+02 -.12761410E+04 0.13974742E+04 0.32000000E+00 0.0000E+00 0.9000E+01
       -2  1    1    2    0  501 -.20947336E+01 0.36380808E+02 0.28790026E+03 0.29019755E+03 0.32000000E+00 0.0000E+00 0.9000E+01
#aMCatNLO 1  0  0  1  2 0.89233738D+01 0.00000000D+00  -5  6  0 0.00000000D+00 0.00000000D+00 0.00000000D+00 0.00000000D+00 0.00000000D+00
  <mgrwgt>
 0.2416696457D-02    7    4    0
 0.980398156688049D+03 0.000000000000000D+00 0.000000000000000D+00 0.980398156688049D+03
 0.980398156688049D+03 0.000000000000000D+00 0.000000000000000D+00 -.980398156688049D+03
 0.591162524216850D+03 -.561713799803953D+03 -.117710785808124D+03 -.668573709674262D+02
 0.775476027202432D+03 0.563808135884311D+03 0.813368817142359D+02 -.526182255829033D+03
 0.594157761956816D+03 -.209433608035843D+01 0.363739040938881D+02 0.593039626796459D+03
 0.000000000000000D+00 -.000000000000000D+00 0.000000000000000D+00 0.000000000000000D+00
 0.126486894173773D+04 0.000000000000000D+00 0.000000000000000D+00 0.126486894173773D+04
 0.110713774510253D+04 0.000000000000000D+00 0.000000000000000D+00 -.110713774510253D+04
 0.505295851359110D+03 -.466644152927616D+03 -.132182540021438D+03 -.668573709674262D+02
 0.883864083037692D+03 0.707683071624945D+03 0.594358567719313D+02 -.526182255829033D+03
 0.602035711673561D+03 0.101622953756642D+03 0.205857826954306D+02 0.593039626796459D+03
 0.380811040769889D+03 -.342661872453971D+03 0.521609005540757D+02 0.157731196635201D+03
 0.980398156688049D+03 0.000000000000000D+00 0.000000000000000D+00 0.980398156688049D+03
 0.980398156688049D+03 0.000000000000000D+00 0.000000000000000D+00 -.980398156688049D+03
 0.591162524216850D+03 -.561713799803953D+03 -.117710785808124D+03 -.668573709674262D+02
 0.775476027202432D+03 0.563808135884311D+03 0.813368817142359D+02 -.526182255829033D+03
 0.000000000000000D+00 -.000000000000000D+00 0.000000000000000D+00 0.000000000000000D+00
 0.594157761956816D+03 -.209433608035843D+01 0.363739040938881D+02 0.593039626796459D+03
 0.126486894173773D+04 0.000000000000000D+00 0.000000000000000D+00 0.126486894173773D+04
 0.110713774510253D+04 0.000000000000000D+00 0.000000000000000D+00 -.110713774510253D+04
 0.505295851359110D+03 -.466644152927616D+03 -.132182540021438D+03 -.668573709674262D+02
 0.883864083037692D+03 0.707683071624945D+03 0.594358567719313D+02 -.526182255829033D+03
 0.380811040769889D+03 -.342661872453971D+03 0.521609005540757D+02 0.157731196635201D+03
 0.602035711673561D+03 0.101622953756642D+03 0.205857826954306D+02 0.593039626796459D+03
0.770186005776D-03 0.000000000000D+00 0.000000000000D+00 0.634766172589D-05 0.000000000000D+00  6 -2 2 25 2 -2 21 0 0.73431950D-01 0.30980840D+00 0.35608000D+06 0.35608000D+06 0.35608000D+06 0.10790881D+01  1  2  2  1  6  1       -2 0.110890847270D-02 0.100000000000D+01
0.432935522185D-03 0.000000000000D+00 -.295771705681D-05 0.634766172589D-05 0.000000000000D+00  6 -2 2 25 2 -2 21 2 0.73431950D-01 0.30980840D+00 0.35608000D+06 0.35608000D+06 0.35608000D+06 0.10790881D+01  1  2  3  1  6  1       -2 0.725833602983D-03 0.100000000000D+01
-.424040937220D-03 0.000000000000D+00 0.000000000000D+00 0.634766172589D-05 0.000000000000D+00  6 -2 2 25 2 -2 21 2 0.73431950D-01 0.30980840D+00 0.35608000D+06 0.35608000D+06 0.35608000D+06 0.10790881D+01  1  2 15  1  6  1       -2 -.710921477918D-03 0.100000000000D+01
-.225734307242D-04 0.000000000000D+00 0.000000000000D+00 0.634766172589D-05 0.000000000000D+00  6 -2 2 25 2 -2 21 2 0.73431950D-01 0.30980840D+00 0.35608000D+06 0.35608000D+06 0.35608000D+06 0.10790881D+01  1  2  4  1  6  1       -2 -.378452534261D-04 0.100000000000D+01
-.127772061066D-02 0.000000000000D+00 -.704412525644D-03 0.634766172589D-05 0.000000000000D+00  6 -2 2 25 2 -2 21 2 0.10574417D+00 0.30980840D+00 0.35608000D+06 0.35608000D+06 0.35608000D+06 0.10790881D+01  1  2  5  1  6  1       -2 -.917215447935D-03 0.100000000000D+01
0.147950178659D-02 0.000000000000D+00 0.660038255002D-03 0.634766172589D-05 0.000000000000D+00  6 -2 2 25 2 -2 21 2 0.73431950D-01 0.30980840D+00 0.35608000D+06 0.35608000D+06 0.35608000D+06 0.10790881D+01  1  2  6  1  6  1       -2 0.248044352416D-02 0.100000000000D+01
-.357208134836D-04 0.000000000000D+00 -.313456742759D-04 0.634766172589D-05 0.000000000000D+00  6 21 2 25 2 2 -2 2 0.10574417D+00 0.30980840D+00 0.35608000D+06 0.35608000D+06 0.35608000D+06 0.10790881D+01  3  4  5  5  5  1       -2 -.232506963744D-03 0.100000000000D+01
  </mgrwgt>
  </event>
  <event>
  5     66 0.17405255E-05 0.11587095E+03 0.75467711E-02 0.92252955E-01
       -2 -1    0    0    0  501 0.00000000E+00 0.00000000E+00 0.28160690E+03 0.28160708E+03 0.32000000E+00 0.0000E+00 0.9000E+01
        2 -1    0    0  502    0 -.00000000E+00 -.00000000E+00 -.29221318E+04 0.29221318E+04 0.32000000E+00 0.0000E+00 0.9000E+01
       25  1    1    2    0    0 -.39536983E+03 0.41615245E+03 -.80488913E+03 0.99647964E+03 0.12500000E+03 0.0000E+00 0.9000E+01
        2  1    1    2  502    0 0.28568282E+03 -.45359853E+03 -.19631014E+04 0.20349775E+04 0.32000000E+00 0.0000E+00 0.9000E+01
       -2  1    1    2    0  501 0.10968701E+03 0.37446074E+02 0.12746556E+03 0.17228180E+03 0.32000000E+00 0.0000E+00 0.9000E+01
#aMCatNLO 1  0  0  4  2 0.11868384D+02 0.00000000D+00  -5  6  0 0.00000000D+00 0.00000000D+00 0.00000000D+00 0.00000000D+00 0.00000000D+00
  <mgrwgt>
 0.6128773097D-03    8    2    0
 0.907134389894227D+03 0.000000000000000D+00 0.000000000000000D+00 0.907134389894227D+03
 0.907134389894227D+03 -.000000000000000D+00 -.000000000000000D+00 -.907134389894227D+03
 0.588270275392409D+03 -.395399768509903D+03 0.416232898506432D+03 0.290880417613615D+02
 0.736391957058142D+03 0.285742856137865D+03 -.453668695977091D+03 -.504785943620207D+03
 0.489606547337901D+03 0.109656912372038D+03 0.374357974706582D+02 0.475697901858845D+03
 0.000000000000000D+00 0.000000000000000D+00 0.000000000000000D+00 0.000000000000000D+00
 0.907134389894227D+03 0.000000000000000D+00 0.000000000000000D+00 0.907134389894227D+03
 0.907134389894227D+03 -.000000000000000D+00 -.000000000000000D+00 -.907134389894227D+03
 0.588126592795677D+03 -.395323449593378D+03 0.416111728361338D+03 0.289532187361617D+02
 0.591943140528575D+03 0.220141854703525D+03 -.362909953949448D+03 -.412590124398213D+03
 0.489504054483959D+03 0.109720432313572D+03 0.373349480235928D+02 0.475585689172028D+03
 0.144694991980242D+03 0.654611625762806D+02 -.905367224354826D+02 -.919487835099767D+02
0.916511636298D-05 0.000000000000D+00 0.000000000000D+00 0.554578187391D-06 0.000000000000D+00  6 -2 2 25 2 -2 21 0 0.43324154D-01 0.44955876D+00 0.38413876D+06 0.38413876D+06 0.38413876D+06 0.10766967D+01  1  2  2  3  6  4        2 0.114864935765D-04 0.100000000000D+01
0.166832051214D-05 0.000000000000D+00 -.351964600644D-07 0.554578187391D-06 0.000000000000D+00  6 -2 2 25 2 -2 21 2 0.43324154D-01 0.44955876D+00 0.38413876D+06 0.38413876D+06 0.38413876D+06 0.10766967D+01  1  2  3  3  6  4        2 0.242390563746D-05 0.100000000000D+01
-.497902931550D-05 0.000000000000D+00 0.000000000000D+00 0.554578187391D-06 0.000000000000D+00  6 -2 2 25 2 -2 21 2 0.43324154D-01 0.44955876D+00 0.38413876D+06 0.38413876D+06 0.38413876D+06 0.10766967D+01  1  2 15  3  6  4        2 -.723403994558D-05 0.100000000000D+01
0.220076817513D-07 0.000000000000D+00 0.000000000000D+00 0.554578187391D-06 0.000000000000D+00  6 -2 2 25 2 -2 21 2 0.43324154D-01 0.44955876D+00 0.38408691D+06 0.38408691D+06 0.38408691D+06 0.10767009D+01  1  2 12  3  6  4        2 0.319755504533D-07 0.100000000000D+01
0.206974935477D-02 0.000000000000D+00 0.000000000000D+00 0.554578187391D-06 0.000000000000D+00  6 -2 2 25 2 -2 21 2 0.43324154D-01 0.44955876D+00 0.38408691D+06 0.38408691D+06 0.38408691D+06 0.10767009D+01  1  2 12  3  6  4        2 0.300719429093D-02 0.100000000000D+01
-.209972588664D-02 0.000000000000D+00 0.000000000000D+00 0.554578187391D-06 0.000000000000D+00  6 -2 2 25 2 -2 21 2 0.43324154D-01 0.44955876D+00 0.38413876D+06 0.38413876D+06 0.38413876D+06 0.10766967D+01  1  2  4  3  6  4        2 -.305069522114D-02 0.100000000000D+01
-.207646651316D-02 0.000000000000D+00 0.000000000000D+00 0.554578187391D-06 0.000000000000D+00  6 -2 2 25 2 -2 21 2 0.43324154D-01 0.44955876D+00 0.38413876D+06 0.38413876D+06 0.38413876D+06 0.10766967D+01  1  2  5  3  6  4        2 -.301690163886D-02 0.100000000000D+01
0.252361990564D-02 0.000000000000D+00 -.000000000000D+00 0.554578187391D-06 0.000000000000D+00  6 -2 2 25 2 -2 21 2 0.43324154D-01 0.44955876D+00 0.38413876D+06 0.38413876D+06 0.38413876D+06 0.10766967D+01  1  2  6  3  6  4        2 0.366657154398D-02 0.100000000000D+01
  </mgrwgt>
  </event>
  <event>
  5     66 0.17405255E-05 0.67840902E+02 0.75467711E-02 0.88837530E-01
       -2 -1    0    0    0  501 0.00000000E+00 0.00000000E+00 0.25567292E+04 0.25567292E+04 0.32000000E+00 0.0000E+00 0.9000E+01
        2 -1    0    0  502    0 0.00000000E+00 0.00000000E+00 -.41740229E+03 0.41740241E+03 0.32000000E+00 0.0000E+00 0.9000E+01
       25  1    1    2    0    0 0.69535215E+03 -.34772988E+03 0.10947617E+04 0.13485395E+04 0.12500000E+03 0.0000E+00 0.9000E+01
        2  1    1    2  502    0 -.74930664E+03 0.38894011E+03 0.32783725E+03 0.90565568E+03 0.32000000E+00 0.0000E+00 0.9000E+01
       -2  1    1    2    0  501 0.53954484E+02 -.41210230E+02 0.71672797E+03 0.71993642E+03 0.32000000E+00 0.0000E+00 0.9000E+01
#aMCatNLO 1  0  0  1  2 0.24467064D+02 0.00000000D+00  -5  6  0 0.00000000D+00 0.00000000D+00 0.00000000D+00 0.00000000D+00 0.00000000D+00
  <mgrwgt>
 0.9370586164D-04    9    4    0
 0.103304638408509D+04 0.000000000000000D+00 0.000000000000000D+00 0.103304638408509D+04
 0.103304638408509D+04 0.000000000000000D+00 0.000000000000000D+00 -.103304638408509D+04
 0.807828739992605D+03 0.695490866916003D+03 -.347807861451911D+03 0.179678654009637D+03
 0.964274626287130D+03 -.749404475256270D+03 0.388986870302550D+03 -.465733509744882D+03
 0.293989401890443D+03 0.539136083402669D+02 -.411790088506391D+02 0.286054855735245D+03
 0.000000000000000D+00 0.000000000000000D+00 -.000000000000000D+00 0.000000000000000D+00
 0.109442844600526D+04 0.000000000000000D+00 0.000000000000000D+00 0.109442844600526D+04
 0.103555985816562D+04 0.000000000000000D+00 0.000000000000000D+00 -.103555985816562D+04
 0.803703191401456D+03 0.695417294012584D+03 -.338266445794416D+03 0.179678654009637D+03
 0.969016986243881D+03 -.749492737781088D+03 0.400433332208116D+03 -.465733509744882D+03
 0.293517457256122D+03 0.538867862931426D+02 -.377005502265539D+02 0.286054855735245D+03
 0.637506692694203D+02 0.188657475361747D+00 -.244663361871453D+02 0.588685878396414D+02
 0.103304638408509D+04 0.000000000000000D+00 0.000000000000000D+00 0.103304638408509D+04
 0.103304638408509D+04 0.000000000000000D+00 0.000000000000000D+00 -.103304638408509D+04
 0.807828739992605D+03 0.695490866916003D+03 -.347807861451911D+03 0.179678654009637D+03
 0.964274626287130D+03 -.749404475256270D+03 0.388986870302550D+03 -.465733509744882D+03
 0.000000000000000D+00 0.000000000000000D+00 -.000000000000000D+00 0.000000000000000D+00
 0.293989401890443D+03 0.539136083402669D+02 -.411790088506391D+02 0.286054855735245D+03
 0.109442844600526D+04 0.000000000000000D+00 0.000000000000000D+00 0.109442844600526D+04
 0.103555985816562D+04 0.000000000000000D+00 0.000000000000000D+00 -.103555985816562D+04
 0.803703191401456D+03 0.695417294012584D+03 -.338266445794416D+03 0.179678654009637D+03
 0.969016986243881D+03 -.749492737781088D+03 0.400433332208116D+03 -.465733509744882D+03
 0.637506692694203D+02 0.188657475361747D+00 -.244663361871453D+02 0.588685878396414D+02
 0.293517457256122D+03 0.538867862931426D+02 -.377005502265539D+02 0.286054855735245D+03
0.101855622309D-03 0.000000000000D+00 0.000000000000D+00 0.163048402559D-06 0.000000000000D+00  6 -2 2 25 2 -2 21 0 0.39334296D+00 0.64215748D-01 0.72231183D+06 0.72231183D+06 0.72231183D+06 0.10573997D+01  1  2  2  1  6  1       -2 0.580268126842D-05 0.100000000000D+01
0.287074676231D-04 0.000000000000D+00 -.391152408869D-06 0.163048402559D-06 0.000000000000D+00  6 -2 2 25 2 -2 21 2 0.39334296D+00 0.64215748D-01 0.72231183D+06 0.72231183D+06 0.72231183D+06 0.10573997D+01  1  2  3  1  6  1       -2 0.182859250690D-05 0.100000000000D+01
-.574804730678D-04 0.000000000000D+00 0.000000000000D+00 0.163048402559D-06 0.000000000000D+00  6 -2 2 25 2 -2 21 2 0.39334296D+00 0.64215748D-01 0.72231183D+06 0.72231183D+06 0.72231183D+06 0.10573997D+01  1  2 15  1  6  1       -2 -.366135960597D-05 0.100000000000D+01
0.765027357776D-07 0.000000000000D+00 0.000000000000D+00 0.163048402559D-06 0.000000000000D+00  6 -2 2 25 2 -2 21 2 0.41717735D+00 0.64215748D-01 0.74248399D+06 0.74248399D+06 0.74248399D+06 0.10565819D+01  1  2 12  1  6  1       -2 0.319949621476D-08 0.100000000000D+01
-.961003864623D-04 0.000000000000D+00 0.000000000000D+00 0.163048402559D-06 0.000000000000D+00  6 -2 2 25 2 -2 21 2 0.39334296D+00 0.64215748D-01 0.72231183D+06 0.72231183D+06 0.72231183D+06 0.10573997D+01  1  2  4  1  6  1       -2 -.612134963984D-05 0.100000000000D+01
-.516410028256D-02 0.000000000000D+00 -.308249625069D-03 0.163048402559D-06 0.000000000000D+00  6 -2 2 25 2 -2 21 2 0.41700859D+00 0.64215748D-01 0.72231183D+06 0.72231183D+06 0.72231183D+06 0.10573997D+01  1  2  5  1  6  1       -2 -.217478960741D-03 0.100000000000D+01
0.517380227061D-02 0.000000000000D+00 0.307724271811D-03 0.163048402559D-06 0.000000000000D+00  6 -2 2 25 2 -2 21 2 0.39334296D+00 0.64215748D-01 0.72231183D+06 0.72231183D+06 0.72231183D+06 0.10573997D+01  1  2  6  1  6  1       -2 0.329558015651D-03 0.100000000000D+01
0.116778241661D-08 0.000000000000D+00 0.000000000000D+00 0.163048402559D-06 0.000000000000D+00  6 21 2 25 2 2 -2 2 0.41717735D+00 0.64215748D-01 0.74248399D+06 0.74248399D+06 0.74248399D+06 0.10565819D+01  3  4 12  5  5  1       -2 0.359882913530D-09 0.100000000000D+01
-.522592133523D-04 0.000000000000D+00 -.309978582272D-05 0.163048402559D-06 0.000000000000D+00  6 21 2 25 2 2 -2 2 0.41700859D+00 0.64215748D-01 0.72231183D+06 0.72231183D+06 0.72231183D+06 0.10573997D+01  3  4  5  5  5  1       -2 -.162253171822D-04 0.100000000000D+01
  </mgrwgt>
  </event>
  <event>
  5     66 0.17405255E-05 0.12010258E+03 0.75467711E-02 0.91301588E-01
       -2 -1    0    0    0  501 0.00000000E+00 0.00000000E+00 0.17189264E+03 0.17189294E+03 0.32000000E+00 0.0000E+00 0.9000E+01
        2 -1    0    0  502    0 0.00000000E+00 0.00000000E+00 -.29005904E+04 0.29005904E+04 0.32000000E+00 0.0000E+00 0.9000E+01
       25  1    1    2    0    0 -.38181711E+03 -.47704775E+03 -.12377384E+04 0.13859943E+04 0.12500000E+03 0.0000E+00 0.9000E+01
        2  1    1    2  502    0 0.36115750E+03 0.35863538E+03 -.14808338E+04 0.15658618E+04 0.32000000E+00 0.0000E+00 0.9000E+01
       -2  1    1    2    0  501 0.20659608E+02 0.11841238E+03 -.10125494E+02 0.12062727E+03 0.32000000E+00 0.0000E+00 0.9000E+01
#aMCatNLO 1  0  0  2  4 0.90884261D+02 0.00000000D+00  -5  6  0 0.00000000D+00 0.00000000D+00 0.00000000D+00 0.00000000D+00 0.00000000D+00
  <mgrwgt>
 0.7565081677D-04   11    2    0
 0.706109502143733D+03 0.000000000000000D+00 0.000000000000000D+00 0.706109502143733D+03
 0.706109502143733D+03 0.000000000000000D+00 0.000000000000000D+00 -.706109502143733D+03
 0.623921798864767D+03 -.381887561523725D+03 -.477074385697449D+03 -.146741937942922D+02
 0.545619292183069D+03 0.361244891653582D+03 0.358759091800914D+03 -.196200036459550D+03
 0.242677913239630D+03 0.206426698701430D+02 0.118315293896534D+03 0.210874230253842D+03
 0.000000000000000D+00 0.000000000000000D+00 -.000000000000000D+00 -.000000000000000D+00
 0.723906398198448D+03 0.000000000000000D+00 0.000000000000000D+00 0.723906398198448D+03
 0.833975992608532D+03 0.000000000000000D+00 0.000000000000000D+00 -.833975992608532D+03
 0.600221450477940D+03 -.389981010120467D+03 -.438566151675834D+03 -.146741937942922D+02
 0.564560836100849D+03 0.353904912606019D+03 0.393682354424842D+03 -.196200036459550D+03
 0.250358153438501D+03 0.173829516434223D+02 0.133824874370006D+03 0.210874230253842D+03
 0.142741950789690D+03 0.186931458710256D+02 -.889410771190145D+02 -.110069594410084D+03
0.567038764477D-05 0.000000000000D+00 0.000000000000D+00 0.264156878454D-07 0.000000000000D+00  6 -2 2 25 2 -2 21 0 0.26445046D-01 0.44624470D+00 0.39248629D+06 0.39248629D+06 0.39248629D+06 0.10760218D+01  1  2  2  2  6  2        2 0.180367869989D-04 0.100000000000D+01
0.625178354677D-06 0.000000000000D+00 -.217757816033D-07 0.264156878454D-07 0.000000000000D+00  6 -2 2 25 2 -2 21 2 0.26445046D-01 0.44624470D+00 0.39248629D+06 0.39248629D+06 0.39248629D+06 0.10760218D+01  1  2  3  2  6  2        2 0.230246222032D-05 0.100000000000D+01
-.328380258595D-05 0.000000000000D+00 0.000000000000D+00 0.264156878454D-07 0.000000000000D+00  6 -2 2 25 2 -2 21 2 0.26445046D-01 0.44624470D+00 0.39248629D+06 0.39248629D+06 0.39248629D+06 0.10760218D+01  1  2 15  2  6  2        2 -.120938790292D-04 0.100000000000D+01
0.576722765700D-07 0.000000000000D+00 0.000000000000D+00 0.264156878454D-07 0.000000000000D+00  6 -2 2 25 2 -2 21 2 0.26445046D-01 0.53199301D+00 0.45917375D+06 0.45917375D+06 0.45917375D+06 0.10711347D+01  1  2 12  2  6  2        2 0.890907798359D-07 0.100000000000D+01
0.183478502896D-04 0.000000000000D+00 0.000000000000D+00 0.264156878454D-07 0.000000000000D+00  6 -2 2 25 2 -2 21 2 0.26445046D-01 0.54954882D+00 0.45917375D+06 0.45917375D+06 0.45917375D+06 0.10711347D+01  1  2 12  2  6  2        2 0.234761732474D-04 0.100000000000D+01
-.881687791668D-05 0.000000000000D+00 0.000000000000D+00 0.264156878454D-07 0.000000000000D+00  6 -2 2 25 2 -2 21 2 0.26445046D-01 0.44624470D+00 0.39248629D+06 0.39248629D+06 0.39248629D+06 0.10760218D+01  1  2  4  2  6  2        2 -.324715789542D-04 0.100000000000D+01
-.358958949040D-04 0.000000000000D+00 -.558578579313D-05 0.264156878454D-07 0.000000000000D+00  6 -2 2 25 2 -2 21 2 0.26445046D-01 0.53012903D+00 0.39248629D+06 0.39248629D+06 0.39248629D+06 0.10760218D+01  1  2  5  2  6  2        2 -.577098767796D-04 0.100000000000D+01
0.363985896415D-04 0.000000000000D+00 0.550392991314D-05 0.264156878454D-07 0.000000000000D+00  6 -2 2 25 2 -2 21 2 0.26445046D-01 0.44624470D+00 0.39248629D+06 0.39248629D+06 0.39248629D+06 0.10760218D+01  1  2  6  2  6  2        2 0.134051949969D-03 0.100000000000D+01
0.149289055155D-08 0.000000000000D+00 0.000000000000D+00 0.264156878454D-07 0.000000000000D+00  6 -2 21 25 2 -2 -2 2 0.26445046D-01 0.53199301D+00 0.45917375D+06 0.45917375D+06 0.45917375D+06 0.10711347D+01  1  2 12  6  6  2        2 0.844489847224D-10 0.100000000000D+01
0.541487359166D-06 0.000000000000D+00 0.000000000000D+00 0.264156878454D-07 0.000000000000D+00  6 -2 21 25 2 -2 -2 2 0.26445046D-01 0.54954882D+00 0.45917375D+06 0.45917375D+06 0.45917375D+06 0.10711347D+01  1  2 12  6  6  2        2 0.217315770233D-07 0.100000000000D+01
-.864956175026D-06 0.000000000000D+00 -.142313513314D-06 0.264156878454D-07 0.000000000000D+00  6 -2 21 25 2 -2 -2 2 0.26445046D-01 0.53012903D+00 0.39248629D+06 0.39248629D+06 0.39248629D+06 0.10760218D+01  1  2  5  6  6  2        2 -.521277090357D-07 0.100000000000D+01
  </mgrwgt>
  </event>
  <event>
  5     66 0.17405255E-05 0.42551375E+02 0.75467711E-02 0.89155495E-01
       -2 -1    0    0    0  501 0.00000000E+00 0.00000000E+00 0.80978170E+03 0.80978176E+03 0.32000000E+00 0.0000E+00 0.9000E+01
        2 -1    0    0  502    0 -.00000000E+00 -.00000000E+00 -.16472470E+04 0.16472470E+04 0.32000000E+00 0.0000E+00 0.9000E+01
       25  1    1    2    0    0 0.22017609E+03 0.45274422E+03 -.91633326E+03 0.10529703E+04 0.12500000E+03 0.0000E+00 0.9000E+01
        2  1    1    2  502    0 -.25374266E+03 -.47890014E+03 -.55093111E+03 0.77282331E+03 0.32000000E+00 0.0000E+00 0.9000E+01
       -2  1    1    2    0  501 0.33566566E+02 0.26155920E+02 0.62979908E+03 0.63123516E+03 0.32000000E+00 0.0000E+00 0.9000E+01
#aMCatNLO 1  0  0  5  4 0.10353534D+03 0.00000000D+00  -5  6  0 0.00000000D+00 0.00000000D+00 0.00000000D+00 0.00000000D+00 0.00000000D+00
  <mgrwgt>
 0.1873550627D-02    4    2    0
 0.115495046624223D+04 0.000000000000000D+00 0.000000000000000D+00 0.115495046624223D+04
 0.115495046624223D+04 -.000000000000000D+00 -.000000000000000D+00 -.115495046624223D+04
 0.787844423795426D+03 0.220203424218979D+03 0.452797465830118D+03 -.592923893097256D+03
 0.622335055063433D+03 -.253767886328561D+03 -.478951746810201D+03 -.305790786088460D+03
 0.899721453625606D+03 0.335644621095817D+02 0.261542809800829D+02 0.898714679185715D+03
 0.000000000000000D+00 0.000000000000000D+00 0.000000000000000D+00 -.000000000000000D+00
 0.115495046624223D+04 0.000000000000000D+00 0.000000000000000D+00 0.115495046624223D+04
 0.115495046624223D+04 -.000000000000000D+00 -.000000000000000D+00 -.115495046624223D+04
 0.722036965669505D+03 0.223744248628774D+03 0.455556566101487D+03 -.498115554947436D+03
 0.585766028110854D+03 -.250934767227517D+03 -.476744108481995D+03 -.229931810137149D+03
 0.665434644730801D+03 -.234847631481043D+03 0.185018379629252D+03 0.594489743893969D+03
 0.336663293973306D+03 0.262038150079786D+03 -.163830837248745D+03 0.133557621190615D+03
0.315791882469D-02 0.000000000000D+00 0.000000000000D+00 0.422273232723D-05 0.000000000000D+00  6 -2 2 25 2 -2 21 0 0.12458181D+00 0.25342262D+00 0.30435368D+06 0.30435368D+06 0.30435368D+06 0.10840892D+01  1  2  2  4  6  5       -2 0.206237962920D-02 0.100000000000D+01
0.170289966209D-02 0.000000000000D+00 -.121272397859D-04 0.422273232723D-05 0.000000000000D+00  6 -2 2 25 2 -2 21 2 0.12458181D+00 0.25342262D+00 0.30435368D+06 0.30435368D+06 0.30435368D+06 0.10840892D+01  1  2  3  4  6  5       -2 0.130703363731D-02 0.100000000000D+01
-.168248394471D-02 0.000000000000D+00 0.000000000000D+00 0.422273232723D-05 0.000000000000D+00  6 -2 2 25 2 -2 21 2 0.12458181D+00 0.25342262D+00 0.30435368D+06 0.30435368D+06 0.30435368D+06 0.10840892D+01  1  2 15  4  6  5       -2 -.129136387712D-02 0.100000000000D+01
-.266436044902D-03 0.000000000000D+00 0.000000000000D+00 0.422273232723D-05 0.000000000000D+00  6 -2 2 25 2 -2 21 2 0.12458181D+00 0.25342262D+00 0.30435368D+06 0.30435368D+06 0.30435368D+06 0.10840892D+01  1  2  4  4  6  5       -2 -.204498762101D-03 0.100000000000D+01
  </mgrwgt>
  </event>
  <event>
  5     66 0.17405255E-05 0.17526508E+03 0.75467711E-02 0.88557712E-01
       -2 -1    0    0    0  501 0.00000000E+00 0.00000000E+00 0.61908294E+03 0.61908303E+03 0.32000000E+00 0.0000E+00 0.9000E+01
        2 -1    0    0  502    0 -.00000000E+00 -.00000000E+00 -.34366801E+04 0.34366801E+04 0.32000000E+00 0.0000E+00 0.9000E+01
       25  1    1    2    0    0 -.48523854E+03 0.31710211E+03 -.59722905E+02 0.59598827E+03 0.12500000E+03 0.0000E+00 0.9000E+01
        2  1    1    2  502    0 0.62030873E+03 -.20536210E+03 -.30499350E+04 0.31191441E+04 0.32000000E+00 0.0000E+00 0.9000E+01
       -2  1    1    2    0  501 -.13507019E+03 -.11174000E+03 0.29206069E+03 0.34063079E+03 0.32000000E+00 0.0000E+00 0.9000E+01
#aMCatNLO 1  0  0  5  2 0.26374838D+03 0.00000000D+00  -5  6  0 0.00000000D+00 0.00000000D+00 0.00000000D+00 0.00000000D+00 0.00000000D+00
  <mgrwgt>
 0.1399888947D-03    4    2    0
 0.145862615137215D+04 0.000000000000000D+00 0.000000000000000D+00 0.145862615137215D+04
 0.145862615137215D+04 -.000000000000000D+00 -.000000000000000D+00 -.145862615137215D+04
 0.771035089518752D+03 -.485325447751543D+03 0.317105835030806D+03 0.492720213126445D+03
 0.139071215844811D+04 0.620369402856799D+03 -.205387533707658D+03 -.122761479001028D+04
 0.755505054777443D+03 -.135043955105256D+03 -.111718301323148D+03 0.734894576883832D+03
 0.000000000000000D+00 0.000000000000000D+00 0.000000000000000D+00 -.000000000000000D+00
 0.145862615137215D+04 0.000000000000000D+00 0.000000000000000D+00 0.145862615137215D+04
 0.145862615137215D+04 -.000000000000000D+00 -.000000000000000D+00 -.145862615137215D+04
 0.818465152102627D+03 -.497505080979172D+03 0.307029945785196D+03 0.559000457958152D+03
 0.128634832996099D+04 0.599856279282977D+03 -.222357499662173D+03 -.111598459332654D+04
 0.247377479997722D+03 0.194293235110815D+03 -.131560713109031D+03 0.783424225208823D+02
 0.565061340682961D+03 -.296644433414620D+03 0.468882669860077D+02 0.478641712847505D+03
0.296347577257D-02 0.000000000000D+00 0.000000000000D+00 0.890058325138D-06 0.000000000000D+00  6 -2 2 25 2 -2 21 0 0.95243537D-01 0.52872003D+00 0.50538679D+06 0.50538679D+06 0.50538679D+06 0.10681816D+01  1  2  2  4  6  5       -2 0.308816196446D-03 0.100000000000D+01
0.346736443168D-03 0.000000000000D+00 -.113805272678D-04 0.890058325138D-06 0.000000000000D+00  6 -2 2 25 2 -2 21 2 0.95243537D-01 0.52872003D+00 0.50538679D+06 0.50538679D+06 0.50538679D+06 0.10681816D+01  1  2  3  4  6  5       -2 0.412276325285D-04 0.100000000000D+01
-.170881389773D-02 0.000000000000D+00 0.000000000000D+00 0.890058325138D-06 0.000000000000D+00  6 -2 2 25 2 -2 21 2 0.95243537D-01 0.52872003D+00 0.50538679D+06 0.50538679D+06 0.50538679D+06 0.10681816D+01  1  2 15  4  6  5       -2 -.203181271606D-03 0.100000000000D+01
-.578095127636D-04 0.000000000000D+00 0.000000000000D+00 0.890058325138D-06 0.000000000000D+00  6 -2 2 25 2 -2 21 2 0.95243537D-01 0.52872003D+00 0.50538679D+06 0.50538679D+06 0.50538679D+06 0.10681816D+01  1  2  4  4  6  5       -2 -.687366267903D-05 0.100000000000D+01
  </mgrwgt>
  </event>
  <event>
  5     66 0.17405255E-05 0.58633594E+02 0.75467711E-02 0.92709224E-01
       -2 -1    0    0    0  501 0.00000000E+00 0.00000000E+00 0.96055086E+03 0.96055091E+03 0.32000000E+00 0.0000E+00 0.9000E+01
        2 -1    0    0  502    0 0.00000000E+00 0.00000000E+00 -.17159146E+04 0.17159147E+04 0.32000000E+00 0.0000E+00 0.9000E+01
       25  1    1    2    0    0 -.51254439E+03 -.36149970E+02 -.11538597E+04 0.12692619E+04 0.12500000E+03 0.0000E+00 0.9000E+01
        2  1    1    2  502    0 0.52718325E+01 0.58409663E+02 -.43081876E+03 0.43479235E+03 0.32000000E+00 0.0000E+00 0.9000E+01
       -2  1    1    2    0  501 0.50727256E+03 -.22259693E+02 0.82931465E+03 0.97241135E+03 0.32000000E+00 0.0000E+00 0.9000E+01
#aMCatNLO 1  0  0  1  1 0.10005990D+03 0.00000000D+00  -5  6  0 0.00000000D+00 0.00000000D+00 0.00000000D+00 0.00000000D+00 0.00000000D+00
  <mgrwgt>
 0.7558729338D-02    7    4    0
 0.128383152320139D+04 0.000000000000000D+00 0.000000000000000D+00 0.128383152320139D+04
 0.128383152320139D+04 0.000000000000000D+00 0.000000000000000D+00 -.128383152320139D+04
 0.983688652714461D+03 -.512544285098498D+03 -.361366091309792D+02 -.829464204636087D+03
 0.326377863108611D+03 0.526787555218203D+01 0.583964714388956D+02 -.321067922935313D+03
 0.125759653057972D+04 0.507276409546316D+03 -.222598623079164D+02 0.115053212757140D+04
 0.000000000000000D+00 0.000000000000000D+00 0.000000000000000D+00 0.000000000000000D+00
 0.133643447357969D+04 0.000000000000000D+00 0.000000000000000D+00 0.133643447357969D+04
 0.133328686079239D+04 0.000000000000000D+00 0.000000000000000D+00 -.133328686079239D+04
 0.990328801199283D+03 -.521248751378173D+03 -.735867304541331D+02 -.829464204636087D+03
 0.324362531868685D+03 0.239842380864675D+01 0.460509338179087D+02 -.321067922935313D+03
 0.125492060338244D+04 0.496197419020514D+03 -.699261437315342D+02 0.115053212757140D+04
 0.100109397921660D+03 0.226529085490114D+02 0.974619403677586D+02 0.314761278729868D+01
 0.128383152320139D+04 0.000000000000000D+00 0.000000000000000D+00 0.128383152320139D+04
 0.128383152320139D+04 0.000000000000000D+00 0.000000000000000D+00 -.128383152320139D+04
 0.983688652714461D+03 -.512544285098498D+03 -.361366091309792D+02 -.829464204636087D+03
 0.326377863108611D+03 0.526787555218203D+01 0.583964714388956D+02 -.321067922935313D+03
 0.000000000000000D+00 0.000000000000000D+00 0.000000000000000D+00 0.000000000000000D+00
 0.125759653057972D+04 0.507276409546316D+03 -.222598623079164D+02 0.115053212757140D+04
 0.133643447357969D+04 0.000000000000000D+00 0.000000000000000D+00 0.133643447357969D+04
 0.133328686079239D+04 0.000000000000000D+00 0.000000000000000D+00 -.133328686079239D+04
 0.990328801199283D+03 -.521248751378173D+03 -.735867304541331D+02 -.829464204636087D+03
 0.324362531868685D+03 0.239842380864675D+01 0.460509338179087D+02 -.321067922935313D+03
 0.100109397921660D+03 0.226529085490114D+02 0.974619403677586D+02 0.314761278729868D+01
 0.125492060338244D+04 0.496197419020514D+03 -.699261437315342D+02 0.115053212757140D+04
0.833276817635D-02 0.000000000000D+00 0.000000000000D+00 0.775742441869D-05 0.000000000000D+00  6 -2 2 25 2 -2 21 0 0.14777706D+00 0.26398687D+00 0.29986634D+06 0.29986634D+06 0.29986634D+06 0.10845662D+01  1  2  2  1  6  1       -2 0.316923577425D-02 0.100000000000D+01
0.139896915591D-02 0.000000000000D+00 -.320000238654D-04 0.775742441869D-05 0.000000000000D+00  6 -2 2 25 2 -2 21 2 0.14777706D+00 0.26398687D+00 0.29986634D+06 0.29986634D+06 0.29986634D+06 0.10845662D+01  1  2  3  1  6  1       -2 0.625871980187D-03 0.100000000000D+01
-.465775348915D-02 0.000000000000D+00 0.000000000000D+00 0.775742441869D-05 0.000000000000D+00  6 -2 2 25 2 -2 21 2 0.14777706D+00 0.26398687D+00 0.29986634D+06 0.29986634D+06 0.29986634D+06 0.10845662D+01  1  2 15  1  6  1       -2 -.208378961549D-02 0.100000000000D+01
-.244630400062D-03 0.000000000000D+00 0.000000000000D+00 0.775742441869D-05 0.000000000000D+00  6 -2 2 25 2 -2 21 2 0.14777706D+00 0.26398687D+00 0.29986634D+06 0.29986634D+06 0.29986634D+06 0.10845662D+01  1  2  4  1  6  1       -2 -.109442951086D-03 0.100000000000D+01
-.115380594982D+00 0.000000000000D+00 -.294014004552D-01 0.775742441869D-05 0.000000000000D+00  6 -2 2 25 2 -2 21 2 0.15863293D+00 0.26398687D+00 0.29986634D+06 0.29986634D+06 0.29986634D+06 0.10845662D+01  1  2  5  1  6  1       -2 -.423823309181D-01 0.100000000000D+01
0.117243818003D+00 0.000000000000D+00 0.293276819195D-01 0.775742441869D-05 0.000000000000D+00  6 -2 2 25 2 -2 21 2 0.14777706D+00 0.26398687D+00 0.29986634D+06 0.29986634D+06 0.29986634D+06 0.10845662D+01  1  2  6  1  6  1       -2 0.524526364491D-01 0.100000000000D+01
-.133251844818D-02 0.000000000000D+00 -.352453141263D-03 0.775742441869D-05 0.000000000000D+00  6 21 2 25 2 2 -2 2 0.15863293D+00 0.26398687D+00 0.29986634D+06 0.29986634D+06 0.29986634D+06 0.10845662D+01  3  4  5  5  5  1       -2 -.411345138072D-02 0.100000000000D+01
  </mgrwgt>
  </event>
  <event>
  5     66 0.17405255E-05 0.26744376E+03 0.75467711E-02 0.92519825E-01
       -2 -1    0    0    0  501 0.00000000E+00 0.00000000E+00 0.10371440E+04 0.10371440E+04 0.32000000E+00 0.0000E+00 0.9000E+01
        2 -1    0    0  502    0 -.00000000E+00 -.00000000E+00 -.11413539E+04 0.11413539E+04 0.32000000E+00 0.0000E+00 0.9000E+01
       25  1    1    2    0    0 0.25399068E+03 -.50342617E+03 -.43424092E+03 0.72259211E+03 0.12500000E+03 0.0000E+00 0.9000E+01
        2  1    1    2  502    0 -.28982572E+03 0.23838117E+03 -.47630202E+03 0.60637302E+03 0.32000000E+00 0.0000E+00 0.9000E+01
       -2  1    1    2    0  501 0.35835035E+02 0.26504500E+03 0.80633304E+03 0.84953285E+03 0.32000000E+00 0.0000E+00 0.9000E+01
#aMCatNLO 1  0  0  5  1 0.47028979D+02 0.00000000D+00  -5  6  0 0.00000000D+00 0.00000000D+00 0.00000000D+00 0.00000000D+00 0.00000000D+00
  <mgrwgt>
 0.2380961543D-03    3    2    0
 0.108800204192307D+04 0.000000000000000D+00 0.000000000000000D+00 0.108800204192307D+04
 0.108800204192307D+04 -.000000000000000D+00 -.000000000000000D+00 -.108800204192307D+04
 0.702620396653122D+03 0.254022844023930D+03 -.503452749157719D+03 -.400072675738446D+03
 0.584304074930116D+03 -.289856165203665D+03 0.238420417741620D+03 -.447828493820207D+03
 0.889079612262903D+03 0.358333211797357D+02 0.265032331416099D+03 0.847901169558653D+03
 0.000000000000000D+00 -.000000000000000D+00 0.000000000000000D+00 0.000000000000000D+00
 0.108800204192307D+04 0.000000000000000D+00 0.000000000000000D+00 0.108800204192307D+04
 0.108800204192307D+04 -.000000000000000D+00 -.000000000000000D+00 -.108800204192307D+04
 0.686425597013223D+03 0.254911081183424D+03 -.496883121853280D+03 -.379054882757359D+03
 0.572927670748205D+03 -.289116163617437D+03 0.243893657150997D+03 -.430318305264384D+03
 0.499279996824548D+02 0.199311877204718D+02 0.350951895960551D+02 -.293918453922055D+02
 0.866722816402258D+03 0.142738947135412D+02 0.217894275106228D+03 0.838765033413948D+03
0.766667671453D-03 0.000000000000D+00 0.000000000000D+00 0.273649772237D-06 0.000000000000D+00  6 -2 2 25 2 -2 21 0 0.15956062D+00 0.17559291D+00 0.37231613D+06 0.37231613D+06 0.37231613D+06 0.10776803D+01  1  2  2  4  6  5       -2 0.487065614170D-03 0.100000000000D+01
0.591136777951D-04 0.000000000000D+00 -.294420572661D-05 0.273649772237D-06 0.000000000000D+00  6 -2 2 25 2 -2 21 2 0.15956062D+00 0.17559291D+00 0.37231613D+06 0.37231613D+06 0.37231613D+06 0.10776803D+01  1  2  3  4  6  5       -2 0.436162352171D-04 0.100000000000D+01
-.396545378599D-03 0.000000000000D+00 0.000000000000D+00 0.273649772237D-06 0.000000000000D+00  6 -2 2 25 2 -2 21 2 0.15956062D+00 0.17559291D+00 0.37231613D+06 0.37231613D+06 0.37231613D+06 0.10776803D+01  1  2 15  4  6  5       -2 -.292585695094D-03 0.100000000000D+01
  </mgrwgt>
  </event>
  <event>
  5     66 0.17405255E-05 0.30094460E+02 0.75467711E-02 0.94842781E-01
       -2 -1    0    0    0  501 0.00000000E+00 0.00000000E+00 0.87778458E+03 0.87778464E+03 0.32000000E+00 0.0000E+00 0.9000E+01
        2 -1    0    0  502    0 0.00000000E+00 0.00000000E+00 -.40442716E+03 0.40442729E+03 0.32000000E+00 0.0000E+00 0.9000E+01
       25  1    1    2    0    0 0.42027876E+03 -.23615472E+03 0.27252979E+03 0.56771540E+03 0.12500000E+03 0.0000E+00 0.9000E+01
        2  1    1    2  502    0 -.21687543E+02 0.20856743E+02 -.14277385E+03 0.14591034E+03 0.32000000E+00 0.0000E+00 0.9000E+01
       -2  1    1    2    0  501 -.39859122E+03 0.21529798E+03 0.34360148E+03 0.56858619E+03 0.32000000E+00 0.0000E+00 0.9000E+01
#aMCatNLO 1  0  0  2  2 0.38393485D+01 0.00000000D+00  -5  6  0 0.00000000D+00 0.00000000D+00 0.00000000D+00 0.00000000D+00 0.00000000D+00
  <mgrwgt>
 0.2129850629D-03    5    2    0
 0.595818805593285D+03 0.000000000000000D+00 0.000000000000000D+00 0.595818805593285D+03
 0.595818805593285D+03 0.000000000000000D+00 0.000000000000000D+00 -.595818805593285D+03
 0.502590577406703D+03 0.420253621553525D+03 -.236142613176784D+03 0.677926862662184D+02
 0.213768150727645D+03 -.216915141744634D+02 0.208603629002021D+02 -.211639187623673D+03
 0.475278883052222D+03 -.398562107379061D+03 0.215282250276582D+03 0.143846501357455D+03
 0.000000000000000D+00 0.000000000000000D+00 -.000000000000000D+00 -.000000000000000D+00
 0.116793947242616D+04 0.000000000000000D+00 0.000000000000000D+00 0.116793947242616D+04
 0.443468017945686D+04 0.000000000000000D+00 0.000000000000000D+00 -.443468017945686D+04
 0.271897702317754D+03 0.349863483640089D+02 -.229092705345754D+03 0.677926862662184D+02
 0.383599144324237D+03 -.318850392988118D+03 0.262979976348248D+02 -.211639187623673D+03
 0.132016397709860D+04 -.129170070354218D+04 0.231625566258651D+03 0.143846501357455D+03
 0.362695882814243D+04 0.157556474816629D+04 -.288308585477220D+02 -.326674070703070D+04
0.702737934342D-04 0.000000000000D+00 0.000000000000D+00 0.559125755708D-06 0.000000000000D+00  6 -2 2 25 2 -2 21 0 0.13504380D+00 0.62219578D-01 0.24062948D+06 0.24062948D+06 0.24062948D+06 0.10917095D+01  1  2  2  2  6  2        2 0.263872068398D-03 0.100000000000D+01
0.282055589304D-04 0.000000000000D+00 -.269869870302D-06 0.559125755708D-06 0.000000000000D+00  6 -2 2 25 2 -2 21 2 0.13504380D+00 0.62219578D-01 0.24062948D+06 0.24062948D+06 0.24062948D+06 0.10917095D+01  1  2  3  2  6  2        2 0.126226016622D-03 0.100000000000D+01
-.402342069246D-04 0.000000000000D+00 0.000000000000D+00 0.559125755708D-06 0.000000000000D+00  6 -2 2 25 2 -2 21 2 0.13504380D+00 0.62219578D-01 0.24062948D+06 0.24062948D+06 0.24062948D+06 0.10917095D+01  1  2 15  2  6  2        2 -.180056835057D-03 0.100000000000D+01
0.763928130124D-04 0.000000000000D+00 -.940999903965D-04 0.559125755708D-06 0.000000000000D+00  6 -2 2 25 2 -2 21 2 0.13504380D+00 0.56295289D+00 0.24062948D+06 0.24062948D+06 0.24062948D+06 0.10917095D+01  1  2  5  2  6  2        2 0.293627216691D-05 0.100000000000D+01
0.684927150361D-05 0.000000000000D+00 -.249118136342D-04 0.559125755708D-06 0.000000000000D+00  6 -2 21 25 2 -2 -2 2 0.13504380D+00 0.56295289D+00 0.24062948D+06 0.24062948D+06 0.24062948D+06 0.10917095D+01  1  2  5  6  6  2        2 0.754078491271D-08 0.100000000000D+01
  </mgrwgt>
  </event>
  <event>
  5     66 0.17405255E-05 0.60032858E+02 0.75467711E-02 0.91573027E-01
       -2 -1    0    0    0  501 0.00000000E+00 0.00000000E+00 0.36625008E+03 0.36625022E+03 0.32000000E+00 0.0000E+00 0.9000E+01
        2 -1    0    0  502    0 0.00000000E+00 0.00000000E+00 -.16413783E+04 0.16413784E+04 0.32000000E+00 0.0000E+00 0.9000E+01
       25  1    1    2    0    0 -.14310823E+02 -.56678676E+03 -.76580715E+03 0.96100865E+03 0.12500000E+03 0.0000E+00 0.9000E+01
        2  1    1    2  502    0 -.57879891E+02 0.15923642E+02 -.48690796E+03 0.49059465E+03 0.32000000E+00 0.0000E+00 0.9000E+01
       -2  1    1    2    0  501 0.72190714E+02 0.55086312E+03 -.22413139E+02 0.55602529E+03 0.32000000E+00 0.0000E+00 0.9000E+01
#aMCatNLO 1  0  0  2  2 0.38393485D+01 0.00000000D+00  -5  6  0 0.00000000D+00 0.00000000D+00 0.00000000D+00 0.00000000D+00 0.00000000D+00
  <mgrwgt>
 0.1618787269D-02    7    2    0
 0.775341939804922D+03 0.000000000000000D+00 0.000000000000000D+00 0.775341939804922D+03
 0.775341939804922D+03 0.000000000000000D+00 0.000000000000000D+00 -.775341939804922D+03
 0.614460600558243D+03 -.143080781367053D+02 -.566784120771785D+03 -.201215975954657D+03
 0.234787790297189D+03 -.578821163500641D+02 0.159249677966517D+02 -.226983176645649D+03
 0.701435488754411D+03 0.721901944867694D+02 0.550859152975134D+03 0.428199152600306D+03
 0.000000000000000D+00 -.000000000000000D+00 -.000000000000000D+00 -.000000000000000D+00
 0.787381959004803D+03 0.000000000000000D+00 0.000000000000000D+00 0.787381959004803D+03
 0.108386278417491D+04 0.000000000000000D+00 0.000000000000000D+00 -.108386278417491D+04
 0.576342342238747D+03 -.431798493783265D+01 -.525394120145949D+03 -.201215975954657D+03
 0.235524939537531D+03 -.539364861917869D+02 0.322721260732973D+02 -.226983176645649D+03
 0.742786786023344D+03 0.843063176557539D+02 0.601057518051805D+03 0.428199152600306D+03
 0.316590675380095D+03 -.260518465261343D+02 -.107935523979153D+03 -.296480825170110D+03
0.682038335807D-04 0.000000000000D+00 0.000000000000D+00 0.470263737522D-06 0.000000000000D+00  6 -2 2 25 2 -2 21 0 0.56346180D-01 0.25251976D+00 0.35771335D+06 0.35771335D+06 0.35771335D+06 0.10789433D+01  1  2  2  2  6  2        2 0.275172042902D-03 0.100000000000D+01
0.161489791509D-04 0.000000000000D+00 -.261920679432D-06 0.470263737522D-06 0.000000000000D+00  6 -2 2 25 2 -2 21 2 0.56346180D-01 0.25251976D+00 0.35771335D+06 0.35771335D+06 0.35771335D+06 0.10789433D+01  1  2  3  2  6  2        2 0.758469010858D-04 0.100000000000D+01
-.463177259289D-04 0.000000000000D+00 0.000000000000D+00 0.470263737522D-06 0.000000000000D+00  6 -2 2 25 2 -2 21 2 0.56346180D-01 0.25251976D+00 0.35771335D+06 0.35771335D+06 0.35771335D+06 0.10789433D+01  1  2 15  2  6  2        2 -.217540436719D-03 0.100000000000D+01
-.347698995552D-04 0.000000000000D+00 0.000000000000D+00 0.470263737522D-06 0.000000000000D+00  6 -2 2 25 2 -2 21 2 0.56346180D-01 0.25251976D+00 0.35771335D+06 0.35771335D+06 0.35771335D+06 0.10789433D+01  1  2  4  2  6  2        2 -.163303767234D-03 0.100000000000D+01
-.647686473939D-03 0.000000000000D+00 -.519899742055D-04 0.470263737522D-06 0.000000000000D+00  6 -2 2 25 2 -2 21 2 0.56346180D-01 0.35455798D+00 0.35771335D+06 0.35771335D+06 0.35771335D+06 0.10789433D+01  1  2  5  2  6  2        2 -.130975097331D-02 0.100000000000D+01
0.631470868439D-03 0.000000000000D+00 0.491331237526D-04 0.470263737522D-06 0.000000000000D+00  6 -2 2 25 2 -2 21 2 0.56346180D-01 0.25251976D+00 0.35771335D+06 0.35771335D+06 0.35771335D+06 0.10789433D+01  1  2  6  2  6  2        2 0.296582886444D-02 0.100000000000D+01
-.259592950687D-04 0.000000000000D+00 -.219656424908D-05 0.470263737522D-06 0.000000000000D+00  6 -2 21 25 2 -2 -2 2 0.56346180D-01 0.35455798D+00 0.35771335D+06 0.35771335D+06 0.35771335D+06 0.10789433D+01  1  2  5  6  6  2        2 -.746536189701D-05 0.100000000000D+01
  </mgrwgt>
  </event>
  <event>
  5     66 -.17405255E-05 0.10363406E+02 0.75467711E-02 0.93541134E-01
       -2 -1    0    0    0  501 0.00000000E+00 0.00000000E+00 0.18369392E+04 0.18369392E+04 0.32000000E+00 0.0000E+00 0.9000E+01
        2 -1    0    0  502    0 0.00000000E+00 0.00000000E+00 -.10878541E+04 0.10878542E+04 0.32000000E+00 0.0000E+00 0.9000E+01
       25  1    1    2    0    0 -.40232754E+03 -.34991528E+03 -.42583311E+03 0.69373410E+03 0.12500000E+03 0.0000E+00 0.9000E+01
        2  1    1    2  502    0 -.77647606E+01 -.68645972E+01 -.48463880E+03 0.48474971E+03 0.32000000E+00 0.0000E+00 0.9000E+01
       -2  1    1    2    0  501 0.41009230E+03 0.35677988E+03 0.16595570E+04 0.17463096E+04 0.32000000E+00 0.0000E+00 0.9000E+01
#aMCatNLO 1  0  0  1  1 0.42274326D+03 0.00000000D+00  -5  6  0 0.00000000D+00 0.00000000D+00 0.00000000D+00 0.00000000D+00 0.00000000D+00
  <mgrwgt>
 -.7026139375D-03    1    2    0
 0.141362015495931D+04 0.000000000000000D+00 0.000000000000000D+00 0.141362015495931D+04
 0.141362015495931D+04 0.000000000000000D+00 0.000000000000000D+00 -.141362015495931D+04
 0.830523943481365D+03 -.402329181316692D+03 -.349916714459552D+03 -.624367314566282D+03
 0.629851383812188D+03 -.776425243342129D+01 -.686415020175019D+01 -.629766119695468D+03
 0.136686498262506D+04 0.410093433750113D+03 0.356780864661303D+03 0.125413343426175D+04
 0.000000000000000D+00 0.000000000000000D+00 -.000000000000000D+00 0.000000000000000D+00
 0.245237501577622D+04 0.000000000000000D+00 0.000000000000000D+00 0.245237501577622D+04
 0.142869888676375D+04 0.000000000000000D+00 0.000000000000000D+00 -.142869888676375D+04
 0.839974211433207D+03 -.451430781542157D+03 -.310334306595911D+03 -.624367314566282D+03
 0.631780887101518D+03 -.448478991382682D+02 0.230301917790059D+02 -.629766119695468D+03
 0.136355674331043D+04 0.329837088875153D+03 0.421478132406117D+03 0.125413343426175D+04
 0.104576206069481D+04 0.166441591805273D+03 -.134174017589212D+03 0.102367612901247D+04
-.584581347159D-02 0.000000000000D+00 0.000000000000D+00 0.983331745531D-04 0.000000000000D+00  6 -2 2 25 2 -2 21 2 0.28260603D+00 0.16736218D+00 0.30337946D+06 0.30337946D+06 0.30337946D+06 0.10841921D+01  1  2 14  1  6  1       -2 -.702613937453D-03 0.100000000000D+01
  </mgrwgt>
  </event>
  <event>
  5     66 -.17405255E-05 0.10411614E+03 0.75467711E-02 0.93394690E-01
       -2 -1    0    0    0  501 0.00000000E+00 0.00000000E+00 0.11970383E+04 0.11970384E+04 0.32000000E+00 0.0000E+00 0.9000E+01
        2 -1    0    0  502    0 -.00000000E+00 -.00000000E+00 -.24122634E+04 0.24122634E+04 0.32000000E+00 0.0000E+00 0.9000E+01
       25  1    1    2    0    0 -.26385675E+03 0.47662399E+03 0.50455074E+03 0.75298557E+03 0.12500000E+03 0.0000E+00 0.9000E+01
        2  1    1    2  502    0 0.17999747E+03 -.41487882E+03 -.22606836E+04 0.23054748E+04 0.32000000E+00 0.0000E+00 0.9000E+01
       -2  1    1    2    0  501 0.83859281E+02 -.61745166E+02 0.54090784E+03 0.55084139E+03 0.32000000E+00 0.0000E+00 0.9000E+01
#aMCatNLO 1  0  0  4  2 0.17771200D+02 0.00000000D+00  -5  6  0 0.00000000D+00 0.00000000D+00 0.00000000D+00 0.00000000D+00 0.00000000D+00
  <mgrwgt>
 -.3779298329D-02    8    2    0
 0.169928567703647D+04 0.000000000000000D+00 0.000000000000000D+00 0.169928567703647D+04
 0.169928567703647D+04 -.000000000000000D+00 -.000000000000000D+00 -.169928567703647D+04
 0.980238938232296D+03 -.263856051057367D+03 0.476649334545978D+03 0.805250751147782D+03
 0.164009155961749D+04 0.180014845840891D+03 -.414917477718329D+03 -.157649562824934D+04
 0.778240856223145D+03 0.838412052164762D+02 -.617318568276499D+02 0.771244877101555D+03
 0.000000000000000D+00 0.000000000000000D+00 0.000000000000000D+00 -.000000000000000D+00
 0.169928567703647D+04 0.000000000000000D+00 0.000000000000000D+00 0.169928567703647D+04
 0.169928567703647D+04 -.000000000000000D+00 -.000000000000000D+00 -.169928567703647D+04
 0.979902435428581D+03 -.263816849835884D+03 0.476558979376296D+03 0.804907443050043D+03
 0.150075844684227D+04 0.164522084903067D+03 -.396832015787896D+03 -.143796131748851D+04
 0.777979793926820D+03 0.838723283544310D+02 -.618035927660864D+02 0.770972313521068D+03
 0.139930677875263D+03 0.154224365783858D+02 -.179233708223134D+02 -.137918439082604D+03
0.124482894593D-03 0.000000000000D+00 0.000000000000D+00 0.322307612821D-04 0.000000000000D+00  6 -2 2 25 2 -2 21 0 0.18415975D+00 0.37111744D+00 0.31100936D+06 0.31100936D+06 0.31100936D+06 0.10833957D+01  1  2  2  3  6  4        2 0.103360820748D-04 0.100000000000D+01
0.187825991726D-04 0.000000000000D+00 -.478047092338D-06 0.322307612821D-04 0.000000000000D+00  6 -2 2 25 2 -2 21 2 0.18415975D+00 0.37111744D+00 0.31100936D+06 0.31100936D+06 0.31100936D+06 0.10833957D+01  1  2  3  3  6  4        2 0.183052730684D-05 0.100000000000D+01
-.740949098712D-04 0.000000000000D+00 0.000000000000D+00 0.322307612821D-04 0.000000000000D+00  6 -2 2 25 2 -2 21 2 0.18415975D+00 0.37111744D+00 0.31100936D+06 0.31100936D+06 0.31100936D+06 0.10833957D+01  1  2 15  3  6  4        2 -.722119204967D-05 0.100000000000D+01
0.453943179609D-09 0.000000000000D+00 0.000000000000D+00 0.322307612821D-04 0.000000000000D+00  6 -2 2 25 2 -2 21 2 0.18415975D+00 0.37111744D+00 0.31152099D+06 0.31152099D+06 0.31152099D+06 0.10833431D+01  1  2 12  3  6  4        2 0.442298134258D-10 0.100000000000D+01
0.334632440647D-01 0.000000000000D+00 0.000000000000D+00 0.322307612821D-04 0.000000000000D+00  6 -2 2 25 2 -2 21 2 0.18415975D+00 0.37111744D+00 0.31152099D+06 0.31152099D+06 0.31152099D+06 0.10833431D+01  1  2 12  3  6  4        2 0.326048084449D-02 0.100000000000D+01
-.756081173789D-01 0.000000000000D+00 0.000000000000D+00 0.322307612821D-04 0.000000000000D+00  6 -2 2 25 2 -2 21 2 0.18415975D+00 0.37111744D+00 0.31100936D+06 0.31100936D+06 0.31100936D+06 0.10833957D+01  1  2  4  3  6  4        2 -.736866725469D-02 0.100000000000D+01
-.373706530069D-01 0.000000000000D+00 0.000000000000D+00 0.322307612821D-04 0.000000000000D+00  6 -2 2 25 2 -2 21 2 0.18415975D+00 0.37111744D+00 0.31100936D+06 0.31100936D+06 0.31100936D+06 0.10833957D+01  1  2  5  3  6  4        2 -.364209448198D-02 0.100000000000D+01
0.406945500904D-01 0.000000000000D+00 -.000000000000D+00 0.322307612821D-04 0.000000000000D+00  6 -2 2 25 2 -2 21 2 0.18415975D+00 0.37111744D+00 0.31100936D+06 0.31100936D+06 0.31100936D+06 0.10833957D+01  1  2  6  3  6  4        2 0.396603710145D-02 0.100000000000D+01
  </mgrwgt>
  </event>
  <event>
  6     66 0.17405255E-05 0.40799594E+02 0.75467711E-02 0.92520313E-01
       -2 -1    0    0    0  501 0.00000000E+00 0.00000000E+00 0.32753855E+03 0.32753871E+03 0.32000000E+00 0.0000E+00 0.9000E+01
        2 -1    0    0  502    0 -.00000000E+00 -.00000000E+00 -.13860362E+04 0.13860363E+04 0.32000000E+00 0.0000E+00 0.9000E+01
       25  1    1    2    0    0 0.33020371E+02 -.59628096E+03 -.81210240E+03 0.10157641E+04 0.12500000E+03 0.0000E+00 0.9000E+01
        2  1    1    2  502    0 -.25499593E+02 0.30355004E+03 -.22032940E+03 0.37594947E+03 0.32000000E+00 0.0000E+00 0.9000E+01
       -2  1    1    2    0  503 -.17681007E+02 0.22284941E+03 -.75167234E+02 0.23584888E+03 0.32000000E+00 0.0000E+00 0.9000E+01
       21  1    1    2  503  501 0.10160228E+02 0.69881510E+02 0.49101357E+02 0.86012566E+02 0.75000000E+00 0.0000E+00 0.9000E+01
#aMCatNLO 2  0  0  5  1 0.67775674D+02 0.00000000D+00  -5  6  0 0.00000000D+00 0.00000000D+00 0.00000000D+00 0.00000000D+00 0.00000000D+00
  <mgrwgt>
 0.2010681426D+00    1    2    0
 0.673780721754214D+03 0.000000000000000D+00 0.000000000000000D+00 0.673780721754214D+03
 0.673780721754214D+03 -.000000000000000D+00 -.000000000000000D+00 -.673780721754214D+03
 0.664342716786291D+03 0.332681413076751D+02 -.605382504824356D+03 -.241104746891287D+03
 0.301221182211689D+03 -.254200557725020D+02 0.299911829124918D+03 0.118708099334855D+02
 0.381997544510449D+03 -.784808553517317D+01 0.305470675699438D+03 0.229233936957802D+03
 0.000000000000000D+00 0.000000000000000D+00 0.000000000000000D+00 0.000000000000000D+00
 0.673780721754214D+03 0.000000000000000D+00 0.000000000000000D+00 0.673780721754214D+03
 0.673780721754214D+03 -.000000000000000D+00 -.000000000000000D+00 -.673780721754214D+03
 0.653729410615077D+03 0.330378004492790D+02 -.596416958088136D+03 -.234376744045787D+03
 0.305475160242488D+03 -.255260795275010D+02 0.304038586909934D+03 0.149676470742830D+02
 0.240288465852486D+03 -.176644939767204D+02 0.222363848453992D+03 0.893354989632766D+02
 0.148068406798378D+03 0.101527730549423D+02 0.700145227242103D+02 0.130073598008227D+03
0.247496711842D-01 0.000000000000D+00 0.000000000000D+00 0.391309089635D-08 0.173808853263D-07  6 -2 2 25 2 -2 21 2 0.50390561D-01 0.21323636D+00 0.36553488D+06 0.36553488D+06 0.36553488D+06 0.10782600D+01  1  2  1  4  6  5       -2 0.201068142551D+00 0.100000000000D+01
  </mgrwgt>
  </event>
  <event>
  5     66 0.17405255E-05 0.90256198E+02 0.75467711E-02 0.93947839E-01
       -2 -1    0    0    0  501 0.00000000E+00 0.00000000E+00 0.10403764E+04 0.10403765E+04 0.32000000E+00 0.0000E+00 0.9000E+01
        2 -1    0    0  502    0 0.00000000E+00 0.00000000E+00 -.10260359E+04 0.10260359E+04 0.32000000E+00 0.0000E+00 0.9000E+01
       25  1    1    2    0    0 -.23178157E+02 -.51078259E+03 -.15718756E+03 0.54933506E+03 0.12500000E+03 0.0000E+00 0.9000E+01
        2  1    1    2  502    0 0.24287076E+02 0.42052571E+03 -.60396647E+03 0.73634729E+03 0.32000000E+00 0.0000E+00 0.9000E+01
       -2  1    1    2    0  501 -.11089188E+01 0.90256877E+02 0.77549457E+03 0.78073008E+03 0.32000000E+00 0.0000E+00 0.9000E+01
#aMCatNLO 1  0  0  2  2 0.39780370D+02 0.00000000D+00  -5  6  0 0.00000000D+00 0.00000000D+00 0.00000000D+00 0.00000000D+00 0.00000000D+00
  <mgrwgt>
 0.3800077870D-03    4    2    0
 0.103318133577111D+04 0.000000000000000D+00 0.000000000000000D+00 0.103318133577111D+04
 0.103318133577111D+04 0.000000000000000D+00 0.000000000000000D+00 -.103318133577111D+04
 0.550467262679850D+03 -.231813162089304D+02 -.510833953683580D+03 -.160936340287303D+03
 0.740592861486634D+03 0.242901430191854D+02 0.420584566834581D+03 -.609094736127013D+03
 0.775302547375737D+03 -.110882681025503D+01 0.902493868489994D+02 0.770031076414317D+03
 0.000000000000000D+00 -.000000000000000D+00 0.000000000000000D+00 0.000000000000000D+00
 0.110471070943474D+04 0.000000000000000D+00 0.000000000000000D+00 0.110471070943474D+04
 0.103891848439484D+04 0.000000000000000D+00 0.000000000000000D+00 -.103891848439484D+04
 0.558865517087364D+03 -.178474141271542D+02 -.520083291765107D+03 -.160936340287303D+03
 0.733949585682957D+03 0.313800489266586D+02 0.408290202277630D+03 -.609094736127013D+03
 0.773930447162297D+03 0.634020673985496D+01 0.773322712684557D+02 0.770031076414317D+03
 0.768836438969614D+02 -.198728415393593D+02 0.344608182190216D+02 0.657922250399075D+02
0.737490978304D-03 0.000000000000D+00 0.000000000000D+00 0.889704181298D-05 0.000000000000D+00  6 -2 2 25 2 -2 21 0 0.16005792D+00 0.15785168D+00 0.26933894D+06 0.26933894D+06 0.26933894D+06 0.10880331D+01  1  2  2  2  6  2        2 0.555282296497D-03 0.100000000000D+01
0.200400585081D-03 0.000000000000D+00 -.283215954252D-05 0.889704181298D-05 0.000000000000D+00  6 -2 2 25 2 -2 21 2 0.16005792D+00 0.15785168D+00 0.26933894D+06 0.26933894D+06 0.26933894D+06 0.10880331D+01  1  2  3  2  6  2        2 0.178624194946D-03 0.100000000000D+01
-.390381443355D-03 0.000000000000D+00 0.000000000000D+00 0.889704181298D-05 0.000000000000D+00  6 -2 2 25 2 -2 21 2 0.16005792D+00 0.15785168D+00 0.26933894D+06 0.26933894D+06 0.26933894D+06 0.10880331D+01  1  2 15  2  6  2        2 -.347960915450D-03 0.100000000000D+01
-.666167526807D-05 0.000000000000D+00 0.000000000000D+00 0.889704181298D-05 0.000000000000D+00  6 -2 2 25 2 -2 21 2 0.16005792D+00 0.15785168D+00 0.26933894D+06 0.26933894D+06 0.26933894D+06 0.10880331D+01  1  2  4  2  6  2        2 -.593778896041D-05 0.100000000000D+01
  </mgrwgt>
  </event>
  <event>
  5     66 0.17405255E-05 0.41076324E+02 0.75467711E-02 0.93049439E-01
       -2 -1    0    0    0  501 0.00000000E+00 0.00000000E+00 0.82966813E+03 0.82966819E+03 0.32000000E+00 0.0000E+00 0.9000E+01
        2 -1    0    0  502    0 0.00000000E+00 0.00000000E+00 -.22933885E+04 0.22933885E+04 0.32000000E+00 0.0000E+00 0.9000E+01
       25  1    1    2    0    0 0.20098970E+03 0.42514653E+03 -.13863502E+04 0.14692646E+04 0.12500000E+03 0.0000E+00 0.9000E+01
        2  1    1    2  502    0 -.30639772E+02 -.27365968E+02 -.80562791E+03 0.80667473E+03 0.32000000E+00 0.0000E+00 0.9000E+01
       -2  1    1    2    0  501 -.17034993E+03 -.39778057E+03 0.72825775E+03 0.84711743E+03 0.32000000E+00 0.0000E+00 0.9000E+01
#aMCatNLO 1  0  0  2  1 0.18685063D+03 0.00000000D+00  -5  6  0 0.00000000D+00 0.00000000D+00 0.00000000D+00 0.00000000D+00 0.00000000D+00
  <mgrwgt>
 0.6968014333D-02    3    2    0
 0.137940258754578D+04 0.000000000000000D+00 0.000000000000000D+00 0.137940258754578D+04
 0.137940258754578D+04 0.000000000000000D+00 0.000000000000000D+00 -.137940258754578D+04
 0.927775518936038D+03 0.200986792397162D+03 0.425145023138291D+03 -.789935713915807D+03
 0.485671668823830D+03 -.306359818655349D+02 -.273624020499549D+02 -.483931509066433D+03
 0.134535798733169D+04 -.170350810531627D+03 -.397782621088336D+03 0.127386722298224D+04
 0.000000000000000D+00 -.000000000000000D+00 0.000000000000000D+00 0.000000000000000D+00
 0.358022075700388D+04 0.000000000000000D+00 0.000000000000000D+00 0.358022075700388D+04
 0.138653439310457D+04 0.000000000000000D+00 0.000000000000000D+00 -.138653439310457D+04
 0.936341049739021D+03 0.262264219623222D+03 0.410278696025174D+03 -.789935713915807D+03
 0.485204814090158D+03 0.127876747309706D+01 -.351051406876414D+02 -.483931509066433D+03
 0.134357965795976D+04 -.819597819642055D+02 -.419226895171523D+03 0.127386722298224D+04
 0.220162962831952D+04 -.181583205132113D+03 0.440533398339904D+02 0.219368636389930D+04
0.392216657720D-01 0.000000000000D+00 0.000000000000D+00 0.773062435347D-04 0.000000000000D+00  6 -2 2 25 2 -2 21 0 0.12764126D+00 0.35282901D+00 0.23058717D+06 0.23058717D+06 0.23058717D+06 0.10931099D+01  1  2  2  2  6  2        2 0.108462993617D-01 0.100000000000D+01
0.109039715070D-01 0.000000000000D+00 -.150621523866D-03 0.773062435347D-04 0.000000000000D+00  6 -2 2 25 2 -2 21 2 0.12764126D+00 0.35282901D+00 0.23058717D+06 0.23058717D+06 0.23058717D+06 0.10931099D+01  1  2  3  2  6  2        2 0.360303032241D-02 0.100000000000D+01
-.226409555632D-01 0.000000000000D+00 0.000000000000D+00 0.773062435347D-04 0.000000000000D+00  6 -2 2 25 2 -2 21 2 0.12764126D+00 0.35282901D+00 0.23058717D+06 0.23058717D+06 0.23058717D+06 0.10931099D+01  1  2 15  2  6  2        2 -.748131535099D-02 0.100000000000D+01
  </mgrwgt>
  </event>
  <event>
  6     66 0.17405255E-05 0.86942614E+02 0.75467711E-02 0.93073861E-01
       -2 -1    0    0    0  503 0.00000000E+00 0.00000000E+00 0.78990550E+03 0.78990557E+03 0.32000000E+00 0.0000E+00 0.9000E+01
        2 -1    0    0  502    0 0.00000000E+00 0.00000000E+00 -.15475374E+04 0.15475374E+04 0.32000000E+00 0.0000E+00 0.9000E+01
       25  1    1    2    0    0 0.42097871E+03 0.26227092E+03 -.21424213E+03 0.55455730E+03 0.12500000E+03 0.0000E+00 0.9000E+01
        2  1    1    2  502    0 0.72619659E+02 -.64798110E+02 -.99092996E+03 0.99569810E+03 0.32000000E+00 0.0000E+00 0.9000E+01
       -2  1    1    2    0  501 -.48855774E+03 -.17730279E+03 0.22948929E+03 0.56814644E+03 0.32000000E+00 0.0000E+00 0.9000E+01
       21  1    1    2  501  503 -.50406333E+01 -.20170017E+02 0.21805095E+03 0.21904113E+03 0.75000000E+00 0.0000E+00 0.9000E+01
#aMCatNLO 2  0  0  1  5 0.20790324D+02 0.00000000D+00  -5  6  0 0.00000000D+00 0.00000000D+00 0.00000000D+00 0.00000000D+00 0.00000000D+00
  <mgrwgt>
 0.3337676715D-03    3    2    0
 0.940111319410807D+03 0.000000000000000D+00 0.000000000000000D+00 0.940111319410807D+03
 0.940111319410807D+03 0.000000000000000D+00 0.000000000000000D+00 -.940111319410807D+03
 0.509669653093217D+03 0.419572641901291D+03 0.256781568563207D+03 0.464777312091502D+02
 0.608179945015899D+03 0.709976066367199D+02 -.713279317746065D+02 -.599795391379558D+03
 0.762373040712497D+03 -.490570248538010D+03 -.185453636788601D+03 0.553317660170408D+03
 0.000000000000000D+00 -.000000000000000D+00 -.000000000000000D+00 0.000000000000000D+00
 0.129978449629054D+04 0.000000000000000D+00 0.000000000000000D+00 0.129978449629054D+04
 0.940469274993015D+03 0.000000000000000D+00 0.000000000000000D+00 -.940469274993015D+03
 0.513580244096681D+03 0.420944200193376D+03 0.262269838051604D+03 0.464777312091502D+02
 0.607642291297689D+03 0.726272877874317D+02 -.648067876228213D+02 -.599795391379558D+03
 0.759115043103351D+03 -.488530854638829D+03 -.177293033352140D+03 0.553317660170408D+03
 0.359916192785834D+03 -.504063334197939D+01 -.201700170766435D+02 0.359315221297525D+03
-.395935507662D-08 0.000000000000D+00 0.000000000000D+00 0.176834819455D-05 0.000000000000D+00  6 -2 2 25 2 -2 21 2 0.12153587D+00 0.23799196D+00 0.33022711D+06 0.33022711D+06 0.33022711D+06 0.10814808D+01  1  2 13  1  6  1       -2 -.363988973349D-08 0.100000000000D+01
-.187545873901D-02 0.000000000000D+00 0.000000000000D+00 0.176834819455D-05 0.000000000000D+00  6 -2 2 25 2 -2 21 2 0.12169087D+00 0.23799196D+00 0.33022711D+06 0.33022711D+06 0.33022711D+06 0.10814808D+01  1  2 13  1  6  1       -2 -.171847665780D-02 0.100000000000D+01
0.223346483531D-02 0.000000000000D+00 0.000000000000D+00 0.176834819455D-05 0.318457560480D-07  6 -2 2 25 2 -2 21 2 0.12152388D+00 0.23808258D+00 0.33022711D+06 0.33022711D+06 0.33022711D+06 0.10814808D+01  1  2  1  1  6  1       -2 0.205224796915D-02 0.100000000000D+01
  </mgrwgt>
  </event>
  <event>
  6     66 0.17405255E-05 0.14719857E+03 0.75467711E-02 0.91740468E-01
       -2 -1    0    0    0  503 0.00000000E+00 0.00000000E+00 0.18108772E+04 0.18108773E+04 0.32000000E+00 0.0000E+00 0.9000E+01
        2 -1    0    0  502    0 0.00000000E+00 0.00000000E+00 -.21757996E+04 0.21757996E+04 0.32000000E+00 0.0000E+00 0.9000E+01
       25  1    1    2    0    0 0.42685355E+03 -.39455628E+03 -.46821986E+03 0.75679155E+03 0.12500000E+03 0.0000E+00 0.9000E+01
        2  1    1    2  502    0 0.60303884E+02 0.12865174E+02 -.14801163E+04 0.14814001E+04 0.32000000E+00 0.0000E+00 0.9000E+01
       -2  1    1    2    0  501 -.41020060E+03 0.22115238E+03 0.65926055E+03 0.80733975E+03 0.32000000E+00 0.0000E+00 0.9000E+01
       21  1    1    2  501  503 -.76956831E+02 0.16053874E+03 0.92415321E+03 0.94114545E+03 0.75000000E+00 0.0000E+00 0.9000E+01
#aMCatNLO 2  0  0  1  4 0.17803101D+03 0.00000000D+00  -5  6  0 0.00000000D+00 0.00000000D+00 0.00000000D+00 0.00000000D+00 0.00000000D+00
  <mgrwgt>
 0.2617286026D-02    1    2    0
 0.137675804780676D+04 0.000000000000000D+00 0.000000000000000D+00 0.137675804780676D+04
 0.137675804780676D+04 0.000000000000000D+00 0.000000000000000D+00 -.137675804780676D+04
 0.582891423375889D+03 0.410099209363296D+03 -.359626146509518D+03 -.163171948175795D+03
 0.944691273569256D+03 0.339465830779131D+02 0.678586157540338D+02 -.941639230344182D+03
 0.122593339866838D+04 -.444045792441209D+03 0.291767530755484D+03 0.110481117851998D+04
 0.000000000000000D+00 -.000000000000000D+00 0.000000000000000D+00 0.000000000000000D+00
 0.284475736918205D+04 0.000000000000000D+00 0.000000000000000D+00 0.284475736918205D+04
 0.138504098416835D+04 0.000000000000000D+00 0.000000000000000D+00 -.138504098416835D+04
 0.616537539666223D+03 0.426842889675567D+03 -.394554940001526D+03 -.163171948175795D+03
 0.943656185353116D+03 0.603073657044161D+02 0.128676988542375D+02 -.941639230344182D+03
 0.119907174394111D+04 -.410193424260535D+03 0.221148505825126D+03 0.110481117851998D+04
 0.147053288438996D+04 -.769568311194480D+02 0.160538735322162D+03 0.145971638501370D+04
0.872607386992D-01 0.000000000000D+00 0.000000000000D+00 0.297509141922D-04 0.184595231682D-07  6 -2 2 25 2 -2 21 2 0.27859648D+00 0.33473838D+00 0.42266838D+06 0.42266838D+06 0.42266838D+06 0.10737061D+01  1  2  1  1  6  1       -2 0.261728602586D-02 0.100000000000D+01
  </mgrwgt>
  </event>
  <event>
  5     66 -.17405255E-05 0.15448537E+03 0.75467711E-02 0.92131260E-01
       -2 -1    0    0    0  501 0.00000000E+00 0.00000000E+00 0.11788122E+04 0.11788123E+04 0.32000000E+00 0.0000E+00 0.9000E+01
        2 -1    0    0  502    0 0.00000000E+00 0.00000000E+00 -.10898744E+04 0.10898744E+04 0.32000000E+00 0.0000E+00 0.9000E+01
       25  1    1    2    0    0 -.10628016E+03 0.55723452E+03 -.19802985E+03 0.61371542E+03 0.12500000E+03 0.0000E+00 0.9000E+01
        2  1    1    2  502    0 0.98436428E+02 -.40293835E+03 -.61393244E+03 0.74091983E+03 0.32000000E+00 0.0000E+00 0.9000E+01
       -2  1    1    2    0  501 0.78437338E+01 -.15429618E+03 0.90090018E+03 0.91405146E+03 0.32000000E+00 0.0000E+00 0.9000E+01
#aMCatNLO 1  0  0  2  5 0.17674712D+03 0.00000000D+00  -5  6  0 0.00000000D+00 0.00000000D+00 0.00000000D+00 0.00000000D+00 0.00000000D+00
  <mgrwgt>
 -.3785804038D-03    7    2    0
 0.113347137249562D+04 0.000000000000000D+00 0.000000000000000D+00 0.113347137249562D+04
 0.113347137249562D+04 0.000000000000000D+00 0.000000000000000D+00 -.113347137249562D+04
 0.621971600871405D+03 -.106291379359957D+03 0.557277584902688D+03 -.222188002217321D+03
 0.765618344410763D+03 0.984481557091728D+02 -.402991441371129D+03 -.643488390040846D+03
 0.879352799709077D+03 0.784322365078378D+01 -.154286143531559D+03 0.865676392258166D+03
 0.000000000000000D+00 0.000000000000000D+00 -.000000000000000D+00 -.000000000000000D+00
 0.114712382360385D+04 0.000000000000000D+00 0.000000000000000D+00 0.114712382360385D+04
 0.190164527677213D+04 0.000000000000000D+00 0.000000000000000D+00 -.190164527677213D+04
 0.667726368364005D+03 -.121944730989285D+03 0.604975600551964D+03 -.222188002217321D+03
 0.735694875199009D+03 0.802263826329203D+02 -.347467075859515D+03 -.643488390040846D+03
 0.870401298700813D+03 -.133939317302600D+02 -.895734740855337D+02 0.865676392258166D+03
 0.774946558112155D+03 0.551122800866251D+02 -.167935050606915D+03 -.754521453168286D+03
0.727592158497D-04 0.000000000000D+00 0.000000000000D+00 0.289506615208D-05 0.000000000000D+00  6 -2 2 25 2 -2 21 0 0.18135574D+00 0.16767299D+00 0.33077393D+06 0.33077393D+06 0.33077393D+06 0.10814281D+01  1  2  2  2  6  2        2 0.344435977335D-04 0.100000000000D+01
0.124408447444D-04 0.000000000000D+00 -.279414546804D-06 0.289506615208D-05 0.000000000000D+00  6 -2 2 25 2 -2 21 2 0.18135574D+00 0.16767299D+00 0.33077393D+06 0.33077393D+06 0.33077393D+06 0.10814281D+01  1  2  3  2  6  2        2 0.688756389340D-05 0.100000000000D+01
-.446927182507D-04 0.000000000000D+00 0.000000000000D+00 0.289506615208D-05 0.000000000000D+00  6 -2 2 25 2 -2 21 2 0.18135574D+00 0.16767299D+00 0.33077393D+06 0.33077393D+06 0.33077393D+06 0.10814281D+01  1  2 15  2  6  2        2 -.247430105307D-04 0.100000000000D+01
-.125323438115D-02 0.000000000000D+00 0.000000000000D+00 0.289506615208D-05 0.000000000000D+00  6 -2 2 25 2 -2 21 2 0.18135574D+00 0.16767299D+00 0.33077393D+06 0.33077393D+06 0.33077393D+06 0.10814281D+01  1  2  4  2  6  2        2 -.693822007340D-03 0.100000000000D+01
-.104572514769D-02 0.000000000000D+00 -.471139876046D-04 0.289506615208D-05 0.000000000000D+00  6 -2 2 25 2 -2 21 2 0.18135574D+00 0.28226211D+00 0.33077393D+06 0.33077393D+06 0.33077393D+06 0.10814281D+01  1  2  5  2  6  2        2 -.221540151538D-03 0.100000000000D+01
0.944922329864D-03 0.000000000000D+00 0.413744909931D-04 0.289506615208D-05 0.000000000000D+00  6 -2 2 25 2 -2 21 2 0.18135574D+00 0.16767299D+00 0.33077393D+06 0.33077393D+06 0.33077393D+06 0.10814281D+01  1  2  6  2  6  2        2 0.523132717669D-03 0.100000000000D+01
-.586954549434D-04 0.000000000000D+00 -.274460157811D-05 0.289506615208D-05 0.000000000000D+00  6 -2 21 25 2 -2 -2 2 0.18135574D+00 0.28226211D+00 0.33077393D+06 0.33077393D+06 0.33077393D+06 0.10814281D+01  1  2  5  6  6  2        2 -.293911369382D-05 0.100000000000D+01
  </mgrwgt>
  </event>
  <event>
  6     66 -.17405255E-05 0.92751676E+02 0.75467711E-02 0.92067120E-01
       -2 -1    0    0    0  501 0.00000000E+00 0.00000000E+00 0.15978735E+04 0.15978735E+04 0.32000000E+00 0.0000E+00 0.9000E+01
        2 -1    0    0  503    0 0.00000000E+00 0.00000000E+00 -.10282695E+04 0.10282695E+04 0.32000000E+00 0.0000E+00 0.9000E+01
       25  1    1    2    0    0 -.33868113E+03 -.49439931E+03 0.40110423E+03 0.73187785E+03 0.12500000E+03 0.0000E+00 0.9000E+01
        2  1    1    2  502    0 0.24344678E+03 0.47394791E+03 -.69381778E+03 0.87480065E+03 0.32000000E+00 0.0000E+00 0.9000E+01
       -2  1    1    2    0  501 0.93891605E+02 0.35893883E+02 0.93741064E+03 0.94278461E+03 0.32000000E+00 0.0000E+00 0.9000E+01
       21  1    1    2  503  502 0.13427370E+01 -.15442482E+02 -.75093090E+02 0.76679905E+02 0.75000000E+00 0.0000E+00 0.9000E+01
#aMCatNLO 2  0  0  2  4 0.15500748D+02 0.00000000D+00  -5  6  0 0.00000000D+00 0.00000000D+00 0.00000000D+00 0.00000000D+00 0.00000000D+00
  <mgrwgt>
 -.7455415605D-03    6    2    0
 0.123327688776942D+04 0.000000000000000D+00 0.000000000000000D+00 0.123327688776942D+04
 0.123327688776942D+04 0.000000000000000D+00 0.000000000000000D+00 -.123327688776942D+04
 0.654640366319336D+03 -.338343234660813D+03 -.498540780541129D+03 0.223405360077627D+03
 0.108274920418137D+04 0.244070179858170D+03 0.467218404595652D+03 -.945770875459001D+03
 0.729164205038130D+03 0.942730548026426D+02 0.313223759454765D+02 0.722365515381373D+03
 0.000000000000000D+00 0.000000000000000D+00 -.000000000000000D+00 -.000000000000000D+00
 0.123391250643285D+04 0.000000000000000D+00 0.000000000000000D+00 0.123391250643285D+04
 0.133156995159256D+04 0.000000000000000D+00 0.000000000000000D+00 -.133156995159256D+04
 0.651716239362919D+03 -.338698806887552D+03 -.494451433359112D+03 0.223405360077627D+03
 0.108556285699732D+04 0.243479995260408D+03 0.474005969934662D+03 -.945770875459001D+03
 0.729323384953724D+03 0.938760746229663D+02 0.358879456300461D+02 0.722365515381373D+03
 0.988799767114404D+02 0.134273700417845D+01 -.154424822055961D+02 -.976574451597135D+02
-.185832016691D-08 0.000000000000D+00 0.000000000000D+00 0.688572207412D-05 0.000000000000D+00  6 -2 2 25 2 -2 21 2 0.24569978D+00 0.15823120D+00 0.39760243D+06 0.39760243D+06 0.39760243D+06 0.10756159D+01  1  2 13  2  6  2        2 -.404443035943D-09 0.100000000000D+01
-.937588960573D-02 0.000000000000D+00 0.000000000000D+00 0.688572207412D-05 0.000000000000D+00  6 -2 2 25 2 -2 21 2 0.24569978D+00 0.15889483D+00 0.39760243D+06 0.39760243D+06 0.39760243D+06 0.10756159D+01  1  2 13  2  6  2        2 -.202810313949D-02 0.100000000000D+01
-.714810281728D-03 0.000000000000D+00 0.000000000000D+00 0.688572207412D-05 0.000000000000D+00  6 -2 2 25 2 -2 21 2 0.24569978D+00 0.14651757D+00 0.38552198D+06 0.38552198D+06 0.38552198D+06 0.10765837D+01  1  2  8  2  6  2        2 -.174350076200D-03 0.100000000000D+01
-.115942463844D-02 0.000000000000D+00 0.000000000000D+00 0.688572207412D-05 0.000000000000D+00  6 -2 2 25 2 -2 21 2 0.24569978D+00 0.15822852D+00 0.38552198D+06 0.38552198D+06 0.38552198D+06 0.10765837D+01  1  2  9  2  6  2        2 -.253358730935D-03 0.100000000000D+01
0.115600531781D-02 0.000000000000D+00 0.000000000000D+00 0.688572207412D-05 0.000000000000D+00  6 -2 2 25 2 -2 21 2 0.24569978D+00 0.14651757D+00 0.38552198D+06 0.38552198D+06 0.38552198D+06 0.10765837D+01  1  2 10  2  6  2        2 0.281962389741D-03 0.100000000000D+01
0.657295891701D-02 0.000000000000D+00 0.000000000000D+00 0.688572207412D-05 0.106596232849D-06  6 -2 2 25 2 -2 21 2 0.24582641D+00 0.15819513D+00 0.39760243D+06 0.39760243D+06 0.39760243D+06 0.10756159D+01  1  2  1  2  6  2        2 0.142830840086D-02 0.100000000000D+01
  </mgrwgt>
  </event>
  <event>
  5     66 0.17405255E-05 0.61686951E+02 0.75467711E-02 0.90449975E-01
       -2 -1    0    0    0  501 0.00000000E+00 0.00000000E+00 0.48797854E+03 0.48797865E+03 0.32000000E+00 0.0000E+00 0.9000E+01
        2 -1    0    0  502    0 0.00000000E+00 0.00000000E+00 -.22281967E+04 0.22281967E+04 0.32000000E+00 0.0000E+00 0.9000E+01
       25  1    1    2    0    0 0.18985910E+03 -.42492734E+03 -.14274524E+04 0.15066038E+04 0.12500000E+03 0.0000E+00 0.9000E+01
        2  1    1    2  502    0 -.13781523E+02 0.60133397E+02 -.66797713E+03 0.67082003E+03 0.32000000E+00 0.0000E+00 0.9000E+01
       -2  1    1    2    0  501 -.17607758E+03 0.36479395E+03 0.35521140E+03 0.53875150E+03 0.32000000E+00 0.0000E+00 0.9000E+01
#aMCatNLO 1  0  0  2  5 0.57055603D+03 0.00000000D+00  -5  6  0 0.00000000D+00 0.00000000D+00 0.00000000D+00 0.00000000D+00 0.00000000D+00
  <mgrwgt>
 0.4921258321D-02    7    2    0
 0.104274270253272D+04 0.000000000000000D+00 0.000000000000000D+00 0.104274270253272D+04
 0.104274270253272D+04 0.000000000000000D+00 0.000000000000000D+00 -.104274270253272D+04
 0.771131370430367D+03 0.189858748336820D+03 -.424924190639642D+03 -.602006377334192D+03
 0.316264570526936D+03 -.137801340711472D+02 0.601280953007389D+02 -.310190261986210D+03
 0.998089464108135D+03 -.176078614265673D+03 0.364796095338903D+03 0.912196639320402D+03
 0.000000000000000D+00 -.000000000000000D+00 0.000000000000000D+00 -.000000000000000D+00
 0.120264184965023D+04 0.000000000000000D+00 0.000000000000000D+00 0.120264184965023D+04
 0.175044804076191D+04 0.000000000000000D+00 0.000000000000000D+00 -.175044804076191D+04
 0.923185074104441D+03 0.329217220419241D+03 -.604855374843949D+03 -.602006377334192D+03
 0.312572963943550D+03 0.379421036929705D+02 -.665251266323392D+01 -.310190261986210D+03
 0.926366740820973D+03 -.177910185963232D+02 0.160424777915201D+03 0.912196639320402D+03
 0.790965111543176D+03 -.349368305515889D+03 0.451083109591982D+03 -.547806191111687D+03
0.339163147587D-02 0.000000000000D+00 0.000000000000D+00 0.971554342287D-05 0.000000000000D+00  6 -2 2 25 2 -2 21 0 0.75073632D-01 0.34279950D+00 0.22498855D+06 0.22498855D+06 0.22498855D+06 0.10939199D+01  1  2  2  2  6  2        2 0.364539581170D-02 0.100000000000D+01
0.559699539799D-03 0.000000000000D+00 -.130247579044D-04 0.971554342287D-05 0.000000000000D+00  6 -2 2 25 2 -2 21 2 0.75073632D-01 0.34279950D+00 0.22498855D+06 0.22498855D+06 0.22498855D+06 0.10939199D+01  1  2  3  2  6  2        2 0.719883175917D-03 0.100000000000D+01
-.208376697307D-02 0.000000000000D+00 0.000000000000D+00 0.971554342287D-05 0.000000000000D+00  6 -2 2 25 2 -2 21 2 0.75073632D-01 0.34279950D+00 0.22498855D+06 0.22498855D+06 0.22498855D+06 0.10939199D+01  1  2 15  2  6  2        2 -.268013224914D-02 0.100000000000D+01
-.252602587820D-04 0.000000000000D+00 0.000000000000D+00 0.971554342287D-05 0.000000000000D+00  6 -2 2 25 2 -2 21 2 0.75073632D-01 0.34279950D+00 0.22498855D+06 0.22498855D+06 0.22498855D+06 0.10939199D+01  1  2  4  2  6  2        2 -.324896377850D-04 0.100000000000D+01
-.198569414797D-02 0.000000000000D+00 -.169291425507D-02 0.971554342287D-05 0.000000000000D+00  6 -2 2 25 2 -2 21 2 0.75073632D-01 0.59218199D+00 0.22498855D+06 0.22498855D+06 0.22498855D+06 0.10939199D+01  1  2  5  2  6  2        2 -.229063075012D-03 0.100000000000D+01
0.271946160546D-02 0.000000000000D+00 0.146803788959D-02 0.971554342287D-05 0.000000000000D+00  6 -2 2 25 2 -2 21 2 0.75073632D-01 0.34279950D+00 0.22498855D+06 0.22498855D+06 0.22498855D+06 0.10939199D+01  1  2  6  2  6  2        2 0.349775999106D-02 0.100000000000D+01
-.363605068336D-04 0.000000000000D+00 -.102614693568D-03 0.971554342287D-05 0.000000000000D+00  6 -2 21 25 2 -2 -2 2 0.75073632D-01 0.59218199D+00 0.22498855D+06 0.22498855D+06 0.22498855D+06 0.10939199D+01  1  2  5  6  6  2        2 -.956955675024D-07 0.100000000000D+01
  </mgrwgt>
  </event>
  <event>
  5     66 0.17405255E-05 0.21571007E+03 0.75467711E-02 0.95102308E-01
       -2 -1    0    0    0  501 0.00000000E+00 0.00000000E+00 0.21171673E+04 0.21171673E+04 0.32000000E+00 0.0000E+00 0.9000E+01
        2 -1    0    0  502    0 0.00000000E+00 0.00000000E+00 -.83549401E+03 0.83549407E+03 0.32000000E+00 0.0000E+00 0.9000E+01
       25  1    1    2    0    0 -.39594803E+03 -.23575363E+03 0.11901929E+03 0.49208252E+03 0.12500000E+03 0.0000E+00 0.9000E+01
        2  1    1    2  502    0 0.19043744E+03 0.11813681E+03 -.62155714E+03 0.66072393E+03 0.32000000E+00 0.0000E+00 0.9000E+01
       -2  1    1    2    0  501 0.20551059E+03 0.11761682E+03 0.17842112E+04 0.17998550E+04 0.32000000E+00 0.0000E+00 0.9000E+01
#aMCatNLO 1  0  0  4  2 0.55752464D+02 0.00000000D+00  -5  6  0 0.00000000D+00 0.00000000D+00 0.00000000D+00 0.00000000D+00 0.00000000D+00
  <mgrwgt>
 0.1862543506D-02    8    2    0
 0.132999275655438D+04 0.000000000000000D+00 0.000000000000000D+00 0.132999275655438D+04
 0.132999275655438D+04 -.000000000000000D+00 -.000000000000000D+00 -.132999275655438D+04
 0.488879187735940D+03 -.395960294011704D+03 -.235761452633462D+03 -.104927800032581D+03
 0.103294237531623D+04 0.190455589769370D+03 0.118148003477442D+03 -.100833410550463D+04
 0.113816395005660D+04 0.205504704242335D+03 0.117613449156020D+03 0.111326190553721D+04
 0.000000000000000D+00 0.000000000000000D+00 0.000000000000000D+00 0.000000000000000D+00
 0.132999275655438D+04 0.000000000000000D+00 0.000000000000000D+00 0.132999275655438D+04
 0.132999275655438D+04 -.000000000000000D+00 -.000000000000000D+00 -.132999275655438D+04
 0.488886190993664D+03 -.395751301344132D+03 -.235631805262939D+03 -.106034275483201D+03
 0.440750780438320D+03 0.300565511882642D+02 0.724686400811425D+02 -.433712059311757D+03
 0.113576643060663D+04 0.205990745972248D+03 0.117914962280763D+03 0.111068864185110D+04
 0.594582111070158D+03 0.159704004183620D+03 0.452482029010335D+02 -.570942307056143D+03
0.152705730356D-02 0.000000000000D+00 0.000000000000D+00 0.311725539378D-04 0.000000000000D+00  6 -2 2 25 2 -2 21 0 0.32571805D+00 0.12853755D+00 0.22014510D+06 0.22014510D+06 0.22014510D+06 0.10946386D+01  1  2  2  3  6  4        2 0.122068677734D-03 0.100000000000D+01
0.195646035442D-03 0.000000000000D+00 -.586430212907D-05 0.311725539378D-04 0.000000000000D+00  6 -2 2 25 2 -2 21 2 0.32571805D+00 0.12853755D+00 0.22014510D+06 0.22014510D+06 0.22014510D+06 0.10946386D+01  1  2  3  3  6  4        2 0.187396500123D-04 0.100000000000D+01
-.841238511058D-03 0.000000000000D+00 0.000000000000D+00 0.311725539378D-04 0.000000000000D+00  6 -2 2 25 2 -2 21 2 0.32571805D+00 0.12853755D+00 0.22014510D+06 0.22014510D+06 0.22014510D+06 0.10946386D+01  1  2 15  3  6  4        2 -.805767172257D-04 0.100000000000D+01
0.414286867482D-09 0.000000000000D+00 0.000000000000D+00 0.311725539378D-04 0.000000000000D+00  6 -2 2 25 2 -2 21 2 0.32571805D+00 0.12853755D+00 0.22994224D+06 0.22994224D+06 0.22994224D+06 0.10932021D+01  1  2 12  3  6  4        2 0.394373440672D-10 0.100000000000D+01
0.149834229154D-01 0.000000000000D+00 0.000000000000D+00 0.311725539378D-04 0.000000000000D+00  6 -2 2 25 2 -2 21 2 0.32571805D+00 0.12853755D+00 0.22994224D+06 0.22994224D+06 0.22994224D+06 0.10932021D+01  1  2 12  3  6  4        2 0.142632183446D-02 0.100000000000D+01
-.871986437460D-02 0.000000000000D+00 0.000000000000D+00 0.311725539378D-04 0.000000000000D+00  6 -2 2 25 2 -2 21 2 0.32571805D+00 0.12853755D+00 0.22014510D+06 0.22014510D+06 0.22014510D+06 0.10946386D+01  1  2  4  3  6  4        2 -.835218593446D-03 0.100000000000D+01
-.182005760244D-01 0.000000000000D+00 0.000000000000D+00 0.311725539378D-04 0.000000000000D+00  6 -2 2 25 2 -2 21 2 0.32571805D+00 0.12853755D+00 0.22014510D+06 0.22014510D+06 0.22014510D+06 0.10946386D+01  1  2  5  3  6  4        2 -.174331375512D-02 0.100000000000D+01
0.308458582715D-01 0.000000000000D+00 -.000000000000D+00 0.311725539378D-04 0.000000000000D+00  6 -2 2 25 2 -2 21 2 0.32571805D+00 0.12853755D+00 0.22014510D+06 0.22014510D+06 0.22014510D+06 0.10946386D+01  1  2  6  3  6  4        2 0.295452237012D-02 0.100000000000D+01
  </mgrwgt>
  </event>
  <event>
  5     66 -.17405255E-05 0.76568843E+02 0.75467711E-02 0.92068949E-01
       -2 -1    0    0    0  501 0.00000000E+00 0.00000000E+00 0.12788860E+04 0.12788860E+04 0.32000000E+00 0.0000E+00 0.9000E+01
        2 -1    0    0  502    0 0.00000000E+00 0.00000000E+00 -.12283887E+04 0.12283888E+04 0.32000000E+00 0.0000E+00 0.9000E+01
       25  1    1    2    0    0 0.28808037E+02 0.58704479E+03 -.92988366E+02 0.60804879E+03 0.12500000E+03 0.0000E+00 0.9000E+01
        2  1    1    2  502    0 -.70273158E+02 -.30387348E+02 -.79963697E+03 0.80329390E+03 0.32000000E+00 0.0000E+00 0.9000E+01
       -2  1    1    2    0  501 0.41465121E+02 -.55665744E+03 0.94312257E+03 0.10959321E+04 0.32000000E+00 0.0000E+00 0.9000E+01
#aMCatNLO 1  0  0  1  5 0.37336235D+02 0.00000000D+00  -5  6  0 0.00000000D+00 0.00000000D+00 0.00000000D+00 0.00000000D+00 0.00000000D+00
  <mgrwgt>
 -.2597851202D-02   11    4    0
 0.125338310461809D+04 0.000000000000000D+00 0.000000000000000D+00 0.125338310461809D+04
 0.125338310461809D+04 0.000000000000000D+00 0.000000000000000D+00 -.125338310461809D+04
 0.610019461019637D+03 0.288154915095918D+02 0.587032267110653D+03 -.105173797319843D+03
 0.819621499923521D+03 -.702794378017694D+02 -.303905969847090D+02 -.816037140928072D+03
 0.107712524829303D+04 0.414639462921776D+02 -.556641670125944D+03 0.921210938247915D+03
 0.000000000000000D+00 -.000000000000000D+00 -.000000000000000D+00 0.000000000000000D+00
 0.145612432483977D+04 0.000000000000000D+00 0.000000000000000D+00 0.145612432483977D+04
 0.125524223267505D+04 0.000000000000000D+00 0.000000000000000D+00 -.125524223267505D+04
 0.618821199784919D+03 0.298777002034803D+02 0.596121189600841D+03 -.105173797319843D+03
 0.819141316979977D+03 -.688628927875473D+02 -.182697511356745D+02 -.816037140928072D+03
 0.106908172340722D+04 0.433191255492927D+02 -.540767595125112D+03 0.921210938247915D+03
 0.204322317342698D+03 -.433393296522561D+01 -.370838433400547D+02 0.200882092164716D+03
 0.125338310461809D+04 0.000000000000000D+00 0.000000000000000D+00 0.125338310461809D+04
 0.125338310461809D+04 0.000000000000000D+00 0.000000000000000D+00 -.125338310461809D+04
 0.610019461019637D+03 0.288154915095918D+02 0.587032267110653D+03 -.105173797319843D+03
 0.819621499923521D+03 -.702794378017694D+02 -.303905969847090D+02 -.816037140928072D+03
 0.000000000000000D+00 -.000000000000000D+00 -.000000000000000D+00 0.000000000000000D+00
 0.107712524829303D+04 0.414639462921776D+02 -.556641670125944D+03 0.921210938247915D+03
 0.145612432483977D+04 0.000000000000000D+00 0.000000000000000D+00 0.145612432483977D+04
 0.125524223267505D+04 0.000000000000000D+00 0.000000000000000D+00 -.125524223267505D+04
 0.618821199784919D+03 0.298777002034803D+02 0.596121189600841D+03 -.105173797319843D+03
 0.819141316979977D+03 -.688628927875473D+02 -.182697511356745D+02 -.816037140928072D+03
 0.204322317342698D+03 -.433393296522561D+01 -.370838433400547D+02 0.200882092164716D+03
 0.106908172340722D+04 0.433191255492927D+02 -.540767595125112D+03 0.921210938247915D+03
0.910229240122D-04 0.000000000000D+00 0.000000000000D+00 0.125366069343D-04 0.000000000000D+00  6 -2 2 25 2 -2 21 0 0.19675169D+00 0.18898289D+00 0.38169983D+06 0.38169983D+06 0.38169983D+06 0.10768968D+01  1  2  2  1  6  1       -2 0.275975520426D-04 0.100000000000D+01
0.310932015541D-04 0.000000000000D+00 -.349551995093D-06 0.125366069343D-04 0.000000000000D+00  6 -2 2 25 2 -2 21 2 0.19675169D+00 0.18898289D+00 0.38169983D+06 0.38169983D+06 0.38169983D+06 0.10768968D+01  1  2  3  1  6  1       -2 0.109328510360D-04 0.100000000000D+01
-.547901996148D-04 0.000000000000D+00 0.000000000000D+00 0.125366069343D-04 0.000000000000D+00  6 -2 2 25 2 -2 21 2 0.19675169D+00 0.18898289D+00 0.38169983D+06 0.38169983D+06 0.38169983D+06 0.10768968D+01  1  2 15  1  6  1       -2 -.192650824194D-04 0.100000000000D+01
0.665570740752D-09 0.000000000000D+00 0.000000000000D+00 0.125366069343D-04 0.000000000000D+00  6 -2 2 25 2 -2 21 2 0.22870869D+00 0.18898289D+00 0.39746688D+06 0.39746688D+06 0.39746688D+06 0.10756266D+01  1  2 12  1  6  1       -2 0.142111426309D-09 0.100000000000D+01
0.711616815474D-02 0.000000000000D+00 0.000000000000D+00 0.125366069343D-04 0.000000000000D+00  6 -2 2 25 2 -2 21 2 0.23104649D+00 0.18898289D+00 0.39746688D+06 0.39746688D+06 0.39746688D+06 0.10756266D+01  1  2 12  1  6  1       -2 0.146667236201D-02 0.100000000000D+01
-.145592340721D-01 0.000000000000D+00 0.000000000000D+00 0.125366069343D-04 0.000000000000D+00  6 -2 2 25 2 -2 21 2 0.19675169D+00 0.18898289D+00 0.38169983D+06 0.38169983D+06 0.38169983D+06 0.10768968D+01  1  2  4  1  6  1       -2 -.511925209864D-02 0.100000000000D+01
-.791887048190D-02 0.000000000000D+00 -.149597487192D-03 0.125366069343D-04 0.000000000000D+00  6 -2 2 25 2 -2 21 2 0.22869992D+00 0.18898289D+00 0.38169983D+06 0.38169983D+06 0.38169983D+06 0.10768968D+01  1  2  5  1  6  1       -2 -.170011460132D-02 0.100000000000D+01
0.785398014855D-02 0.000000000000D+00 0.147919821437D-03 0.125366069343D-04 0.000000000000D+00  6 -2 2 25 2 -2 21 2 0.19675169D+00 0.18898289D+00 0.38169983D+06 0.38169983D+06 0.38169983D+06 0.10768968D+01  1  2  6  1  6  1       -2 0.276158101168D-02 0.100000000000D+01
0.152237938027D-10 0.000000000000D+00 0.000000000000D+00 0.125366069343D-04 0.000000000000D+00  6 21 2 25 2 2 -2 2 0.22870869D+00 0.18898289D+00 0.39746688D+06 0.39746688D+06 0.39746688D+06 0.10756266D+01  3  4 12  5  5  1       -2 0.245072254047D-10 0.100000000000D+01
0.171558262132D-03 0.000000000000D+00 0.000000000000D+00 0.125366069343D-04 0.000000000000D+00  6 21 2 25 2 2 -2 2 0.23104649D+00 0.18898289D+00 0.39746688D+06 0.39746688D+06 0.39746688D+06 0.10756266D+01  3  4 12  5  5  1       -2 0.265868825699D-03 0.100000000000D+01
-.180049189252D-03 0.000000000000D+00 -.342108169779D-05 0.125366069343D-04 0.000000000000D+00  6 21 2 25 2 2 -2 2 0.22869992D+00 0.18898289D+00 0.38169983D+06 0.38169983D+06 0.38169983D+06 0.10768968D+01  3  4  5  5  5  1       -2 -.291872188528D-03 0.100000000000D+01
  </mgrwgt>
  </event>
  <event>
  5     66 0.17405255E-05 0.63951128E+02 0.75467711E-02 0.89454144E-01
       -2 -1    0    0    0  501 0.00000000E+00 0.00000000E+00 0.26279842E+04 0.26279842E+04 0.32000000E+00 0.0000E+00 0.9000E+01
        2 -1    0    0  502    0 0.00000000E+00 0.00000000E+00 -.48362149E+03 0.48362160E+03 0.32000000E+00 0.0000E+00 0.9000E+01
       25  1    1    2    0    0 0.35032322E+03 -.57795590E+03 0.52363283E+03 0.86404613E+03 0.12500000E+03 0.0000E+00 0.9000E+01
        2  1    1    2  502    0 -.31644457E+03 0.52370418E+03 -.13543685E+02 0.61203493E+03 0.32000000E+00 0.0000E+00 0.9000E+01
       -2  1    1    2    0  501 -.33878649E+02 0.54251729E+02 0.16342736E+04 0.16355248E+04 0.32000000E+00 0.0000E+00 0.9000E+01
#aMCatNLO 1  0  0  5  4 0.95454136D+02 0.00000000D+00  -5  6  0 0.00000000D+00 0.00000000D+00 0.00000000D+00 0.00000000D+00 0.00000000D+00
  <mgrwgt>
 0.2413324361D-03    4    2    0
 0.112736411374740D+04 0.000000000000000D+00 0.000000000000000D+00 0.112736411374740D+04
 0.112736411374740D+04 -.000000000000000D+00 -.000000000000000D+00 -.112736411374740D+04
 0.694473165458326D+03 0.350362095301253D+03 -.578020375762670D+03 -.990294144232129D+02
 0.857559436207676D+03 -.316488689232551D+03 0.523777042688023D+03 -.600750119242334D+03
 0.702695625828788D+03 -.338734060687014D+02 0.542433330746471D+02 0.699779533665547D+03
 0.000000000000000D+00 0.000000000000000D+00 0.000000000000000D+00 0.000000000000000D+00
 0.112736411374740D+04 0.000000000000000D+00 0.000000000000000D+00 0.112736411374740D+04
 0.112736411374740D+04 -.000000000000000D+00 -.000000000000000D+00 -.112736411374740D+04
 0.686908005760742D+03 0.348584385997855D+03 -.575173632873616D+03 -.623043037330856D+02
 0.829792567326564D+03 -.318660154587145D+03 0.527254328622905D+03 -.555890532045039D+03
 0.164871413515704D+03 -.101556856509586D+03 -.108456609440518D+03 0.714559427845182D+02
 0.573156240891780D+03 0.716326250988762D+02 0.156375913691228D+03 0.546738892993606D+03
0.937474087515D-02 0.000000000000D+00 0.000000000000D+00 0.392752007966D-05 0.000000000000D+00  6 -2 2 25 2 -2 21 0 0.40430528D+00 0.74403316D-01 0.46464507D+06 0.46464507D+06 0.46464507D+06 0.10707686D+01  1  2  2  4  6  5       -2 0.388680029526D-03 0.100000000000D+01
0.386529143786D-02 0.000000000000D+00 -.360014733865D-04 0.392752007966D-05 0.000000000000D+00  6 -2 2 25 2 -2 21 2 0.40430528D+00 0.74403316D-01 0.46464507D+06 0.46464507D+06 0.46464507D+06 0.10707686D+01  1  2  3  4  6  5       -2 0.183741157553D-03 0.100000000000D+01
-.525260426646D-02 0.000000000000D+00 0.000000000000D+00 0.392752007966D-05 0.000000000000D+00  6 -2 2 25 2 -2 21 2 0.40430528D+00 0.74403316D-01 0.46464507D+06 0.46464507D+06 0.46464507D+06 0.10707686D+01  1  2 15  4  6  5       -2 -.249688698408D-03 0.100000000000D+01
-.171238132206D-02 0.000000000000D+00 0.000000000000D+00 0.392752007966D-05 0.000000000000D+00  6 -2 2 25 2 -2 21 2 0.40430528D+00 0.74403316D-01 0.46464507D+06 0.46464507D+06 0.46464507D+06 0.10707686D+01  1  2  5  4  6  5       -2 -.814000525823D-04 0.100000000000D+01
  </mgrwgt>
  </event>
  <event>
  5     66 -.17405255E-05 0.50999103E+02 0.75467711E-02 0.93405042E-01
       -2 -1    0    0    0  501 0.00000000E+00 0.00000000E+00 0.96461819E+03 0.96461824E+03 0.32000000E+00 0.0000E+00 0.9000E+01
        2 -1    0    0  502    0 -.00000000E+00 -.00000000E+00 -.20697230E+04 0.20697230E+04 0.32000000E+00 0.0000E+00 0.9000E+01
       25  1    1    2    0    0 0.26276201E+03 0.47882696E+03 0.21248434E+03 0.59924429E+03 0.12500000E+03 0.0000E+00 0.9000E+01
        2  1    1    2  502    0 -.26594746E+03 -.42791830E+03 -.18412601E+04 0.19089476E+04 0.32000000E+00 0.0000E+00 0.9000E+01
       -2  1    1    2    0  501 0.31854546E+01 -.50908657E+02 0.52367092E+03 0.52614938E+03 0.32000000E+00 0.0000E+00 0.9000E+01
#aMCatNLO 1  0  0  4  5 0.58611546D+01 0.00000000D+00  -5  6  0 0.00000000D+00 0.00000000D+00 0.00000000D+00 0.00000000D+00 0.00000000D+00
  <mgrwgt>
 -.3238574988D-03    1    2    0
 0.141297295527682D+04 0.000000000000000D+00 0.000000000000000D+00 0.141297295527682D+04
 0.141297295527682D+04 -.000000000000000D+00 -.000000000000000D+00 -.141297295527682D+04
 0.726648639987962D+03 0.262791209157434D+03 0.478865161995099D+03 0.462625316009983D+03
 0.132970041952001D+04 -.265976094395675D+03 -.427965604289740D+03 -.123053052153396D+04
 0.769596851045664D+03 0.318488523824017D+01 -.508995577053594D+02 0.767905205523976D+03
 0.000000000000000D+00 -.000000000000000D+00 0.000000000000000D+00 0.000000000000000D+00
 0.141297295527682D+04 0.000000000000000D+00 0.000000000000000D+00 0.141297295527682D+04
 0.141297295527682D+04 -.000000000000000D+00 -.000000000000000D+00 -.141297295527682D+04
 0.658013969257278D+03 0.246813179723380D+03 0.453155907794487D+03 0.388703436161178D+03
 0.594345109933819D+03 0.315737620238084D+03 0.955340532106646D+00 -.503542403570050D+03
 0.694294184160372D+03 -.137073843244654D+02 -.780798588811256D+02 0.689753620803111D+03
 0.879292647202167D+03 -.548843415636999D+03 -.376031389445469D+03 -.574914653394238D+03
-.114880282891D-02 0.000000000000D+00 0.000000000000D+00 0.640207063202D-04 0.000000000000D+00  6 -2 2 25 2 -2 21 2 0.14840280D+00 0.31841893D+00 0.31093749D+06 0.31093749D+06 0.31093749D+06 0.10834031D+01  1  2 14  3  6  4        2 -.323857498803D-03 0.100000000000D+01
  </mgrwgt>
  </event>
  <event>
  6     66 0.17405255E-05 0.73279106E+02 0.75467711E-02 0.91852734E-01
       21 -1    0    0  503  501 0.00000000E+00 0.00000000E+00 0.46824814E+03 0.46824874E+03 0.75000000E+00 0.0000E+00 0.9000E+01
        2 -1    0    0  502    0 0.00000000E+00 0.00000000E+00 -.89043548E+03 0.89043553E+03 0.32000000E+00 0.0000E+00 0.9000E+01
       25  1    1    2    0    0 0.46637865E+03 0.30113805E+03 -.19678799E+03 0.60211600E+03 0.12500000E+03 0.0000E+00 0.9000E+01
        2  1    1    2  502    0 -.49668152E+03 -.36245606E+03 -.19958933E+03 0.64645412E+03 0.32000000E+00 0.0000E+00 0.9000E+01
        2  1    1    2  503    0 0.23181364E+02 0.79679929E+02 -.76721845E+01 0.83338056E+02 0.32000000E+00 0.0000E+00 0.9000E+01
       -2  1    1    2    0  501 0.71215056E+01 -.18361923E+02 -.18137835E+02 0.26776100E+02 0.32000000E+00 0.0000E+00 0.9000E+01
#aMCatNLO 2  0  0  1  5 0.57872298D+01 0.00000000D+00  -5  6  0 0.00000000D+00 0.00000000D+00 0.00000000D+00 0.00000000D+00 0.00000000D+00
  <mgrwgt>
 0.1849683205D-02    1    2    0
 0.601622576527844D+03 0.000000000000000D+00 0.000000000000000D+00 0.601622576527844D+03
 0.601622576527844D+03 0.000000000000000D+00 0.000000000000000D+00 -.601622576527844D+03
 0.599458631682920D+03 0.477805445148697D+03 0.339744267426409D+03 -.120018178073929D+01
 0.583040809101611D+03 -.485232667738745D+03 -.323054381964932D+03 0.110322042338395D+02
 0.000000000000000D+00 0.000000000000000D+00 0.000000000000000D+00 0.000000000000000D+00
 0.207457122711569D+02 0.742722259004767D+01 -.166898854614778D+02 -.983202245310017D+01
 0.656058757009747D+03 0.000000000000000D+00 0.000000000000000D+00 0.656058757009747D+03
 0.635529683142706D+03 0.000000000000000D+00 0.000000000000000D+00 -.635529683142706D+03
 0.569179148452298D+03 0.466561485058330D+03 0.301096069812846D+03 -.120018178073929D+01
 0.615167030594943D+03 -.496761133922643D+03 -.362680495511727D+03 0.110322042338395D+02
 0.854851423225865D+02 0.231813640514104D+02 0.796799287448880D+02 0.205290738670411D+02
 0.217571187826263D+02 0.701828481290248D+01 -.180955030460064D+02 -.983202245310017D+01
0.253590420969D-04 0.000000000000D+00 0.000000000000D+00 0.182684798193D-08 0.839025595417D-11  6 21 2 25 2 2 -2 2 0.72038192D-01 0.13699006D+00 0.41385957D+06 0.41385957D+06 0.41385957D+06 0.10743628D+01  1  2  1  5  5  1       -2 0.184968320515D-02 0.100000000000D+01
  </mgrwgt>
  </event>
  <event>
  5     66 0.17405255E-05 0.70230182E+02 0.75467711E-02 0.92105290E-01
       -2 -1    0    0    0  501 0.00000000E+00 0.00000000E+00 0.55024831E+03 0.55024841E+03 0.32000000E+00 0.0000E+00 0.9000E+01
        2 -1    0    0  502    0 -.00000000E+00 -.00000000E+00 -.12973700E+04 0.12973701E+04 0.32000000E+00 0.0000E+00 0.9000E+01
       25  1    1    2    0    0 -.48397134E+03 -.10774141E+03 -.38543554E+03 0.64032962E+03 0.12500000E+03 0.0000E+00 0.9000E+01
        2  1    1    2  502    0 0.42297295E+03 0.14257161E+03 -.71728113E+03 0.84482253E+03 0.32000000E+00 0.0000E+00 0.9000E+01
       -2  1    1    2    0  501 0.60998389E+02 -.34830199E+02 0.35559497E+03 0.36246631E+03 0.32000000E+00 0.0000E+00 0.9000E+01
#aMCatNLO 1  0  0  5  5 0.29647971D+03 0.00000000D+00  -5  6  0 0.00000000D+00 0.00000000D+00 0.00000000D+00 0.00000000D+00 0.00000000D+00
  <mgrwgt>
 0.1661413463D-02    6    2    0
 0.844911703961574D+03 0.000000000000000D+00 0.000000000000000D+00 0.844911703961574D+03
 0.844911703961574D+03 -.000000000000000D+00 -.000000000000000D+00 -.844911703961574D+03
 0.529756569259831D+03 -.484037922042531D+03 -.107767119199276D+03 -.138240951668393D+03
 0.606627987041648D+03 0.423049842764643D+03 0.142591431165974D+03 -.410723786694966D+03
 0.553438851621669D+03 0.609880792778883D+02 -.348243119666972D+02 0.548964738363359D+03
 0.000000000000000D+00 0.000000000000000D+00 0.000000000000000D+00 0.000000000000000D+00
 0.844911703961574D+03 0.000000000000000D+00 0.000000000000000D+00 0.844911703961574D+03
 0.844911703961574D+03 -.000000000000000D+00 -.000000000000000D+00 -.844911703961574D+03
 0.520691697666394D+03 -.480945301566722D+03 -.109533011510026D+03 -.110403715105746D+03
 0.587723411329937D+03 0.426566127865217D+03 0.140583625529920D+03 -.379073068175829D+03
 0.407505007831893D+03 0.173328747679028D+03 0.783020513938131D+01 0.368722340689530D+03
 0.173903291094924D+03 -.118949573977523D+03 -.388808191592758D+02 0.120754442592045D+03
0.621062736894D-03 0.000000000000D+00 0.000000000000D+00 0.319057683692D-05 0.000000000000D+00  6 -2 2 25 2 -2 21 0 0.84653597D-01 0.19959540D+00 0.26422984D+06 0.26422984D+06 0.26422984D+06 0.10886550D+01  1  2  2  4  6  5       -2 0.163629788335D-02 0.100000000000D+01
0.187634378894D-03 0.000000000000D+00 -.238504443925D-05 0.319057683692D-05 0.000000000000D+00  6 -2 2 25 2 -2 21 2 0.84653597D-01 0.19959540D+00 0.26422984D+06 0.26422984D+06 0.26422984D+06 0.10886550D+01  1  2  3  4  6  5       -2 0.585895130318D-03 0.100000000000D+01
-.337139305548D-03 0.000000000000D+00 0.000000000000D+00 0.319057683692D-05 0.000000000000D+00  6 -2 2 25 2 -2 21 2 0.84653597D-01 0.19959540D+00 0.26422984D+06 0.26422984D+06 0.26422984D+06 0.10886550D+01  1  2 15  4  6  5       -2 -.105272966779D-02 0.100000000000D+01
-.331421494733D-04 0.000000000000D+00 0.000000000000D+00 0.319057683692D-05 0.000000000000D+00  6 -2 2 25 2 -2 21 2 0.84653597D-01 0.19959540D+00 0.26422984D+06 0.26422984D+06 0.26422984D+06 0.10886550D+01  1  2  4  4  6  5       -2 -.103487559685D-03 0.100000000000D+01
-.529289851013D-03 0.000000000000D+00 0.000000000000D+00 0.319057683692D-05 0.000000000000D+00  6 -2 2 25 2 -2 21 2 0.84653597D-01 0.19959540D+00 0.26422984D+06 0.26422984D+06 0.26422984D+06 0.10886550D+01  1  2  5  4  6  5       -2 -.165272669147D-02 0.100000000000D+01
0.719980254267D-03 0.000000000000D+00 -.000000000000D+00 0.319057683692D-05 0.000000000000D+00  6 -2 2 25 2 -2 21 2 0.84653597D-01 0.19959540D+00 0.26422984D+06 0.26422984D+06 0.26422984D+06 0.10886550D+01  1  2  6  4  6  5       -2 0.224816436832D-02 0.100000000000D+01
  </mgrwgt>
  </event>
  <event>
  5     66 0.17405255E-05 0.23225581E+02 0.75467711E-02 0.93459996E-01
       -2 -1    0    0    0  501 0.00000000E+00 0.00000000E+00 0.37933577E+03 0.37933591E+03 0.32000000E+00 0.0000E+00 0.9000E+01
        2 -1    0    0  502    0 0.00000000E+00 0.00000000E+00 -.21166258E+04 0.21166258E+04 0.32000000E+00 0.0000E+00 0.9000E+01
       25  1    1    2    0    0 0.10202384E+03 0.48640029E+03 -.22847832E+03 0.56108952E+03 0.12500000E+03 0.0000E+00 0.9000E+01
        2  1    1    2  502    0 -.72478512E+01 -.22061829E+02 -.14580659E+04 0.14582508E+04 0.32000000E+00 0.0000E+00 0.9000E+01
       -2  1    1    2    0  501 -.94775984E+02 -.46433846E+03 -.50745808E+02 0.47662137E+03 0.32000000E+00 0.0000E+00 0.9000E+01
#aMCatNLO 1  0  0  2  1 0.70626278D+02 0.00000000D+00  -5  6  0 0.00000000D+00 0.00000000D+00 0.00000000D+00 0.00000000D+00 0.00000000D+00
  <mgrwgt>
 0.1936430755D-02    7    2    0
 0.896053607143045D+03 0.000000000000000D+00 0.000000000000000D+00 0.896053607143045D+03
 0.896053607143045D+03 0.000000000000000D+00 0.000000000000000D+00 -.896053607143045D+03
 0.559970095227941D+03 0.102012024678973D+03 0.486340352718012D+03 0.225849763534536D+03
 0.617599209164098D+03 -.724899309500776D+01 -.220653512215982D+02 -.617162341312798D+03
 0.614537909894050D+03 -.947630315839657D+02 -.464275001496414D+03 0.391312577778263D+03
 0.000000000000000D+00 -.000000000000000D+00 -.000000000000000D+00 -.000000000000000D+00
 0.916892331857739D+03 0.000000000000000D+00 0.000000000000000D+00 0.916892331857739D+03
 0.101469748073558D+04 0.000000000000000D+00 0.000000000000000D+00 -.101469748073558D+04
 0.573473821998154D+03 0.131012882842669D+03 0.495050233166108D+03 0.225849763534536D+03
 0.617770844356933D+03 0.243597977391433D+02 -.125722256140619D+02 -.617162341312798D+03
 0.603422498293922D+03 -.635996925690982D+02 -.454915659243475D+03 0.391312577778263D+03
 0.136922647944306D+03 -.917729880127140D+02 -.275623483085704D+02 -.978051488778366D+02
0.212225623669D-03 0.000000000000D+00 0.000000000000D+00 0.839014559005D-05 0.000000000000D+00  6 -2 2 25 2 -2 21 0 0.58359362D-01 0.32563475D+00 0.25476118D+06 0.25476118D+06 0.25476118D+06 0.10898433D+01  1  2  2  2  6  2        2 0.446014381008D-03 0.100000000000D+01
0.154173632773D-03 0.000000000000D+00 -.815002275179D-06 0.839014559005D-05 0.000000000000D+00  6 -2 2 25 2 -2 21 2 0.58359362D-01 0.32563475D+00 0.25476118D+06 0.25476118D+06 0.25476118D+06 0.10898433D+01  1  2  3  2  6  2        2 0.384848006254D-03 0.100000000000D+01
-.125240188168D-03 0.000000000000D+00 0.000000000000D+00 0.839014559005D-05 0.000000000000D+00  6 -2 2 25 2 -2 21 2 0.58359362D-01 0.32563475D+00 0.25476118D+06 0.25476118D+06 0.25476118D+06 0.10898433D+01  1  2 15  2  6  2        2 -.312624382343D-03 0.100000000000D+01
-.191199528042D-04 0.000000000000D+00 0.000000000000D+00 0.839014559005D-05 0.000000000000D+00  6 -2 2 25 2 -2 21 2 0.58359362D-01 0.32563475D+00 0.25476118D+06 0.25476118D+06 0.25476118D+06 0.10898433D+01  1  2  4  2  6  2        2 -.477271994183D-04 0.100000000000D+01
-.174989003180D-02 0.000000000000D+00 -.323562395073D-03 0.839014559005D-05 0.000000000000D+00  6 -2 2 25 2 -2 21 2 0.58359362D-01 0.37162431D+00 0.25476118D+06 0.25476118D+06 0.25476118D+06 0.10898433D+01  1  2  5  2  6  2        2 -.296954642736D-02 0.100000000000D+01
0.177988386223D-02 0.000000000000D+00 0.320759330728D-03 0.839014559005D-05 0.000000000000D+00  6 -2 2 25 2 -2 21 2 0.58359362D-01 0.32563475D+00 0.25476118D+06 0.25476118D+06 0.25476118D+06 0.10898433D+01  1  2  6  2  6  2        2 0.444294360470D-02 0.100000000000D+01
-.341897887091D-04 0.000000000000D+00 -.665180622330D-05 0.839014559005D-05 0.000000000000D+00  6 -2 21 25 2 -2 -2 2 0.58359362D-01 0.37162431D+00 0.25476118D+06 0.25476118D+06 0.25476118D+06 0.10898433D+01  1  2  5  6  6  2        2 -.747722750307D-05 0.100000000000D+01
  </mgrwgt>
  </event>
  <event>
  5     66 -.17405255E-05 0.25913234E+02 0.75467711E-02 0.94202692E-01
       -2 -1    0    0    0  501 0.00000000E+00 0.00000000E+00 0.40470996E+03 0.40471009E+03 0.32000000E+00 0.0000E+00 0.9000E+01
        2 -1    0    0  502    0 0.00000000E+00 0.00000000E+00 -.10439370E+04 0.10439370E+04 0.32000000E+00 0.0000E+00 0.9000E+01
       25  1    1    2    0    0 0.29053072E+03 0.42065162E+03 -.39397251E+03 0.65741557E+03 0.12500000E+03 0.0000E+00 0.9000E+01
        2  1    1    2  502    0 -.19054643E+02 -.17558836E+02 -.30095015E+03 0.30206371E+03 0.32000000E+00 0.0000E+00 0.9000E+01
       -2  1    1    2    0  501 -.27147608E+03 -.40309279E+03 0.55695651E+02 0.48916783E+03 0.32000000E+00 0.0000E+00 0.9000E+01
#aMCatNLO 1  0  0  2  1 0.70626278D+02 0.00000000D+00  -5  6  0 0.00000000D+00 0.00000000D+00 0.00000000D+00 0.00000000D+00 0.00000000D+00
  <mgrwgt>
 -.3507850589D-03    1    2    0
 0.649993706005007D+03 0.000000000000000D+00 0.000000000000000D+00 0.649993706005007D+03
 0.649993706005007D+03 0.000000000000000D+00 0.000000000000000D+00 -.649993706005007D+03
 0.538861460931359D+03 0.290528291073548D+03 0.420647353656111D+03 -.115740183277342D+03
 0.188641104216806D+03 -.190560491969358D+02 -.175602593034226D+02 -.186852804320236D+03
 0.572484846861849D+03 -.271472241876612D+03 -.403087094352688D+03 0.302592987597578D+03
 0.000000000000000D+00 0.000000000000000D+00 -.000000000000000D+00 0.000000000000000D+00
 0.832330900234129D+03 0.000000000000000D+00 0.000000000000000D+00 0.832330900234129D+03
 0.730330982683067D+03 0.000000000000000D+00 0.000000000000000D+00 -.730330982683067D+03
 0.572023135046488D+03 0.232108736240715D+03 0.494282522009507D+03 -.115740183277342D+03
 0.191035588150369D+03 -.390226086656702D+02 0.760667276453716D+01 -.186852804320236D+03
 0.555676792650105D+03 -.330800367406837D+03 -.328306714323940D+03 0.302592987597578D+03
 0.243926367070234D+03 0.137714239831792D+03 -.173582480450104D+03 0.101999917551062D+03
-.408667141024D-04 0.000000000000D+00 0.000000000000D+00 0.109212088592D-05 0.000000000000D+00  6 -2 2 25 2 -2 21 2 0.62263084D-01 0.16060570D+00 0.26945341D+06 0.26945341D+06 0.26945341D+06 0.10880193D+01  1  2 14  2  6  2        2 -.350785058895D-03 0.100000000000D+01
  </mgrwgt>
  </event>
  <event>
  5     66 0.17405255E-05 0.21084307E+02 0.75467711E-02 0.90271665E-01
       -4 -1    0    0    0  501 0.00000000E+00 0.00000000E+00 0.11183776E+04 0.11183787E+04 0.15500000E+01 0.0000E+00 0.9000E+01
        4 -1    0    0  502    0 0.00000000E+00 0.00000000E+00 -.13610638E+04 0.13610646E+04 0.15500000E+01 0.0000E+00 0.9000E+01
       25  1    1    2    0    0 -.86334386E+02 -.56871719E+03 -.57410666E+03 0.82226293E+03 0.12500000E+03 0.0000E+00 0.9000E+01
        4  1    1    2  502    0 0.83718077E+02 0.54779000E+03 -.54691573E+03 0.77858963E+03 0.15500000E+01 0.0000E+00 0.9000E+01
       -4  1    1    2    0  501 0.26163093E+01 0.20927195E+02 0.87833621E+03 0.87859075E+03 0.15500000E+01 0.0000E+00 0.9000E+01
#aMCatNLO 1  0  0  2  1 0.70626278D+02 0.00000000D+00  -5  6  0 0.00000000D+00 0.00000000D+00 0.00000000D+00 0.00000000D+00 0.00000000D+00
  <mgrwgt>
 0.1577997822D-05    7    2    0
 0.123376887370545D+04 0.000000000000000D+00 0.000000000000000D+00 0.123376887370545D+04
 0.123376887370545D+04 0.000000000000000D+00 0.000000000000000D+00 -.123376887370545D+04
 0.769879400324853D+03 -.863781161061024D+02 -.569003725186514D+03 -.495845613902539D+03
 0.728710521328331D+03 0.837625262429140D+02 0.548082283991568D+03 -.472872787403335D+03
 0.968947825757721D+03 0.261558986318839D+01 0.209214411949456D+02 0.968718401305874D+03
 0.000000000000000D+00 0.000000000000000D+00 -.000000000000000D+00 -.000000000000000D+00
 0.125356576708622D+04 0.000000000000000D+00 0.000000000000000D+00 0.125356576708622D+04
 0.222226856944182D+04 0.000000000000000D+00 0.000000000000000D+00 -.222226856944182D+04
 0.721240449816312D+03 -.987615243446981D+02 -.498944961828419D+03 -.495845613902539D+03
 0.782261125346608D+03 0.712142533888255D+02 0.619073764002493D+03 -.472872787403335D+03
 0.975296330925721D+03 -.135309117781357D+02 0.112269793421997D+03 0.968718401305874D+03
 0.997036430439397D+03 0.410781827340084D+02 -.232398595596071D+03 -.968702802355593D+03
0.199378273404D-03 0.000000000000D+00 0.000000000000D+00 0.127761596116D-04 0.000000000000D+00  6 -4 4 25 4 -4 21 0 0.17205824D+00 0.20939458D+00 0.33899831D+06 0.33899831D+06 0.33899831D+06 0.10806468D+01  1  2  2  2  6  2        4 0.378929810823D-06 0.100000000000D+01
0.178052895095D-03 0.000000000000D+00 -.765665067376D-06 0.127761596116D-04 0.000000000000D+00  6 -4 4 25 4 -4 21 2 0.17205824D+00 0.20939458D+00 0.33899831D+06 0.33899831D+06 0.33899831D+06 0.10806468D+01  1  2  3  2  6  2        4 0.395182306471D-06 0.100000000000D+01
-.119642517735D-03 0.000000000000D+00 0.000000000000D+00 0.127761596116D-04 0.000000000000D+00  6 -4 4 25 4 -4 21 2 0.17205824D+00 0.20939458D+00 0.33899831D+06 0.33899831D+06 0.33899831D+06 0.10806468D+01  1  2 15  2  6  2        4 -.265542473124D-06 0.100000000000D+01
-.106779498023D-02 0.000000000000D+00 0.000000000000D+00 0.127761596116D-04 0.000000000000D+00  6 -4 4 25 4 -4 21 2 0.17205824D+00 0.20939458D+00 0.33899831D+06 0.33899831D+06 0.33899831D+06 0.10806468D+01  1  2  4  2  6  2        4 -.236993441134D-05 0.100000000000D+01
-.216422231172D-02 0.000000000000D+00 -.115494897050D-03 0.127761596116D-04 0.000000000000D+00  6 -4 4 25 4 -4 21 2 0.17205824D+00 0.37856968D+00 0.33899831D+06 0.33899831D+06 0.33899831D+06 0.10806468D+01  1  2  5  2  6  2        4 -.210198323969D-06 0.100000000000D+01
0.190617035028D-02 0.000000000000D+00 0.978336995176D-04 0.127761596116D-04 0.000000000000D+00  6 -4 4 25 4 -4 21 2 0.17205824D+00 0.20939458D+00 0.33899831D+06 0.33899831D+06 0.33899831D+06 0.10806468D+01  1  2  6  2  6  2        4 0.423067985022D-05 0.100000000000D+01
-.134244328694D-03 0.000000000000D+00 -.749385422726D-05 0.127761596116D-04 0.000000000000D+00  6 -4 21 25 4 -4 -4 2 0.17205824D+00 0.37856968D+00 0.33899831D+06 0.33899831D+06 0.33899831D+06 0.10806468D+01  1  2  5  6  6  2        4 -.581118936669D-06 0.100000000000D+01
  </mgrwgt>
  </event>
  <event>
  5     66 0.17405255E-05 0.45528231E+02 0.75467711E-02 0.95235177E-01
       -2 -1    0    0    0  501 0.00000000E+00 0.00000000E+00 0.10251211E+04 0.10251212E+04 0.32000000E+00 0.0000E+00 0.9000E+01
        2 -1    0    0  502    0 -.00000000E+00 -.00000000E+00 -.22260937E+04 0.22260938E+04 0.32000000E+00 0.0000E+00 0.9000E+01
       25  1    1    2    0    0 -.21517757E+02 0.45448228E+03 0.50847690E+03 0.69367926E+03 0.12500000E+03 0.0000E+00 0.9000E+01
        2  1    1    2  502    0 -.17017288E+02 -.43020907E+03 -.21104691E+04 0.21539381E+04 0.32000000E+00 0.0000E+00 0.9000E+01
       -2  1    1    2    0  501 0.38535045E+02 -.24273211E+02 0.40101963E+03 0.40359755E+03 0.32000000E+00 0.0000E+00 0.9000E+01
#aMCatNLO 1  0  0  4  5 0.39794211D+03 0.00000000D+00  -5  6  0 0.00000000D+00 0.00000000D+00 0.00000000D+00 0.00000000D+00 0.00000000D+00
  <mgrwgt>
 0.3380998771D-02    3    2    0
 0.151063425948862D+04 0.000000000000000D+00 0.000000000000000D+00 0.151063425948862D+04
 0.151063425948862D+04 -.000000000000000D+00 -.000000000000000D+00 -.151063425948862D+04
 0.948775735550739D+03 -.215043103530384D+02 0.454519475150057D+03 0.823103886344489D+03
 0.147895883853538D+04 -.170184837697716D+02 -.430253981262141D+03 -.141488908713728D+04
 0.593533944891120D+03 0.385227941228101D+02 -.242654938879149D+02 0.591785200792790D+03
 0.000000000000000D+00 0.000000000000000D+00 0.000000000000000D+00 0.000000000000000D+00
 0.151063425948862D+04 0.000000000000000D+00 0.000000000000000D+00 0.151063425948862D+04
 0.151063425948862D+04 -.000000000000000D+00 -.000000000000000D+00 -.151063425948862D+04
 0.597977301623399D+03 -.257527506706352D+02 0.347112235731505D+03 0.469895461666927D+03
 0.625168634999273D+03 0.112846257821448D+02 -.240439433642705D+03 0.576972580074119D+03
 0.381999846645219D+03 0.358433120131690D+02 -.920070072324497D+02 0.369017412110900D+03
 0.141612273570934D+04 -.213751871246787D+02 -.146657948563490D+02 -.141588545385195D+04
0.332499373884D-01 0.000000000000D+00 0.000000000000D+00 0.120968320889D-03 0.000000000000D+00  6 -2 2 25 2 -2 21 0 0.15771095D+00 0.34247597D+00 0.22467770D+06 0.22467770D+06 0.22467770D+06 0.10939655D+01  1  2  2  3  6  4        2 0.567360954267D-02 0.100000000000D+01
0.887708426605D-02 0.000000000000D+00 -.127688514481D-03 0.120968320889D-03 0.000000000000D+00  6 -2 2 25 2 -2 21 2 0.15771095D+00 0.34247597D+00 0.22467770D+06 0.22467770D+06 0.22467770D+06 0.10939655D+01  1  2  3  3  6  4        2 0.181278464745D-02 0.100000000000D+01
-.201038447309D-01 0.000000000000D+00 0.000000000000D+00 0.120968320889D-03 0.000000000000D+00  6 -2 2 25 2 -2 21 2 0.15771095D+00 0.34247597D+00 0.22467770D+06 0.22467770D+06 0.22467770D+06 0.10939655D+01  1  2 15  3  6  4        2 -.410539541933D-02 0.100000000000D+01
  </mgrwgt>
  </event>
  <event>
  5     66 0.17405255E-05 0.28069117E+02 0.75467711E-02 0.93068588E-01
       -2 -1    0    0    0  501 0.00000000E+00 0.00000000E+00 0.11456061E+04 0.11456061E+04 0.32000000E+00 0.0000E+00 0.9000E+01
        2 -1    0    0  502    0 -.00000000E+00 -.00000000E+00 -.22389585E+04 0.22389585E+04 0.32000000E+00 0.0000E+00 0.9000E+01
       25  1    1    2    0    0 0.18636818E+03 -.45217260E+03 0.82018275E+03 0.96307731E+03 0.12500000E+03 0.0000E+00 0.9000E+01
        2  1    1    2  502    0 -.16441907E+03 0.46970492E+03 -.21380597E+04 0.21952120E+04 0.32000000E+00 0.0000E+00 0.9000E+01
       -2  1    1    2    0  501 -.21949111E+02 -.17532321E+02 0.22452457E+03 0.22627534E+03 0.32000000E+00 0.0000E+00 0.9000E+01
#aMCatNLO 1  0  0  5  1 0.10069827D+02 0.00000000D+00  -5  6  0 0.00000000D+00 0.00000000D+00 0.00000000D+00 0.00000000D+00 0.00000000D+00
  <mgrwgt>
 0.2354370512D-02    6    2    0
 0.160155068779209D+04 0.000000000000000D+00 0.000000000000000D+00 0.160155068779209D+04
 0.160155068779209D+04 -.000000000000000D+00 -.000000000000000D+00 -.160155068779209D+04
 0.129784730248320D+04 0.186367447555114D+03 -.452232869728727D+03 0.119563172699273D+04
 0.158977448493049D+04 -.164436011349540D+03 0.469751072664807D+03 -.150986013949561D+04
 0.315479588170502D+03 -.219314362055745D+02 -.175182029360804D+02 0.314228412502881D+03
 0.000000000000000D+00 0.000000000000000D+00 0.000000000000000D+00 0.000000000000000D+00
 0.160155068779209D+04 0.000000000000000D+00 0.000000000000000D+00 0.160155068779209D+04
 0.160155068779209D+04 -.000000000000000D+00 -.000000000000000D+00 -.160155068779209D+04
 0.131116152601602D+04 0.185369765292456D+03 -.453029789737939D+03 0.120992628165111D+04
 0.157316416901970D+04 -.165645515801365D+03 0.468784955159298D+03 -.149253064678708D+04
 0.170724830999101D+03 -.723687064598975D+02 0.294048709024216D+02 0.151806099390653D+03
 0.148050849549361D+03 0.526444569688064D+02 -.451600363237809D+02 0.130798265745314D+03
0.110304112302D-01 0.000000000000D+00 0.000000000000D+00 0.551256384452D-04 0.000000000000D+00  6 -2 2 25 2 -2 21 0 0.17624710D+00 0.34445515D+00 0.26554336D+06 0.26554336D+06 0.26554336D+06 0.10884939D+01  1  2  2  4  6  5       -2 0.132654939704D-02 0.100000000000D+01
0.281944584491D-02 0.000000000000D+00 -.423596834978D-04 0.551256384452D-04 0.000000000000D+00  6 -2 2 25 2 -2 21 2 0.17624710D+00 0.34445515D+00 0.26554336D+06 0.26554336D+06 0.26554336D+06 0.10884939D+01  1  2  3  4  6  5       -2 0.401742216973D-03 0.100000000000D+01
-.618777731114D-02 0.000000000000D+00 0.000000000000D+00 0.551256384452D-04 0.000000000000D+00  6 -2 2 25 2 -2 21 2 0.17624710D+00 0.34445515D+00 0.26554336D+06 0.26554336D+06 0.26554336D+06 0.10884939D+01  1  2 15  4  6  5       -2 -.881695025142D-03 0.100000000000D+01
-.304625382275D-03 0.000000000000D+00 0.000000000000D+00 0.551256384452D-04 0.000000000000D+00  6 -2 2 25 2 -2 21 2 0.17624710D+00 0.34445515D+00 0.26554336D+06 0.26554336D+06 0.26554336D+06 0.10884939D+01  1  2  4  4  6  5       -2 -.434060035742D-04 0.100000000000D+01
-.876069319121D-02 0.000000000000D+00 0.000000000000D+00 0.551256384452D-04 0.000000000000D+00  6 -2 2 25 2 -2 21 2 0.17624710D+00 0.34445515D+00 0.26554336D+06 0.26554336D+06 0.26554336D+06 0.10884939D+01  1  2  5  4  6  5       -2 -.124830924176D-02 0.100000000000D+01
0.196469471502D-01 0.000000000000D+00 -.000000000000D+00 0.551256384452D-04 0.000000000000D+00  6 -2 2 25 2 -2 21 2 0.17624710D+00 0.34445515D+00 0.26554336D+06 0.26554336D+06 0.26554336D+06 0.10884939D+01  1  2  6  4  6  5       -2 0.279948916882D-02 0.100000000000D+01
  </mgrwgt>
  </event>
  <event>
  5     66 -.17405255E-05 0.27939087E+02 0.75467711E-02 0.95162948E-01
       -2 -1    0    0    0  501 0.00000000E+00 0.00000000E+00 0.19674733E+04 0.19674734E+04 0.32000000E+00 0.0000E+00 0.9000E+01
        2 -1    0    0  502    0 0.00000000E+00 0.00000000E+00 -.74711341E+03 0.74711347E+03 0.32000000E+00 0.0000E+00 0.9000E+01
       25  1    1    2    0    0 0.46744473E+03 -.17091810E+02 0.69124034E+03 0.84394011E+03 0.12500000E+03 0.0000E+00 0.9000E+01
        2  1    1    2  502    0 -.44099908E+03 0.26119801E+02 -.59783261E+03 0.74334808E+03 0.32000000E+00 0.0000E+00 0.9000E+01
       -2  1    1    2    0  501 -.26445651E+02 -.90279906E+01 0.11269522E+04 0.11272986E+04 0.32000000E+00 0.0000E+00 0.9000E+01
#aMCatNLO 1  0  0  2  5 0.13575965D+01 0.00000000D+00  -5  6  0 0.00000000D+00 0.00000000D+00 0.00000000D+00 0.00000000D+00 0.00000000D+00
  <mgrwgt>
 -.7108253069D-03    1    2    0
 0.121240497629669D+04 0.000000000000000D+00 0.000000000000000D+00 0.121240497629669D+04
 0.121240497629669D+04 0.000000000000000D+00 0.000000000000000D+00 -.121240497629669D+04
 0.597017631427474D+03 0.467495259287162D+03 -.170964534419018D+02 0.349229073902804D+03
 0.113307577585912D+04 -.441054426377299D+03 0.261227991677881D+02 -.104338358534883D+04
 0.694716545306792D+03 -.264408329098622D+02 -.902634572588633D+01 0.694154511446027D+03
 0.000000000000000D+00 0.000000000000000D+00 -.000000000000000D+00 0.000000000000000D+00
 0.130478867260617D+04 0.000000000000000D+00 0.000000000000000D+00 0.130478867260617D+04
 0.129384085847673D+04 0.000000000000000D+00 0.000000000000000D+00 -.129384085847673D+04
 0.574172882279025D+03 0.438147631331862D+03 0.107333985238612D+02 0.349229073902804D+03
 0.115915463543856D+04 -.498493010887083D+03 0.805908231752137D+02 -.104338358534883D+04
 0.697272677554123D+03 -.613212228653992D+02 0.240501294989333D+02 0.694154511446027D+03
 0.168029335811195D+03 0.121666602420619D+03 -.115374351198008D+03 0.109478141294421D+02
-.458783718873D-02 0.000000000000D+00 0.000000000000D+00 0.108296432645D-03 0.000000000000D+00  6 -2 2 25 2 -2 21 2 0.30268821D+00 0.11494053D+00 0.22752258D+06 0.22752258D+06 0.22752258D+06 0.10935506D+01  1  2 14  2  6  2        2 -.710825306944D-03 0.100000000000D+01
  </mgrwgt>
  </event>
  <event>
  5     66 0.17405255E-05 0.74107009E+02 0.75467711E-02 0.93883246E-01
       -2 -1    0    0    0  501 0.00000000E+00 0.00000000E+00 0.20427733E+04 0.20427733E+04 0.32000000E+00 0.0000E+00 0.9000E+01
        2 -1    0    0  502    0 0.00000000E+00 0.00000000E+00 -.78808335E+03 0.78808342E+03 0.32000000E+00 0.0000E+00 0.9000E+01
       25  1    1    2    0    0 0.19650725E+03 -.43446491E+03 -.15322025E+02 0.49318822E+03 0.12500000E+03 0.0000E+00 0.9000E+01
        2  1    1    2  502    0 -.58068593E+02 -.46036778E+02 -.49636994E+03 0.50187106E+03 0.32000000E+00 0.0000E+00 0.9000E+01
       -2  1    1    2    0  501 -.13843866E+03 0.48050169E+03 0.17663819E+04 0.18357975E+04 0.32000000E+00 0.0000E+00 0.9000E+01
#aMCatNLO 1  0  0  2  4 0.12067900D+01 0.00000000D+00  -5  6  0 0.00000000D+00 0.00000000D+00 0.00000000D+00 0.00000000D+00 0.00000000D+00
  <mgrwgt>
 0.3855511243D-02   13    2    0
 0.126880879648476D+04 0.000000000000000D+00 0.000000000000000D+00 0.126880879648476D+04
 0.126880879648476D+04 0.000000000000000D+00 0.000000000000000D+00 -.126880879648476D+04
 0.557734911246626D+03 0.196509156025262D+03 -.434459669674041D+03 -.260906454976195D+03
 0.805317757701991D+03 -.580714821304740D+02 -.460385899633018D+02 -.801900768217317D+03
 0.117456492402090D+04 -.138437673894788D+03 0.480498259637342D+03 0.106280722319351D+04
 0.000000000000000D+00 -.000000000000000D+00 0.000000000000000D+00 -.000000000000000D+00
 0.126881172062848D+04 0.000000000000000D+00 0.000000000000000D+00 0.126881172062848D+04
 0.139974348614398D+04 0.000000000000000D+00 0.000000000000000D+00 -.139974348614398D+04
 0.557946781352184D+03 0.196524943711348D+03 -.434724486396003D+03 -.260906454976195D+03
 0.805338060579179D+03 -.580486902099646D+02 -.464208930850943D+02 -.801900768217317D+03
 0.117433303798882D+04 -.138404435325115D+03 0.479940728342663D+03 0.106280722319351D+04
 0.130937326852284D+03 -.718181762680464D-01 0.120465113843411D+01 -.130931765515501D+03
0.448817385431D-04 0.000000000000D+00 0.000000000000D+00 0.275254815005D-04 0.000000000000D+00  6 -2 2 25 2 -2 21 0 0.31427282D+00 0.12124360D+00 0.28467393D+06 0.28467393D+06 0.28467393D+06 0.10862408D+01  1  2  2  2  6  2        2 0.449780633145D-05 0.100000000000D+01
0.133932932572D-04 0.000000000000D+00 -.172357693639D-06 0.275254815005D-04 0.000000000000D+00  6 -2 2 25 2 -2 21 2 0.31427282D+00 0.12124360D+00 0.28467393D+06 0.28467393D+06 0.28467393D+06 0.10862408D+01  1  2  3  2  6  2        2 0.158369179987D-05 0.100000000000D+01
-.269416318362D-04 0.000000000000D+00 0.000000000000D+00 0.275254815005D-04 0.000000000000D+00  6 -2 2 25 2 -2 21 2 0.31427282D+00 0.12124360D+00 0.28467393D+06 0.28467393D+06 0.28467393D+06 0.10862408D+01  1  2 15  2  6  2        2 -.318571695511D-05 0.100000000000D+01
0.351770957790D-11 0.000000000000D+00 0.000000000000D+00 0.275254815005D-04 0.000000000000D+00  6 -2 2 25 2 -2 21 2 0.31427282D+00 0.13375546D+00 0.28527282D+06 0.28527282D+06 0.28527282D+06 0.10861729D+01  1  2 12  2  6  2        2 0.365872949280D-12 0.100000000000D+01
0.104264523766D-03 0.000000000000D+00 0.000000000000D+00 0.275254815005D-04 0.000000000000D+00  6 -2 2 25 2 -2 21 2 0.31427282D+00 0.13386407D+00 0.28527282D+06 0.28527282D+06 0.28527282D+06 0.10861729D+01  1  2 12  2  6  2        2 0.108327191027D-04 0.100000000000D+01
-.220170484066D+01 0.000000000000D+00 0.000000000000D+00 0.275254815005D-04 0.000000000000D+00  6 -2 2 25 2 -2 21 2 0.31427282D+00 0.12124360D+00 0.28467393D+06 0.28467393D+06 0.28467393D+06 0.10862408D+01  1  2  4  2  6  2        2 -.260340891141D+00 0.100000000000D+01
-.250806833021D+01 0.000000000000D+00 -.117506131504D-03 0.275254815005D-04 0.000000000000D+00  6 -2 2 25 2 -2 21 2 0.31427282D+00 0.13375546D+00 0.28467393D+06 0.28467393D+06 0.28467393D+06 0.10862408D+01  1  2  5  2  6  2        2 -.260938565822D+00 0.100000000000D+01
0.249603302914D+01 0.000000000000D+00 0.116941698223D-03 0.275254815005D-04 0.000000000000D+00  6 -2 2 25 2 -2 21 2 0.31427282D+00 0.12124360D+00 0.28467393D+06 0.28467393D+06 0.28467393D+06 0.10862408D+01  1  2  6  2  6  2        2 0.295143768194D+00 0.100000000000D+01
0.221128155668D+01 0.000000000000D+00 0.000000000000D+00 0.275254815005D-04 0.105570883296D-03  6 -2 2 25 2 -2 21 2 0.31427355D+00 0.13375533D+00 0.28527282D+06 0.28527282D+06 0.28527282D+06 0.10861729D+01  1  2 11  2  6  2        2 0.229990677738D+00 0.100000000000D+01
0.565193445644D-13 0.000000000000D+00 0.000000000000D+00 0.275254815005D-04 0.000000000000D+00  6 -2 21 25 2 -2 -2 2 0.31427282D+00 0.13375546D+00 0.28527282D+06 0.28527282D+06 0.28527282D+06 0.10861729D+01  1  2 12  6  6  2        2 0.509979203705D-14 0.100000000000D+01
0.167522713689D-05 0.000000000000D+00 0.000000000000D+00 0.275254815005D-04 0.000000000000D+00  6 -2 21 25 2 -2 -2 2 0.31427282D+00 0.13386407D+00 0.28527282D+06 0.28527282D+06 0.28527282D+06 0.10861729D+01  1  2 12  6  6  2        2 0.150808554326D-06 0.100000000000D+01
-.401054726817D-01 0.000000000000D+00 -.187900863280D-05 0.275254815005D-04 0.000000000000D+00  6 -2 21 25 2 -2 -2 2 0.31427282D+00 0.13375546D+00 0.28467393D+06 0.28467393D+06 0.28467393D+06 0.10862408D+01  1  2  5  6  6  2        2 -.362015606162D-02 0.100000000000D+01
0.399733069709D-01 0.000000000000D+00 0.000000000000D+00 0.275254815005D-04 0.952447672240D-06  6 -2 21 25 2 -2 -2 2 0.31427355D+00 0.13375533D+00 0.28527282D+06 0.28527282D+06 0.28527282D+06 0.10861729D+01  1  2 11  6  6  2        2 0.360679902662D-02 0.100000000000D+01
  </mgrwgt>
  </event>
  <event>
  6     66 -.17405255E-05 0.16262799E+03 0.75467711E-02 0.95117095E-01
       -2 -1    0    0    0  501 0.00000000E+00 0.00000000E+00 0.18987318E+03 0.18987345E+03 0.32000000E+00 0.0000E+00 0.9000E+01
        2 -1    0    0  502    0 -.00000000E+00 -.00000000E+00 -.36034773E+04 0.36034773E+04 0.32000000E+00 0.0000E+00 0.9000E+01
       25  1    1    2    0    0 0.13891906E+03 0.43332783E+03 -.58789218E+03 0.75386585E+03 0.12500000E+03 0.0000E+00 0.9000E+01
        2  1    1    2  502    0 -.29022248E+02 -.17173934E+03 -.26916606E+04 0.26972900E+04 0.32000000E+00 0.0000E+00 0.9000E+01
       -2  1    1    2    0  503 -.90230754E+02 -.27413767E+03 -.13545426E+03 0.31881188E+03 0.32000000E+00 0.0000E+00 0.9000E+01
       21  1    1    2  503  501 -.19666061E+02 0.12549182E+02 0.14028770E+01 0.23383038E+02 0.75000000E+00 0.0000E+00 0.9000E+01
#aMCatNLO 2  0  0  5  1 0.40292129D+02 0.00000000D+00  -5  6  0 0.00000000D+00 0.00000000D+00 0.00000000D+00 0.00000000D+00 0.00000000D+00
  <mgrwgt>
 -.4027899121D-03    4    2    0
 0.827166394238482D+03 0.000000000000000D+00 0.000000000000000D+00 0.827166394238482D+03
 0.827166394238482D+03 -.000000000000000D+00 -.000000000000000D+00 -.827166394238482D+03
 0.516748103288471D+03 0.140166702313328D+03 0.436362993828778D+03 0.203332819366735D+03
 0.635574979183533D+03 -.274313567498635D+02 -.168017920688055D+03 -.612350433296713D+03
 0.502009706004960D+03 -.112735345563465D+03 -.268345073140722D+03 0.409017613929978D+03
 0.000000000000000D+00 0.000000000000000D+00 0.000000000000000D+00 0.000000000000000D+00
 0.827166394238482D+03 0.000000000000000D+00 0.000000000000000D+00 0.827166394238482D+03
 0.827166394238482D+03 -.000000000000000D+00 -.000000000000000D+00 -.827166394238482D+03
 0.515656530979734D+03 0.138850422259750D+03 0.433229839222425D+03 0.208108444296850D+03
 0.631040424511720D+03 -.290462474003886D+02 -.171861861091693D+03 -.606491412620152D+03
 0.451097245752283D+03 -.901269669348797D+02 -.273924614922784D+03 0.346887820910189D+03
 0.565385872332256D+02 -.196772079244822D+02 0.125566367920519D+02 0.514951474131131D+02
-.753483950416D-08 0.000000000000D+00 0.000000000000D+00 0.154878648721D-05 0.000000000000D+00  6 -2 2 25 2 -2 21 2 0.29211281D-01 0.55438115D+00 0.22934955D+06 0.22934955D+06 0.22934955D+06 0.10932871D+01  1  2 13  4  6  5       -2 -.842881909229D-08 0.100000000000D+01
-.812948633910D-03 0.000000000000D+00 0.000000000000D+00 0.154878648721D-05 0.000000000000D+00  6 -2 2 25 2 -2 21 2 0.29211281D-01 0.55438115D+00 0.22934955D+06 0.22934955D+06 0.22934955D+06 0.10932871D+01  1  2 13  4  6  5       -2 -.909401847614D-03 0.100000000000D+01
-.126221147493D-03 0.000000000000D+00 0.000000000000D+00 0.154878648721D-05 0.000000000000D+00  6 -2 2 25 2 -2 21 2 0.29211281D-01 0.55438115D+00 0.21919678D+06 0.21919678D+06 0.21919678D+06 0.10947813D+01  1  2  8  4  6  5       -2 -.142071789920D-03 0.100000000000D+01
0.579890399396D-03 0.000000000000D+00 0.000000000000D+00 0.154878648721D-05 0.713063110151D-08  6 -2 2 25 2 -2 21 2 0.29211281D-01 0.55438115D+00 0.22934955D+06 0.22934955D+06 0.22934955D+06 0.10932871D+01  1  2  1  4  6  5       -2 0.648692154248D-03 0.100000000000D+01
  </mgrwgt>
  </event>
  <event>
  5     66 0.17405255E-05 0.54064664E+02 0.75467711E-02 0.92863665E-01
       -2 -1    0    0    0  501 0.00000000E+00 0.00000000E+00 0.52380423E+03 0.52380433E+03 0.32000000E+00 0.0000E+00 0.9000E+01
        2 -1    0    0  502    0 -.00000000E+00 -.00000000E+00 -.88777897E+03 0.88777902E+03 0.32000000E+00 0.0000E+00 0.9000E+01
       25  1    1    2    0    0 -.10041662E+03 0.45476564E+03 -.16419220E+03 0.50939117E+03 0.12500000E+03 0.0000E+00 0.9000E+01
        2  1    1    2  502    0 -.14102010E+01 0.54043506E+02 -.35616209E+03 0.36024190E+03 0.32000000E+00 0.0000E+00 0.9000E+01
       -2  1    1    2    0  501 0.10182682E+03 -.50880914E+03 0.15637956E+03 0.54195029E+03 0.32000000E+00 0.0000E+00 0.9000E+01
#aMCatNLO 1  0  0  4  2 0.46637948D+02 0.00000000D+00  -5  6  0 0.00000000D+00 0.00000000D+00 0.00000000D+00 0.00000000D+00 0.00000000D+00
  <mgrwgt>
 0.2361598911D-02    6    2    0
 0.681925576149804D+03 0.000000000000000D+00 0.000000000000000D+00 0.681925576149804D+03
 0.681925576149804D+03 -.000000000000000D+00 -.000000000000000D+00 -.681925576149804D+03
 0.483389030355203D+03 -.100415209319914D+03 0.454755625045009D+03 -.339714864983056D+02
 0.277819824503313D+03 -.141015690388049D+01 0.540462704436302D+02 -.272508471420050D+03
 0.602642297441093D+03 0.101825366223794D+03 -.508801895488639D+03 0.306479957918356D+03
 0.000000000000000D+00 -.000000000000000D+00 0.000000000000000D+00 0.000000000000000D+00
 0.681925576149804D+03 0.000000000000000D+00 0.000000000000000D+00 0.681925576149804D+03
 0.681925576149804D+03 -.000000000000000D+00 -.000000000000000D+00 -.681925576149804D+03
 0.489090460488326D+03 -.100521216086096D+03 0.458818485240355D+03 -.544569670382080D+02
 0.140208687892541D+03 0.156484262591903D+02 -.616331446004802D+02 -.124959827155830D+03
 0.586004804132100D+03 0.101695795742816D+03 -.503835922385075D+03 0.281440862186920D+03
 0.148547199786642D+03 -.168230059159095D+02 0.106650581745200D+03 -.102024067992881D+03
0.508909367540D-03 0.000000000000D+00 0.000000000000D+00 0.680967260128D-06 0.000000000000D+00  6 -2 2 25 2 -2 21 0 0.80585279D-01 0.13658139D+00 0.27833507D+06 0.27833507D+06 0.27833507D+06 0.10869686D+01  1  2  2  3  6  4        2 0.264089071018D-02 0.100000000000D+01
0.140667350059D-03 0.000000000000D+00 -.195434597027D-05 0.680967260128D-06 0.000000000000D+00  6 -2 2 25 2 -2 21 2 0.80585279D-01 0.13658139D+00 0.27833507D+06 0.27833507D+06 0.27833507D+06 0.10869686D+01  1  2  3  3  6  4        2 0.862456595303D-03 0.100000000000D+01
-.317524809288D-03 0.000000000000D+00 0.000000000000D+00 0.680967260128D-06 0.000000000000D+00  6 -2 2 25 2 -2 21 2 0.80585279D-01 0.13658139D+00 0.27833507D+06 0.27833507D+06 0.27833507D+06 0.10869686D+01  1  2 15  3  6  4        2 -.194680120033D-02 0.100000000000D+01
-.566468750277D-04 0.000000000000D+00 0.000000000000D+00 0.680967260128D-06 0.000000000000D+00  6 -2 2 25 2 -2 21 2 0.80585279D-01 0.13658139D+00 0.27833507D+06 0.27833507D+06 0.27833507D+06 0.10869686D+01  1  2  4  3  6  4        2 -.347312087349D-03 0.100000000000D+01
-.228076823656D-03 0.000000000000D+00 0.000000000000D+00 0.680967260128D-06 0.000000000000D+00  6 -2 2 25 2 -2 21 2 0.80585279D-01 0.13658139D+00 0.27833507D+06 0.27833507D+06 0.27833507D+06 0.10869686D+01  1  2  5  3  6  4        2 -.139837965751D-02 0.100000000000D+01
0.416028445528D-03 0.000000000000D+00 -.000000000000D+00 0.680967260128D-06 0.000000000000D+00  6 -2 2 25 2 -2 21 2 0.80585279D-01 0.13658139D+00 0.27833507D+06 0.27833507D+06 0.27833507D+06 0.10869686D+01  1  2  6  3  6  4        2 0.255074455108D-02 0.100000000000D+01
  </mgrwgt>
  </event>
  <event>
  5     66 -.17405255E-05 0.28715289E+02 0.75467711E-02 0.90217615E-01
       -2 -1    0    0    0  501 0.00000000E+00 0.00000000E+00 0.15532876E+04 0.15532877E+04 0.32000000E+00 0.0000E+00 0.9000E+01
        2 -1    0    0  502    0 0.00000000E+00 0.00000000E+00 -.53850444E+03 0.53850454E+03 0.32000000E+00 0.0000E+00 0.9000E+01
       25  1    1    2    0    0 -.53812268E+03 0.43472464E+03 0.77051919E+03 0.10430179E+04 0.12500000E+03 0.0000E+00 0.9000E+01
        2  1    1    2  502    0 0.51360634E+03 -.41971486E+03 -.12789494E+03 0.67550666E+03 0.32000000E+00 0.0000E+00 0.9000E+01
       -2  1    1    2    0  501 0.24516345E+02 -.15009783E+02 0.37215895E+03 0.37326764E+03 0.32000000E+00 0.0000E+00 0.9000E+01
#aMCatNLO 1  0  0  2  4 0.12512648D+03 0.00000000D+00  -5  6  0 0.00000000D+00 0.00000000D+00 0.00000000D+00 0.00000000D+00 0.00000000D+00
  <mgrwgt>
 -.1336261297D-03    7    2    0
 0.914577732386639D+03 0.000000000000000D+00 0.000000000000000D+00 0.914577732386639D+03
 0.914577732386639D+03 0.000000000000000D+00 0.000000000000000D+00 -.914577732386639D+03
 0.765470180125806D+03 -.538192281396900D+03 0.434785471131689D+03 0.302704904154904D+03
 0.843527072284633D+03 0.513702309690581D+03 -.419791834856926D+03 -.520982412450845D+03
 0.220158212362839D+03 0.244899717063190D+02 -.149936362747636D+02 0.218277508295941D+03
 0.000000000000000D+00 0.000000000000000D+00 -.000000000000000D+00 -.000000000000000D+00
 0.929116464894693D+03 0.000000000000000D+00 0.000000000000000D+00 0.929116464894693D+03
 0.123233853468731D+04 0.000000000000000D+00 0.000000000000000D+00 -.123233853468731D+04
 0.813818184274999D+03 -.573389271820184D+03 0.475677959357743D+03 0.302704904154904D+03
 0.800809546177661D+03 0.477055613927308D+03 -.377215053234369D+03 -.520982412450845D+03
 0.218802483789922D+03 0.147070240401728D+02 -.362763402732890D+01 0.218277508295941D+03
 0.328024785339416D+03 0.816266338527029D+02 -.948352720960452D+02 -.303222069792612D+03
0.196437180897D-04 0.000000000000D+00 0.000000000000D+00 0.116338762176D-05 0.000000000000D+00  6 -2 2 25 2 -2 21 0 0.23896734D+00 0.82846847D-01 0.48664718D+06 0.48664718D+06 0.48664718D+06 0.10693422D+01  1  2  2  2  6  2        2 0.921075052915D-05 0.100000000000D+01
0.886807577320D-05 0.000000000000D+00 -.754370497742D-07 0.116338762176D-05 0.000000000000D+00  6 -2 2 25 2 -2 21 2 0.23896734D+00 0.82846847D-01 0.48664718D+06 0.48664718D+06 0.48664718D+06 0.10693422D+01  1  2  3  2  6  2        2 0.475482080498D-05 0.100000000000D+01
-.116846035068D-04 0.000000000000D+00 0.000000000000D+00 0.116338762176D-05 0.000000000000D+00  6 -2 2 25 2 -2 21 2 0.23896734D+00 0.82846847D-01 0.48664718D+06 0.48664718D+06 0.48664718D+06 0.10693422D+01  1  2 15  2  6  2        2 -.626496629853D-05 0.100000000000D+01
-.322141945938D-03 0.000000000000D+00 0.000000000000D+00 0.116338762176D-05 0.000000000000D+00  6 -2 2 25 2 -2 21 2 0.23896734D+00 0.82846847D-01 0.48664718D+06 0.48664718D+06 0.48664718D+06 0.10693422D+01  1  2  4  2  6  2        2 -.172723741415D-03 0.100000000000D+01
-.222238112007D-03 0.000000000000D+00 -.198798608904D-04 0.116338762176D-05 0.000000000000D+00  6 -2 2 25 2 -2 21 2 0.23896734D+00 0.11243716D+00 0.48664718D+06 0.48664718D+06 0.48664718D+06 0.10693422D+01  1  2  5  2  6  2        2 -.826134986276D-04 0.100000000000D+01
0.218913240846D-03 0.000000000000D+00 0.189874791464D-04 0.116338762176D-05 0.000000000000D+00  6 -2 2 25 2 -2 21 2 0.23896734D+00 0.82846847D-01 0.48664718D+06 0.48664718D+06 0.48664718D+06 0.10693422D+01  1  2  6  2  6  2        2 0.117375320045D-03 0.100000000000D+01
-.824387190815D-05 0.000000000000D+00 -.778426806493D-06 0.116338762176D-05 0.000000000000D+00  6 -2 21 25 2 -2 -2 2 0.23896734D+00 0.11243716D+00 0.48664718D+06 0.48664718D+06 0.48664718D+06 0.10693422D+01  1  2  5  6  6  2        2 -.336481478465D-05 0.100000000000D+01
  </mgrwgt>
  </event>
  <event>
  5     66 0.17405255E-05 0.11846674E+03 0.75467711E-02 0.91242518E-01
       -2 -1    0    0    0  501 0.00000000E+00 0.00000000E+00 0.22692970E+03 0.22692993E+03 0.32000000E+00 0.0000E+00 0.9000E+01
        2 -1    0    0  502    0 0.00000000E+00 0.00000000E+00 -.23791287E+04 0.23791287E+04 0.32000000E+00 0.0000E+00 0.9000E+01
       25  1    1    2    0    0 0.49544285E+03 0.23988183E+03 -.10687458E+04 0.12086561E+04 0.12500000E+03 0.0000E+00 0.9000E+01
        2  1    1    2  502    0 -.38564256E+03 -.19529722E+03 -.11721890E+04 0.12493552E+04 0.32000000E+00 0.0000E+00 0.9000E+01
       -2  1    1    2    0  501 -.10980029E+03 -.44584617E+02 0.88735800E+02 0.14804741E+03 0.32000000E+00 0.0000E+00 0.9000E+01
#aMCatNLO 1  0  0  2  4 0.10792530D+02 0.00000000D+00  -5  6  0 0.00000000D+00 0.00000000D+00 0.00000000D+00 0.00000000D+00 0.00000000D+00
  <mgrwgt>
 0.5704395156D-03    7    2    0
 0.734775672042518D+03 0.000000000000000D+00 0.000000000000000D+00 0.734775672042518D+03
 0.734775672042518D+03 0.000000000000000D+00 0.000000000000000D+00 -.734775672042518D+03
 0.578224757476533D+03 0.495503893101990D+03 0.239914394057336D+03 -.125043374889150D+03
 0.498960888182584D+03 -.385740839847574D+03 -.195344896950637D+03 -.249010729979627D+03
 0.392365698425918D+03 -.109763053254416D+03 -.445694971066993D+02 0.374054104868778D+03
 0.000000000000000D+00 -.000000000000000D+00 0.000000000000000D+00 -.000000000000000D+00
 0.764706760334270D+03 0.000000000000000D+00 0.000000000000000D+00 0.764706760334270D+03
 0.123839299022881D+04 0.000000000000000D+00 0.000000000000000D+00 -.123839299022881D+04
 0.556103612236239D+03 0.502618953402077D+03 0.159262580726065D+03 -.125043374889150D+03
 0.527127792169685D+03 -.379304711625028D+03 -.268300766625357D+03 -.249010729979627D+03
 0.401370427715617D+03 -.104784353478720D+03 -.101004881770545D+03 0.374054104868778D+03
 0.518497918441542D+03 -.185298882983279D+02 0.210043067669837D+03 -.473686229894545D+03
0.682382916694D-04 0.000000000000D+00 0.000000000000D+00 0.198648830060D-06 0.000000000000D+00  6 -2 2 25 2 -2 21 0 0.34912281D-01 0.36601982D+00 0.31102522D+06 0.31102522D+06 0.31102522D+06 0.10833941D+01  1  2  2  2  6  2        2 0.273328393768D-03 0.100000000000D+01
0.997380249520D-05 0.000000000000D+00 -.262053007565D-06 0.198648830060D-06 0.000000000000D+00  6 -2 2 25 2 -2 21 2 0.34912281D-01 0.36601982D+00 0.31102522D+06 0.31102522D+06 0.31102522D+06 0.10833941D+01  1  2  3  2  6  2        2 0.468910878212D-04 0.100000000000D+01
-.371836239881D-04 0.000000000000D+00 0.000000000000D+00 0.198648830060D-06 0.000000000000D+00  6 -2 2 25 2 -2 21 2 0.34912281D-01 0.36601982D+00 0.31102522D+06 0.31102522D+06 0.31102522D+06 0.10833941D+01  1  2 15  2  6  2        2 -.174816032178D-03 0.100000000000D+01
-.121383518427D-03 0.000000000000D+00 0.000000000000D+00 0.198648830060D-06 0.000000000000D+00  6 -2 2 25 2 -2 21 2 0.34912281D-01 0.36601982D+00 0.31102522D+06 0.31102522D+06 0.31102522D+06 0.10833941D+01  1  2  4  2  6  2        2 -.570675549807D-03 0.100000000000D+01
-.241298882840D-03 0.000000000000D+00 -.334197500376D-04 0.198648830060D-06 0.000000000000D+00  6 -2 2 25 2 -2 21 2 0.34912281D-01 0.62066953D+00 0.31102522D+06 0.31102522D+06 0.31102522D+06 0.10833941D+01  1  2  5  2  6  2        2 -.867513032027D-04 0.100000000000D+01
0.230259164281D-03 0.000000000000D+00 0.292457360992D-04 0.198648830060D-06 0.000000000000D+00  6 -2 2 25 2 -2 21 2 0.34912281D-01 0.36601982D+00 0.31102522D+06 0.31102522D+06 0.31102522D+06 0.10833941D+01  1  2  6  2  6  2        2 0.108254627051D-02 0.100000000000D+01
-.126161165759D-04 0.000000000000D+00 -.196895157896D-05 0.198648830060D-06 0.000000000000D+00  6 -2 21 25 2 -2 -2 2 0.34912281D-01 0.62066953D+00 0.31102522D+06 0.31102522D+06 0.31102522D+06 0.10833941D+01  1  2  5  6  6  2        2 -.833512676497D-07 0.100000000000D+01
  </mgrwgt>
  </event>
  <event>
  6     66 0.17405255E-05 0.14636018E+03 0.75467711E-02 0.93732738E-01
       -2 -1    0    0    0  501 0.00000000E+00 0.00000000E+00 0.57471814E+03 0.57471823E+03 0.32000000E+00 0.0000E+00 0.9000E+01
        2 -1    0    0  502    0 -.00000000E+00 -.00000000E+00 -.21818108E+04 0.21818108E+04 0.32000000E+00 0.0000E+00 0.9000E+01
       25  1    1    2    0    0 -.10399101E+03 0.51136152E+03 0.72133587E+01 0.53663933E+03 0.12500000E+03 0.0000E+00 0.9000E+01
        2  1    1    2  503    0 -.42670097E+02 -.12041044E+03 -.13962611E+04 0.14020929E+04 0.32000000E+00 0.0000E+00 0.9000E+01
       -2  1    1    2    0  501 0.14360504E+03 -.36306352E+03 0.17207396E+03 0.42666975E+03 0.32000000E+00 0.0000E+00 0.9000E+01
       21  1    1    2  502  503 0.30560652E+01 -.27887564E+02 -.39011889E+03 0.39112704E+03 0.75000000E+00 0.0000E+00 0.9000E+01
#aMCatNLO 2  0  0  4  2 0.12526301D+02 0.00000000D+00  -5  6  0 0.00000000D+00 0.00000000D+00 0.00000000D+00 0.00000000D+00 0.00000000D+00
  <mgrwgt>
 0.3331059367D-03    3    2    0
 0.111978853557683D+04 0.000000000000000D+00 0.000000000000000D+00 0.111978853557683D+04
 0.111978853557683D+04 -.000000000000000D+00 -.000000000000000D+00 -.111978853557683D+04
 0.665834186545911D+03 -.103958978989257D+03 0.511347044590766D+03 0.394242177663750D+03
 0.925105809725880D+03 -.396302937043811D+02 -.148362149237704D+03 -.912271270885502D+03
 0.648637074881873D+03 0.143589272693638D+03 -.362984895353063D+03 0.518029093221753D+03
 0.000000000000000D+00 0.000000000000000D+00 0.000000000000000D+00 -.000000000000000D+00
 0.111978853557683D+04 0.000000000000000D+00 0.000000000000000D+00 0.111978853557683D+04
 0.111978853557683D+04 -.000000000000000D+00 -.000000000000000D+00 -.111978853557683D+04
 0.665730433821067D+03 -.103965325681950D+03 0.511323284762603D+03 0.394096079695058D+03
 0.723913022120604D+03 -.426861824596643D+02 -.120440097028206D+03 -.712546234605617D+03
 0.648535000729105D+03 0.143583089927584D+03 -.363008041496436D+03 0.517886768769457D+03
 0.201398614482889D+03 0.306841821403022D+01 -.278751462379611D+02 -.199436613858898D+03
-.874742550525D-09 0.000000000000D+00 0.000000000000D+00 0.249617550638D-05 0.000000000000D+00  6 -2 2 25 2 -2 21 2 0.88418184D-01 0.33566320D+00 0.29308502D+06 0.29308502D+06 0.29308502D+06 0.10853019D+01  1  2 13  3  6  4        2 -.797299649855D-09 0.100000000000D+01
-.898939898376D-03 0.000000000000D+00 0.000000000000D+00 0.249617550638D-05 0.000000000000D+00  6 -2 2 25 2 -2 21 2 0.88418184D-01 0.33566320D+00 0.29308502D+06 0.29308502D+06 0.29308502D+06 0.10853019D+01  1  2 13  3  6  4        2 -.819354752763D-03 0.100000000000D+01
0.126440178478D-02 0.000000000000D+00 0.000000000000D+00 0.249617550638D-05 0.894408360007D-07  6 -2 2 25 2 -2 21 2 0.88418184D-01 0.33566320D+00 0.29308502D+06 0.29308502D+06 0.29308502D+06 0.10853019D+01  1  2  1  3  6  4        2 0.115246148673D-02 0.100000000000D+01
  </mgrwgt>
  </event>
  <event>
  5     66 0.17405255E-05 0.13890565E+02 0.75467711E-02 0.93991786E-01
       -2 -1    0    0    0  501 0.00000000E+00 0.00000000E+00 0.42183485E+03 0.42183497E+03 0.32000000E+00 0.0000E+00 0.9000E+01
        2 -1    0    0  502    0 0.00000000E+00 0.00000000E+00 -.10117672E+04 0.10117672E+04 0.32000000E+00 0.0000E+00 0.9000E+01
       25  1    1    2    0    0 0.48013151E+02 0.47514087E+03 -.12275856E+03 0.50868337E+03 0.12500000E+03 0.0000E+00 0.9000E+01
        2  1    1    2  502    0 -.61370712E+02 -.47899622E+03 -.61191272E+03 0.77951332E+03 0.32000000E+00 0.0000E+00 0.9000E+01
       -2  1    1    2    0  501 0.13357561E+02 0.38553444E+01 0.14473896E+03 0.14540549E+03 0.32000000E+00 0.0000E+00 0.9000E+01
#aMCatNLO 1  0  0  2  2 0.74363974D+02 0.00000000D+00  -5  6  0 0.00000000D+00 0.00000000D+00 0.00000000D+00 0.00000000D+00 0.00000000D+00
  <mgrwgt>
 0.4057463200D-02    7    2    0
 0.653298379054122D+03 0.000000000000000D+00 0.000000000000000D+00 0.653298379054122D+03
 0.653298379054122D+03 0.000000000000000D+00 0.000000000000000D+00 -.653298379054122D+03
 0.502840866806514D+03 0.480350232947337D+02 0.475256973888217D+03 0.951177304103495D+02
 0.579064743722909D+03 -.613808198083390D+02 -.479108922744060D+03 -.319379104716575D+03
 0.224691147578821D+03 0.133457965136053D+02 0.385194885584274D+01 0.224261374306225D+03
 0.000000000000000D+00 0.000000000000000D+00 0.000000000000000D+00 -.000000000000000D+00
 0.684637879532458D+03 0.000000000000000D+00 0.000000000000000D+00 0.684637879532458D+03
 0.700009408545014D+03 0.000000000000000D+00 0.000000000000000D+00 -.700009408545014D+03
 0.491188671878931D+03 0.217411669289913D+02 0.464888427909685D+03 0.951177304103495D+02
 0.593254828102055D+03 -.923907659283291D+02 -.491337180465731D+03 -.319379104716575D+03
 0.224267732107279D+03 0.147003242695423D+01 -.831061663796005D+00 0.224261374306225D+03
 0.759360559892060D+02 0.691795665723835D+02 0.272798142198427D+02 -.153715290125561D+02
0.196655264695D-03 0.000000000000D+00 0.000000000000D+00 0.212020372854D-05 0.000000000000D+00  6 -2 2 25 2 -2 21 0 0.64897682D-01 0.15565650D+00 0.24536074D+06 0.24536074D+06 0.24536074D+06 0.10910716D+01  1  2  2  2  6  2        2 0.137213277735D-02 0.100000000000D+01
0.136567028134D-03 0.000000000000D+00 -.755207996950D-06 0.212020372854D-05 0.000000000000D+00  6 -2 2 25 2 -2 21 2 0.64897682D-01 0.15565650D+00 0.24536074D+06 0.24536074D+06 0.24536074D+06 0.10910716D+01  1  2  3  2  6  2        2 0.113433920475D-02 0.100000000000D+01
-.101082307104D-03 0.000000000000D+00 0.000000000000D+00 0.212020372854D-05 0.000000000000D+00  6 -2 2 25 2 -2 21 2 0.64897682D-01 0.15565650D+00 0.24536074D+06 0.24536074D+06 0.24536074D+06 0.10910716D+01  1  2 15  2  6  2        2 -.839599612152D-03 0.100000000000D+01
-.403454096810D-04 0.000000000000D+00 0.000000000000D+00 0.212020372854D-05 0.000000000000D+00  6 -2 2 25 2 -2 21 2 0.64897682D-01 0.15565650D+00 0.24536074D+06 0.24536074D+06 0.24536074D+06 0.10910716D+01  1  2  4  2  6  2        2 -.335112951918D-03 0.100000000000D+01
-.221275036477D-02 0.000000000000D+00 -.483450297663D-03 0.212020372854D-05 0.000000000000D+00  6 -2 2 25 2 -2 21 2 0.64897682D-01 0.17213759D+00 0.24536074D+06 0.24536074D+06 0.24536074D+06 0.10910716D+01  1  2  5  2  6  2        2 -.158383030107D-01 0.100000000000D+01
0.225242716067D-02 0.000000000000D+00 0.481012178995D-03 0.212020372854D-05 0.000000000000D+00  6 -2 2 25 2 -2 21 2 0.64897682D-01 0.15565650D+00 0.24536074D+06 0.24536074D+06 0.24536074D+06 0.10910716D+01  1  2  6  2  6  2        2 0.187088821445D-01 0.100000000000D+01
-.345257408839D-04 0.000000000000D+00 -.789588392148D-05 0.212020372854D-05 0.000000000000D+00  6 -2 21 25 2 -2 -2 2 0.64897682D-01 0.17213759D+00 0.24536074D+06 0.24536074D+06 0.24536074D+06 0.10910716D+01  1  2  5  6  6  2        2 -.144875351652D-03 0.100000000000D+01
  </mgrwgt>
  </event>
  <event>
  5     66 0.17405255E-05 0.24834220E+02 0.75467711E-02 0.93910455E-01
       -2 -1    0    0    0  501 0.00000000E+00 0.00000000E+00 0.12205221E+04 0.12205222E+04 0.32000000E+00 0.0000E+00 0.9000E+01
        2 -1    0    0  502    0 0.00000000E+00 0.00000000E+00 -.39212828E+03 0.39212841E+03 0.32000000E+00 0.0000E+00 0.9000E+01
       25  1    1    2    0    0 -.36075381E+03 -.34733060E+03 0.21177101E+03 0.55790126E+03 0.12500000E+03 0.0000E+00 0.9000E+01
        2  1    1    2  502    0 -.12149209E+02 -.21658665E+02 -.13549272E+03 0.13775006E+03 0.32000000E+00 0.0000E+00 0.9000E+01
       -2  1    1    2    0  501 0.37290302E+03 0.36898927E+03 0.75211555E+03 0.91699926E+03 0.32000000E+00 0.0000E+00 0.9000E+01
#aMCatNLO 1  0  0  4  2 0.11878862D+01 0.00000000D+00  -5  6  0 0.00000000D+00 0.00000000D+00 0.00000000D+00 0.00000000D+00 0.00000000D+00
  <mgrwgt>
 0.1857395368D-02    9    2    0
 0.691810221241623D+03 0.000000000000000D+00 0.000000000000000D+00 0.691810221241623D+03
 0.691810221241623D+03 -.000000000000000D+00 -.000000000000000D+00 -.691810221241623D+03
 0.523452230789759D+03 -.360750253716464D+03 -.347326659023586D+03 -.871819034765588D+02
 0.241686548382045D+03 -.121494914284760D+02 -.216593703642047D+02 -.240407256966761D+03
 0.618481663311441D+03 0.372899745144940D+03 0.368986029387790D+03 0.327589160443319D+03
 0.000000000000000D+00 0.000000000000000D+00 -.000000000000000D+00 0.000000000000000D+00
 0.691810221241623D+03 0.000000000000000D+00 0.000000000000000D+00 0.691810221241623D+03
 0.691810221241623D+03 -.000000000000000D+00 -.000000000000000D+00 -.691810221241623D+03
 0.523455691189985D+03 -.360750923305596D+03 -.347327852726144D+03 -.871951529271596D+02
 0.219625274969358D+03 -.109732140874500D+02 -.185011067392661D+02 -.218569346037773D+03
 0.618472053257562D+03 0.372898954004909D+03 0.368984618991723D+03 0.327573505812364D+03
 0.220674230663398D+02 -.117481661186358D+01 -.315565952631290D+01 -.218090068474313D+02
0.708874894064D-05 0.000000000000D+00 0.000000000000D+00 0.150761406007D-05 0.000000000000D+00  6 -2 2 25 2 -2 21 0 0.18777265D+00 0.60327441D-01 0.28386252D+06 0.28386252D+06 0.28386252D+06 0.10863330D+01  1  2  2  3  6  4        2 0.107771081754D-04 0.100000000000D+01
0.351618053629D-05 0.000000000000D+00 -.272226624425D-07 0.150761406007D-05 0.000000000000D+00  6 -2 2 25 2 -2 21 2 0.18777265D+00 0.60327441D-01 0.28386252D+06 0.28386252D+06 0.28386252D+06 0.10863330D+01  1  2  3  3  6  4        2 0.630855244089D-05 0.100000000000D+01
-.420751602608D-05 0.000000000000D+00 0.000000000000D+00 0.150761406007D-05 0.000000000000D+00  6 -2 2 25 2 -2 21 2 0.18777265D+00 0.60327441D-01 0.28386252D+06 0.28386252D+06 0.28386252D+06 0.10863330D+01  1  2 15  3  6  4        2 -.754891144596D-05 0.100000000000D+01
0.117942257949D-11 0.000000000000D+00 0.000000000000D+00 0.150761406007D-05 0.000000000000D+00  6 -2 2 25 2 -2 21 2 0.18777265D+00 0.60327441D-01 0.28388557D+06 0.28388557D+06 0.28388557D+06 0.10863303D+01  1  2 12  3  6  4        2 0.211604249533D-11 0.100000000000D+01
0.720012299018D-07 0.000000000000D+00 0.000000000000D+00 0.150761406007D-05 0.000000000000D+00  6 -2 2 25 2 -2 21 2 0.18777265D+00 0.60327441D-01 0.28388557D+06 0.28388557D+06 0.28388557D+06 0.10863303D+01  1  2 12  3  6  4        2 0.129179875676D-06 0.100000000000D+01
-.539437365948D-02 0.000000000000D+00 0.000000000000D+00 0.150761406007D-05 0.000000000000D+00  6 -2 2 25 2 -2 21 2 0.18777265D+00 0.60327441D-01 0.28386252D+06 0.28386252D+06 0.28386252D+06 0.10863330D+01  1  2  4  3  6  4        2 -.967831110075D-02 0.100000000000D+01
-.113886481178D-01 0.000000000000D+00 0.000000000000D+00 0.150761406007D-05 0.000000000000D+00  6 -2 2 25 2 -2 21 2 0.18777265D+00 0.60327441D-01 0.28386252D+06 0.28386252D+06 0.28386252D+06 0.10863330D+01  1  2  5  3  6  4        2 -.204329337305D-01 0.100000000000D+01
0.128841648617D-01 0.000000000000D+00 -.000000000000D+00 0.150761406007D-05 0.000000000000D+00  6 -2 2 25 2 -2 21 2 0.18777265D+00 0.60327441D-01 0.28386252D+06 0.28386252D+06 0.28386252D+06 0.10863330D+01  1  2  6  3  6  4        2 0.231161138765D-01 0.100000000000D+01
0.492876170321D-02 0.000000000000D+00 0.000000000000D+00 0.150761406007D-05 0.243763732486D-05  6 -2 2 25 2 -2 21 2 0.18777265D+00 0.60327441D-01 0.28388557D+06 0.28388557D+06 0.28388557D+06 0.10863303D+01  1  2 11  3  6  4        2 0.884286039179D-02 0.100000000000D+01
  </mgrwgt>
  </event>
  <event>
  6     66 0.17405255E-05 0.18151624E+03 0.75467711E-02 0.93944439E-01
       -2 -1    0    0    0  501 0.00000000E+00 0.00000000E+00 0.79517793E+03 0.79517799E+03 0.32000000E+00 0.0000E+00 0.9000E+01
        2 -1    0    0  502    0 -.00000000E+00 -.00000000E+00 -.14746760E+04 0.14746760E+04 0.32000000E+00 0.0000E+00 0.9000E+01
       25  1    1    2    0    0 0.21677976E+03 -.44897895E+03 -.46708268E+02 0.51612229E+03 0.12500000E+03 0.0000E+00 0.9000E+01
        2  1    1    2  502    0 -.44113954E+02 0.58301884E+02 -.10903603E+04 0.10928086E+04 0.32000000E+00 0.0000E+00 0.9000E+01
       -2  1    1    2    0  503 0.84821938E+01 0.23910210E+03 0.25611486E+03 0.35048065E+03 0.32000000E+00 0.0000E+00 0.9000E+01
       21  1    1    2  503  501 -.18114800E+03 0.15157496E+03 0.20145562E+03 0.31044242E+03 0.75000000E+00 0.0000E+00 0.9000E+01
#aMCatNLO 2  0  0  5  1 0.84460711D+01 0.00000000D+00  -5  6  0 0.00000000D+00 0.00000000D+00 0.00000000D+00 0.00000000D+00 0.00000000D+00
  <mgrwgt>
 0.1253137676D-02    1    2    0
 0.108288037388607D+04 0.000000000000000D+00 0.000000000000000D+00 0.108288037388607D+04
 0.108288037388607D+04 -.000000000000000D+00 -.000000000000000D+00 -.108288037388607D+04
 0.528443108627562D+03 0.218180650705829D+03 -.452128938715283D+03 0.107720682738899D+03
 0.811695507923351D+03 -.419437811982556D+02 0.533719036421118D+02 -.808852122889813D+03
 0.825622131221220D+03 -.176236869507573D+03 0.398757035073171D+03 0.701131440150913D+03
 0.000000000000000D+00 -.000000000000000D+00 0.000000000000000D+00 0.000000000000000D+00
 0.108288037388607D+04 0.000000000000000D+00 0.000000000000000D+00 0.108288037388607D+04
 0.108288037388607D+04 -.000000000000000D+00 -.000000000000000D+00 -.108288037388607D+04
 0.526281150214782D+03 0.216749986626127D+03 -.448891889803771D+03 0.113412361043084D+03
 0.803472398828993D+03 -.441346502216102D+02 0.583290073311839D+02 -.800136085446464D+03
 0.447235854499402D+03 0.855992258645077D+01 0.238877904697717D+03 0.377999978733271D+03
 0.388771344228956D+03 -.181175258990968D+03 0.151684977774870D+03 0.308723745670109D+03
0.124122422620D-02 0.000000000000D+00 0.000000000000D+00 0.207952511582D-04 0.225040059316D-08  6 -2 2 25 2 -2 21 2 0.12233507D+00 0.22687324D+00 0.28216355D+06 0.28216355D+06 0.28216355D+06 0.10865269D+01  1  2  1  4  6  5       -2 0.125313767586D-02 0.100000000000D+01
  </mgrwgt>
  </event>
  <event>
  5     66 -.17405255E-05 0.22307312E+02 0.75467711E-02 0.88899872E-01
       -2 -1    0    0    0  501 0.00000000E+00 0.00000000E+00 0.79483110E+03 0.79483117E+03 0.32000000E+00 0.0000E+00 0.9000E+01
        2 -1    0    0  502    0 -.00000000E+00 -.00000000E+00 -.26248932E+04 0.26248932E+04 0.32000000E+00 0.0000E+00 0.9000E+01
       25  1    1    2    0    0 -.15001856E+03 -.82525552E+03 0.30289610E+03 0.90051279E+03 0.12500000E+03 0.0000E+00 0.9000E+01
        2  1    1    2  502    0 0.17235371E+03 0.82509573E+03 -.22486201E+04 0.24014123E+04 0.32000000E+00 0.0000E+00 0.9000E+01
       -2  1    1    2    0  501 -.22335150E+02 0.15979222E+00 0.11566190E+03 0.11779925E+03 0.32000000E+00 0.0000E+00 0.9000E+01
#aMCatNLO 1  0  0  4  1 0.64464470D+02 0.00000000D+00  -5  6  0 0.00000000D+00 0.00000000D+00 0.00000000D+00 0.00000000D+00 0.00000000D+00
  <mgrwgt>
 -.1313075116D-03    4    2    0
 0.144441921922905D+04 0.000000000000000D+00 0.000000000000000D+00 0.144441921922905D+04
 0.144441921922905D+04 -.000000000000000D+00 -.000000000000000D+00 -.144441921922905D+04
 0.125812498669447D+04 -.150062527039441D+03 -.825346447003604D+03 0.929267433273120D+03
 0.141826574132456D+04 0.172369267798067D+03 0.825186858031519D+03 -.114054074800759D+04
 0.212447710439073D+03 -.223067407586262D+02 0.159588972085568D+00 0.211273314734473D+03
 0.000000000000000D+00 0.000000000000000D+00 0.000000000000000D+00 0.000000000000000D+00
 0.144441921922905D+04 0.000000000000000D+00 0.000000000000000D+00 0.144441921922905D+04
 0.144441921922905D+04 -.000000000000000D+00 -.000000000000000D+00 -.144441921922905D+04
 0.125556687907918D+04 -.149748530957084D+03 -.823843247251444D+03 0.927189769828717D+03
 0.632747785880076D+03 0.360479410383157D+02 0.328672081755799D+03 -.539485837772731D+03
 0.212093525808930D+03 -.222537094834744D+02 0.413466660834602D+00 0.210922415000419D+03
 0.788430247689906D+03 0.135954299402243D+03 0.494757698834810D+03 -.598626347056404D+03
0.377770018028D-04 0.000000000000D+00 0.000000000000D+00 0.293601815971D-05 0.000000000000D+00  6 -2 2 25 2 -2 21 0 0.12228171D+00 0.40382973D+00 0.73397267D+06 0.73397267D+06 0.73397267D+06 0.10569240D+01  1  2  2  3  6  4        2 0.683166210300D-05 0.100000000000D+01
0.180900410068D-04 0.000000000000D+00 -.145073633836D-06 0.293601815971D-05 0.000000000000D+00  6 -2 2 25 2 -2 21 2 0.12228171D+00 0.40382973D+00 0.73397267D+06 0.73397267D+06 0.73397267D+06 0.10569240D+01  1  2  3  3  6  4        2 0.365448291903D-05 0.100000000000D+01
-.213691651498D-04 0.000000000000D+00 0.000000000000D+00 0.293601815971D-05 0.000000000000D+00  6 -2 2 25 2 -2 21 2 0.12228171D+00 0.40382973D+00 0.73397267D+06 0.73397267D+06 0.73397267D+06 0.10569240D+01  1  2 15  3  6  4        2 -.431691940356D-05 0.100000000000D+01
-.680523036727D-03 0.000000000000D+00 0.000000000000D+00 0.293601815971D-05 0.000000000000D+00  6 -2 2 25 2 -2 21 2 0.12228171D+00 0.40382973D+00 0.73397267D+06 0.73397267D+06 0.73397267D+06 0.10569240D+01  1  2  5  3  6  4        2 -.137476737216D-03 0.100000000000D+01
  </mgrwgt>
  </event>
  <event>
  5     66 0.17405255E-05 0.72014868E+02 0.75467711E-02 0.93448782E-01
       -2 -1    0    0    0  501 0.00000000E+00 0.00000000E+00 0.13281867E+03 0.13281905E+03 0.32000000E+00 0.0000E+00 0.9000E+01
        2 -1    0    0  502    0 -.00000000E+00 -.00000000E+00 -.33354271E+04 0.33354271E+04 0.32000000E+00 0.0000E+00 0.9000E+01
       25  1    1    2    0    0 0.54698272E+03 -.33453798E+02 -.17432115E+04 0.18315897E+04 0.12500000E+03 0.0000E+00 0.9000E+01
        2  1    1    2  502    0 -.47615255E+03 0.20172966E+02 -.14854482E+04 0.15600271E+04 0.32000000E+00 0.0000E+00 0.9000E+01
       -2  1    1    2    0  501 -.70830172E+02 0.13280832E+02 0.26051268E+02 0.76629399E+02 0.32000000E+00 0.0000E+00 0.9000E+01
#aMCatNLO 1  0  0  5  1 0.47317833D+01 0.00000000D+00  -5  6  0 0.00000000D+00 0.00000000D+00 0.00000000D+00 0.00000000D+00 0.00000000D+00
  <mgrwgt>
 0.4428102902D-03    9    2    0
 0.665588215338724D+03 0.000000000000000D+00 0.000000000000000D+00 0.665588215338724D+03
 0.665588215338724D+03 -.000000000000000D+00 -.000000000000000D+00 -.665588215338724D+03
 0.578174354039288D+03 0.547073501393466D+03 -.334548597349794D+02 -.135099741309719D+03
 0.490857403887171D+03 -.476292122462432D+03 0.201831762270915D+02 -.116959157095419D+03
 0.262144672750991D+03 -.707813789310345D+02 0.132716835078880D+02 0.252058898405138D+03
 0.000000000000000D+00 -.000000000000000D+00 0.000000000000000D+00 0.000000000000000D+00
 0.665588215338724D+03 0.000000000000000D+00 0.000000000000000D+00 0.665588215338724D+03
 0.665588215338724D+03 -.000000000000000D+00 -.000000000000000D+00 -.665588215338724D+03
 0.577945423308957D+03 0.546945464020881D+03 -.334308524111353D+02 -.134643788634370D+03
 0.490871650451658D+03 -.476400846498791D+03 0.202035622526543D+02 -.116571980958859D+03
 0.251143218236472D+03 -.632868831261203D+02 0.134345865020518D+02 0.242666846470365D+03
 0.112161386803633D+02 -.725773439596964D+01 -.207296343570838D+00 0.854892312286427D+01
0.477419113181D-04 0.000000000000D+00 0.000000000000D+00 0.128224577868D-06 0.000000000000D+00  6 -2 2 25 2 -2 21 0 0.20433672D-01 0.51314266D+00 0.30852644D+06 0.30852644D+06 0.30852644D+06 0.10836525D+01  1  2  2  4  6  5       -2 0.124917460635D-03 0.100000000000D+01
0.965607573882D-05 0.000000000000D+00 -.183341510195D-06 0.128224577868D-06 0.000000000000D+00  6 -2 2 25 2 -2 21 2 0.20433672D-01 0.51314266D+00 0.30852644D+06 0.30852644D+06 0.30852644D+06 0.10836525D+01  1  2  3  4  6  5       -2 0.296690824164D-04 0.100000000000D+01
-.279759432174D-04 0.000000000000D+00 0.000000000000D+00 0.128224577868D-06 0.000000000000D+00  6 -2 2 25 2 -2 21 2 0.20433672D-01 0.51314266D+00 0.30852644D+06 0.30852644D+06 0.30852644D+06 0.10836525D+01  1  2 15  4  6  5       -2 -.859583735095D-04 0.100000000000D+01
0.161866041295D-07 0.000000000000D+00 0.000000000000D+00 0.128224577868D-06 0.000000000000D+00  6 -2 2 25 2 -2 21 2 0.20433672D-01 0.51314266D+00 0.30848557D+06 0.30848557D+06 0.30848557D+06 0.10836568D+01  1  2 12  4  6  5       -2 0.497354696882D-07 0.100000000000D+01
0.196926431263D-04 0.000000000000D+00 0.000000000000D+00 0.128224577868D-06 0.000000000000D+00  6 -2 2 25 2 -2 21 2 0.20433672D-01 0.51314266D+00 0.30848557D+06 0.30848557D+06 0.30848557D+06 0.10836568D+01  1  2 12  4  6  5       -2 0.605082355420D-04 0.100000000000D+01
-.424124505962D-03 0.000000000000D+00 0.000000000000D+00 0.128224577868D-06 0.000000000000D+00  6 -2 2 25 2 -2 21 2 0.20433672D-01 0.51314266D+00 0.30852644D+06 0.30852644D+06 0.30852644D+06 0.10836525D+01  1  2  4  4  6  5       -2 -.130315723101D-02 0.100000000000D+01
-.256010919035D-02 0.000000000000D+00 0.000000000000D+00 0.128224577868D-06 0.000000000000D+00  6 -2 2 25 2 -2 21 2 0.20433672D-01 0.51314266D+00 0.30852644D+06 0.30852644D+06 0.30852644D+06 0.10836525D+01  1  2  5  4  6  5       -2 -.786614486235D-02 0.100000000000D+01
0.269926807814D-02 0.000000000000D+00 -.000000000000D+00 0.128224577868D-06 0.000000000000D+00  6 -2 2 25 2 -2 21 2 0.20433672D-01 0.51314266D+00 0.30852644D+06 0.30852644D+06 0.30852644D+06 0.10836525D+01  1  2  6  4  6  5       -2 0.829372192600D-02 0.100000000000D+01
0.387031219966D-03 0.000000000000D+00 0.000000000000D+00 0.128224577868D-06 0.738065267799D-08  6 -2 2 25 2 -2 21 2 0.20433672D-01 0.51314266D+00 0.30848557D+06 0.30848557D+06 0.30848557D+06 0.10836568D+01  1  2 11  4  6  5       -2 0.118920431704D-02 0.100000000000D+01
  </mgrwgt>
  </event>
  <event>
  5     66 0.17405255E-05 0.76750376E+02 0.75467711E-02 0.95402072E-01
       -2 -1    0    0    0  501 0.00000000E+00 0.00000000E+00 0.90271960E+03 0.90271965E+03 0.32000000E+00 0.0000E+00 0.9000E+01
        2 -1    0    0  502    0 0.00000000E+00 0.00000000E+00 -.72574360E+03 0.72574367E+03 0.32000000E+00 0.0000E+00 0.9000E+01
       25  1    1    2    0    0 -.31160555E+03 0.33234604E+03 0.47023193E+02 0.47475055E+03 0.12500000E+03 0.0000E+00 0.9000E+01
        2  1    1    2  502    0 0.24235103E+03 -.29922911E+03 -.43650738E+03 0.58207463E+03 0.32000000E+00 0.0000E+00 0.9000E+01
       -2  1    1    2    0  501 0.69254519E+02 -.33116928E+02 0.56646018E+03 0.57163814E+03 0.32000000E+00 0.0000E+00 0.9000E+01
#aMCatNLO 1  0  0  4  2 0.68586703D+02 0.00000000D+00  -5  6  0 0.00000000D+00 0.00000000D+00 0.00000000D+00 0.00000000D+00 0.00000000D+00
  <mgrwgt>
 0.1326558833D-02    3    2    0
 0.809409091081716D+03 0.000000000000000D+00 0.000000000000000D+00 0.809409091081716D+03
 0.809409091081716D+03 -.000000000000000D+00 -.000000000000000D+00 -.809409091081716D+03
 0.472494201223416D+03 -.311639899348541D+03 0.332394496823849D+03 -.449908935292015D+01
 0.633307952440692D+03 0.242398891840399D+03 -.299284029399102D+03 -.502743283998708D+03
 0.513016028499325D+03 0.692410075081422D+02 -.331104674247473D+02 0.507242373351628D+03
 0.000000000000000D+00 0.000000000000000D+00 0.000000000000000D+00 0.000000000000000D+00
 0.809409091081716D+03 0.000000000000000D+00 0.000000000000000D+00 0.809409091081716D+03
 0.809409091081716D+03 -.000000000000000D+00 -.000000000000000D+00 -.809409091081716D+03
 0.455394901964361D+03 -.299842429820587D+03 0.317828447489911D+03 -.289674296507100D+02
 0.735620247360647D+02 -.416840034916980D+02 0.570241407695584D+02 -.205441647595396D+02
 0.490171383838741D+03 0.819958430668586D+02 -.488585533642201D+02 0.480788424379474D+03
 0.599689871624266D+03 0.259530590245427D+03 -.325994034895250D+03 -.431276829969225D+03
0.117528150193D-02 0.000000000000D+00 0.000000000000D+00 0.582028478907D-05 0.000000000000D+00  6 -2 2 25 2 -2 21 0 0.13887995D+00 0.11165287D+00 0.21825580D+06 0.21825580D+06 0.21825580D+06 0.10949236D+01  1  2  2  3  6  4        2 0.209409146663D-02 0.100000000000D+01
0.295553560554D-03 0.000000000000D+00 -.451339042614D-05 0.582028478907D-05 0.000000000000D+00  6 -2 2 25 2 -2 21 2 0.13887995D+00 0.11165287D+00 0.21825580D+06 0.21825580D+06 0.21825580D+06 0.10949236D+01  1  2  3  3  6  4        2 0.631331724490D-03 0.100000000000D+01
-.654868630486D-03 0.000000000000D+00 0.000000000000D+00 0.582028478907D-05 0.000000000000D+00  6 -2 2 25 2 -2 21 2 0.13887995D+00 0.11165287D+00 0.21825580D+06 0.21825580D+06 0.21825580D+06 0.10949236D+01  1  2 15  3  6  4        2 -.139886435820D-02 0.100000000000D+01
  </mgrwgt>
  </event>
  <event>
  5     66 -.17405255E-05 0.24149584E+03 0.75467711E-02 0.94734211E-01
       -2 -1    0    0    0  501 0.00000000E+00 0.00000000E+00 0.66270422E+03 0.66270430E+03 0.32000000E+00 0.0000E+00 0.9000E+01
        2 -1    0    0  502    0 -.00000000E+00 -.00000000E+00 -.12373964E+04 0.12373964E+04 0.32000000E+00 0.0000E+00 0.9000E+01
       25  1    1    2    0    0 -.45864568E+03 0.16324009E+03 -.10222864E+04 0.11391654E+04 0.12500000E+03 0.0000E+00 0.9000E+01
        2  1    1    2  502    0 0.21864153E+03 -.13622459E+03 0.60794980E+01 0.25767871E+03 0.32000000E+00 0.0000E+00 0.9000E+01
       -2  1    1    2    0  501 0.24000415E+03 -.27015503E+02 0.44151478E+03 0.50325663E+03 0.32000000E+00 0.0000E+00 0.9000E+01
#aMCatNLO 1  0  0  5  4 0.10300435D+03 0.00000000D+00  -5  6  0 0.00000000D+00 0.00000000D+00 0.00000000D+00 0.00000000D+00 0.00000000D+00
  <mgrwgt>
 -.9712730664D-05    4    2    0
 0.905553925800125D+03 0.000000000000000D+00 0.000000000000000D+00 0.905553925800125D+03
 0.905553925800125D+03 -.000000000000000D+00 -.000000000000000D+00 -.905553925800125D+03
 0.870745567914508D+03 -.458693370763379D+03 0.163261655662719D+03 -.710998500315406D+03
 0.272344066002524D+03 0.218713057966235D+03 -.136248835749426D+03 0.881597602014168D+02
 0.668018217683219D+03 0.239980312797144D+03 -.270128199132925D+02 0.622838740113989D+03
 0.000000000000000D+00 0.000000000000000D+00 0.000000000000000D+00 0.000000000000000D+00
 0.905553925800125D+03 0.000000000000000D+00 0.000000000000000D+00 0.905553925800125D+03
 0.905553925800125D+03 -.000000000000000D+00 -.000000000000000D+00 -.905553925800125D+03
 0.853530127062173D+03 -.452232840826587D+03 0.162534441293786D+03 -.694231006851467D+03
 0.275872174698038D+03 0.220767118952654D+03 -.136480046296951D+03 0.934908173285059D+02
 0.218605846306023D+03 0.162733319500590D+03 -.302929679999490D+02 0.142789071196802D+03
 0.463099703534015D+03 0.687324023733429D+02 0.423857300311397D+01 0.457951118326158D+03
0.103713031919D-04 0.000000000000D+00 0.000000000000D+00 0.626613235686D-08 0.000000000000D+00  6 -2 2 25 2 -2 21 0 0.10195450D+00 0.19036868D+00 0.25092485D+06 0.25092485D+06 0.25092485D+06 0.10903385D+01  1  2  2  4  6  5       -2 0.191239636085D-04 0.100000000000D+01
0.350175013206D-06 0.000000000000D+00 -.398285350838D-07 0.626613235686D-08 0.000000000000D+00  6 -2 2 25 2 -2 21 2 0.10195450D+00 0.19036868D+00 0.25092485D+06 0.25092485D+06 0.25092485D+06 0.10903385D+01  1  2  3  4  6  5       -2 0.767630839280D-06 0.100000000000D+01
-.538481687567D-05 0.000000000000D+00 0.000000000000D+00 0.626613235686D-08 0.000000000000D+00  6 -2 2 25 2 -2 21 2 0.10195450D+00 0.19036868D+00 0.25092485D+06 0.25092485D+06 0.25092485D+06 0.10903385D+01  1  2 15  4  6  5       -2 -.118042445684D-04 0.100000000000D+01
-.811997528026D-05 0.000000000000D+00 0.000000000000D+00 0.626613235686D-08 0.000000000000D+00  6 -2 2 25 2 -2 21 2 0.10195450D+00 0.19036868D+00 0.25092485D+06 0.25092485D+06 0.25092485D+06 0.10903385D+01  1  2  5  4  6  5       -2 -.178000805433D-04 0.100000000000D+01
  </mgrwgt>
  </event>
  <event>
  6     66 -.17405255E-05 0.16221349E+02 0.75467711E-02 0.95593316E-01
       21 -1    0    0  503  501 0.00000000E+00 0.00000000E+00 0.18283830E+03 0.18283984E+03 0.75000000E+00 0.0000E+00 0.9000E+01
        2 -1    0    0  502    0 0.00000000E+00 0.00000000E+00 -.21877218E+04 0.21877219E+04 0.32000000E+00 0.0000E+00 0.9000E+01
       25  1    1    2    0    0 -.72489462E+02 -.44034692E+03 -.45018322E+03 0.64610376E+03 0.12500000E+03 0.0000E+00 0.9000E+01
        2  1    1    2  502    0 -.50114777E+01 0.20391274E+02 -.95572728E+03 0.95595798E+03 0.32000000E+00 0.0000E+00 0.9000E+01
        2  1    1    2  503    0 0.53071243E+00 -.95479597E+01 0.13464283E+02 0.16517703E+02 0.32000000E+00 0.0000E+00 0.9000E+01
       -2  1    1    2    0  501 0.76970227E+02 0.42950360E+03 -.61243733E+03 0.75198228E+03 0.32000000E+00 0.0000E+00 0.9000E+01
#aMCatNLO 2  0  0  1  5 0.95626979D+01 0.00000000D+00  -5  6  0 0.00000000D+00 0.00000000D+00 0.00000000D+00 0.00000000D+00 0.00000000D+00
  <mgrwgt>
 -.6116828904D-03    2    2    0
 0.605744129151734D+03 0.000000000000000D+00 0.000000000000000D+00 0.605744129151734D+03
 0.605744129151734D+03 0.000000000000000D+00 0.000000000000000D+00 -.605744129151734D+03
 0.508858778278423D+03 -.722553937032803D+02 -.444287109775810D+03 0.201743347842873D+03
 0.265190420277561D+03 -.489624450851758D+01 0.183052097132326D+02 -.264512580218894D+03
 0.000000000000000D+00 0.000000000000000D+00 -.000000000000000D+00 0.000000000000000D+00
 0.437439059747484D+03 0.771516382117978D+02 0.425981900062577D+03 0.627692323760215D+02
 0.659864915064006D+03 0.000000000000000D+00 0.000000000000000D+00 0.659864915064006D+03
 0.606185559135410D+03 0.000000000000000D+00 0.000000000000000D+00 -.606185559135410D+03
 0.505404775238945D+03 -.724775476889983D+02 -.440290374090176D+03 0.201743347842873D+03
 0.265345093058809D+03 -.501244761809786D+01 0.203958006758025D+02 -.264512580218894D+03
 0.545244756349882D+02 0.530712429474763D+00 -.954795971287670D+01 0.536793559285962D+02
 0.440776130266672D+03 0.769592828776214D+02 0.429442533127250D+03 0.627692323760215D+02
-.608810404189D-09 0.000000000000D+00 0.000000000000D+00 0.630546300575D-06 0.000000000000D+00  6 21 2 25 2 2 -2 2 0.28138000D-01 0.33632736D+00 0.21633794D+06 0.21633794D+06 0.21633794D+06 0.10952158D+01  1  2 13  5  5  1       -2 -.662763353516D-07 0.100000000000D+01
-.562680748594D-05 0.000000000000D+00 0.000000000000D+00 0.630546300575D-06 0.000000000000D+00  6 21 2 25 2 2 -2 2 0.28159881D-01 0.33632736D+00 0.21633794D+06 0.21633794D+06 0.21633794D+06 0.10952158D+01  1  2 13  5  5  1       -2 -.611616614052D-03 0.100000000000D+01
  </mgrwgt>
  </event>
  <event>
  6     66 0.17405255E-05 0.21720048E+03 0.75467711E-02 0.90543542E-01
       -2 -1    0    0    0  501 0.00000000E+00 0.00000000E+00 0.18373954E+04 0.18373954E+04 0.32000000E+00 0.0000E+00 0.9000E+01
        2 -1    0    0  502    0 0.00000000E+00 0.00000000E+00 -.40649152E+03 0.40649165E+03 0.32000000E+00 0.0000E+00 0.9000E+01
       25  1    1    2    0    0 -.18319858E+03 0.66943990E+03 0.14839832E+03 0.72066536E+03 0.12500000E+03 0.0000E+00 0.9000E+01
        2  1    1    2  502    0 -.41180730E+02 -.20155833E+03 0.19439678E+03 0.28304032E+03 0.32000000E+00 0.0000E+00 0.9000E+01
       -2  1    1    2    0  503 0.43725947E+02 -.28727592E+03 0.32754286E+03 0.43786281E+03 0.32000000E+00 0.0000E+00 0.9000E+01
       21  1    1    2  503  501 0.18065337E+03 -.18060565E+03 0.76056594E+03 0.80231861E+03 0.75000000E+00 0.0000E+00 0.9000E+01
#aMCatNLO 2  0  0  5  1 0.14319736D+03 0.00000000D+00  -5  6  0 0.00000000D+00 0.00000000D+00 0.00000000D+00 0.00000000D+00 0.00000000D+00
  <mgrwgt>
 0.1484364988D-01    2    2    0
 0.864225569022188D+03 0.000000000000000D+00 0.000000000000000D+00 0.864225569022188D+03
 0.864225569022188D+03 -.000000000000000D+00 -.000000000000000D+00 -.864225569022188D+03
 0.842327762608980D+03 -.193754352583667D+03 0.691619054062858D+03 -.421916335988466D+03
 0.201638856787832D+03 -.437464062315060D+02 -.196376308198572D+03 0.134471590617288D+02
 0.684484518647563D+03 0.237500758815173D+03 -.495242745864286D+03 0.408469176926737D+03
 0.000000000000000D+00 0.000000000000000D+00 0.000000000000000D+00 0.000000000000000D+00
 0.864225569022188D+03 0.000000000000000D+00 0.000000000000000D+00 0.864225569022188D+03
 0.864225569022188D+03 -.000000000000000D+00 -.000000000000000D+00 -.864225569022188D+03
 0.812712102316673D+03 -.183180087981948D+03 0.669569323093677D+03 -.403730031321410D+03
 0.206746405301911D+03 -.411371797637355D+02 -.201817134943408D+03 0.179346756196657D+02
 0.296788906027885D+03 0.435862263080414D+02 -.286840565599821D+03 0.625010843412173D+02
 0.412203724397906D+03 0.180731041437642D+03 -.180911622550448D+03 0.323294271360527D+03
-.931032305748D-06 0.000000000000D+00 0.000000000000D+00 0.886318283488D-09 0.000000000000D+00  6 -2 2 25 2 -2 21 2 0.28267623D+00 0.62537169D-01 0.53082823D+06 0.53082823D+06 0.53082823D+06 0.10666788D+01  1  2 13  4  6  5       -2 -.354620475078D-06 0.100000000000D+01
0.389719396091D-01 0.000000000000D+00 0.000000000000D+00 0.886318283488D-09 0.331377769802D-08  6 -2 2 25 2 -2 21 2 0.28267623D+00 0.62537169D-01 0.53082823D+06 0.53082823D+06 0.53082823D+06 0.10666788D+01  1  2  1  4  6  5       -2 0.148440045029D-01 0.100000000000D+01
  </mgrwgt>
  </event>
  <event>
  5     66 0.17405255E-05 0.61461897E+02 0.75467711E-02 0.93166603E-01
       -2 -1    0    0    0  501 0.00000000E+00 0.00000000E+00 0.76795267E+03 0.76795274E+03 0.32000000E+00 0.0000E+00 0.9000E+01
        2 -1    0    0  502    0 -.00000000E+00 -.00000000E+00 -.14323732E+04 0.14323733E+04 0.32000000E+00 0.0000E+00 0.9000E+01
       25  1    1    2    0    0 0.47438393E+03 0.21303512E+03 -.16977095E+03 0.56113390E+03 0.12500000E+03 0.0000E+00 0.9000E+01
        2  1    1    2  502    0 -.35270278E+02 -.50325502E+02 -.96998494E+03 0.97192980E+03 0.32000000E+00 0.0000E+00 0.9000E+01
       -2  1    1    2    0  501 -.43911366E+03 -.16270961E+03 0.47533532E+03 0.66726231E+03 0.32000000E+00 0.0000E+00 0.9000E+01
#aMCatNLO 1  0  0  4  1 0.72431215D+02 0.00000000D+00  -5  6  0 0.00000000D+00 0.00000000D+00 0.00000000D+00 0.00000000D+00 0.00000000D+00
  <mgrwgt>
 0.5755785480D-03    6    2    0
 0.104880644955030D+04 0.000000000000000D+00 0.000000000000000D+00 0.104880644955030D+04
 0.104880644955030D+04 -.000000000000000D+00 -.000000000000000D+00 -.104880644955030D+04
 0.534818455555328D+03 0.474365688690165D+03 0.213032656893984D+03 -.246764628334972D+00
 0.712339749265626D+03 -.352747587611756D+02 -.503314634260279D+02 -.709683276939474D+03
 0.850454694279638D+03 -.439090929928990D+03 -.162701193467957D+03 0.709930041567809D+03
 0.000000000000000D+00 -.000000000000000D+00 0.000000000000000D+00 0.000000000000000D+00
 0.104880644955030D+04 0.000000000000000D+00 0.000000000000000D+00 0.104880644955030D+04
 0.104880644955030D+04 -.000000000000000D+00 -.000000000000000D+00 -.104880644955030D+04
 0.534499903771552D+03 0.474130930335562D+03 0.212697694106042D+03 -.496980411136832D+01
 0.516302058311980D+03 0.459452215010970D+02 -.239149464142851D+02 -.513697311046500D+03
 0.844511400605779D+03 -.439463043105643D+03 -.163232139713908D+03 0.702443597779837D+03
 0.202299536411281D+03 -.806131087310163D+02 -.255506079778489D+02 -.183776482621969D+03
0.205500976150D-03 0.000000000000D+00 0.000000000000D+00 0.159870341842D-04 0.000000000000D+00  6 -2 2 25 2 -2 21 0 0.11814657D+00 0.22036512D+00 0.28331441D+06 0.28331441D+06 0.28331441D+06 0.10863954D+01  1  2  2  3  6  4        2 0.202756938834D-03 0.100000000000D+01
0.768249878872D-04 0.000000000000D+00 -.789177858066D-06 0.159870341842D-04 0.000000000000D+00  6 -2 2 25 2 -2 21 2 0.11814657D+00 0.22036512D+00 0.28331441D+06 0.28331441D+06 0.28331441D+06 0.10863954D+01  1  2  3  3  6  4        2 0.894623188350D-04 0.100000000000D+01
-.116312134154D-03 0.000000000000D+00 0.000000000000D+00 0.159870341842D-04 0.000000000000D+00  6 -2 2 25 2 -2 21 2 0.11814657D+00 0.22036512D+00 0.28331441D+06 0.28331441D+06 0.28331441D+06 0.10863954D+01  1  2 15  3  6  4        2 -.135444905573D-03 0.100000000000D+01
-.359200251780D-04 0.000000000000D+00 0.000000000000D+00 0.159870341842D-04 0.000000000000D+00  6 -2 2 25 2 -2 21 2 0.11814657D+00 0.22036512D+00 0.28331441D+06 0.28331441D+06 0.28331441D+06 0.10863954D+01  1  2  4  3  6  4        2 -.418286918542D-04 0.100000000000D+01
-.122781680407D-02 0.000000000000D+00 0.000000000000D+00 0.159870341842D-04 0.000000000000D+00  6 -2 2 25 2 -2 21 2 0.11814657D+00 0.22036512D+00 0.28331441D+06 0.28331441D+06 0.28331441D+06 0.10863954D+01  1  2  5  3  6  4        2 -.142978660222D-02 0.100000000000D+01
0.162338128844D-02 0.000000000000D+00 -.000000000000D+00 0.159870341842D-04 0.000000000000D+00  6 -2 2 25 2 -2 21 2 0.11814657D+00 0.22036512D+00 0.28331441D+06 0.28331441D+06 0.28331441D+06 0.10863954D+01  1  2  6  3  6  4        2 0.189041948994D-02 0.100000000000D+01
  </mgrwgt>
  </event>
  <event>
  5     66 0.17405255E-05 0.10262625E+02 0.75467711E-02 0.90566546E-01
       -2 -1    0    0    0  501 0.00000000E+00 0.00000000E+00 0.74967086E+03 0.74967093E+03 0.32000000E+00 0.0000E+00 0.9000E+01
        2 -1    0    0  502    0 -.00000000E+00 -.00000000E+00 -.40599603E+04 0.40599604E+04 0.32000000E+00 0.0000E+00 0.9000E+01
       25  1    1    2    0    0 -.38431651E+03 0.37598416E+03 -.57450095E+03 0.79670547E+03 0.12500000E+03 0.0000E+00 0.9000E+01
        2  1    1    2  502    0 0.70167496E+01 0.74881473E+01 -.32610450E+04 0.32610611E+04 0.32000000E+00 0.0000E+00 0.9000E+01
       -2  1    1    2    0  501 0.37729976E+03 -.38347230E+03 0.52525642E+03 0.75186470E+03 0.32000000E+00 0.0000E+00 0.9000E+01
#aMCatNLO 1  0  0  5  5 0.24763028D-01 0.00000000D+00  -5  6  0 0.00000000D+00 0.00000000D+00 0.00000000D+00 0.00000000D+00 0.00000000D+00
  <mgrwgt>
 0.4319943119D-02    6    2    0
 0.174460142889581D+04 0.000000000000000D+00 0.000000000000000D+00 0.174460142889581D+04
 0.174460142889581D+04 -.000000000000000D+00 -.000000000000000D+00 -.174460142889581D+04
 0.553148227888958D+03 -.384310129707206D+03 0.375976674762839D+03 -.359892519428091D+02
 0.140136457778880D+04 0.701725774383112D+01 0.748862915575592D+01 -.140132699910061D+04
 0.153469005211386D+04 0.377292871963375D+03 -.383465303918595D+03 0.143731625104342D+04
 0.000000000000000D+00 0.000000000000000D+00 0.000000000000000D+00 0.000000000000000D+00
 0.174460142889581D+04 0.000000000000000D+00 0.000000000000000D+00 0.174460142889581D+04
 0.174460142889581D+04 -.000000000000000D+00 -.000000000000000D+00 -.174460142889581D+04
 0.541803730503899D+03 -.376938721923348D+03 0.368484672299513D+03 -.790750169486081D+01
 0.133152750566257D+04 0.254155644658587D+02 -.112106699909153D+02 -.133123772043059D+04
 0.110852088176427D+04 0.548107039223326D+03 -.405731131973595D+03 0.873944773660617D+03
 0.507350739860875D+03 -.196583881765836D+03 0.484571296649962D+02 0.465200448464834D+03
0.887030199193D-01 0.000000000000D+00 0.000000000000D+00 0.342003378488D-03 0.000000000000D+00  6 -2 2 25 2 -2 21 0 0.11533398D+00 0.62460929D+00 0.30260660D+06 0.30260660D+06 0.30260660D+06 0.10842740D+01  1  2  2  4  6  5       -2 0.202922408933D-02 0.100000000000D+01
0.114967030344D+00 0.000000000000D+00 -.340642952531D-03 0.342003378488D-03 0.000000000000D+00  6 -2 2 25 2 -2 21 2 0.11533398D+00 0.62460929D+00 0.30260660D+06 0.30260660D+06 0.30260660D+06 0.10842740D+01  1  2  3  4  6  5       -2 0.309202508897D-02 0.100000000000D+01
-.565349517933D-01 0.000000000000D+00 0.000000000000D+00 0.342003378488D-03 0.000000000000D+00  6 -2 2 25 2 -2 21 2 0.11533398D+00 0.62460929D+00 0.30260660D+06 0.30260660D+06 0.30260660D+06 0.10842740D+01  1  2 15  4  6  5       -2 -.152050104125D-02 0.100000000000D+01
-.897383039966D-02 0.000000000000D+00 0.000000000000D+00 0.342003378488D-03 0.000000000000D+00  6 -2 2 25 2 -2 21 2 0.11533398D+00 0.62460929D+00 0.30260660D+06 0.30260660D+06 0.30260660D+06 0.10842740D+01  1  2  4  4  6  5       -2 -.241350138877D-03 0.100000000000D+01
-.937128500362D-01 0.000000000000D+00 0.000000000000D+00 0.342003378488D-03 0.000000000000D+00  6 -2 2 25 2 -2 21 2 0.11533398D+00 0.62460929D+00 0.30260660D+06 0.30260660D+06 0.30260660D+06 0.10842740D+01  1  2  5  4  6  5       -2 -.252039634844D-02 0.100000000000D+01
0.129427637868D+00 0.000000000000D+00 -.000000000000D+00 0.342003378488D-03 0.000000000000D+00  6 -2 2 25 2 -2 21 2 0.11533398D+00 0.62460929D+00 0.30260660D+06 0.30260660D+06 0.30260660D+06 0.10842740D+01  1  2  6  4  6  5       -2 0.348094146899D-02 0.100000000000D+01
  </mgrwgt>
  </event>
  <event>
  5     66 0.17405255E-05 0.32514985E+02 0.75467711E-02 0.93357209E-01
       -2 -1    0    0    0  501 0.00000000E+00 0.00000000E+00 0.57329181E+03 0.57329190E+03 0.32000000E+00 0.0000E+00 0.9000E+01
        2 -1    0    0  502    0 -.00000000E+00 -.00000000E+00 -.30826311E+04 0.30826311E+04 0.32000000E+00 0.0000E+00 0.9000E+01
       25  1    1    2    0    0 -.22115720E+03 -.45058115E+03 -.12947849E+04 0.13942836E+04 0.12500000E+03 0.0000E+00 0.9000E+01
        2  1    1    2  502    0 -.11122664E+02 0.30552885E+02 -.16278913E+04 0.16282160E+04 0.32000000E+00 0.0000E+00 0.9000E+01
       -2  1    1    2    0  501 0.23227986E+03 0.42002826E+03 0.41333692E+03 0.63342339E+03 0.32000000E+00 0.0000E+00 0.9000E+01
#aMCatNLO 1  0  0  4  2 0.15080772D+02 0.00000000D+00  -5  6  0 0.00000000D+00 0.00000000D+00 0.00000000D+00 0.00000000D+00 0.00000000D+00
  <mgrwgt>
 0.3628394165D-02    4    2    0
 0.132937856209655D+04 0.000000000000000D+00 0.000000000000000D+00 0.132937856209655D+04
 0.132937856209655D+04 -.000000000000000D+00 -.000000000000000D+00 -.132937856209655D+04
 0.695183151635293D+03 -.221156881518347D+03 -.450581177875696D+03 -.464457587104366D+03
 0.702478789243488D+03 -.111227182457920D+02 0.305533859410636D+02 -.701725890275796D+03
 0.126109518331431D+04 0.232279599764138D+03 0.420027791934634D+03 0.116618347738016D+04
 0.000000000000000D+00 0.000000000000000D+00 0.000000000000000D+00 0.000000000000000D+00
 0.132937856209655D+04 0.000000000000000D+00 0.000000000000000D+00 0.132937856209655D+04
 0.132937856209655D+04 -.000000000000000D+00 -.000000000000000D+00 -.132937856209655D+04
 0.736277172774990D+03 -.222129943052946D+03 -.447908240923233D+03 -.525847479086743D+03
 0.638243862918368D+03 0.541872502127847D+02 0.230340993946421D+02 -.635522148105332D+03
 0.116679668593399D+04 0.230629195524605D+03 0.424561345385772D+03 0.106206042412023D+04
 0.117439402565741D+03 -.626865026844439D+02 0.312796142821254D+00 0.993092030718422D+02
0.213013521878D-01 0.000000000000D+00 0.000000000000D+00 0.969880203693D-04 0.000000000000D+00  6 -2 2 25 2 -2 21 0 0.88198749D-01 0.47425095D+00 0.26509731D+06 0.26509731D+06 0.26509731D+06 0.10885485D+01  1  2  2  3  6  4        2 0.487939978227D-02 0.100000000000D+01
0.107792836789D-01 0.000000000000D+00 -.818028011760D-04 0.969880203693D-04 0.000000000000D+00  6 -2 2 25 2 -2 21 2 0.88198749D-01 0.47425095D+00 0.26509731D+06 0.26509731D+06 0.26509731D+06 0.10885485D+01  1  2  3  3  6  4        2 0.292580052397D-02 0.100000000000D+01
-.128525829403D-01 0.000000000000D+00 0.000000000000D+00 0.969880203693D-04 0.000000000000D+00  6 -2 2 25 2 -2 21 2 0.88198749D-01 0.47425095D+00 0.26509731D+06 0.26509731D+06 0.26509731D+06 0.10885485D+01  1  2 15  3  6  4        2 -.348855221008D-02 0.100000000000D+01
-.253567675101D-02 0.000000000000D+00 0.000000000000D+00 0.969880203693D-04 0.000000000000D+00  6 -2 2 25 2 -2 21 2 0.88198749D-01 0.47425095D+00 0.26509731D+06 0.26509731D+06 0.26509731D+06 0.10885485D+01  1  2  4  3  6  4        2 -.688253931125D-03 0.100000000000D+01
  </mgrwgt>
  </event>
  <event>
  5     66 0.17405255E-05 0.87290936E+02 0.75467711E-02 0.85929532E-01
       -2 -1    0    0    0  501 0.00000000E+00 0.00000000E+00 0.49413942E+03 0.49413953E+03 0.32000000E+00 0.0000E+00 0.9000E+01
        2 -1    0    0  502    0 0.00000000E+00 0.00000000E+00 -.21707973E+04 0.21707974E+04 0.32000000E+00 0.0000E+00 0.9000E+01
       25  1    1    2    0    0 -.12675513E+03 0.46700240E+03 -.10784187E+03 0.51128561E+03 0.12500000E+03 0.0000E+00 0.9000E+01
        2  1    1    2  502    0 0.81463320E+02 0.31327343E+02 -.16451630E+04 0.16474766E+04 0.32000000E+00 0.0000E+00 0.9000E+01
       -2  1    1    2    0  501 0.45291811E+02 -.49832975E+03 0.76346940E+02 0.50617471E+03 0.32000000E+00 0.0000E+00 0.9000E+01
#aMCatNLO 1  0  0  2  4 0.36765695D+01 0.00000000D+00  -5  6  0 0.00000000D+00 0.00000000D+00 0.00000000D+00 0.00000000D+00 0.00000000D+00
  <mgrwgt>
 0.1873061890D-02    3    2    0
 0.103570107481355D+04 0.000000000000000D+00 0.000000000000000D+00 0.103570107481355D+04
 0.103570107481355D+04 0.000000000000000D+00 0.000000000000000D+00 -.103570107481355D+04
 0.570510939765768D+03 -.126760828526786D+03 0.466939141263381D+03 0.275240373310018D+03
 0.787966345562003D+03 0.814744492903753D+02 0.313308402903352D+02 -.783116373406832D+03
 0.712924864299334D+03 0.452863792364104D+02 -.498269981553716D+03 0.507876000096814D+03
 0.000000000000000D+00 0.000000000000000D+00 -.000000000000000D+00 0.000000000000000D+00
 0.168739279654389D+04 0.000000000000000D+00 0.000000000000000D+00 0.168739279654389D+04
 0.150715487780069D+04 0.000000000000000D+00 0.000000000000000D+00 -.150715487780069D+04
 0.807415198968437D+03 -.334186499875223D+03 0.669967479603712D+03 0.275240373310018D+03
 0.845131480721560D+03 -.164363410571781D+03 0.271957045641328D+03 -.783116373406832D+03
 0.611209801069785D+03 -.154041809843620D+03 -.303167462418923D+03 0.507876000096814D+03
 0.930791193584794D+03 0.652591720290623D+03 -.638757062826117D+03 0.180237918743205D+03
0.304111061412D-02 0.000000000000D+00 0.000000000000D+00 0.381042361570D-05 0.000000000000D+00  6 -2 2 25 2 -2 21 0 0.76021459D-01 0.33396883D+00 0.29557710D+06 0.29557710D+06 0.29557710D+06 0.10850294D+01  1  2  2  2  6  2        2 0.336011611335D-02 0.100000000000D+01
0.870705209211D-03 0.000000000000D+00 -.116786655011D-04 0.381042361570D-05 0.000000000000D+00  6 -2 2 25 2 -2 21 2 0.76021459D-01 0.33396883D+00 0.29557710D+06 0.29557710D+06 0.29557710D+06 0.10850294D+01  1  2  3  2  6  2        2 0.113259917604D-02 0.100000000000D+01
-.201390386771D-02 0.000000000000D+00 0.000000000000D+00 0.381042361570D-05 0.000000000000D+00  6 -2 2 25 2 -2 21 2 0.76021459D-01 0.33396883D+00 0.29557710D+06 0.29557710D+06 0.29557710D+06 0.10850294D+01  1  2 15  2  6  2        2 -.261965339941D-02 0.100000000000D+01
  </mgrwgt>
  </event>
  <event>
  5     66 0.17405255E-05 0.11715309E+03 0.75467711E-02 0.95180785E-01
       -2 -1    0    0    0  501 0.00000000E+00 0.00000000E+00 0.15992106E+04 0.15992106E+04 0.32000000E+00 0.0000E+00 0.9000E+01
        2 -1    0    0  502    0 0.00000000E+00 0.00000000E+00 -.13421584E+04 0.13421585E+04 0.32000000E+00 0.0000E+00 0.9000E+01
       25  1    1    2    0    0 0.19428161E+03 0.40920882E+03 0.49469950E+03 0.68231210E+03 0.12500000E+03 0.0000E+00 0.9000E+01
        2  1    1    2  502    0 -.25317555E+02 -.11437225E+03 -.12168963E+04 0.12225214E+04 0.32000000E+00 0.0000E+00 0.9000E+01
       -2  1    1    2    0  501 -.16896405E+03 -.29483657E+03 0.97924893E+03 0.10365356E+04 0.32000000E+00 0.0000E+00 0.9000E+01
#aMCatNLO 1  0  0  2  1 0.56560320D+02 0.00000000D+00  -5  6  0 0.00000000D+00 0.00000000D+00 0.00000000D+00 0.00000000D+00 0.00000000D+00
  <mgrwgt>
 0.9382879824D-03    9    2    0
 0.146505770592989D+04 0.000000000000000D+00 0.000000000000000D+00 0.146505770592989D+04
 0.146505770592989D+04 0.000000000000000D+00 0.000000000000000D+00 -.146505770592989D+04
 0.641603300085463D+03 0.194266257509887D+03 0.409189142798932D+03 0.436869158088705D+03
 0.133400494867964D+04 -.253202889765076D+02 -.114384129125851D+03 -.132885076553842D+04
 0.954507163094673D+03 -.168945968533379D+03 -.294805013673081D+03 0.891981607449713D+03
 0.000000000000000D+00 -.000000000000000D+00 -.000000000000000D+00 -.000000000000000D+00
 0.146628732218045D+04 0.000000000000000D+00 0.000000000000000D+00 0.146628732218045D+04
 0.230130037966918D+04 0.000000000000000D+00 0.000000000000000D+00 -.230130037966918D+04
 0.650458301618200D+03 0.200094001834477D+03 0.420212721469453D+03 0.436869158088705D+03
 0.133207304441624D+04 -.132951495615663D+02 -.916377519717877D+02 -.132885076553842D+04
 0.948129909830794D+03 -.160364270579601D+03 -.278572142556729D+03 0.891981607449713D+03
 0.836926445984390D+03 -.264345816933097D+02 -.500028269409355D+02 -.835013057488730D+03
0.111322486173D-03 0.000000000000D+00 0.000000000000D+00 0.609721149361D-04 0.000000000000D+00  6 -2 2 25 2 -2 21 0 0.24603241D+00 0.20648592D+00 0.21475356D+06 0.21475356D+06 0.21475356D+06 0.10954592D+01  1  2  2  2  6  2        2 0.143248131008D-04 0.100000000000D+01
0.236239130018D-04 0.000000000000D+00 -.427507658790D-06 0.609721149361D-04 0.000000000000D+00  6 -2 2 25 2 -2 21 2 0.24603241D+00 0.20648592D+00 0.21475356D+06 0.21475356D+06 0.21475356D+06 0.10954592D+01  1  2  3  2  6  2        2 0.364796241227D-05 0.100000000000D+01
-.646461514500D-04 0.000000000000D+00 0.000000000000D+00 0.609721149361D-04 0.000000000000D+00  6 -2 2 25 2 -2 21 2 0.24603241D+00 0.20648592D+00 0.21475356D+06 0.21475356D+06 0.21475356D+06 0.10954592D+01  1  2 15  2  6  2        2 -.998254313622D-05 0.100000000000D+01
0.181437824898D-09 0.000000000000D+00 0.000000000000D+00 0.609721149361D-04 0.000000000000D+00  6 -2 2 25 2 -2 21 2 0.24603241D+00 0.32439181D+00 0.22681630D+06 0.22681630D+06 0.22681630D+06 0.10936531D+01  1  2 12  2  6  2        2 0.106069945543D-10 0.100000000000D+01
-.475472419922D-02 0.000000000000D+00 0.000000000000D+00 0.609721149361D-04 0.000000000000D+00  6 -2 2 25 2 -2 21 2 0.24603241D+00 0.20648592D+00 0.21475356D+06 0.21475356D+06 0.21475356D+06 0.10954592D+01  1  2  4  2  6  2        2 -.734216010621D-03 0.100000000000D+01
-.206342842036D-01 0.000000000000D+00 -.743953978646D-04 0.609721149361D-04 0.000000000000D+00  6 -2 2 25 2 -2 21 2 0.24603241D+00 0.32441811D+00 0.21475356D+06 0.21475356D+06 0.21475356D+06 0.10954592D+01  1  2  5  2  6  2        2 -.121644593021D-02 0.100000000000D+01
0.187304814234D-01 0.000000000000D+00 0.673987349183D-04 0.609721149361D-04 0.000000000000D+00  6 -2 2 25 2 -2 21 2 0.24603241D+00 0.20648592D+00 0.21475356D+06 0.21475356D+06 0.21475356D+06 0.10954592D+01  1  2  6  2  6  2        2 0.289232745612D-02 0.100000000000D+01
0.945577693716D-11 0.000000000000D+00 0.000000000000D+00 0.609721149361D-04 0.000000000000D+00  6 -2 21 25 2 -2 -2 2 0.24603241D+00 0.32439181D+00 0.22681630D+06 0.22681630D+06 0.22681630D+06 0.10936531D+01  1  2 12  6  6  2        2 0.991172412515D-13 0.100000000000D+01
-.107254349127D-02 0.000000000000D+00 -.387770389904D-05 0.609721149361D-04 0.000000000000D+00  6 -2 21 25 2 -2 -2 2 0.24603241D+00 0.32441811D+00 0.21475356D+06 0.21475356D+06 0.21475356D+06 0.10954592D+01  1  2  5  6  6  2        2 -.113677759850D-04 0.100000000000D+01
  </mgrwgt>
  </event>
  <event>
  5     66 0.17405255E-05 0.16495690E+02 0.75467711E-02 0.93345920E-01
       -2 -1    0    0    0  501 0.00000000E+00 0.00000000E+00 0.22938810E+03 0.22938832E+03 0.32000000E+00 0.0000E+00 0.9000E+01
        2 -1    0    0  502    0 -.00000000E+00 -.00000000E+00 -.15864449E+04 0.15864449E+04 0.32000000E+00 0.0000E+00 0.9000E+01
       25  1    1    2    0    0 -.32156250E+03 -.45051630E+03 -.50446850E+03 0.75926336E+03 0.12500000E+03 0.0000E+00 0.9000E+01
        2  1    1    2  502    0 0.31320843E+03 0.43621631E+03 -.87623278E+03 0.10277004E+04 0.32000000E+00 0.0000E+00 0.9000E+01
       -2  1    1    2    0  501 0.83540750E+01 0.14299999E+02 0.23644493E+02 0.28869447E+02 0.32000000E+00 0.0000E+00 0.9000E+01
#aMCatNLO 1  0  0  4  2 0.47934791D+02 0.00000000D+00  -5  6  0 0.00000000D+00 0.00000000D+00 0.00000000D+00 0.00000000D+00 0.00000000D+00
  <mgrwgt>
 0.2623126755D-03    4    2    0
 0.603251028202099D+03 0.000000000000000D+00 0.000000000000000D+00 0.603251028202099D+03
 0.603251028202099D+03 -.000000000000000D+00 -.000000000000000D+00 -.603251028202099D+03
 0.575436720008288D+03 -.321626394805268D+03 -.450598918896159D+03 0.949710228863279D+02
 0.561299395161543D+03 0.313305474625253D+03 0.436355672672922D+03 -.162758770899514D+03
 0.697659412343672D+02 0.832092018001494D+01 0.142432462232365D+02 0.677877480131864D+02
 0.000000000000000D+00 0.000000000000000D+00 0.000000000000000D+00 0.000000000000000D+00
 0.603251028202099D+03 0.000000000000000D+00 0.000000000000000D+00 0.603251028202099D+03
 0.603251028202099D+03 -.000000000000000D+00 -.000000000000000D+00 -.603251028202099D+03
 0.452862410614142D+03 -.250346630509074D+03 -.351324147095136D+03 0.579419641354965D+02
 0.526151908294287D+03 0.293062687913174D+03 0.349287425903795D+03 -.262580246135016D+03
 0.709578837136186D+02 0.180756314059980D+02 0.278291038717031D+02 0.627202821110355D+02
 0.156529853782152D+03 -.607916888100975D+02 -.257923826803621D+02 0.141917999888484D+03
0.303371246530D-04 0.000000000000D+00 0.000000000000D+00 0.151557428342D-06 0.000000000000D+00  6 -2 2 25 2 -2 21 0 0.35290496D-01 0.24406846D+00 0.31428647D+06 0.31428647D+06 0.31428647D+06 0.10830602D+01  1  2  2  3  6  4        2 0.326058555926D-03 0.100000000000D+01
0.132152999386D-04 0.000000000000D+00 -.116502546616D-06 0.151557428342D-06 0.000000000000D+00  6 -2 2 25 2 -2 21 2 0.35290496D-01 0.24406846D+00 0.31428647D+06 0.31428647D+06 0.31428647D+06 0.10830602D+01  1  2  3  3  6  4        2 0.166610900860D-03 0.100000000000D+01
-.182013213409D-04 0.000000000000D+00 0.000000000000D+00 0.151557428342D-06 0.000000000000D+00  6 -2 2 25 2 -2 21 2 0.35290496D-01 0.24406846D+00 0.31428647D+06 0.31428647D+06 0.31428647D+06 0.10830602D+01  1  2 15  3  6  4        2 -.229471790995D-03 0.100000000000D+01
-.701959589343D-07 0.000000000000D+00 0.000000000000D+00 0.151557428342D-06 0.000000000000D+00  6 -2 2 25 2 -2 21 2 0.35290496D-01 0.24406846D+00 0.31428647D+06 0.31428647D+06 0.31428647D+06 0.10830602D+01  1  2  4  3  6  4        2 -.884990277112D-06 0.100000000000D+01
  </mgrwgt>
  </event>
  <event>
  5     66 0.17405255E-05 0.25773098E+02 0.75467711E-02 0.94832496E-01
       -2 -1    0    0    0  501 0.00000000E+00 0.00000000E+00 0.56334948E+03 0.56334957E+03 0.32000000E+00 0.0000E+00 0.9000E+01
        2 -1    0    0  502    0 -.00000000E+00 -.00000000E+00 -.23427894E+04 0.23427894E+04 0.32000000E+00 0.0000E+00 0.9000E+01
       25  1    1    2    0    0 0.16205586E+03 -.43040850E+03 -.51834535E+03 0.70414521E+03 0.12500000E+03 0.0000E+00 0.9000E+01
        2  1    1    2  502    0 0.23924217E+02 -.95802912E+01 -.16101588E+04 0.16103650E+04 0.32000000E+00 0.0000E+00 0.9000E+01
       -2  1    1    2    0  501 -.18598007E+03 0.43998879E+03 0.34906417E+03 0.59162878E+03 0.32000000E+00 0.0000E+00 0.9000E+01
#aMCatNLO 1  0  0  4  1 0.15087629D+01 0.00000000D+00  -5  6  0 0.00000000D+00 0.00000000D+00 0.00000000D+00 0.00000000D+00 0.00000000D+00
  <mgrwgt>
 0.3972598582D-02    7    2    0
 0.114882955790056D+04 0.000000000000000D+00 0.000000000000000D+00 0.114882955790056D+04
 0.114882955790056D+04 -.000000000000000D+00 -.000000000000000D+00 -.114882955790056D+04
 0.489160813478312D+03 0.162050343690460D+03 -.430399253187083D+03 -.110224636123549D+03
 0.789875323344008D+03 0.239260971732851D+02 -.958094105804000D+01 -.789454731995634D+03
 0.101862297897880D+04 -.185976440863744D+03 0.439980194245123D+03 0.899679368119183D+03
 0.000000000000000D+00 0.000000000000000D+00 0.000000000000000D+00 -.000000000000000D+00
 0.114882955790056D+04 0.000000000000000D+00 0.000000000000000D+00 0.114882955790056D+04
 0.114882955790056D+04 -.000000000000000D+00 -.000000000000000D+00 -.114882955790056D+04
 0.489166261651877D+03 0.162051014701994D+03 -.430399521886233D+03 -.110246776518090D+03
 0.778765056549241D+03 0.249221916862609D+02 -.873953469600433D+01 -.778317106452757D+03
 0.101858176217023D+04 -.185975043592918D+03 0.439979634723470D+03 0.899633264400011D+03
 0.111460354297773D+02 -.998162795335813D+00 -.840578141233976D+00 -.110693814291648D+02
0.163456997358D-03 0.000000000000D+00 0.000000000000D+00 0.683548235124D-04 0.000000000000D+00  6 -2 2 25 2 -2 21 0 0.86669159D-01 0.36042915D+00 0.24011209D+06 0.24011209D+06 0.24011209D+06 0.10917800D+01  1  2  2  3  6  4        2 0.109153330510D-03 0.100000000000D+01
0.111026687187D-03 0.000000000000D+00 -.627717909069D-06 0.683548235124D-04 0.000000000000D+00  6 -2 2 25 2 -2 21 2 0.86669159D-01 0.36042915D+00 0.24011209D+06 0.24011209D+06 0.24011209D+06 0.10917800D+01  1  2  3  3  6  4        2 0.883753510615D-04 0.100000000000D+01
-.995946988423D-04 0.000000000000D+00 0.000000000000D+00 0.683548235124D-04 0.000000000000D+00  6 -2 2 25 2 -2 21 2 0.86669159D-01 0.36042915D+00 0.24011209D+06 0.24011209D+06 0.24011209D+06 0.10917800D+01  1  2 15  3  6  4        2 -.792756831449D-04 0.100000000000D+01
-.138320784771D-01 0.000000000000D+00 0.000000000000D+00 0.683548235124D-04 0.000000000000D+00  6 -2 2 25 2 -2 21 2 0.86669159D-01 0.36042915D+00 0.24011209D+06 0.24011209D+06 0.24011209D+06 0.10917800D+01  1  2  4  3  6  4        2 -.110100987636D-01 0.100000000000D+01
-.340258651091D+00 0.000000000000D+00 0.000000000000D+00 0.683548235124D-04 0.000000000000D+00  6 -2 2 25 2 -2 21 2 0.86669159D-01 0.36042915D+00 0.24011209D+06 0.24011209D+06 0.24011209D+06 0.10917800D+01  1  2  5  3  6  4        2 -.270840088124D+00 0.100000000000D+01
0.345093959458D+00 0.000000000000D+00 -.000000000000D+00 0.683548235124D-04 0.000000000000D+00  6 -2 2 25 2 -2 21 2 0.86669159D-01 0.36042915D+00 0.24011209D+06 0.24011209D+06 0.24011209D+06 0.10917800D+01  1  2  6  3  6  4        2 0.274688911190D+00 0.100000000000D+01
0.138462764834D-01 0.000000000000D+00 0.000000000000D+00 0.683548235124D-04 0.142934590547D-04  6 -2 2 25 2 -2 21 2 0.86669159D-01 0.36042915D+00 0.24106435D+06 0.24106435D+06 0.24106435D+06 0.10916503D+01  1  2 11  3  6  4        2 0.110156212817D-01 0.100000000000D+01
  </mgrwgt>
  </event>
  <event>
  5     66 -.17405255E-05 0.75706618E+02 0.75467711E-02 0.94913499E-01
       -2 -1    0    0    0  501 0.00000000E+00 0.00000000E+00 0.50612416E+03 0.50612426E+03 0.32000000E+00 0.0000E+00 0.9000E+01
        2 -1    0    0  502    0 0.00000000E+00 0.00000000E+00 -.14987393E+04 0.14987393E+04 0.32000000E+00 0.0000E+00 0.9000E+01
       25  1    1    2    0    0 -.45910545E+03 -.99697585E+02 -.57716168E+03 0.75462442E+03 0.12500000E+03 0.0000E+00 0.9000E+01
        2  1    1    2  502    0 0.47995033E+02 0.58540535E+02 -.72815586E+03 0.73208030E+03 0.32000000E+00 0.0000E+00 0.9000E+01
       -2  1    1    2    0  501 0.41111042E+03 0.41157050E+02 0.31270242E+03 0.51815884E+03 0.32000000E+00 0.0000E+00 0.9000E+01
#aMCatNLO 1  0  0  1  5 0.82535360D+02 0.00000000D+00  -5  6  0 0.00000000D+00 0.00000000D+00 0.00000000D+00 0.00000000D+00 0.00000000D+00
  <mgrwgt>
 -.3040038607D-03    7    4    0
 0.870946780653884D+03 0.000000000000000D+00 0.000000000000000D+00 0.870946780653884D+03
 0.870946780653884D+03 0.000000000000000D+00 0.000000000000000D+00 -.870946780653884D+03
 0.539632796273748D+03 -.459102942140002D+03 -.997014480197008D+02 -.234227804915201D+03
 0.427697035189349D+03 0.479996092292020D+02 0.585451068001527D+02 -.420943300093209D+03
 0.774563729844672D+03 0.411103332910800D+03 0.411563412195481D+02 0.655171105008410D+03
 0.000000000000000D+00 -.000000000000000D+00 0.000000000000000D+00 0.000000000000000D+00
 0.130950566103989D+04 0.000000000000000D+00 0.000000000000000D+00 0.130950566103989D+04
 0.876418166410252D+03 0.000000000000000D+00 0.000000000000000D+00 -.876418166410252D+03
 0.517996400833669D+03 -.432742064230325D+03 -.102795488845179D+03 -.234227804915201D+03
 0.430287575299178D+03 0.693844458310349D+02 0.560351161344794D+02 -.420943300093209D+03
 0.795805018319791D+03 0.450243987269391D+03 0.365623067212911D+02 0.655171105008410D+03
 0.441834832997503D+03 -.868863688701011D+02 0.101980659894081D+02 0.433087494629637D+03
 0.870946780653884D+03 0.000000000000000D+00 0.000000000000000D+00 0.870946780653884D+03
 0.870946780653884D+03 0.000000000000000D+00 0.000000000000000D+00 -.870946780653884D+03
 0.539632796273748D+03 -.459102942140002D+03 -.997014480197008D+02 -.234227804915201D+03
 0.427697035189349D+03 0.479996092292020D+02 0.585451068001527D+02 -.420943300093209D+03
 0.000000000000000D+00 -.000000000000000D+00 0.000000000000000D+00 0.000000000000000D+00
 0.774563729844672D+03 0.411103332910800D+03 0.411563412195481D+02 0.655171105008410D+03
 0.130950566103989D+04 0.000000000000000D+00 0.000000000000000D+00 0.130950566103989D+04
 0.876418166410252D+03 0.000000000000000D+00 0.000000000000000D+00 -.876418166410252D+03
 0.517996400833669D+03 -.432742064230325D+03 -.102795488845179D+03 -.234227804915201D+03
 0.430287575299178D+03 0.693844458310349D+02 0.560351161344794D+02 -.420943300093209D+03
 0.441834832997503D+03 -.868863688701011D+02 0.101980659894081D+02 0.433087494629637D+03
 0.795805018319791D+03 0.450243987269391D+03 0.365623067212911D+02 0.655171105008410D+03
0.950308075614D-04 0.000000000000D+00 0.000000000000D+00 0.564417325125D-05 0.000000000000D+00  6 -2 2 25 2 -2 21 0 0.77865266D-01 0.23057528D+00 0.23766306D+06 0.23766306D+06 0.23766306D+06 0.10921164D+01  1  2  2  1  6  1       -2 0.234918847765D-03 0.100000000000D+01
0.205495410314D-04 0.000000000000D+00 -.364943323222D-06 0.564417325125D-05 0.000000000000D+00  6 -2 2 25 2 -2 21 2 0.77865266D-01 0.23057528D+00 0.23766306D+06 0.23766306D+06 0.23766306D+06 0.10921164D+01  1  2  3  1  6  1       -2 0.605889488859D-04 0.100000000000D+01
-.593767299794D-04 0.000000000000D+00 0.000000000000D+00 0.564417325125D-05 0.000000000000D+00  6 -2 2 25 2 -2 21 2 0.77865266D-01 0.23057528D+00 0.23766306D+06 0.23766306D+06 0.23766306D+06 0.10921164D+01  1  2 15  1  6  1       -2 -.175068321586D-03 0.100000000000D+01
-.121391179202D-02 0.000000000000D+00 0.000000000000D+00 0.564417325125D-05 0.000000000000D+00  6 -2 2 25 2 -2 21 2 0.77865266D-01 0.23057528D+00 0.23766306D+06 0.23766306D+06 0.23766306D+06 0.10921164D+01  1  2  4  1  6  1       -2 -.357913782143D-02 0.100000000000D+01
-.270066979122D-02 0.000000000000D+00 -.798852336871D-04 0.564417325125D-05 0.000000000000D+00  6 -2 2 25 2 -2 21 2 0.11735113D+00 0.23057528D+00 0.23766306D+06 0.23766306D+06 0.23766306D+06 0.10921164D+01  1  2  5  1  6  1       -2 -.300341454891D-02 0.100000000000D+01
0.252435387047D-02 0.000000000000D+00 0.736056154989D-04 0.564417325125D-05 0.000000000000D+00  6 -2 2 25 2 -2 21 2 0.77865266D-01 0.23057528D+00 0.23766306D+06 0.23766306D+06 0.23766306D+06 0.10921164D+01  1  2  6  1  6  1       -2 0.744288874354D-02 0.100000000000D+01
-.128132973952D-03 0.000000000000D+00 -.387357607874D-05 0.564417325125D-05 0.000000000000D+00  6 21 2 25 2 2 -2 2 0.11735113D+00 0.23057528D+00 0.23766306D+06 0.23766306D+06 0.23766306D+06 0.10921164D+01  3  4  5  5  5  1       -2 -.128477970893D-02 0.100000000000D+01
  </mgrwgt>
  </event>
  <event>
  5     66 -.17405255E-05 0.14012078E+03 0.75467711E-02 0.93399476E-01
       -2 -1    0    0    0  501 0.00000000E+00 0.00000000E+00 0.95847196E+03 0.95847201E+03 0.32000000E+00 0.0000E+00 0.9000E+01
        2 -1    0    0  502    0 -.00000000E+00 -.00000000E+00 -.42121151E+04 0.42121151E+04 0.32000000E+00 0.0000E+00 0.9000E+01
       25  1    1    2    0    0 0.40232098E+03 -.29225066E+03 -.80833526E+02 0.51906809E+03 0.12500000E+03 0.0000E+00 0.9000E+01
        2  1    1    2  502    0 -.26637378E+03 0.25828119E+03 -.38966325E+04 0.39142571E+04 0.32000000E+00 0.0000E+00 0.9000E+01
       -2  1    1    2    0  501 -.13594720E+03 0.33969471E+02 0.72382283E+03 0.73726193E+03 0.32000000E+00 0.0000E+00 0.9000E+01
#aMCatNLO 1  0  0  5  4 0.91285004D+02 0.00000000D+00  -5  6  0 0.00000000D+00 0.00000000D+00 0.00000000D+00 0.00000000D+00 0.00000000D+00
  <mgrwgt>
 -.3389228375D-03    5    2    0
 0.200927708369719D+04 0.000000000000000D+00 0.000000000000000D+00 0.200927708369719D+04
 0.200927708369719D+04 -.000000000000000D+00 -.000000000000000D+00 -.200927708369719D+04
 0.602482713876912D+03 0.402334765308097D+03 -.292267900801674D+03 0.316333101818242D+03
 0.188147324806641D+04 -.266393566783263D+03 0.258299929132419D+03 -.184452085848229D+04
 0.153459820545106D+04 -.135941198524835D+03 0.339679716692554D+02 0.152818775666405D+04
 0.000000000000000D+00 0.000000000000000D+00 0.000000000000000D+00 0.000000000000000D+00
 0.200927708369719D+04 0.000000000000000D+00 0.000000000000000D+00 0.200927708369719D+04
 0.200927708369719D+04 -.000000000000000D+00 -.000000000000000D+00 -.200927708369719D+04
 0.603417808891113D+03 0.402152437700193D+03 -.292222342140378D+03 0.318382744024761D+03
 0.187531408286536D+04 -.266961578849367D+03 0.258441859746380D+03 -.183813553089597D+04
 0.423469350793402D+03 -.238837909998563D+02 0.995394187230987D+02 0.410910890229413D+03
 0.111635292484451D+04 -.111307067850969D+03 -.657589363291008D+02 0.110884189664180D+04
0.879510542875D-02 0.000000000000D+00 0.000000000000D+00 0.187882035605D-03 0.000000000000D+00  6 -2 2 25 2 -2 21 0 0.14745723D+00 0.64801772D+00 0.26211088D+06 0.26211088D+06 0.26211088D+06 0.10889169D+01  1  2  2  4  6  5       -2 0.792879375938D-04 0.100000000000D+01
0.166912321845D-02 0.000000000000D+00 -.337755206508D-04 0.187882035605D-03 0.000000000000D+00  6 -2 2 25 2 -2 21 2 0.14745723D+00 0.64801772D+00 0.26211088D+06 0.26211088D+06 0.26211088D+06 0.10889169D+01  1  2  3  4  6  5       -2 0.178420159051D-04 0.100000000000D+01
-.526452420333D-02 0.000000000000D+00 0.000000000000D+00 0.187882035605D-03 0.000000000000D+00  6 -2 2 25 2 -2 21 2 0.14745723D+00 0.64801772D+00 0.26211088D+06 0.26211088D+06 0.26211088D+06 0.10889169D+01  1  2 15  4  6  5       -2 -.562748894331D-04 0.100000000000D+01
0.228569306629D-10 0.000000000000D+00 0.000000000000D+00 0.187882035605D-03 0.000000000000D+00  6 -2 2 25 2 -2 21 2 0.14745723D+00 0.64801772D+00 0.31125109D+06 0.31125109D+06 0.31125109D+06 0.10833709D+01  1  2 12  4  6  5       -2 0.236669432013D-12 0.100000000000D+01
-.355282787066D-01 0.000000000000D+00 0.000000000000D+00 0.187882035605D-03 0.000000000000D+00  6 -2 2 25 2 -2 21 2 0.14745723D+00 0.64801772D+00 0.26211088D+06 0.26211088D+06 0.26211088D+06 0.10889169D+01  1  2  5  4  6  5       -2 -.379777901809D-03 0.100000000000D+01
  </mgrwgt>
  </event>
  <event>
  5     66 0.17405255E-05 0.22187399E+03 0.75467711E-02 0.87823331E-01
       -2 -1    0    0    0  501 0.00000000E+00 0.00000000E+00 0.96155817E+03 0.96155822E+03 0.32000000E+00 0.0000E+00 0.9000E+01
        2 -1    0    0  502    0 0.00000000E+00 0.00000000E+00 -.14991832E+04 0.14991832E+04 0.32000000E+00 0.0000E+00 0.9000E+01
       25  1    1    2    0    0 -.51376762E+03 0.28439550E+03 0.10776947E+03 0.60998134E+03 0.12500000E+03 0.0000E+00 0.9000E+01
        2  1    1    2  502    0 0.21229455E+03 -.64389979E+02 -.11789441E+04 0.11996351E+04 0.32000000E+00 0.0000E+00 0.9000E+01
       -2  1    1    2    0  501 0.30147307E+03 -.22000553E+03 0.53354964E+03 0.65112500E+03 0.32000000E+00 0.0000E+00 0.9000E+01
#aMCatNLO 1  0  0  1  2 0.10606413D+03 0.00000000D+00  -5  6  0 0.00000000D+00 0.00000000D+00 0.00000000D+00 0.00000000D+00 0.00000000D+00
  <mgrwgt>
 0.5319859889D-03    7    4    0
 0.120064646683493D+04 0.000000000000000D+00 0.000000000000000D+00 0.120064646683493D+04
 0.120064646683493D+04 0.000000000000000D+00 0.000000000000000D+00 -.120064646683493D+04
 0.649249284632326D+03 -.513757605235987D+03 0.284377212432690D+03 0.247148452770361D+03
 0.965441347385349D+03 0.212322385452177D+03 -.643993102267506D+02 -.939600409067309D+03
 0.786602301652182D+03 0.301435219783810D+03 -.219977902205940D+03 0.692451956296948D+03
 0.000000000000000D+00 -.000000000000000D+00 -.000000000000000D+00 0.000000000000000D+00
 0.156071117561362D+04 0.000000000000000D+00 0.000000000000000D+00 0.156071117561362D+04
 0.142049763776041D+04 0.000000000000000D+00 0.000000000000000D+00 -.142049763776041D+04
 0.606144730890707D+03 -.404239822009193D+03 0.356783188199446D+03 0.247148452770361D+03
 0.101673679839813D+04 0.385243200592722D+03 0.499245920814785D+02 -.939600409067309D+03
 0.831517813753495D+03 0.442596421639693D+03 -.126651373311384D+03 0.692451956296948D+03
 0.526809470331690D+03 -.423599800223222D+03 -.280056406969540D+03 0.140213537853209D+03
 0.120064646683493D+04 0.000000000000000D+00 0.000000000000000D+00 0.120064646683493D+04
 0.120064646683493D+04 0.000000000000000D+00 0.000000000000000D+00 -.120064646683493D+04
 0.649249284632326D+03 -.513757605235987D+03 0.284377212432690D+03 0.247148452770361D+03
 0.965441347385349D+03 0.212322385452177D+03 -.643993102267506D+02 -.939600409067309D+03
 0.000000000000000D+00 -.000000000000000D+00 -.000000000000000D+00 0.000000000000000D+00
 0.786602301652182D+03 0.301435219783810D+03 -.219977902205940D+03 0.692451956296948D+03
 0.156071117561362D+04 0.000000000000000D+00 0.000000000000000D+00 0.156071117561362D+04
 0.142049763776041D+04 0.000000000000000D+00 0.000000000000000D+00 -.142049763776041D+04
 0.606144730890707D+03 -.404239822009193D+03 0.356783188199446D+03 0.247148452770361D+03
 0.101673679839813D+04 0.385243200592722D+03 0.499245920814785D+02 -.939600409067309D+03
 0.526809470331690D+03 -.423599800223222D+03 -.280056406969540D+03 0.140213537853209D+03
 0.831517813753495D+03 0.442596421639693D+03 -.126651373311384D+03 0.692451956296948D+03
0.757815269324D-03 0.000000000000D+00 0.000000000000D+00 0.171860010480D-05 0.000000000000D+00  6 -2 2 25 2 -2 21 0 0.14793203D+00 0.23064357D+00 0.35725082D+06 0.35725082D+06 0.35725082D+06 0.10789842D+01  1  2  2  1  6  1       -2 0.373234640356D-03 0.100000000000D+01
0.904563574707D-04 0.000000000000D+00 -.291021017155D-05 0.171860010480D-05 0.000000000000D+00  6 -2 2 25 2 -2 21 2 0.14793203D+00 0.23064357D+00 0.35725082D+06 0.35725082D+06 0.35725082D+06 0.10789842D+01  1  2  3  1  6  1       -2 0.518666112640D-04 0.100000000000D+01
-.432695559301D-03 0.000000000000D+00 0.000000000000D+00 0.171860010480D-05 0.000000000000D+00  6 -2 2 25 2 -2 21 2 0.14793203D+00 0.23064357D+00 0.35725082D+06 0.35725082D+06 0.35725082D+06 0.10789842D+01  1  2 15  1  6  1       -2 -.248102543563D-03 0.100000000000D+01
-.298426546082D-04 0.000000000000D+00 0.000000000000D+00 0.171860010480D-05 0.000000000000D+00  6 -2 2 25 2 -2 21 2 0.14793203D+00 0.23064357D+00 0.35725082D+06 0.35725082D+06 0.35725082D+06 0.10789842D+01  1  2  4  1  6  1       -2 -.171114270896D-04 0.100000000000D+01
-.703126954285D-03 0.000000000000D+00 -.631697470332D-03 0.171860010480D-05 0.000000000000D+00  6 -2 2 25 2 -2 21 2 0.21402913D+00 0.23064357D+00 0.35725082D+06 0.35725082D+06 0.35725082D+06 0.10789842D+01  1  2  5  1  6  1       -2 -.134029556926D-03 0.100000000000D+01
0.914150421447D-03 0.000000000000D+00 0.590928072788D-03 0.171860010480D-05 0.000000000000D+00  6 -2 2 25 2 -2 21 2 0.14793203D+00 0.23064357D+00 0.35725082D+06 0.35725082D+06 0.35725082D+06 0.10789842D+01  1  2  6  1  6  1       -2 0.524163097783D-03 0.100000000000D+01
-.122767128304D-04 0.000000000000D+00 -.283716419049D-04 0.171860010480D-05 0.000000000000D+00  6 21 2 25 2 2 -2 2 0.21402913D+00 0.23064357D+00 0.35725082D+06 0.35725082D+06 0.35725082D+06 0.10789842D+01  3  4  5  5  5  1       -2 -.180348329271D-04 0.100000000000D+01
  </mgrwgt>
  </event>
  <event>
  5     66 0.17405255E-05 0.29934967E+02 0.75467711E-02 0.91638669E-01
       -2 -1    0    0    0  501 0.00000000E+00 0.00000000E+00 0.69977459E+03 0.69977466E+03 0.32000000E+00 0.0000E+00 0.9000E+01
        2 -1    0    0  502    0 -.00000000E+00 -.00000000E+00 -.21590742E+04 0.21590742E+04 0.32000000E+00 0.0000E+00 0.9000E+01
       25  1    1    2    0    0 0.12476093E+03 -.58065403E+03 0.35287407E+03 0.70204666E+03 0.12500000E+03 0.0000E+00 0.9000E+01
        2  1    1    2  502    0 -.13940256E+03 0.60680491E+03 -.19337892E+04 0.20315477E+04 0.32000000E+00 0.0000E+00 0.9000E+01
       -2  1    1    2    0  501 0.14641631E+02 -.26150877E+02 0.12161555E+03 0.12525450E+03 0.32000000E+00 0.0000E+00 0.9000E+01
#aMCatNLO 1  0  0  5  4 0.18729093D+02 0.00000000D+00  -5  6  0 0.00000000D+00 0.00000000D+00 0.00000000D+00 0.00000000D+00 0.00000000D+00
  <mgrwgt>
 0.4418261381D-03    6    2    0
 0.122917264711016D+04 0.000000000000000D+00 0.000000000000000D+00 0.122917264711016D+04
 0.122917264711016D+04 -.000000000000000D+00 -.000000000000000D+00 -.122917264711016D+04
 0.102613830279807D+04 0.124794823839357D+03 -.580760911652364D+03 0.827331754442510D+03
 0.121461459399230D+04 -.139418974913192D+03 0.606880568412792D+03 -.104285518508382D+04
 0.217592397429949D+03 0.146241510738353D+02 -.261196567604284D+02 0.215523430641311D+03
 0.000000000000000D+00 0.000000000000000D+00 0.000000000000000D+00 0.000000000000000D+00
 0.122917264711016D+04 0.000000000000000D+00 0.000000000000000D+00 0.122917264711016D+04
 0.122917264711016D+04 -.000000000000000D+00 -.000000000000000D+00 -.122917264711016D+04
 0.103212790934365D+04 0.125254633498984D+03 -.581582160723434D+03 0.834108199433022D+03
 0.120722796922764D+04 -.138877943535378D+03 0.605914252227068D+03 -.103488173499825D+04
 0.959557936006228D+02 0.466084467245439D+02 -.140496687282788D+02 0.826908327934621D+02
 0.123033622048411D+03 -.329851366881497D+02 -.102824227753544D+02 0.118082702771762D+03
0.413884003327D-03 0.000000000000D+00 0.000000000000D+00 0.522675969487D-05 0.000000000000D+00  6 -2 2 25 2 -2 21 0 0.10765764D+00 0.33216527D+00 0.39668029D+06 0.39668029D+06 0.39668029D+06 0.10756886D+01  1  2  2  4  6  5       -2 0.201220926992D-03 0.100000000000D+01
0.131559462527D-03 0.000000000000D+00 -.158942355094D-05 0.522675969487D-05 0.000000000000D+00  6 -2 2 25 2 -2 21 2 0.10765764D+00 0.33216527D+00 0.39668029D+06 0.39668029D+06 0.39668029D+06 0.10756886D+01  1  2  3  4  6  5       -2 0.740098895853D-04 0.100000000000D+01
-.263463251133D-03 0.000000000000D+00 0.000000000000D+00 0.522675969487D-05 0.000000000000D+00  6 -2 2 25 2 -2 21 2 0.10765764D+00 0.33216527D+00 0.39668029D+06 0.39668029D+06 0.39668029D+06 0.10756886D+01  1  2 15  4  6  5       -2 -.148213482722D-03 0.100000000000D+01
-.472244793884D-04 0.000000000000D+00 0.000000000000D+00 0.522675969487D-05 0.000000000000D+00  6 -2 2 25 2 -2 21 2 0.10765764D+00 0.33216527D+00 0.39668029D+06 0.39668029D+06 0.39668029D+06 0.10756886D+01  1  2  4  4  6  5       -2 -.265665307392D-04 0.100000000000D+01
-.363373524138D-03 0.000000000000D+00 0.000000000000D+00 0.522675969487D-05 0.000000000000D+00  6 -2 2 25 2 -2 21 2 0.10765764D+00 0.33216527D+00 0.39668029D+06 0.39668029D+06 0.39668029D+06 0.10756886D+01  1  2  5  4  6  5       -2 -.204418852761D-03 0.100000000000D+01
0.970199934078D-03 0.000000000000D+00 -.000000000000D+00 0.522675969487D-05 0.000000000000D+00  6 -2 2 25 2 -2 21 2 0.10765764D+00 0.33216527D+00 0.39668029D+06 0.39668029D+06 0.39668029D+06 0.10756886D+01  1  2  6  4  6  5       -2 0.545794187794D-03 0.100000000000D+01
  </mgrwgt>
  </event>
</LesHouchesEvents>
