<event>
 5    0  0.2964363E+000  0.2762840E+03  0.7546771E-02  0.1097736E+00
         21   -1    0    0  502  501  0.00000000000E+00  0.00000000000E+00  0.10910293622E+04  0.10910293622E+04  0.00000000000E+00 0. -1.
         21   -1    0    0  503  502 -0.00000000000E+00 -0.00000000000E+00 -0.99656481254E+02  0.99656481254E+02  0.00000000000E+00 0.  1.
         25    1    1    2    0    0  0.22904058055E+03  0.98371852977E+02  0.83492386195E+03  0.88026102052E+03  0.12500000000E+03 0.  0.
         21    1    1    2  503  504 -0.20808339134E+03 -0.11601450707E+03  0.12614875751E+03  0.26957665445E+03  0.00000000000E+00 0.  1.
         21    1    1    2  504  501 -0.20957189208E+02  0.17642654089E+02  0.30300261515E+02  0.40848168511E+02  0.00000000000E+00 0.  1.
<mgrwt>
<rscale>  4 0.27628400E+03</rscale>
<asrwt>0</asrwt>
<pdfrwt beam="1">  1       21 0.16785066E+00 0.27628400E+03</pdfrwt>
<pdfrwt beam="2">  1       21 0.15331767E-01 0.27628400E+03</pdfrwt>
<totfact> 0.78601524E+03</totfact>
</mgrwt>
</event>
<event>
 5    0  0.1856407E+000  0.2228291E+03  0.7546771E-02  0.1131791E+00
         21   -1    0    0  502  501  0.00000000000E+00  0.00000000000E+00  0.41486779293E+03  0.41486779293E+03  0.00000000000E+00 0.  1.
         21   -1    0    0  503  502 -0.00000000000E+00 -0.00000000000E+00 -0.17573946300E+03  0.17573946300E+03  0.00000000000E+00 0.  1.
         25    1    1    2    0    0 -0.22198185922E+03 -0.28498691188E+02  0.19169873361E+03  0.32009611946E+03  0.12500000000E+03 0.  0.
         21    1    1    2  503  504  0.13188802165E+03  0.85636307426E+02  0.45908031171E+02  0.16381567303E+03  0.00000000000E+00 0.  1.
         21    1    1    2  504  501  0.90093837569E+02 -0.57137616238E+02  0.15215651462E+01  0.10669546344E+03  0.00000000000E+00 0.  1.
<mgrwt>
<rscale>  4 0.22282911E+03</rscale>
<asrwt>0</asrwt>
<pdfrwt beam="1">  1       21 0.63825814E-01 0.22282911E+03</pdfrwt>
<pdfrwt beam="2">  1       21 0.27036841E-01 0.22282911E+03</pdfrwt>
<totfact> 0.29082008E+04</totfact>
</mgrwt>
</event>
<event>
 5    0  0.3437942E+000  0.2999262E+03  0.7546771E-02  0.1085278E+00
         21   -1    0    0  502  501  0.00000000000E+00  0.00000000000E+00  0.92267175866E+03  0.92267175866E+03  0.00000000000E+00 0. -1.
         21   -1    0    0  503  502 -0.00000000000E+00 -0.00000000000E+00 -0.91007856265E+02  0.91007856265E+02  0.00000000000E+00 0. -1.
         25    1    1    2    0    0 -0.22874889411E+03 -0.14833963987E+03  0.43042787993E+03  0.52461782770E+03  0.12500000000E+03 0.  0.
         21    1    1    2  503  504  0.30062385898E+02  0.31209249968E+01  0.23747589589E+02  0.38437419659E+02  0.00000000000E+00 0. -1.
         21    1    1    2  504  501  0.19868650821E+03  0.14521871488E+03  0.37748843287E+03  0.45062436757E+03  0.00000000000E+00 0. -1.
<mgrwt>
<rscale>  4 0.29992617E+03</rscale>
<asrwt>0</asrwt>
<pdfrwt beam="1">  1       21 0.14194949E+00 0.29992617E+03</pdfrwt>
<pdfrwt beam="2">  1       21 0.14001209E-01 0.29992617E+03</pdfrwt>
<totfact> 0.14431303E+04</totfact>
</mgrwt>
</event>
<event>
 5    0  0.1856407E+000  0.2663179E+03  0.7546771E-02  0.1103406E+00
         21   -1    0    0  502  501  0.00000000000E+00  0.00000000000E+00  0.26544585189E+03  0.26544585189E+03  0.00000000000E+00 0. -1.
         21   -1    0    0  503  502 -0.00000000000E+00 -0.00000000000E+00 -0.26801994596E+03  0.26801994596E+03  0.00000000000E+00 0. -1.
         25    1    1    2    0    0  0.23149803787E+03 -0.41338621369E+02  0.44995631510E+02  0.27009226203E+03  0.12500000000E+03 0.  0.
         21    1    1    2  503  504 -0.14204746284E+03  0.78292460185E+02 -0.26960914909E+02  0.16442044262E+03  0.00000000000E+00 0. -1.
         21    1    1    2  504  501 -0.89450575032E+02 -0.36953838816E+02 -0.20608810668E+02  0.98953093200E+02  0.00000000000E+00 0. -1.
<mgrwt>
<rscale>  4 0.26631790E+03</rscale>
<asrwt>0</asrwt>
<pdfrwt beam="1">  1       21 0.40837823E-01 0.26631790E+03</pdfrwt>
<pdfrwt beam="2">  1       21 0.41233838E-01 0.26631790E+03</pdfrwt>
<totfact> 0.31585907E+04</totfact>
</mgrwt>
</event>
<event>
 5    0  0.1856407E+000  0.2380931E+03  0.7546771E-02  0.1121070E+00
         21   -1    0    0  502  501  0.00000000000E+00  0.00000000000E+00  0.30906897054E+03  0.30906897054E+03  0.00000000000E+00 0.  1.
         21   -1    0    0  503  502 -0.00000000000E+00 -0.00000000000E+00 -0.54230858513E+03  0.54230858513E+03  0.00000000000E+00 0.  1.
         25    1    1    2    0    0  0.19905897985E+03 -0.37931844316E+02  0.23798801837E+03  0.33664016273E+03  0.12500000000E+03 0.  0.
         21    1    1    2  503  504 -0.35797926607E+02 -0.90095722612E+01 -0.95759862964E+02  0.10262853062E+03  0.00000000000E+00 0. -1.
         21    1    1    2  504  501 -0.16326105324E+03  0.46941416578E+02 -0.37546777000E+03  0.41210886232E+03  0.00000000000E+00 0.  1.
<mgrwt>
<rscale>  4 0.23809305E+03</rscale>
<asrwt>0</asrwt>
<pdfrwt beam="1">  1       21 0.47549073E-01 0.23809305E+03</pdfrwt>
<pdfrwt beam="2">  1       21 0.83432088E-01 0.23809305E+03</pdfrwt>
<totfact> 0.51175771E+03</totfact>
</mgrwt>
</event>
<event>
 5    0  0.1856407E+000  0.2736320E+03  0.7546771E-02  0.1099219E+00
         21   -1    0    0  502  501  0.00000000000E+00  0.00000000000E+00  0.85970254445E+03  0.85970254445E+03  0.00000000000E+00 0. -1.
         21   -1    0    0  503  502 -0.00000000000E+00 -0.00000000000E+00 -0.57347353977E+03  0.57347353977E+03  0.00000000000E+00 0.  1.
         25    1    1    2    0    0 -0.11718192431E+03  0.21334912595E+03  0.80995416222E+03  0.85492701315E+03  0.12500000000E+03 0.  0.
         21    1    1    2  503  504  0.12624994294E+02 -0.18608633107E+02 -0.70474319760E+02  0.73975005594E+02  0.00000000000E+00 0.  1.
         21    1    1    2  504  501  0.10455693002E+03 -0.19474049284E+03 -0.45325083778E+03  0.50427406548E+03  0.00000000000E+00 0.  1.
<mgrwt>
<rscale>  4 0.27363197E+03</rscale>
<asrwt>0</asrwt>
<pdfrwt beam="1">  1       21 0.13226193E+00 0.27363197E+03</pdfrwt>
<pdfrwt beam="2">  1       21 0.88226699E-01 0.27363197E+03</pdfrwt>
<totfact> 0.42083378E+02</totfact>
</mgrwt>
</event>
<event>
 5    0  0.1856407E+000  0.3005598E+03  0.7546771E-02  0.1084961E+00
         21   -1    0    0  502  501  0.00000000000E+00  0.00000000000E+00  0.15351037302E+04  0.15351037302E+04  0.00000000000E+00 0. -1.
         21   -1    0    0  503  502 -0.00000000000E+00 -0.00000000000E+00 -0.59900003907E+02  0.59900003907E+02  0.00000000000E+00 0. -1.
         25    1    1    2    0    0  0.58306911311E+02 -0.26704211404E+03  0.98296412051E+03  0.10278884418E+04  0.12500000000E+03 0.  0.
         21    1    1    2  503  504 -0.32598925335E+02  0.77162386427E+02  0.20888983645E+03  0.22505929793E+03  0.00000000000E+00 0. -1.
         21    1    1    2  504  501 -0.25707985976E+02  0.18987972762E+03  0.28334976928E+03  0.34205599433E+03  0.00000000000E+00 0. -1.
<mgrwt>
<rscale>  4 0.30055979E+03</rscale>
<asrwt>0</asrwt>
<pdfrwt beam="1">  1       21 0.23616977E+00 0.30055979E+03</pdfrwt>
<pdfrwt beam="2">  1       21 0.92153864E-02 0.30055979E+03</pdfrwt>
<totfact> 0.69211617E+03</totfact>
</mgrwt>
</event>
<event>
 5    0  0.1856407E+000  0.3519070E+03  0.7546771E-02  0.1061835E+00
         21   -1    0    0  502  501  0.00000000000E+00  0.00000000000E+00  0.41640823760E+03  0.41640823760E+03  0.00000000000E+00 0. -1.
         21   -1    0    0  503  502 -0.00000000000E+00 -0.00000000000E+00 -0.39543898555E+03  0.39543898555E+03  0.00000000000E+00 0. -1.
         25    1    1    2    0    0  0.24444208841E+03 -0.28852679486E+03  0.18569623537E+02  0.39870976519E+03  0.12500000000E+03 0.  0.
         21    1    1    2  503  504 -0.75184800720E+02  0.42533457648E+02 -0.63677439332E+02  0.10731572838E+03  0.00000000000E+00 0. -1.
         21    1    1    2  504  501 -0.16925728769E+03  0.24599333721E+03  0.66077067841E+02  0.30582172958E+03  0.00000000000E+00 0. -1.
<mgrwt>
<rscale>  4 0.35190700E+03</rscale>
<asrwt>0</asrwt>
<pdfrwt beam="1">  1       21 0.64062806E-01 0.35190700E+03</pdfrwt>
<pdfrwt beam="2">  1       21 0.60836767E-01 0.35190700E+03</pdfrwt>
<totfact> 0.51641750E+03</totfact>
</mgrwt>
</event>
<event>
 5    0  0.1916495E+000  0.2399464E+03  0.7546771E-02  0.1119829E+00
         21   -1    0    0  502  501  0.00000000000E+00  0.00000000000E+00  0.21314366150E+03  0.21314366150E+03  0.00000000000E+00 0. -1.
         21   -1    0    0  503  502 -0.00000000000E+00 -0.00000000000E+00 -0.25571864689E+03  0.25571864689E+03  0.00000000000E+00 0. -1.
         25    1    1    2    0    0  0.31500606156E+02 -0.20237828911E+03  0.36806962210E+02  0.24275298672E+03  0.12500000000E+03 0.  0.
         21    1    1    2  503  504  0.89080022528E+01  0.54770672667E+02 -0.39024486296E+02  0.67838702960E+02  0.00000000000E+00 0. -1.
         21    1    1    2  504  501 -0.40408608409E+02  0.14760761645E+03 -0.40357461298E+02  0.15827061872E+03  0.00000000000E+00 0. -1.
<mgrwt>
<rscale>  4 0.23994637E+03</rscale>
<asrwt>0</asrwt>
<pdfrwt beam="1">  1       21 0.32791333E-01 0.23994637E+03</pdfrwt>
<pdfrwt beam="2">  1       21 0.39341330E-01 0.23994637E+03</pdfrwt>
<totfact> 0.54601672E+04</totfact>
</mgrwt>
</event>
<event>
 5    0  0.1856407E+000  0.2849608E+03  0.7546771E-02  0.1093010E+00
         21   -1    0    0  502  501  0.00000000000E+00  0.00000000000E+00  0.93237270589E+03  0.93237270589E+03  0.00000000000E+00 0.  1.
         21   -1    0    0  503  502 -0.00000000000E+00 -0.00000000000E+00 -0.55328600631E+03  0.55328600631E+03  0.00000000000E+00 0. -1.
         25    1    1    2    0    0  0.53047629672E+02 -0.25052666108E+03  0.87551878330E+03  0.92072569142E+03  0.12500000000E+03 0.  0.
         21    1    1    2  503  504 -0.44938895198E+02  0.56433008666E+02 -0.98252907295E+02  0.12189266820E+03  0.00000000000E+00 0.  1.
         21    1    1    2  504  501 -0.81087344740E+01  0.19409365241E+03 -0.39817917642E+03  0.44304035259E+03  0.00000000000E+00 0. -1.
<mgrwt>
<rscale>  4 0.28496080E+03</rscale>
<asrwt>0</asrwt>
<pdfrwt beam="1">  1       21 0.14344195E+00 0.28496080E+03</pdfrwt>
<pdfrwt beam="2">  1       21 0.85120924E-01 0.28496080E+03</pdfrwt>
<totfact> 0.36693657E+02</totfact>
</mgrwt>
</event>
<event>
 5    0  0.3419659E+000  0.2656470E+03  0.7546771E-02  0.1103797E+00
         21   -1    0    0  502  501  0.00000000000E+00  0.00000000000E+00  0.90602804848E+03  0.90602804848E+03  0.00000000000E+00 0. -1.
         21   -1    0    0  503  502 -0.00000000000E+00 -0.00000000000E+00 -0.98051014806E+02  0.98051014806E+02  0.00000000000E+00 0. -1.
         25    1    1    2    0    0  0.24699138389E+03 -0.89275978859E+02  0.50503290241E+03  0.58280200465E+03  0.12500000000E+03 0.  0.
         21    1    1    2  503  504 -0.18784885585E+03  0.95237120168E+02  0.29325835597E+03  0.36105091753E+03  0.00000000000E+00 0. -1.
         21    1    1    2  504  501 -0.59142528041E+02 -0.59611413091E+01  0.96857752934E+01  0.60226141100E+02  0.00000000000E+00 0. -1.
<mgrwt>
<rscale>  4 0.26564695E+03</rscale>
<asrwt>0</asrwt>
<pdfrwt beam="1">  1       21 0.13938893E+00 0.26564695E+03</pdfrwt>
<pdfrwt beam="2">  1       21 0.15084772E-01 0.26564695E+03</pdfrwt>
<totfact> 0.13430517E+04</totfact>
</mgrwt>
</event>
<event>
 5    0  0.2821188E+000  0.2599150E+03  0.7546771E-02  0.1107194E+00
         21   -1    0    0  502  501  0.00000000000E+00  0.00000000000E+00  0.31169095945E+03  0.31169095945E+03  0.00000000000E+00 0.  1.
         21   -1    0    0  503  502 -0.00000000000E+00 -0.00000000000E+00 -0.42521799886E+03  0.42521799886E+03  0.00000000000E+00 0.  1.
         25    1    1    2    0    0 -0.19584236479E+03  0.11651858915E+03  0.21138871805E+03  0.33502388509E+03  0.12500000000E+03 0.  0.
         21    1    1    2  503  504  0.24584695455E+02 -0.12402698887E+02 -0.84563391294E+02  0.88933690678E+02  0.00000000000E+00 0.  1.
         21    1    1    2  504  501  0.17125766934E+03 -0.10411589027E+03 -0.24035236616E+03  0.31295138253E+03  0.00000000000E+00 0.  1.
<mgrwt>
<rscale>  4 0.25991501E+03</rscale>
<asrwt>0</asrwt>
<pdfrwt beam="1">  1       21 0.47952455E-01 0.25991501E+03</pdfrwt>
<pdfrwt beam="2">  1       21 0.65418154E-01 0.25991501E+03</pdfrwt>
<totfact> 0.85642598E+03</totfact>
</mgrwt>
</event>
<event>
 5    0  0.1856407E+000  0.3478483E+03  0.7546771E-02  0.1063502E+00
         21   -1    0    0  502  501  0.00000000000E+00  0.00000000000E+00  0.52219306390E+03  0.52219306390E+03  0.00000000000E+00 0.  1.
         21   -1    0    0  503  502 -0.00000000000E+00 -0.00000000000E+00 -0.33802628940E+03  0.33802628940E+03  0.00000000000E+00 0.  1.
         25    1    1    2    0    0  0.27978135563E+03 -0.75492730404E+02  0.27473830771E+03  0.41842908243E+03  0.12500000000E+03 0.  0.
         21    1    1    2  503  504 -0.30690237340E+03  0.13979116244E+03 -0.13024506093E+03  0.36151682090E+03  0.00000000000E+00 0.  1.
         21    1    1    2  504  501  0.27121017768E+02 -0.64298432036E+02  0.39673527735E+02  0.80273449969E+02  0.00000000000E+00 0.  1.
<mgrwt>
<rscale>  4 0.34784829E+03</rscale>
<asrwt>0</asrwt>
<pdfrwt beam="1">  1       21 0.80337394E-01 0.34784829E+03</pdfrwt>
<pdfrwt beam="2">  1       21 0.52004045E-01 0.34784829E+03</pdfrwt>
<totfact> 0.43597093E+03</totfact>
</mgrwt>
</event>
<event>
 5    0  0.3650616E+000  0.3013708E+03  0.7546771E-02  0.1084557E+00
         21   -1    0    0  502  501  0.00000000000E+00  0.00000000000E+00  0.24707756855E+03  0.24707756855E+03  0.00000000000E+00 0.  1.
         21   -1    0    0  503  502 -0.00000000000E+00 -0.00000000000E+00 -0.37293296883E+03  0.37293296883E+03  0.00000000000E+00 0.  1.
         25    1    1    2    0    0 -0.27414628241E+03 -0.65703728919E+01  0.28586919879E+02  0.30272358010E+03  0.12500000000E+03 0.  0.
         21    1    1    2  503  504  0.24616018743E+03 -0.64386385469E+01 -0.13921388841E+03  0.28287241058E+03  0.00000000000E+00 0.  1.
         21    1    1    2  504  501  0.27986094984E+02  0.13009011439E+02 -0.15228431750E+02  0.34414546701E+02  0.00000000000E+00 0.  1.
<mgrwt>
<rscale>  4 0.30137079E+03</rscale>
<asrwt>0</asrwt>
<pdfrwt beam="1">  1       21 0.38011934E-01 0.30137079E+03</pdfrwt>
<pdfrwt beam="2">  1       21 0.57374303E-01 0.30137079E+03</pdfrwt>
<totfact> 0.18020905E+04</totfact>
</mgrwt>
</event>
<event>
 5    0  0.1856407E+000  0.2937260E+03  0.7546771E-02  0.1088420E+00
         21   -1    0    0  502  501  0.00000000000E+00  0.00000000000E+00  0.61539354390E+03  0.61539354390E+03  0.00000000000E+00 0.  1.
         21   -1    0    0  503  502 -0.00000000000E+00 -0.00000000000E+00 -0.19886102210E+03  0.19886102210E+03  0.00000000000E+00 0.  1.
         25    1    1    2    0    0  0.98140549465E+02 -0.24701901313E+03  0.44406182069E+03  0.53241512083E+03  0.12500000000E+03 0.  0.
         21    1    1    2  503  504 -0.72171836247E+02  0.17531325377E+03 -0.60138010849E+02  0.19889718762E+03  0.00000000000E+00 0.  1.
         21    1    1    2  504  501 -0.25968713218E+02  0.71705759356E+02  0.32608711958E+02  0.82942257544E+02  0.00000000000E+00 0.  1.
<mgrwt>
<rscale>  4 0.29372600E+03</rscale>
<asrwt>0</asrwt>
<pdfrwt beam="1">  1       21 0.94675929E-01 0.29372600E+03</pdfrwt>
<pdfrwt beam="2">  1       21 0.30594004E-01 0.29372600E+03</pdfrwt>
<totfact> 0.90224338E+03</totfact>
</mgrwt>
</event>
