<event>
 5    0  0.1911311E+001  0.2309789E+03  0.7546771E-02  0.1125953E+00
         21   -1    0    0  502  501  0.00000000000E+00  0.00000000000E+00  0.13049172355E+04  0.13049172355E+04  0.00000000000E+00 0. -1.
         21   -1    0    0  504  502 -0.00000000000E+00 -0.00000000000E+00 -0.21394599341E+03  0.21394599341E+03  0.00000000000E+00 0. -1.
         25    1    1    2    0    0  0.15737794124E+03 -0.20374222402E+03  0.43138516248E+03  0.51768413985E+03  0.12500000000E+03 0.  0.
         21    1    1    2  503  501 -0.44740993723E+02  0.54060159528E+02  0.77695641599E+03  0.78011892024E+03  0.00000000000E+00 0. -1.
         21    1    1    2  504  503 -0.11263694752E+03  0.14968206450E+03 -0.11737033639E+03  0.22106016883E+03  0.00000000000E+00 0. -1.
<mgrwt>
<rscale>  4 0.23097894E+03</rscale>
<asrwt>0</asrwt>
<pdfrwt beam="1">  1       21 0.20075649E+00 0.23097894E+03</pdfrwt>
<pdfrwt beam="2">  1       21 0.32914769E-01 0.23097894E+03</pdfrwt>
<totfact> 0.11338697E+03</totfact>
</mgrwt>
</event>
<event>
 5    0  0.1911311E+001  0.3361803E+03  0.7546771E-02  0.1068435E+00
         21   -1    0    0  502  501  0.00000000000E+00  0.00000000000E+00  0.15223144183E+04  0.15223144183E+04  0.00000000000E+00 0.  1.
         21   -1    0    0  504  502 -0.00000000000E+00 -0.00000000000E+00 -0.73325397339E+02  0.73325397339E+02  0.00000000000E+00 0.  1.
         25    1    1    2    0    0  0.25414622013E+03 -0.18111289166E+03  0.59487045257E+03  0.68329205767E+03  0.12500000000E+03 0.  0.
         21    1    1    2  503  501 -0.36711824269E+02  0.23208151199E+02  0.20960320198E+03  0.21405578386E+03  0.00000000000E+00 0.  1.
         21    1    1    2  504  503 -0.21743439586E+03  0.15790474047E+03  0.64451536640E+03  0.69829197409E+03  0.00000000000E+00 0.  1.
<mgrwt>
<rscale>  4 0.33618028E+03</rscale>
<asrwt>0</asrwt>
<pdfrwt beam="1">  1       21 0.23420219E+00 0.33618028E+03</pdfrwt>
<pdfrwt beam="2">  1       21 0.11280831E-01 0.33618028E+03</pdfrwt>
<totfact> 0.48520520E+03</totfact>
</mgrwt>
</event>
<event>
 5    0  0.1911311E+001  0.2969678E+03  0.7546771E-02  0.1086766E+00
         21   -1    0    0  503  501  0.00000000000E+00  0.00000000000E+00  0.13603110589E+03  0.13603110589E+03  0.00000000000E+00 0. -1.
         21   -1    0    0  504  502 -0.00000000000E+00 -0.00000000000E+00 -0.90194282359E+03  0.90194282359E+03  0.00000000000E+00 0. -1.
         25    1    1    2    0    0  0.29237136584E+03  0.76686064161E+02 -0.57832475467E+03  0.66441424569E+03  0.12500000000E+03 0.  0.
         21    1    1    2  503  502 -0.38640975685E+02 -0.23415108399E+02 -0.81995190602E+02  0.93619461572E+02  0.00000000000E+00 0. -1.
         21    1    1    2  504  501 -0.25373039016E+03 -0.53270955761E+02 -0.10559177242E+03  0.27994022223E+03  0.00000000000E+00 0. -1.
<mgrwt>
<rscale>  4 0.29696780E+03</rscale>
<asrwt>0</asrwt>
<pdfrwt beam="1">  1       21 0.20927862E-01 0.29696780E+03</pdfrwt>
<pdfrwt beam="2">  1       21 0.13876044E+00 0.29696780E+03</pdfrwt>
<totfact> 0.72627530E+03</totfact>
</mgrwt>
</event>
