<event>
 5    0  0.2542727E+000  0.2684453E+03  0.7546771E-02  0.1102173E+00
         21   -1    0    0  502  501  0.00000000000E+00  0.00000000000E+00  0.34567895531E+03  0.34567895531E+03  0.00000000000E+00 0.  1.
         21   -1    0    0  503  502 -0.00000000000E+00 -0.00000000000E+00 -0.25726260459E+03  0.25726260459E+03  0.00000000000E+00 0.  1.
         25    1    1    2    0    0  0.20028505845E+03 -0.17687381314E+03  0.76096576975E+02  0.30465413084E+03  0.12500000000E+03 0.  0.
         21    1    1    2  503  504 -0.66759371703E+02 -0.23425304125E+01  0.31736169226E+02  0.73955970658E+02  0.00000000000E+00 0.  1.
         21    1    1    2  504  501 -0.13352568674E+03  0.17921634355E+03 -0.19416395481E+02  0.22433145841E+03  0.00000000000E+00 0.  1.
<mgrwt>
<rscale>  4 0.26844533E+03</rscale>
<asrwt>0</asrwt>
<pdfrwt beam="1">  1       21 0.53181378E-01 0.26844533E+03</pdfrwt>
<pdfrwt beam="2">  1       21 0.39578862E-01 0.26844533E+03</pdfrwt>
<totfact> 0.19801114E+04</totfact>
</mgrwt>
</event>
<event>
 5    0  0.2159162E+000  0.2530980E+03  0.7546771E-02  0.1111362E+00
         21   -1    0    0  502  501  0.00000000000E+00  0.00000000000E+00  0.20410110797E+03  0.20410110797E+03  0.00000000000E+00 0.  1.
         21   -1    0    0  503  502 -0.00000000000E+00 -0.00000000000E+00 -0.13737763944E+04  0.13737763944E+04  0.00000000000E+00 0.  1.
         25    1    1    2    0    0  0.16886295708E+03  0.13770868093E+03  0.10402319863E+03  0.27189006037E+03  0.12500000000E+03 0.  0.
         21    1    1    2  503  504 -0.20670901260E+03 -0.13813896619E+03 -0.10442274176E+04  0.10734159909E+04  0.00000000000E+00 0.  1.
         21    1    1    2  504  501  0.37846055519E+02  0.43028526511E+00 -0.22947106755E+03  0.23257145118E+03  0.00000000000E+00 0.  1.
<mgrwt>
<rscale>  4 0.25309800E+03</rscale>
<asrwt>0</asrwt>
<pdfrwt beam="1">  1       21 0.31400170E-01 0.25309800E+03</pdfrwt>
<pdfrwt beam="2">  1       21 0.21135022E+00 0.25309800E+03</pdfrwt>
<totfact> 0.10437593E+03</totfact>
</mgrwt>
</event>
<event>
 5    0  0.2159162E+000  0.2519836E+03  0.7546771E-02  0.1112058E+00
         21   -1    0    0  502  501  0.00000000000E+00  0.00000000000E+00  0.11059361484E+03  0.11059361484E+03  0.00000000000E+00 0.  1.
         21   -1    0    0  503  502 -0.00000000000E+00 -0.00000000000E+00 -0.53803259388E+03  0.53803259388E+03  0.00000000000E+00 0.  1.
         25    1    1    2    0    0 -0.20607791509E+03  0.73502606428E+02 -0.17803347380E+03  0.30853145388E+03  0.12500000000E+03 0.  0.
         21    1    1    2  503  504  0.57820640180E+02 -0.57979089283E+02 -0.80700277462E+02  0.11496667346E+03  0.00000000000E+00 0.  1.
         21    1    1    2  504  501  0.14825727491E+03 -0.15523517145E+02 -0.16870522777E+03  0.22512808138E+03  0.00000000000E+00 0.  1.
<mgrwt>
<rscale>  4 0.25198361E+03</rscale>
<asrwt>0</asrwt>
<pdfrwt beam="1">  1       21 0.17014402E-01 0.25198361E+03</pdfrwt>
<pdfrwt beam="2">  1       21 0.82774247E-01 0.25198361E+03</pdfrwt>
<totfact> 0.38535178E+04</totfact>
</mgrwt>
</event>
<event>
 5    0  0.2159162E+000  0.3272658E+03  0.7546771E-02  0.1072353E+00
         21   -1    0    0  502  501  0.00000000000E+00  0.00000000000E+00  0.21254380108E+03  0.21254380108E+03  0.00000000000E+00 0. -1.
         21   -1    0    0  503  502 -0.00000000000E+00 -0.00000000000E+00 -0.58666206985E+03  0.58666206985E+03  0.00000000000E+00 0. -1.
         25    1    1    2    0    0 -0.27921253628E+03 -0.11626798349E+03 -0.26603792585E+02  0.32834531546E+03  0.12500000000E+03 0.  0.
         21    1    1    2  503  504  0.17200932057E+03  0.21426797156E+02 -0.16950076839E+03  0.24243932124E+03  0.00000000000E+00 0. -1.
         21    1    1    2  504  501  0.10720321571E+03  0.94841186329E+02 -0.17801370780E+03  0.22842123423E+03  0.00000000000E+00 0. -1.
<mgrwt>
<rscale>  4 0.32726577E+03</rscale>
<asrwt>0</asrwt>
<pdfrwt beam="1">  1       21 0.32699047E-01 0.32726577E+03</pdfrwt>
<pdfrwt beam="2">  1       21 0.90255701E-01 0.32726577E+03</pdfrwt>
<totfact> 0.87178233E+03</totfact>
</mgrwt>
</event>
<event>
 5    0  0.2159162E+000  0.1991338E+03  0.7546771E-02  0.1150472E+00
         21   -1    0    0  502  501  0.00000000000E+00  0.00000000000E+00  0.62473802002E+03  0.62473802002E+03  0.00000000000E+00 0. -1.
         21   -1    0    0  503  502 -0.00000000000E+00 -0.00000000000E+00 -0.11604202245E+03  0.11604202245E+03  0.00000000000E+00 0. -1.
         25    1    1    2    0    0 -0.16021498532E+03 -0.16118385216E+03  0.16896504699E+03  0.30955332791E+03  0.12500000000E+03 0.  0.
         21    1    1    2  503  504  0.72655389151E+02  0.74449126025E+02  0.27062142614E+03  0.28992660144E+03  0.00000000000E+00 0. -1.
         21    1    1    2  504  501  0.87559596166E+02  0.86734726135E+02  0.69109524446E+02  0.14130011312E+03  0.00000000000E+00 0. -1.
<mgrwt>
<rscale>  4 0.19913379E+03</rscale>
<asrwt>0</asrwt>
<pdfrwt beam="1">  1       21 0.96113539E-01 0.19913379E+03</pdfrwt>
<pdfrwt beam="2">  1       21 0.17852619E-01 0.19913379E+03</pdfrwt>
<totfact> 0.25596404E+04</totfact>
</mgrwt>
</event>
<event>
 5    0  0.2159162E+000  0.3056248E+03  0.7546771E-02  0.1082462E+00
         21   -1    0    0  502  501  0.00000000000E+00  0.00000000000E+00  0.64924648757E+03  0.64924648757E+03  0.00000000000E+00 0. -1.
         21   -1    0    0  503  502 -0.00000000000E+00 -0.00000000000E+00 -0.80929964199E+03  0.80929964199E+03  0.00000000000E+00 0. -1.
         25    1    1    2    0    0  0.18653164158E+03 -0.35504224716E+03  0.40107955210E+03  0.58080879616E+03  0.12500000000E+03 0.  0.
         21    1    1    2  503  504 -0.13820779186E+03  0.23451538391E+03 -0.66039055099E+03  0.71429303431E+03  0.00000000000E+00 0. -1.
         21    1    1    2  504  501 -0.48323849721E+02  0.12052686324E+03  0.99257844475E+02  0.16344429909E+03  0.00000000000E+00 0. -1.
<mgrwt>
<rscale>  4 0.30562478E+03</rscale>
<asrwt>0</asrwt>
<pdfrwt beam="1">  1       21 0.99884076E-01 0.30562478E+03</pdfrwt>
<pdfrwt beam="2">  1       21 0.12450764E+00 0.30562478E+03</pdfrwt>
<totfact> 0.35735649E+02</totfact>
</mgrwt>
</event>
