<event>
 5    0  0.7099509E-001  0.3792242E+03  0.7546771E-02  0.1051221E+00
         21   -1    0    0  501  502  0.00000000000E+00  0.00000000000E+00  0.10111935916E+04  0.10111935916E+04  0.00000000000E+00 0.  1.
          3   -1    0    0  503    0 -0.00000000000E+00 -0.00000000000E+00 -0.40994907710E+03  0.40994907710E+03  0.00000000000E+00 0. -1.
         25    1    1    2    0    0  0.22254745345E+03  0.44622416266E+02  0.68981782040E+03  0.73688001358E+03  0.12500000000E+03 0.  0.
         21    1    1    2  503  502 -0.55419540687E+02 -0.10524677176E+03  0.26391316113E+03  0.28947947263E+03  0.00000000000E+00 0. -1.
          3    1    1    2  501    0 -0.16712791277E+03  0.60624355494E+02 -0.35248646705E+03  0.39478318246E+03  0.00000000000E+00 0. -1.
<mgrwt>
<rscale>  4 0.37922422E+03</rscale>
<asrwt>0</asrwt>
<pdfrwt beam="1">  1       21 0.15556824E+00 0.37922422E+03</pdfrwt>
<pdfrwt beam="2">  1        3 0.63069089E-01 0.37922422E+03</pdfrwt>
<totfact> 0.30673865E+01</totfact>
</mgrwt>
</event>
<event>
 5    0  0.7099509E-001  0.4407626E+03  0.7546771E-02  0.1030513E+00
         21   -1    0    0  501  502  0.00000000000E+00  0.00000000000E+00  0.10505389128E+03  0.10505389128E+03  0.00000000000E+00 0.  1.
          2   -1    0    0  503    0 -0.00000000000E+00 -0.00000000000E+00 -0.11779610076E+04  0.11779610076E+04  0.00000000000E+00 0.  1.
         25    1    1    2    0    0 -0.19372173481E+03  0.85071827701E+02 -0.44852132354E+03  0.51143103551E+03  0.12500000000E+03 0.  0.
         21    1    1    2  503  502  0.10919162075E+03  0.15973522911E+03 -0.29017154458E+03  0.34876593690E+03  0.00000000000E+00 0.  1.
          2    1    1    2  501    0  0.84530114066E+02 -0.24480705681E+03 -0.33421424816E+03  0.42281792644E+03  0.00000000000E+00 0.  1.
<mgrwt>
<rscale>  4 0.44076261E+03</rscale>
<asrwt>0</asrwt>
<pdfrwt beam="1">  1       21 0.16162136E-01 0.44076261E+03</pdfrwt>
<pdfrwt beam="2">  1        2 0.18122478E+00 0.44076261E+03</pdfrwt>
<totfact> 0.84840450E+03</totfact>
</mgrwt>
</event>
<event>
 5    0  0.7099509E-001  0.5049231E+03  0.7546771E-02  0.1012502E+00
         21   -1    0    0  501  502  0.00000000000E+00  0.00000000000E+00  0.33975765792E+03  0.33975765792E+03  0.00000000000E+00 0. -1.
          1   -1    0    0  503    0 -0.00000000000E+00 -0.00000000000E+00 -0.98248512508E+03  0.98248512508E+03  0.00000000000E+00 0.  1.
         25    1    1    2    0    0 -0.59096993447E-01  0.28887059041E+03  0.67958162973E+02  0.32200859214E+03  0.12500000000E+03 0.  0.
         21    1    1    2  503  502 -0.46518990905E+02 -0.18226111394E+03  0.77547278652E+02  0.20346181607E+03  0.00000000000E+00 0.  1.
          1    1    1    2  501    0  0.46578087899E+02 -0.10660947647E+03 -0.78823290878E+03  0.79677237479E+03  0.00000000000E+00 0.  1.
<mgrwt>
<rscale>  4 0.50492308E+03</rscale>
<asrwt>0</asrwt>
<pdfrwt beam="1">  1       21 0.52270409E-01 0.50492308E+03</pdfrwt>
<pdfrwt beam="2">  1        1 0.15115156E+00 0.50492308E+03</pdfrwt>
<totfact> 0.57106042E+02</totfact>
</mgrwt>
</event>
<event>
 5    0  0.7099509E-001  0.5404776E+03  0.7546771E-02  0.1003722E+00
          1   -1    0    0  503    0 -0.00000000000E+00  0.00000000000E+00  0.51401347161E+02  0.51401347161E+02  0.00000000000E+00 0.  1.
         21   -1    0    0  501  502  0.00000000000E+00 -0.00000000000E+00 -0.17524064688E+04  0.17524064688E+04  0.00000000000E+00 0.  1.
         25    1    1    2    0    0  0.58686720294E+02 -0.21642396962E+03 -0.45065075889E+03  0.51864686662E+03  0.12500000000E+03 0.  0.
         21    1    1    2  503  502 -0.41252433161E+02  0.19710475765E+03 -0.12414204133E+04  0.12576472841E+04  0.00000000000E+00 0.  1.
          1    1    1    2  501    0 -0.17434287134E+02  0.19319211969E+02 -0.89339494043E+01  0.27513665167E+02  0.00000000000E+00 0.  1.
<mgrwt>
<rscale>  4 0.54047762E+03</rscale>
<asrwt>0</asrwt>
<pdfrwt beam="1">  1       21 0.26960102E+00 0.54047762E+03</pdfrwt>
<pdfrwt beam="2">  1        1 0.79078987E-02 0.54047762E+03</pdfrwt>
<totfact> 0.40393692E+02</totfact>
</mgrwt>
</event>
<event>
 5    0  0.7099509E-001  0.6118809E+03  0.7546771E-02  0.9881059E-01
         21   -1    0    0  501  502  0.00000000000E+00  0.00000000000E+00  0.19728263104E+03  0.19728263104E+03  0.00000000000E+00 0. -1.
          2   -1    0    0  503    0 -0.00000000000E+00 -0.00000000000E+00 -0.37538447974E+04  0.37538447974E+04  0.00000000000E+00 0. -1.
         25    1    1    2    0    0 -0.29118678890E+02 -0.28054867009E+03 -0.35996610829E+03  0.47408443644E+03  0.12500000000E+03 0.  0.
         21    1    1    2  503  502  0.54783322466E+00  0.18194356717E+03  0.80059574897E+02  0.19877951929E+03  0.00000000000E+00 0. -1.
          2    1    1    2  501    0  0.28570845665E+02  0.98605102920E+02 -0.32766556330E+04  0.32782634727E+04  0.00000000000E+00 0. -1.
<mgrwt>
<rscale>  4 0.61188090E+03</rscale>
<asrwt>0</asrwt>
<pdfrwt beam="1">  1       21 0.30351175E-01 0.61188090E+03</pdfrwt>
<pdfrwt beam="2">  1        2 0.57751457E+00 0.61188090E+03</pdfrwt>
<totfact> 0.73664536E+01</totfact>
</mgrwt>
</event>
<event>
 5    0  0.7099509E-001  0.2442590E+04  0.7546771E-02  0.8423728E-01
          2   -1    0    0  503    0 -0.00000000000E+00  0.00000000000E+00  0.29491855396E+04  0.29491855396E+04  0.00000000000E+00 0.  1.
         21   -1    0    0  501  502  0.00000000000E+00 -0.00000000000E+00 -0.14534738030E+04  0.14534738030E+04  0.00000000000E+00 0.  1.
         25    1    1    2    0    0 -0.98423730690E+03 -0.62761467908E+02 -0.10611863093E+04  0.14540988485E+04  0.12500000000E+03 0.  0.
         21    1    1    2  503  502  0.78717228345E+03 -0.88752475406E+02  0.64769464117E+03  0.10232426662E+04  0.00000000000E+00 0. -1.
          2    1    1    2  501    0  0.19706502345E+03  0.15151394331E+03  0.19092034046E+04  0.19253178280E+04  0.00000000000E+00 0.  1.
<mgrwt>
<rscale>  4 0.24425899E+04</rscale>
<asrwt>0</asrwt>
<pdfrwt beam="1">  1       21 0.22361135E+00 0.24425899E+04</pdfrwt>
<pdfrwt beam="2">  1        2 0.45372085E+00 0.24425899E+04</pdfrwt>
<totfact> 0.13115611E+00</totfact>
</mgrwt>
</event>
<event>
 5    0  0.7099509E-001  0.6694411E+03  0.7546771E-02  0.9770968E-01
         21   -1    0    0  501  502  0.00000000000E+00  0.00000000000E+00  0.51266176825E+02  0.51266176825E+02  0.00000000000E+00 0. -1.
          2   -1    0    0  503    0 -0.00000000000E+00 -0.00000000000E+00 -0.33456504478E+04  0.33456504478E+04  0.00000000000E+00 0.  1.
         25    1    1    2    0    0 -0.24212592814E+03  0.80571094717E+02 -0.41734159941E+03  0.50489174778E+03  0.12500000000E+03 0.  0.
         21    1    1    2  503  502  0.19204621526E+03 -0.10438868665E+03 -0.17468572152E+04  0.17604797292E+04  0.00000000000E+00 0.  1.
          2    1    1    2  501    0  0.50079712886E+02  0.23817591929E+02 -0.11301854564E+04  0.11315451476E+04  0.00000000000E+00 0.  1.
<mgrwt>
<rscale>  4 0.66944112E+03</rscale>
<asrwt>0</asrwt>
<pdfrwt beam="1">  1       21 0.78871030E-02 0.66944112E+03</pdfrwt>
<pdfrwt beam="2">  1        2 0.51471553E+00 0.66944112E+03</pdfrwt>
<totfact> 0.17449238E+03</totfact>
</mgrwt>
</event>
<event>
 5    0  0.7099509E-001  0.9380825E+03  0.7546771E-02  0.9379190E-01
          2   -1    0    0  503    0 -0.00000000000E+00  0.00000000000E+00  0.22942998548E+04  0.22942998548E+04  0.00000000000E+00 0.  1.
         21   -1    0    0  501  502  0.00000000000E+00 -0.00000000000E+00 -0.41240284190E+03  0.41240284190E+03  0.00000000000E+00 0. -1.
         25    1    1    2    0    0 -0.48771145164E+03  0.19797911571E+03  0.61292177040E+02  0.54446296595E+03  0.12500000000E+03 0.  0.
         21    1    1    2  503  502  0.34677367990E+03 -0.19277829412E+03  0.66279076732E+02  0.40225411343E+03  0.00000000000E+00 0.  1.
          2    1    1    2  501    0  0.14093777174E+03 -0.52008215891E+01  0.17543257591E+04  0.17599856173E+04  0.00000000000E+00 0.  1.
<mgrwt>
<rscale>  4 0.93808251E+03</rscale>
<asrwt>0</asrwt>
<pdfrwt beam="1">  1       21 0.63446592E-01 0.93808251E+03</pdfrwt>
<pdfrwt beam="2">  1        2 0.35296920E+00 0.93808251E+03</pdfrwt>
<totfact> 0.11642682E+02</totfact>
</mgrwt>
</event>
<event>
 5    0  0.7099509E-001  0.4017872E+03  0.7546771E-02  0.1043163E+00
          4   -1    0    0  503    0 -0.00000000000E+00  0.00000000000E+00  0.84261341067E+03  0.84261341067E+03  0.00000000000E+00 0.  1.
         21   -1    0    0  501  502  0.00000000000E+00 -0.00000000000E+00 -0.19281603997E+03  0.19281603997E+03  0.00000000000E+00 0. -1.
         25    1    1    2    0    0 -0.34971311995E+02 -0.21194765662E+03 -0.82863226646E+01  0.24867341022E+03  0.12500000000E+03 0.  0.
         21    1    1    2  503  502 -0.42310200935E+01  0.15080352067E+03  0.29163654630E+02  0.15365585615E+03  0.00000000000E+00 0. -1.
          4    1    1    2  501    0  0.39202332088E+02  0.61144135948E+02  0.62892003873E+03  0.63310018427E+03  0.00000000000E+00 0.  1.
<mgrwt>
<rscale>  4 0.40178723E+03</rscale>
<asrwt>0</asrwt>
<pdfrwt beam="1">  1       21 0.29664007E-01 0.40178723E+03</pdfrwt>
<pdfrwt beam="2">  1        4 0.12963283E+00 0.40178723E+03</pdfrwt>
<totfact> 0.20448224E+02</totfact>
</mgrwt>
</event>
<event>
 5    0  0.7099509E-001  0.1396527E+04  0.7546771E-02  0.8956336E-01
          2   -1    0    0  503    0 -0.00000000000E+00  0.00000000000E+00  0.48737202330E+03  0.48737202330E+03  0.00000000000E+00 0. -1.
         21   -1    0    0  501  502  0.00000000000E+00 -0.00000000000E+00 -0.19680437245E+04  0.19680437245E+04  0.00000000000E+00 0. -1.
         25    1    1    2    0    0 -0.32944584799E+03 -0.39666674478E+03 -0.14795227826E+03  0.55081208212E+03  0.12500000000E+03 0.  0.
         21    1    1    2  503  502  0.35196336269E+03  0.42034950463E+03 -0.15710918509E+04  0.16640016582E+04  0.00000000000E+00 0. -1.
          2    1    1    2  501    0 -0.22517514704E+02 -0.23682759853E+02  0.23837242794E+03  0.24060200744E+03  0.00000000000E+00 0. -1.
<mgrwt>
<rscale>  4 0.13965268E+04</rscale>
<asrwt>0</asrwt>
<pdfrwt beam="1">  1       21 0.30277596E+00 0.13965268E+04</pdfrwt>
<pdfrwt beam="2">  1        2 0.74980311E-01 0.13965268E+04</pdfrwt>
<totfact> 0.16342382E+01</totfact>
</mgrwt>
</event>
<event>
 5    0  0.7099509E-001  0.4560653E+03  0.7546771E-02  0.1025929E+00
          2   -1    0    0  503    0 -0.00000000000E+00  0.00000000000E+00  0.29912581849E+04  0.29912581849E+04  0.00000000000E+00 0.  1.
         21   -1    0    0  501  502  0.00000000000E+00 -0.00000000000E+00 -0.38344018279E+02  0.38344018279E+02  0.00000000000E+00 0.  1.
         25    1    1    2    0    0 -0.17628824851E+03 -0.11639428321E+03  0.11744950613E+04  0.11998703366E+04  0.12500000000E+03 0.  0.
         21    1    1    2  503  502  0.96486949149E+02  0.10479474029E+03  0.18124918352E+03  0.23052751566E+03  0.00000000000E+00 0.  1.
          2    1    1    2  501    0  0.79801299365E+02  0.11599542924E+02  0.15971699218E+04  0.15992043509E+04  0.00000000000E+00 0.  1.
<mgrwt>
<rscale>  4 0.45606530E+03</rscale>
<asrwt>0</asrwt>
<pdfrwt beam="1">  1       21 0.58990821E-02 0.45606530E+03</pdfrwt>
<pdfrwt beam="2">  1        2 0.46019338E+00 0.45606530E+03</pdfrwt>
<totfact> 0.51017730E+03</totfact>
</mgrwt>
</event>
<event>
 5    0  0.7099509E-001  0.5431783E+03  0.7546771E-02  0.1003085E+00
         21   -1    0    0  501  502  0.00000000000E+00  0.00000000000E+00  0.70214562955E+03  0.70214562955E+03  0.00000000000E+00 0. -1.
         -1   -1    0    0    0  501 -0.00000000000E+00 -0.00000000000E+00 -0.37777966056E+03  0.37777966056E+03  0.00000000000E+00 0. -1.
         25    1    1    2    0    0  0.24481355857E+03  0.16954774295E+02  0.26176757697E+03  0.37995842823E+03  0.12500000000E+03 0.  0.
         21    1    1    2  503  502 -0.26441172668E+03  0.15197185063E+02  0.33383213239E+03  0.42613191415E+03  0.00000000000E+00 0. -1.
         -1    1    1    2    0  503  0.19598168104E+02 -0.32151959358E+02 -0.27123374037E+03  0.27383494773E+03  0.00000000000E+00 0. -1.
<mgrwt>
<rscale>  4 0.54317826E+03</rscale>
<asrwt>0</asrwt>
<pdfrwt beam="1">  1       21 0.10802240E+00 0.54317826E+03</pdfrwt>
<pdfrwt beam="2">  1       -1 0.58119948E-01 0.54317826E+03</pdfrwt>
<totfact> 0.17176364E+02</totfact>
</mgrwt>
</event>
<event>
 5    0  0.7099509E-001  0.3589326E+03  0.7546771E-02  0.1059007E+00
         21   -1    0    0  501  502  0.00000000000E+00  0.00000000000E+00  0.27117514145E+04  0.27117514145E+04  0.00000000000E+00 0.  1.
          1   -1    0    0  503    0 -0.00000000000E+00 -0.00000000000E+00 -0.43764019764E+03  0.43764019764E+03  0.00000000000E+00 0.  1.
         25    1    1    2    0    0 -0.10563519589E+03 -0.24982872370E+03  0.20180549399E+04  0.20400352757E+04  0.12500000000E+03 0.  0.
         21    1    1    2  503  502 -0.15849158256E+02  0.49285740432E+02  0.64938439426E+03  0.65144483384E+03  0.00000000000E+00 0.  1.
          1    1    1    2  501    0  0.12148435414E+03  0.20054298327E+03 -0.39332811723E+03  0.45791150263E+03  0.00000000000E+00 0.  1.
<mgrwt>
<rscale>  4 0.35893255E+03</rscale>
<asrwt>0</asrwt>
<pdfrwt beam="1">  1       21 0.41719251E+00 0.35893255E+03</pdfrwt>
<pdfrwt beam="2">  1        1 0.67329263E-01 0.35893255E+03</pdfrwt>
<totfact> 0.32741239E+00</totfact>
</mgrwt>
</event>
<event>
 5    0  0.7099509E-001  0.4806586E+03  0.7546771E-02  0.1018954E+00
          2   -1    0    0  503    0 -0.00000000000E+00  0.00000000000E+00  0.11361100854E+04  0.11361100854E+04  0.00000000000E+00 0. -1.
         21   -1    0    0  501  502  0.00000000000E+00 -0.00000000000E+00 -0.29978621705E+03  0.29978621705E+03  0.00000000000E+00 0. -1.
         25    1    1    2    0    0  0.21029601396E+03 -0.74394076157E+02 -0.34718570168E+02  0.25804897048E+03  0.12500000000E+03 0.  0.
         21    1    1    2  503  502 -0.19877927934E+03  0.10101686128E+03 -0.72036700676E+02  0.23432220212E+03  0.00000000000E+00 0. -1.
          2    1    1    2  501    0 -0.11516734614E+02 -0.26622785128E+02  0.94307913923E+03  0.94352512988E+03  0.00000000000E+00 0. -1.
<mgrwt>
<rscale>  4 0.48065859E+03</rscale>
<asrwt>0</asrwt>
<pdfrwt beam="1">  1       21 0.46120957E-01 0.48065859E+03</pdfrwt>
<pdfrwt beam="2">  1        2 0.17478616E+00 0.48065859E+03</pdfrwt>
<totfact> 0.11260510E+03</totfact>
</mgrwt>
</event>
<event>
 5    0  0.7099509E-001  0.4973998E+03  0.7546771E-02  0.1014460E+00
         21   -1    0    0  501  502  0.00000000000E+00  0.00000000000E+00  0.24244566822E+02  0.24244566822E+02  0.00000000000E+00 0. -1.
          2   -1    0    0  503    0 -0.00000000000E+00 -0.00000000000E+00 -0.39015200474E+04  0.39015200474E+04  0.00000000000E+00 0.  1.
         25    1    1    2    0    0  0.31847599803E+02 -0.20774963814E+03 -0.20220643681E+04  0.20367973612E+04  0.12500000000E+03 0.  0.
         21    1    1    2  503  502 -0.58747793617E+01  0.19004029989E+03 -0.52471870402E+03  0.55810352710E+03  0.00000000000E+00 0. -1.
          2    1    1    2  501    0 -0.25972820441E+02  0.17709338251E+02 -0.13304924084E+04  0.13308637259E+04  0.00000000000E+00 0.  1.
<mgrwt>
<rscale>  4 0.49739984E+03</rscale>
<asrwt>0</asrwt>
<pdfrwt beam="1">  1       21 0.37299320E-02 0.49739984E+03</pdfrwt>
<pdfrwt beam="2">  1        2 0.60023407E+00 0.49739984E+03</pdfrwt>
<totfact> 0.27311579E+03</totfact>
</mgrwt>
</event>
<event>
 5    0  0.7099509E-001  0.7939844E+03  0.7546771E-02  0.9568765E-01
         21   -1    0    0  501  502  0.00000000000E+00  0.00000000000E+00  0.87144111545E+02  0.87144111545E+02  0.00000000000E+00 0.  1.
          2   -1    0    0  503    0 -0.00000000000E+00 -0.00000000000E+00 -0.24487116107E+04  0.24487116107E+04  0.00000000000E+00 0.  1.
         25    1    1    2    0    0  0.25223362266E+03 -0.10871444052E+01 -0.15427883505E+04  0.15682614185E+04  0.12500000000E+03 0.  0.
         21    1    1    2  503  502 -0.27702439768E+03 -0.11462193988E+02 -0.18524487770E+03  0.33345099117E+03  0.00000000000E+00 0.  1.
          2    1    1    2  501    0  0.24790775015E+02  0.12549338393E+02 -0.63353427090E+03  0.63414331253E+03  0.00000000000E+00 0.  1.
<mgrwt>
<rscale>  4 0.79398442E+03</rscale>
<asrwt>0</asrwt>
<pdfrwt beam="1">  1       21 0.13406785E-01 0.79398442E+03</pdfrwt>
<pdfrwt beam="2">  1        2 0.37672492E+00 0.79398442E+03</pdfrwt>
<totfact> 0.22603057E+03</totfact>
</mgrwt>
</event>
<event>
 5    0  0.7099509E-001  0.4235367E+03  0.7546771E-02  0.1035921E+00
         21   -1    0    0  501  502  0.00000000000E+00  0.00000000000E+00  0.10365421187E+04  0.10365421187E+04  0.00000000000E+00 0.  1.
          2   -1    0    0  503    0 -0.00000000000E+00 -0.00000000000E+00 -0.20830670224E+04  0.20830670224E+04  0.00000000000E+00 0.  1.
         25    1    1    2    0    0 -0.64164943549E+02  0.21131064648E+03  0.33268105605E+03  0.41841488304E+03  0.12500000000E+03 0.  0.
         21    1    1    2  503  502 -0.15732424624E+02  0.41697564535E+02  0.65160357146E+03  0.65312587640E+03  0.00000000000E+00 0.  1.
          2    1    1    2  501    0  0.79897368173E+02 -0.25300821102E+03 -0.20308095312E+04  0.20480683818E+04  0.00000000000E+00 0.  1.
<mgrwt>
<rscale>  4 0.42353674E+03</rscale>
<asrwt>0</asrwt>
<pdfrwt beam="1">  1       21 0.15946802E+00 0.42353674E+03</pdfrwt>
<pdfrwt beam="2">  1        2 0.32047185E+00 0.42353674E+03</pdfrwt>
<totfact> 0.18281705E+01</totfact>
</mgrwt>
</event>
<event>
 5    0  0.7099509E-001  0.7663310E+03  0.7546771E-02  0.9610072E-01
          1   -1    0    0  503    0 -0.00000000000E+00  0.00000000000E+00  0.13239468362E+04  0.13239468362E+04  0.00000000000E+00 0.  1.
         21   -1    0    0  501  502  0.00000000000E+00 -0.00000000000E+00 -0.18106195488E+03  0.18106195488E+03  0.00000000000E+00 0. -1.
         25    1    1    2    0    0  0.23530974983E+03 -0.26309183123E+03  0.10331653981E+03  0.38844214167E+03  0.12500000000E+03 0.  0.
         21    1    1    2  503  502 -0.15521056109E+03  0.23920515337E+03  0.54604357265E+03  0.61601380415E+03  0.00000000000E+00 0.  1.
          1    1    1    2  501    0 -0.80099188745E+02  0.23886677865E+02  0.49352476887E+03  0.50055284527E+03  0.00000000000E+00 0.  1.
<mgrwt>
<rscale>  4 0.76633099E+03</rscale>
<asrwt>0</asrwt>
<pdfrwt beam="1">  1       21 0.27855686E-01 0.76633099E+03</pdfrwt>
<pdfrwt beam="2">  1        1 0.20368412E+00 0.76633099E+03</pdfrwt>
<totfact> 0.11218647E+03</totfact>
</mgrwt>
</event>
<event>
 5    0  0.7099509E-001  0.6800168E+03  0.7546771E-02  0.9752030E-01
          3   -1    0    0  503    0 -0.00000000000E+00  0.00000000000E+00  0.19803519848E+04  0.19803519848E+04  0.00000000000E+00 0.  1.
         21   -1    0    0  501  502  0.00000000000E+00 -0.00000000000E+00 -0.67509028444E+02  0.67509028444E+02  0.00000000000E+00 0. -1.
         25    1    1    2    0    0 -0.29558831258E+03 -0.12264014502E+03  0.76106248138E+03  0.83501745866E+03  0.12500000000E+03 0.  0.
         21    1    1    2  503  502  0.31617770589E+03  0.10625755387E+03  0.90229923801E+03  0.96197865068E+03  0.00000000000E+00 0. -1.
          3    1    1    2  501    0 -0.20589393310E+02  0.16382591146E+02  0.24948123693E+03  0.25086490386E+03  0.00000000000E+00 0.  1.
<mgrwt>
<rscale>  4 0.68001677E+03</rscale>
<asrwt>0</asrwt>
<pdfrwt beam="1">  1       21 0.10386006E-01 0.68001677E+03</pdfrwt>
<pdfrwt beam="2">  1        3 0.30466949E+00 0.68001677E+03</pdfrwt>
<totfact> 0.14461304E+02</totfact>
</mgrwt>
</event>
<event>
 5    0  0.7099509E-001  0.4978330E+03  0.7546771E-02  0.1014346E+00
         21   -1    0    0  501  502  0.00000000000E+00  0.00000000000E+00  0.69138950492E+02  0.69138950492E+02  0.00000000000E+00 0.  1.
          1   -1    0    0  503    0 -0.00000000000E+00 -0.00000000000E+00 -0.23387237209E+04  0.23387237209E+04  0.00000000000E+00 0.  1.
         25    1    1    2    0    0  0.12808644843E+03 -0.31198789073E+03 -0.62240801933E+03  0.71885973928E+03  0.12500000000E+03 0.  0.
         21    1    1    2  503  502 -0.50680718686E+02  0.12339873826E+03 -0.32675065103E+03  0.35293309819E+03  0.00000000000E+00 0. -1.
          1    1    1    2  501    0 -0.77405729744E+02  0.18858915247E+03 -0.13204261001E+04  0.13360698339E+04  0.00000000000E+00 0.  1.
<mgrwt>
<rscale>  4 0.49783301E+03</rscale>
<asrwt>0</asrwt>
<pdfrwt beam="1">  1       21 0.10636763E-01 0.49783301E+03</pdfrwt>
<pdfrwt beam="2">  1        1 0.35980359E+00 0.49783301E+03</pdfrwt>
<totfact> 0.15138041E+03</totfact>
</mgrwt>
</event>
<event>
 5    0  0.7099509E-001  0.8120115E+03  0.7546771E-02  0.9542792E-01
          2   -1    0    0  503    0 -0.00000000000E+00  0.00000000000E+00  0.19899010385E+03  0.19899010385E+03  0.00000000000E+00 0. -1.
         21   -1    0    0  501  502  0.00000000000E+00 -0.00000000000E+00 -0.19281861373E+04  0.19281861373E+04  0.00000000000E+00 0. -1.
         25    1    1    2    0    0  0.14863054199E+03 -0.21626539404E+03 -0.16953657399E+04  0.17201022501E+04  0.12500000000E+03 0.  0.
         21    1    1    2  503  502 -0.12830196565E+03  0.21859575736E+03 -0.14636692100E+03  0.29269228737E+03  0.00000000000E+00 0. -1.
          2    1    1    2  501    0 -0.20328576346E+02 -0.23303633200E+01  0.11253662749E+03  0.11438170368E+03  0.00000000000E+00 0. -1.
<mgrwt>
<rscale>  4 0.81201149E+03</rscale>
<asrwt>0</asrwt>
<pdfrwt beam="1">  1       21 0.29664404E+00 0.81201149E+03</pdfrwt>
<pdfrwt beam="2">  1        2 0.30613860E-01 0.81201149E+03</pdfrwt>
<totfact> 0.55132286E+01</totfact>
</mgrwt>
</event>
<event>
 5    0  0.7211779E-001  0.3175238E+03  0.7546771E-02  0.1076795E+00
         21   -1    0    0  501  502  0.00000000000E+00  0.00000000000E+00  0.10621190192E+03  0.10621190192E+03  0.00000000000E+00 0.  1.
          2   -1    0    0  503    0 -0.00000000000E+00 -0.00000000000E+00 -0.13089433727E+04  0.13089433727E+04  0.00000000000E+00 0.  1.
         25    1    1    2    0    0 -0.10066106067E+03 -0.19754164435E+03 -0.11067753217E+03  0.27754254902E+03  0.12500000000E+03 0.  0.
         21    1    1    2  503  502  0.58458519767E+02 -0.48416491527E+01 -0.55875972984E+02  0.81012125369E+02  0.00000000000E+00 0. -1.
          2    1    1    2  501    0  0.42202540903E+02  0.20238329351E+03 -0.10361779657E+04  0.10566006003E+04  0.00000000000E+00 0.  1.
<mgrwt>
<rscale>  4 0.31752383E+03</rscale>
<asrwt>0</asrwt>
<pdfrwt beam="1">  1       21 0.16340293E-01 0.31752383E+03</pdfrwt>
<pdfrwt beam="2">  1        2 0.20137590E+00 0.31752383E+03</pdfrwt>
<totfact> 0.71726805E+03</totfact>
</mgrwt>
</event>
<event>
 5    0  0.7099509E-001  0.5935318E+03  0.7546771E-02  0.9918917E-01
         21   -1    0    0  501  502  0.00000000000E+00  0.00000000000E+00  0.21483750503E+03  0.21483750503E+03  0.00000000000E+00 0.  1.
         -2   -1    0    0    0  501 -0.00000000000E+00 -0.00000000000E+00 -0.52134178631E+03  0.52134178631E+03  0.00000000000E+00 0.  1.
         25    1    1    2    0    0 -0.25495274781E+01  0.25784011106E+03 -0.21358928343E+03  0.35739810430E+03  0.12500000000E+03 0.  0.
         21    1    1    2  503  502  0.24263820910E+02 -0.26704459510E+03  0.14762864692E+02  0.26855072324E+03  0.00000000000E+00 0.  1.
         -2    1    1    2    0  503 -0.21714293432E+02  0.92044840449E+01 -0.10767786254E+03  0.11023046379E+03  0.00000000000E+00 0.  1.
<mgrwt>
<rscale>  4 0.59353179E+03</rscale>
<asrwt>0</asrwt>
<pdfrwt beam="1">  1       21 0.33051924E-01 0.59353179E+03</pdfrwt>
<pdfrwt beam="2">  1       -2 0.80206427E-01 0.59353179E+03</pdfrwt>
<totfact> 0.94667120E+02</totfact>
</mgrwt>
</event>
<event>
 5    0  0.7099509E-001  0.3508238E+03  0.7546771E-02  0.1062277E+00
         21   -1    0    0  501  502  0.00000000000E+00  0.00000000000E+00  0.28067472201E+03  0.28067472201E+03  0.00000000000E+00 0.  1.
          2   -1    0    0  503    0 -0.00000000000E+00 -0.00000000000E+00 -0.46164548014E+03  0.46164548014E+03  0.00000000000E+00 0. -1.
         25    1    1    2    0    0 -0.60432960675E+02  0.21381636393E+03  0.95299262250E+02  0.27217003804E+03  0.12500000000E+03 0.  0.
         21    1    1    2  503  502  0.34378364663E+02 -0.87634055805E+02  0.58916501840E+02  0.11105293280E+03  0.00000000000E+00 0.  1.
          2    1    1    2  501    0  0.26054596012E+02 -0.12618230813E+03 -0.33518652222E+03  0.35909723131E+03  0.00000000000E+00 0. -1.
<mgrwt>
<rscale>  4 0.35082381E+03</rscale>
<asrwt>0</asrwt>
<pdfrwt beam="1">  1       21 0.43180727E-01 0.35082381E+03</pdfrwt>
<pdfrwt beam="2">  1        2 0.71022380E-01 0.35082381E+03</pdfrwt>
<totfact> 0.42104317E+03</totfact>
</mgrwt>
</event>
<event>
 5    0  0.7099509E-001  0.6324174E+03  0.7546771E-02  0.9840343E-01
          2   -1    0    0  503    0 -0.00000000000E+00  0.00000000000E+00  0.22558093473E+04  0.22558093473E+04  0.00000000000E+00 0. -1.
         21   -1    0    0  501  502  0.00000000000E+00 -0.00000000000E+00 -0.25024999011E+03  0.25024999011E+03  0.00000000000E+00 0. -1.
         25    1    1    2    0    0  0.14100383714E+02  0.31177373063E+03  0.16801423894E+03  0.37583967914E+03  0.12500000000E+03 0.  0.
         21    1    1    2  503  502  0.65151137365E+02 -0.26633506875E+03 -0.15782600566E+02  0.27464182133E+03  0.00000000000E+00 0. -1.
          2    1    1    2  501    0 -0.79251521080E+02 -0.45438661880E+02  0.18533277189E+04  0.18555778370E+04  0.00000000000E+00 0. -1.
<mgrwt>
<rscale>  4 0.63241735E+03</rscale>
<asrwt>0</asrwt>
<pdfrwt beam="1">  1       21 0.38500000E-01 0.63241735E+03</pdfrwt>
<pdfrwt beam="2">  1        2 0.34704758E+00 0.63241735E+03</pdfrwt>
<totfact> 0.38163544E+02</totfact>
</mgrwt>
</event>
<event>
 5    0  0.7099509E-001  0.6685635E+03  0.7546771E-02  0.9772556E-01
          2   -1    0    0  503    0 -0.00000000000E+00  0.00000000000E+00  0.21304003622E+04  0.21304003622E+04  0.00000000000E+00 0. -1.
         21   -1    0    0  501  502  0.00000000000E+00 -0.00000000000E+00 -0.60307990004E+02  0.60307990004E+02  0.00000000000E+00 0. -1.
         25    1    1    2    0    0 -0.15512379708E+03 -0.26404418049E+03  0.74035837495E+03  0.81088731957E+03  0.12500000000E+03 0.  0.
         21    1    1    2  503  502  0.19672181128E+03  0.25746782889E+03  0.11214226591E+04  0.11672951359E+04  0.00000000000E+00 0. -1.
          2    1    1    2  501    0 -0.41598014195E+02  0.65763516017E+01  0.20831133808E+03  0.21252589668E+03  0.00000000000E+00 0. -1.
<mgrwt>
<rscale>  4 0.66856354E+03</rscale>
<asrwt>0</asrwt>
<pdfrwt beam="1">  1       21 0.92781540E-02 0.66856354E+03</pdfrwt>
<pdfrwt beam="2">  1        2 0.32775384E+00 0.66856354E+03</pdfrwt>
<totfact> 0.67816889E+03</totfact>
</mgrwt>
</event>
<event>
 5    0  0.7099509E-001  0.5614126E+03  0.7546771E-02  0.9988863E-01
          3   -1    0    0  503    0 -0.00000000000E+00  0.00000000000E+00  0.16320090222E+03  0.16320090222E+03  0.00000000000E+00 0.  1.
         21   -1    0    0  501  502  0.00000000000E+00 -0.00000000000E+00 -0.11178578964E+04  0.11178578964E+04  0.00000000000E+00 0.  1.
         25    1    1    2    0    0  0.24583681406E+03 -0.77837302416E+02 -0.90967801705E+03  0.95374707313E+03  0.12500000000E+03 0.  0.
         21    1    1    2  503  502 -0.43991138900E+02  0.11032907091E+03 -0.42614912285E+01  0.11885236429E+03  0.00000000000E+00 0. -1.
          3    1    1    2  501    0 -0.20184567516E+03 -0.32491768495E+02 -0.40717485861E+02  0.20845936116E+03  0.00000000000E+00 0.  1.
<mgrwt>
<rscale>  4 0.56141262E+03</rscale>
<asrwt>0</asrwt>
<pdfrwt beam="1">  1       21 0.17197813E+00 0.56141262E+03</pdfrwt>
<pdfrwt beam="2">  1        3 0.25107832E-01 0.56141262E+03</pdfrwt>
<totfact> 0.13684998E+02</totfact>
</mgrwt>
</event>
<event>
 5    0  0.7099509E-001  0.4797558E+03  0.7546771E-02  0.1019202E+00
         21   -1    0    0  501  502  0.00000000000E+00  0.00000000000E+00  0.47821855680E+03  0.47821855680E+03  0.00000000000E+00 0.  1.
          2   -1    0    0  503    0 -0.00000000000E+00 -0.00000000000E+00 -0.12215574568E+04  0.12215574568E+04  0.00000000000E+00 0.  1.
         25    1    1    2    0    0  0.93999876169E+02  0.21262208128E+03  0.64470765243E+02  0.27170867807E+03  0.12500000000E+03 0.  0.
         21    1    1    2  503  502 -0.43871737280E+02 -0.13871511920E+03  0.29115460117E+03  0.32548059145E+03  0.00000000000E+00 0.  1.
          2    1    1    2  501    0 -0.50128138890E+02 -0.73906962080E+02 -0.10989642664E+04  0.11025867441E+04  0.00000000000E+00 0.  1.
<mgrwt>
<rscale>  4 0.47975579E+03</rscale>
<asrwt>0</asrwt>
<pdfrwt beam="1">  1       21 0.73572087E-01 0.47975579E+03</pdfrwt>
<pdfrwt beam="2">  1        2 0.18793191E+00 0.47975579E+03</pdfrwt>
<totfact> 0.36160232E+02</totfact>
</mgrwt>
</event>
<event>
 5    0  0.7099509E-001  0.4940238E+03  0.7546771E-02  0.1015351E+00
         21   -1    0    0  501  502  0.00000000000E+00  0.00000000000E+00  0.23195360008E+03  0.23195360008E+03  0.00000000000E+00 0. -1.
         -2   -1    0    0    0  501 -0.00000000000E+00 -0.00000000000E+00 -0.42116805220E+03  0.42116805220E+03  0.00000000000E+00 0.  1.
         25    1    1    2    0    0  0.24955680971E+03 -0.40108252118E+02  0.63115212542E+01  0.28204983330E+03  0.12500000000E+03 0.  0.
         21    1    1    2  503  502 -0.20786056953E+03  0.18392718790E+02 -0.45127043549E+02  0.21349650707E+03  0.00000000000E+00 0. -1.
         -2    1    1    2    0  503 -0.41696240180E+02  0.21715533327E+02 -0.15039892983E+03  0.15757531192E+03  0.00000000000E+00 0.  1.
<mgrwt>
<rscale>  4 0.49402382E+03</rscale>
<asrwt>0</asrwt>
<pdfrwt beam="1">  1       21 0.35685170E-01 0.49402382E+03</pdfrwt>
<pdfrwt beam="2">  1       -2 0.64795084E-01 0.49402382E+03</pdfrwt>
<totfact> 0.13084173E+03</totfact>
</mgrwt>
</event>
<event>
 5    0  0.7099509E-001  0.4160380E+03  0.7546771E-02  0.1038364E+00
         21   -1    0    0  501  502  0.00000000000E+00  0.00000000000E+00  0.17628016184E+03  0.17628016184E+03  0.00000000000E+00 0.  1.
          2   -1    0    0  503    0 -0.00000000000E+00 -0.00000000000E+00 -0.59534578178E+03  0.59534578178E+03  0.00000000000E+00 0. -1.
         25    1    1    2    0    0  0.23307991325E+03  0.88136172280E+02 -0.97875757681E+02  0.29546386372E+03  0.12500000000E+03 0.  0.
         21    1    1    2  503  502 -0.21541255157E+02 -0.13108383425E+03 -0.93702991882E+02  0.16256459628E+03  0.00000000000E+00 0. -1.
          2    1    1    2  501    0 -0.21153865809E+03  0.42947661973E+02 -0.22748687037E+03  0.31359748361E+03  0.00000000000E+00 0. -1.
<mgrwt>
<rscale>  4 0.41603804E+03</rscale>
<asrwt>0</asrwt>
<pdfrwt beam="1">  1       21 0.27120025E-01 0.41603804E+03</pdfrwt>
<pdfrwt beam="2">  1        2 0.91591659E-01 0.41603804E+03</pdfrwt>
<totfact> 0.79287299E+03</totfact>
</mgrwt>
</event>
<event>
 5    0  0.7099509E-001  0.4268723E+03  0.7546771E-02  0.1034853E+00
          2   -1    0    0  503    0 -0.00000000000E+00  0.00000000000E+00  0.31326531887E+04  0.31326531887E+04  0.00000000000E+00 0. -1.
         21   -1    0    0  501  502  0.00000000000E+00 -0.00000000000E+00 -0.21934584338E+02  0.21934584338E+02  0.00000000000E+00 0.  1.
         25    1    1    2    0    0 -0.38134915761E+02  0.20203476641E+03  0.98076388208E+03  0.10098490536E+04  0.12500000000E+03 0.  0.
         21    1    1    2  503  502  0.37815599468E+02 -0.17392342837E+03  0.10925366009E+04  0.11069397467E+04  0.00000000000E+00 0.  1.
          2    1    1    2  501    0  0.31931629303E+00 -0.28111338037E+02  0.10374181213E+04  0.10377989727E+04  0.00000000000E+00 0. -1.
<mgrwt>
<rscale>  4 0.42687227E+03</rscale>
<asrwt>0</asrwt>
<pdfrwt beam="1">  1       21 0.33745539E-02 0.42687227E+03</pdfrwt>
<pdfrwt beam="2">  1        2 0.48194629E+00 0.42687227E+03</pdfrwt>
<totfact> 0.10982527E+04</totfact>
</mgrwt>
</event>
<event>
 5    0  0.7099509E-001  0.8325313E+03  0.7546771E-02  0.9514088E-01
          2   -1    0    0  503    0 -0.00000000000E+00  0.00000000000E+00  0.26372347504E+04  0.26372347504E+04  0.00000000000E+00 0.  1.
         21   -1    0    0  501  502  0.00000000000E+00 -0.00000000000E+00 -0.26936322134E+03  0.26936322134E+03  0.00000000000E+00 0.  1.
         25    1    1    2    0    0  0.32856851025E+03  0.53877754730E+03  0.60798856064E+03  0.88516303654E+03  0.12500000000E+03 0.  0.
         21    1    1    2  503  502 -0.12110777722E+03  0.53500163636E+02 -0.20234977919E+02  0.13393586354E+03  0.00000000000E+00 0. -1.
          2    1    1    2  501    0 -0.20746073303E+03 -0.59227771093E+03  0.17801179464E+04  0.18874990717E+04  0.00000000000E+00 0.  1.
<mgrwt>
<rscale>  4 0.83253126E+03</rscale>
<asrwt>0</asrwt>
<pdfrwt beam="1">  1       21 0.41440498E-01 0.83253126E+03</pdfrwt>
<pdfrwt beam="2">  1        2 0.40572840E+00 0.83253126E+03</pdfrwt>
<totfact> 0.19101621E+02</totfact>
</mgrwt>
</event>
<event>
 5    0  0.7099509E-001  0.4289156E+03  0.7546771E-02  0.1034203E+00
         -4   -1    0    0    0  501 -0.00000000000E+00  0.00000000000E+00  0.21942054533E+03  0.21942054533E+03  0.00000000000E+00 0. -1.
         21   -1    0    0  501  502  0.00000000000E+00 -0.00000000000E+00 -0.10322565625E+04  0.10322565625E+04  0.00000000000E+00 0.  1.
         25    1    1    2    0    0  0.24980568699E+03 -0.31734126594E+02 -0.39454614659E+03  0.48446010964E+03  0.12500000000E+03 0.  0.
         21    1    1    2  503  502 -0.19536863624E+02  0.81024642989E+02 -0.50832060030E+03  0.51510825513E+03  0.00000000000E+00 0.  1.
         -4    1    1    2    0  503 -0.23026882337E+03 -0.49290516395E+02  0.90030729734E+02  0.25210874304E+03  0.00000000000E+00 0. -1.
<mgrwt>
<rscale>  4 0.42891555E+03</rscale>
<asrwt>0</asrwt>
<pdfrwt beam="1">  1       21 0.15880870E+00 0.42891555E+03</pdfrwt>
<pdfrwt beam="2">  1       -4 0.33757007E-01 0.42891555E+03</pdfrwt>
<totfact> 0.85765699E+01</totfact>
</mgrwt>
</event>
<event>
 5    0  0.7099509E-001  0.5061050E+03  0.7546771E-02  0.1012198E+00
         21   -1    0    0  501  502  0.00000000000E+00  0.00000000000E+00  0.12714817616E+03  0.12714817616E+03  0.00000000000E+00 0. -1.
          1   -1    0    0  503    0 -0.00000000000E+00 -0.00000000000E+00 -0.21214914660E+04  0.21214914660E+04  0.00000000000E+00 0.  1.
         25    1    1    2    0    0  0.26610183924E+03  0.18742221209E+03 -0.19050644621E+03  0.39730967831E+03  0.12500000000E+03 0.  0.
         21    1    1    2  503  502 -0.49058463663E+02  0.65179760619E+02 -0.28748441102E+03  0.29883510609E+03  0.00000000000E+00 0. -1.
          1    1    1    2  501    0 -0.21704337558E+03 -0.25260197271E+03 -0.15163524326E+04  0.15524948577E+04  0.00000000000E+00 0.  1.
<mgrwt>
<rscale>  4 0.50610503E+03</rscale>
<asrwt>0</asrwt>
<pdfrwt beam="1">  1       21 0.19561257E-01 0.50610503E+03</pdfrwt>
<pdfrwt beam="2">  1        1 0.32638332E+00 0.50610503E+03</pdfrwt>
<totfact> 0.68100474E+02</totfact>
</mgrwt>
</event>
<event>
 5    0  0.7099509E-001  0.5976782E+03  0.7546771E-02  0.9910235E-01
          2   -1    0    0  503    0 -0.00000000000E+00  0.00000000000E+00  0.17856091890E+04  0.17856091890E+04  0.00000000000E+00 0. -1.
         21   -1    0    0  501  502  0.00000000000E+00 -0.00000000000E+00 -0.19202288267E+03  0.19202288267E+03  0.00000000000E+00 0. -1.
         25    1    1    2    0    0  0.77167175407E+02 -0.27713099626E+03  0.37087656807E+03  0.48572707439E+03  0.12500000000E+03 0.  0.
         21    1    1    2  503  502 -0.21231740147E+02  0.15296677842E+03 -0.85570740733E+02  0.17655586583E+03  0.00000000000E+00 0. -1.
          2    1    1    2  501    0 -0.55935435261E+02  0.12416421785E+03  0.13082804790E+04  0.13153491314E+04  0.00000000000E+00 0. -1.
<mgrwt>
<rscale>  4 0.59767824E+03</rscale>
<asrwt>0</asrwt>
<pdfrwt beam="1">  1       21 0.29541983E-01 0.59767824E+03</pdfrwt>
<pdfrwt beam="2">  1        2 0.27470909E+00 0.59767824E+03</pdfrwt>
<totfact> 0.11855261E+03</totfact>
</mgrwt>
</event>
<event>
 5    0  0.7099509E-001  0.2989145E+03  0.7546771E-02  0.1085785E+00
          2   -1    0    0  503    0 -0.00000000000E+00  0.00000000000E+00  0.18906618645E+04  0.18906618645E+04  0.00000000000E+00 0.  1.
         21   -1    0    0  501  502  0.00000000000E+00 -0.00000000000E+00 -0.34506027072E+02  0.34506027072E+02  0.00000000000E+00 0.  1.
         25    1    1    2    0    0 -0.15354101865E+03  0.16203124904E+03  0.66989656819E+03  0.71708812718E+03  0.12500000000E+03 0.  0.
         21    1    1    2  503  502  0.20534687784E+02 -0.13507794692E+02  0.22658065541E+03  0.22790991055E+03  0.00000000000E+00 0. -1.
          2    1    1    2  501    0  0.13300633087E+03 -0.14852345435E+03  0.95967861382E+03  0.98016985383E+03  0.00000000000E+00 0.  1.
<mgrwt>
<rscale>  4 0.29891450E+03</rscale>
<asrwt>0</asrwt>
<pdfrwt beam="1">  1       21 0.53086210E-02 0.29891450E+03</pdfrwt>
<pdfrwt beam="2">  1        2 0.29087098E+00 0.29891450E+03</pdfrwt>
<totfact> 0.25960839E+04</totfact>
</mgrwt>
</event>
<event>
 5    0  0.7099509E-001  0.4953437E+03  0.7546771E-02  0.1015001E+00
         21   -1    0    0  501  502  0.00000000000E+00  0.00000000000E+00  0.89679929664E+02  0.89679929664E+02  0.00000000000E+00 0.  1.
          2   -1    0    0  503    0 -0.00000000000E+00 -0.00000000000E+00 -0.28281113964E+04  0.28281113964E+04  0.00000000000E+00 0.  1.
         25    1    1    2    0    0 -0.24993584051E+02 -0.20655663975E+03 -0.15487569354E+03  0.28792673567E+03  0.12500000000E+03 0.  0.
         21    1    1    2  503  502 -0.47102079479E+01  0.20665170564E+03 -0.44033620693E+03  0.48643919315E+03  0.00000000000E+00 0.  1.
          2    1    1    2  501    0  0.29703791998E+02 -0.95065890329E-01 -0.21432195663E+04  0.21434253972E+04  0.00000000000E+00 0.  1.
<mgrwt>
<rscale>  4 0.49534370E+03</rscale>
<asrwt>0</asrwt>
<pdfrwt beam="1">  1       21 0.13796913E-01 0.49534370E+03</pdfrwt>
<pdfrwt beam="2">  1        2 0.43509403E+00 0.49534370E+03</pdfrwt>
<totfact> 0.13787049E+03</totfact>
</mgrwt>
</event>
<event>
 5    0  0.7099509E-001  0.3563979E+03  0.7546771E-02  0.1060019E+00
         21   -1    0    0  501  502  0.00000000000E+00  0.00000000000E+00  0.68805279015E+02  0.68805279015E+02  0.00000000000E+00 0.  1.
          1   -1    0    0  503    0 -0.00000000000E+00 -0.00000000000E+00 -0.97744581610E+03  0.97744581610E+03  0.00000000000E+00 0.  1.
         25    1    1    2    0    0 -0.19556292334E+03  0.90585833951E+02 -0.37895256252E+03  0.45352033575E+03  0.12500000000E+03 0.  0.
         21    1    1    2  503  502  0.94794448133E+02 -0.28894740208E+02 -0.78776272446E+02  0.12659618679E+03  0.00000000000E+00 0. -1.
          1    1    1    2  501    0  0.10076847521E+03 -0.61691093743E+02 -0.45091170212E+03  0.46613457258E+03  0.00000000000E+00 0.  1.
<mgrwt>
<rscale>  4 0.35639794E+03</rscale>
<asrwt>0</asrwt>
<pdfrwt beam="1">  1       21 0.10585428E-01 0.35639794E+03</pdfrwt>
<pdfrwt beam="2">  1        1 0.15037627E+00 0.35639794E+03</pdfrwt>
<totfact> 0.13264429E+04</totfact>
</mgrwt>
</event>
<event>
 5    0  0.7099509E-001  0.1004258E+04  0.7546771E-02  0.9303887E-01
          2   -1    0    0  503    0 -0.00000000000E+00  0.00000000000E+00  0.16571915658E+04  0.16571915658E+04  0.00000000000E+00 0.  1.
         21   -1    0    0  501  502  0.00000000000E+00 -0.00000000000E+00 -0.80873568250E+03  0.80873568250E+03  0.00000000000E+00 0.  1.
         25    1    1    2    0    0 -0.91592120598E+02 -0.28267580398E+03  0.18503403356E+03  0.37169519809E+03  0.12500000000E+03 0.  0.
         21    1    1    2  503  502  0.11192595059E+03  0.28831562167E+03 -0.68189221697E+03  0.74875250362E+03  0.00000000000E+00 0.  1.
          2    1    1    2  501    0 -0.20333829989E+02 -0.56398176929E+01  0.13453140668E+04  0.13454795466E+04  0.00000000000E+00 0.  1.
<mgrwt>
<rscale>  4 0.10042584E+04</rscale>
<asrwt>0</asrwt>
<pdfrwt beam="1">  1       21 0.12442087E+00 0.10042584E+04</pdfrwt>
<pdfrwt beam="2">  1        2 0.25495255E+00 0.10042584E+04</pdfrwt>
<totfact> 0.50828716E+01</totfact>
</mgrwt>
</event>
<event>
 5    0  0.7099509E-001  0.1012447E+04  0.7546771E-02  0.9294998E-01
          1   -1    0    0  503    0 -0.00000000000E+00  0.00000000000E+00  0.12224697664E+04  0.12224697664E+04  0.00000000000E+00 0. -1.
         21   -1    0    0  501  502  0.00000000000E+00 -0.00000000000E+00 -0.45089045687E+03  0.45089045687E+03  0.00000000000E+00 0.  1.
         25    1    1    2    0    0  0.53343807254E+03 -0.12386851928E+03  0.42356439130E+03  0.70351359680E+03  0.12500000000E+03 0.  0.
         21    1    1    2  503  502 -0.15987273448E+03  0.30779844874E+03 -0.97254418158E+02  0.36021881979E+03  0.00000000000E+00 0. -1.
          1    1    1    2  501    0 -0.37356533806E+03 -0.18392992946E+03  0.44526933639E+03  0.60962780668E+03  0.00000000000E+00 0. -1.
<mgrwt>
<rscale>  4 0.10124468E+04</rscale>
<asrwt>0</asrwt>
<pdfrwt beam="1">  1       21 0.69367763E-01 0.10124468E+04</pdfrwt>
<pdfrwt beam="2">  1        1 0.18807227E+00 0.10124468E+04</pdfrwt>
<totfact> 0.18445430E+02</totfact>
</mgrwt>
</event>
<event>
 5    0  0.7099509E-001  0.5144125E+03  0.7546771E-02  0.1010084E+00
         21   -1    0    0  501  502  0.00000000000E+00  0.00000000000E+00  0.62492539892E+03  0.62492539892E+03  0.00000000000E+00 0. -1.
          1   -1    0    0  503    0 -0.00000000000E+00 -0.00000000000E+00 -0.59139831538E+03  0.59139831538E+03  0.00000000000E+00 0.  1.
         25    1    1    2    0    0  0.66162444748E+02 -0.22852164806E+03  0.50258306914E+03  0.56992486708E+03  0.12500000000E+03 0.  0.
         21    1    1    2  503  502  0.71236253054E+02  0.13049353405E+03 -0.82260722126E+00  0.14867361185E+03  0.00000000000E+00 0.  1.
          1    1    1    2  501    0 -0.13739869780E+03  0.98028114018E+02 -0.46823337838E+03  0.49772523538E+03  0.00000000000E+00 0.  1.
<mgrwt>
<rscale>  4 0.51441249E+03</rscale>
<asrwt>0</asrwt>
<pdfrwt beam="1">  1       21 0.96142369E-01 0.51441249E+03</pdfrwt>
<pdfrwt beam="2">  1        1 0.90984356E-01 0.51441249E+03</pdfrwt>
<totfact> 0.31514096E+02</totfact>
</mgrwt>
</event>
<event>
 5    0  0.7099509E-001  0.5757374E+03  0.7546771E-02  0.9957062E-01
         21   -1    0    0  501  502  0.00000000000E+00  0.00000000000E+00  0.80637830394E+02  0.80637830394E+02  0.00000000000E+00 0.  1.
          2   -1    0    0  503    0 -0.00000000000E+00 -0.00000000000E+00 -0.13280408879E+04  0.13280408879E+04  0.00000000000E+00 0.  1.
         25    1    1    2    0    0 -0.74502162442E+02 -0.24405008989E+03 -0.79705943315E+03  0.84619132503E+03  0.12500000000E+03 0.  0.
         21    1    1    2  503  502  0.41463609741E+02  0.21827180975E+03 -0.17190983387E+03  0.28091779019E+03  0.00000000000E+00 0.  1.
          2    1    1    2  501    0  0.33038552702E+02  0.25778280145E+02 -0.27843379052E+03  0.28156960311E+03  0.00000000000E+00 0.  1.
<mgrwt>
<rscale>  4 0.57573737E+03</rscale>
<asrwt>0</asrwt>
<pdfrwt beam="1">  1       21 0.12405820E-01 0.57573737E+03</pdfrwt>
<pdfrwt beam="2">  1        2 0.20431398E+00 0.57573737E+03</pdfrwt>
<totfact> 0.11133578E+04</totfact>
</mgrwt>
</event>
<event>
 5    0  0.7099509E-001  0.4350061E+03  0.7546771E-02  0.1032290E+00
          2   -1    0    0  503    0 -0.00000000000E+00  0.00000000000E+00  0.19182797841E+04  0.19182797841E+04  0.00000000000E+00 0. -1.
         21   -1    0    0  501  502  0.00000000000E+00 -0.00000000000E+00 -0.88874202950E+02  0.88874202950E+02  0.00000000000E+00 0. -1.
         25    1    1    2    0    0  0.12947061120E+03 -0.25256271983E+03  0.35685325264E+03  0.47277881777E+03  0.12500000000E+03 0.  0.
         21    1    1    2  503  502 -0.86881434796E+02  0.89123452838E+02  0.12541945343E+03  0.17669582015E+03  0.00000000000E+00 0. -1.
          2    1    1    2  501    0 -0.42589176400E+02  0.16343926700E+03  0.13471328751E+04  0.13576793491E+04  0.00000000000E+00 0. -1.
<mgrwt>
<rscale>  4 0.43500614E+03</rscale>
<asrwt>0</asrwt>
<pdfrwt beam="1">  1       21 0.13672956E-01 0.43500614E+03</pdfrwt>
<pdfrwt beam="2">  1        2 0.29511994E+00 0.43500614E+03</pdfrwt>
<totfact> 0.45440916E+03</totfact>
</mgrwt>
</event>
<event>
 5    0  0.7099509E-001  0.6140663E+03  0.7546771E-02  0.9876645E-01
         21   -1    0    0  501  502  0.00000000000E+00  0.00000000000E+00  0.44788384135E+02  0.44788384135E+02  0.00000000000E+00 0.  1.
          2   -1    0    0  503    0 -0.00000000000E+00 -0.00000000000E+00 -0.29737665437E+04  0.29737665437E+04  0.00000000000E+00 0. -1.
         25    1    1    2    0    0  0.13935800819E+03 -0.24034104361E+03 -0.16813715553E+04  0.17087480150E+04  0.12500000000E+03 0.  0.
         21    1    1    2  503  502 -0.12899246142E+03  0.19301675938E+03 -0.41284520369E+03  0.47364088370E+03  0.00000000000E+00 0.  1.
          2    1    1    2  501    0 -0.10365546773E+02  0.47324284236E+02 -0.83476140053E+03  0.83616602912E+03  0.00000000000E+00 0. -1.
<mgrwt>
<rscale>  4 0.61406634E+03</rscale>
<asrwt>0</asrwt>
<pdfrwt beam="1">  1       21 0.68905162E-02 0.61406634E+03</pdfrwt>
<pdfrwt beam="2">  1        2 0.45750284E+00 0.61406634E+03</pdfrwt>
<totfact> 0.38431949E+03</totfact>
</mgrwt>
</event>
<event>
 5    0  0.7099509E-001  0.3611642E+03  0.7546771E-02  0.1058124E+00
         21   -1    0    0  501  502  0.00000000000E+00  0.00000000000E+00  0.69632039719E+02  0.69632039719E+02  0.00000000000E+00 0.  1.
          2   -1    0    0  503    0 -0.00000000000E+00 -0.00000000000E+00 -0.33340508797E+04  0.33340508797E+04  0.00000000000E+00 0. -1.
         25    1    1    2    0    0 -0.45601664901E+01  0.24722740917E+03 -0.24802179106E+03  0.37186287231E+03  0.12500000000E+03 0.  0.
         21    1    1    2  503  502  0.37919436750E+02 -0.36455688361E+02 -0.18331423926E+03  0.19071185389E+03  0.00000000000E+00 0. -1.
          2    1    1    2  501    0 -0.33359270260E+02 -0.21077172080E+03 -0.28330828097E+04  0.28411081932E+04  0.00000000000E+00 0. -1.
<mgrwt>
<rscale>  4 0.36116416E+03</rscale>
<asrwt>0</asrwt>
<pdfrwt beam="1">  1       21 0.10712622E-01 0.36116416E+03</pdfrwt>
<pdfrwt beam="2">  1        2 0.51293087E+00 0.36116416E+03</pdfrwt>
<totfact> 0.11224032E+03</totfact>
</mgrwt>
</event>
<event>
 5    0  0.7099509E-001  0.5379727E+03  0.7546771E-02  0.1004317E+00
         21   -1    0    0  501  502  0.00000000000E+00  0.00000000000E+00  0.23323743740E+03  0.23323743740E+03  0.00000000000E+00 0. -1.
          1   -1    0    0  503    0 -0.00000000000E+00 -0.00000000000E+00 -0.84940729078E+03  0.84940729078E+03  0.00000000000E+00 0. -1.
         25    1    1    2    0    0  0.20241343848E+03  0.17620984235E+03 -0.58070102656E+02  0.30169230259E+03  0.12500000000E+03 0.  0.
         21    1    1    2  503  502 -0.18780744918E+03 -0.15114932486E+03 -0.19817720420E+02  0.24188943428E+03  0.00000000000E+00 0. -1.
          1    1    1    2  501    0 -0.14605989299E+02 -0.25060517499E+02 -0.53828203030E+03  0.53906299132E+03  0.00000000000E+00 0. -1.
<mgrwt>
<rscale>  4 0.53797267E+03</rscale>
<asrwt>0</asrwt>
<pdfrwt beam="1">  1       21 0.35882682E-01 0.53797267E+03</pdfrwt>
<pdfrwt beam="2">  1        1 0.13067805E+00 0.53797267E+03</pdfrwt>
<totfact> 0.15907924E+03</totfact>
</mgrwt>
</event>
<event>
 5    0  0.7099509E-001  0.6533836E+03  0.7546771E-02  0.9800451E-01
          2   -1    0    0  503    0 -0.00000000000E+00  0.00000000000E+00  0.97302632487E+03  0.97302632487E+03  0.00000000000E+00 0. -1.
         21   -1    0    0  501  502  0.00000000000E+00 -0.00000000000E+00 -0.37054544197E+03  0.37054544197E+03  0.00000000000E+00 0.  1.
         25    1    1    2    0    0  0.43590869837E+02 -0.28574272307E+03  0.10210275675E+03  0.33105745824E+03  0.12500000000E+03 0.  0.
         21    1    1    2  503  502  0.15386137558E+03  0.23892740938E+03 -0.15690348500E+03  0.32462029119E+03  0.00000000000E+00 0.  1.
          2    1    1    2  501    0 -0.19745224542E+03  0.46815313697E+02  0.65728161115E+03  0.68789401740E+03  0.00000000000E+00 0. -1.
<mgrwt>
<rscale>  4 0.65338365E+03</rscale>
<asrwt>0</asrwt>
<pdfrwt beam="1">  1       21 0.57006991E-01 0.65338365E+03</pdfrwt>
<pdfrwt beam="2">  1        2 0.14969636E+00 0.65338365E+03</pdfrwt>
<totfact> 0.87054376E+02</totfact>
</mgrwt>
</event>
<event>
 5    0  0.7099509E-001  0.5238573E+03  0.7546771E-02  0.1007733E+00
          2   -1    0    0  503    0 -0.00000000000E+00  0.00000000000E+00  0.22700883812E+04  0.22700883812E+04  0.00000000000E+00 0. -1.
         21   -1    0    0  501  502  0.00000000000E+00 -0.00000000000E+00 -0.14389902858E+03  0.14389902858E+03  0.00000000000E+00 0.  1.
         25    1    1    2    0    0  0.13511751181E+03 -0.18833787549E+03  0.38886623990E+03  0.46964864514E+03  0.12500000000E+03 0.  0.
         21    1    1    2  503  502 -0.91889223703E+02  0.11179828862E+03 -0.51313556852E+02  0.15354337461E+03  0.00000000000E+00 0.  1.
          2    1    1    2  501    0 -0.43228288104E+02  0.76539586879E+02  0.17886366695E+04  0.17907953900E+04  0.00000000000E+00 0. -1.
<mgrwt>
<rscale>  4 0.52385731E+03</rscale>
<asrwt>0</asrwt>
<pdfrwt beam="1">  1       21 0.22138314E-01 0.52385731E+03</pdfrwt>
<pdfrwt beam="2">  1        2 0.34924434E+00 0.52385731E+03</pdfrwt>
<totfact> 0.11591934E+03</totfact>
</mgrwt>
</event>
<event>
 5    0  0.7099509E-001  0.5008221E+03  0.7546771E-02  0.1013565E+00
          2   -1    0    0  503    0 -0.00000000000E+00  0.00000000000E+00  0.41064235402E+03  0.41064235402E+03  0.00000000000E+00 0. -1.
         21   -1    0    0  501  502  0.00000000000E+00 -0.00000000000E+00 -0.49439117610E+03  0.49439117610E+03  0.00000000000E+00 0. -1.
         25    1    1    2    0    0  0.22846765586E+03  0.10247273540E+03 -0.24415667889E+03  0.37139684318E+03  0.12500000000E+03 0.  0.
         21    1    1    2  503  502 -0.20492430689E+03 -0.71481161382E+02 -0.12172072983E+03  0.24883621935E+03  0.00000000000E+00 0. -1.
          2    1    1    2  501    0 -0.23543348969E+02 -0.30991574018E+02  0.28212858664E+03  0.28480046759E+03  0.00000000000E+00 0. -1.
<mgrwt>
<rscale>  4 0.50082210E+03</rscale>
<asrwt>0</asrwt>
<pdfrwt beam="1">  1       21 0.76060182E-01 0.50082210E+03</pdfrwt>
<pdfrwt beam="2">  1        2 0.63175746E-01 0.50082210E+03</pdfrwt>
<totfact> 0.13610833E+03</totfact>
</mgrwt>
</event>
<event>
 5    0  0.7099509E-001  0.6767134E+03  0.7546771E-02  0.9757906E-01
         21   -1    0    0  501  502  0.00000000000E+00  0.00000000000E+00  0.11405039645E+04  0.11405039645E+04  0.00000000000E+00 0.  1.
          1   -1    0    0  503    0 -0.00000000000E+00 -0.00000000000E+00 -0.26724179867E+03  0.26724179867E+03  0.00000000000E+00 0. -1.
         25    1    1    2    0    0 -0.20783359272E+03 -0.16276688792E+03  0.83264132164E+03  0.88238564844E+03  0.12500000000E+03 0.  0.
         21    1    1    2  503  502  0.25914132665E+03  0.13117600724E+03  0.20154377220E+03  0.35352689313E+03  0.00000000000E+00 0. -1.
          1    1    1    2  501    0 -0.51307733926E+02  0.31590880683E+02 -0.16092292799E+03  0.17183322163E+03  0.00000000000E+00 0. -1.
<mgrwt>
<rscale>  4 0.67671338E+03</rscale>
<asrwt>0</asrwt>
<pdfrwt beam="1">  1       21 0.17546215E+00 0.67671338E+03</pdfrwt>
<pdfrwt beam="2">  1        1 0.41114123E-01 0.67671338E+03</pdfrwt>
<totfact> 0.17885849E+02</totfact>
</mgrwt>
</event>
<event>
 5    0  0.7099509E-001  0.3601202E+03  0.7546771E-02  0.1058536E+00
          2   -1    0    0  503    0 -0.00000000000E+00  0.00000000000E+00  0.26769183821E+04  0.26769183821E+04  0.00000000000E+00 0.  1.
         21   -1    0    0  501  502  0.00000000000E+00 -0.00000000000E+00 -0.41693529822E+02  0.41693529822E+02  0.00000000000E+00 0.  1.
         25    1    1    2    0    0  0.13017213525E+03  0.22338416220E+03  0.59031822365E+03  0.65646467832E+03  0.12500000000E+03 0.  0.
         21    1    1    2  503  502 -0.39865702518E+02 -0.24008054963E+02  0.30556984896E+03  0.30909317938E+03  0.00000000000E+00 0. -1.
          2    1    1    2  501    0 -0.90306432728E+02 -0.19937610724E+03  0.17393367796E+04  0.17530540542E+04  0.00000000000E+00 0.  1.
<mgrwt>
<rscale>  4 0.36012017E+03</rscale>
<asrwt>0</asrwt>
<pdfrwt beam="1">  1       21 0.64143913E-02 0.36012017E+03</pdfrwt>
<pdfrwt beam="2">  1        2 0.41183346E+00 0.36012017E+03</pdfrwt>
<totfact> 0.69055499E+03</totfact>
</mgrwt>
</event>
<event>
 5    0  0.7099509E-001  0.4859059E+03  0.7546771E-02  0.1017525E+00
         21   -1    0    0  501  502  0.00000000000E+00  0.00000000000E+00  0.13348734891E+04  0.13348734891E+04  0.00000000000E+00 0.  1.
         -3   -1    0    0    0  501 -0.00000000000E+00 -0.00000000000E+00 -0.12190929516E+03  0.12190929516E+03  0.00000000000E+00 0.  1.
         25    1    1    2    0    0  0.12199338189E+03  0.23368210213E+03  0.93655174631E+03  0.98094030583E+03  0.12500000000E+03 0.  0.
         21    1    1    2  503  502 -0.11054976703E+03 -0.14048068845E+03  0.32439713703E+03  0.37039111400E+03  0.00000000000E+00 0.  1.
         -3    1    1    2    0  503 -0.11443614853E+02 -0.93201413688E+02 -0.47984689436E+02  0.10545136440E+03  0.00000000000E+00 0.  1.
<mgrwt>
<rscale>  4 0.48590588E+03</rscale>
<asrwt>0</asrwt>
<pdfrwt beam="1">  1       21 0.20536514E+00 0.48590588E+03</pdfrwt>
<pdfrwt beam="2">  1       -3 0.18755277E-01 0.48590588E+03</pdfrwt>
<totfact> 0.13894290E+02</totfact>
</mgrwt>
</event>
<event>
 5    0  0.7099509E-001  0.1095541E+04  0.7546771E-02  0.9209549E-01
          1   -1    0    0  503    0 -0.00000000000E+00  0.00000000000E+00  0.25111623403E+04  0.25111623403E+04  0.00000000000E+00 0. -1.
         21   -1    0    0  501  502  0.00000000000E+00 -0.00000000000E+00 -0.36213496543E+03  0.36213496543E+03  0.00000000000E+00 0.  1.
         25    1    1    2    0    0  0.22438821720E+03  0.52426549451E+02 -0.28901576423E+03  0.39019703623E+03  0.12500000000E+03 0.  0.
         21    1    1    2  503  502 -0.24476881609E+03 -0.95905703171E+02  0.75657413220E+03  0.80094575019E+03  0.00000000000E+00 0. -1.
          1    1    1    2  501    0  0.20380598890E+02  0.43479153720E+02  0.16814690069E+04  0.16821545193E+04  0.00000000000E+00 0. -1.
<mgrwt>
<rscale>  4 0.10955411E+04</rscale>
<asrwt>0</asrwt>
<pdfrwt beam="1">  1       21 0.55713073E-01 0.10955411E+04</pdfrwt>
<pdfrwt beam="2">  1        1 0.38633266E+00 0.10955411E+04</pdfrwt>
<totfact> 0.39017913E+01</totfact>
</mgrwt>
</event>
<event>
 5    0  0.7099509E-001  0.4564390E+03  0.7546771E-02  0.1025819E+00
          1   -1    0    0  503    0 -0.00000000000E+00  0.00000000000E+00  0.22917728460E+04  0.22917728460E+04  0.00000000000E+00 0. -1.
         21   -1    0    0  501  502  0.00000000000E+00 -0.00000000000E+00 -0.81582415875E+02  0.81582415875E+02  0.00000000000E+00 0. -1.
         25    1    1    2    0    0  0.21455047575E+03 -0.41519628328E+02  0.26082862623E+03  0.36250842534E+03  0.12500000000E+03 0.  0.
         21    1    1    2  503  502  0.10836835940E+03  0.11447027431E+03  0.50494282302E+03  0.52897485719E+03  0.00000000000E+00 0.  1.
          1    1    1    2  501    0 -0.32291883515E+03 -0.72950645983E+02  0.14444189808E+04  0.14818719793E+04  0.00000000000E+00 0. -1.
<mgrwt>
<rscale>  4 0.45643897E+03</rscale>
<asrwt>0</asrwt>
<pdfrwt beam="1">  1       21 0.12551143E-01 0.45643897E+03</pdfrwt>
<pdfrwt beam="2">  1        1 0.35258039E+00 0.45643897E+03</pdfrwt>
<totfact> 0.12167724E+03</totfact>
</mgrwt>
</event>
<event>
 5    0  0.7099509E-001  0.5270558E+03  0.7546771E-02  0.1006949E+00
         -2   -1    0    0    0  501 -0.00000000000E+00  0.00000000000E+00  0.19998156849E+03  0.19998156849E+03  0.00000000000E+00 0.  1.
         21   -1    0    0  501  502  0.00000000000E+00 -0.00000000000E+00 -0.16754718620E+04  0.16754718620E+04  0.00000000000E+00 0. -1.
         25    1    1    2    0    0  0.25137219331E+03 -0.13701033234E+03 -0.63630770913E+03  0.70885281366E+03  0.12500000000E+03 0.  0.
         21    1    1    2  503  502 -0.12177231304E+03  0.90866124587E+02 -0.96697197419E+03  0.97883601676E+03  0.00000000000E+00 0. -1.
         -2    1    1    2    0  503 -0.12959988027E+03  0.46144207752E+02  0.12778938984E+03  0.18776460005E+03  0.00000000000E+00 0.  1.
<mgrwt>
<rscale>  4 0.52705583E+03</rscale>
<asrwt>0</asrwt>
<pdfrwt beam="1">  1       21 0.25776490E+00 0.52705583E+03</pdfrwt>
<pdfrwt beam="2">  1       -2 0.30766395E-01 0.52705583E+03</pdfrwt>
<totfact> 0.38453970E+01</totfact>
</mgrwt>
</event>
<event>
 5    0  0.7099509E-001  0.6634855E+03  0.7546771E-02  0.9781799E-01
         21   -1    0    0  501  502  0.00000000000E+00  0.00000000000E+00  0.25024216128E+03  0.25024216128E+03  0.00000000000E+00 0. -1.
          1   -1    0    0  503    0 -0.00000000000E+00 -0.00000000000E+00 -0.16091662791E+04  0.16091662791E+04  0.00000000000E+00 0. -1.
         25    1    1    2    0    0  0.20264355895E+03 -0.26565969651E+03 -0.28524435021E+03  0.45675904552E+03  0.12500000000E+03 0.  0.
         21    1    1    2  503  502  0.47881472503E+02  0.23399307318E+03  0.55810451816E+02  0.24527576366E+03  0.00000000000E+00 0. -1.
          1    1    1    2  501    0 -0.25052503145E+03  0.31666623330E+02 -0.11294902194E+04  0.11573736312E+04  0.00000000000E+00 0. -1.
<mgrwt>
<rscale>  4 0.66348546E+03</rscale>
<asrwt>0</asrwt>
<pdfrwt beam="1">  1       21 0.38498794E-01 0.66348546E+03</pdfrwt>
<pdfrwt beam="2">  1        1 0.24756404E+00 0.66348546E+03</pdfrwt>
<totfact> 0.37723273E+02</totfact>
</mgrwt>
</event>
<event>
 5    0  0.7718582E-001  0.4737165E+03  0.7546771E-02  0.1020876E+00
         21   -1    0    0  501  502  0.00000000000E+00  0.00000000000E+00  0.45506070282E+03  0.45506070282E+03  0.00000000000E+00 0.  1.
         -1   -1    0    0    0  501 -0.00000000000E+00 -0.00000000000E+00 -0.10227997993E+04  0.10227997993E+04  0.00000000000E+00 0. -1.
         25    1    1    2    0    0  0.19120482578E+03  0.12880800194E+03  0.36956423329E+03  0.45315947446E+03  0.12500000000E+03 0.  0.
         21    1    1    2  503  502 -0.10633439327E+03 -0.42188454657E+02 -0.42998825743E+02  0.12221197942E+03  0.00000000000E+00 0. -1.
         -1    1    1    2    0  503 -0.84870432503E+02 -0.86619547281E+02 -0.89430450401E+03  0.90248904823E+03  0.00000000000E+00 0. -1.
<mgrwt>
<rscale>  4 0.47371652E+03</rscale>
<asrwt>0</asrwt>
<pdfrwt beam="1">  1       21 0.70009339E-01 0.47371652E+03</pdfrwt>
<pdfrwt beam="2">  1       -1 0.15735382E+00 0.47371652E+03</pdfrwt>
<totfact> 0.51211032E+01</totfact>
</mgrwt>
</event>
<event>
 5    0  0.7099509E-001  0.4188545E+03  0.7546771E-02  0.1037440E+00
         21   -1    0    0  501  502  0.00000000000E+00  0.00000000000E+00  0.62176315672E+03  0.62176315672E+03  0.00000000000E+00 0. -1.
          3   -1    0    0  503    0 -0.00000000000E+00 -0.00000000000E+00 -0.19693109144E+03  0.19693109144E+03  0.00000000000E+00 0. -1.
         25    1    1    2    0    0  0.43933139993E+02 -0.19675120370E+03  0.16857275134E+03  0.29100331517E+03  0.12500000000E+03 0.  0.
         21    1    1    2  503  502 -0.10572148156E+03  0.88027226560E+02  0.34693908631E+03  0.37321917675E+03  0.00000000000E+00 0. -1.
          3    1    1    2  501    0  0.61788341570E+02  0.10872397714E+03 -0.90679772374E+02  0.15447175624E+03  0.00000000000E+00 0. -1.
<mgrwt>
<rscale>  4 0.41885447E+03</rscale>
<asrwt>0</asrwt>
<pdfrwt beam="1">  1       21 0.95655869E-01 0.41885447E+03</pdfrwt>
<pdfrwt beam="2">  1        3 0.30297091E-01 0.41885447E+03</pdfrwt>
<totfact> 0.45472118E+02</totfact>
</mgrwt>
</event>
<event>
 5    0  0.7099509E-001  0.6888932E+03  0.7546771E-02  0.9736417E-01
         21   -1    0    0  501  502  0.00000000000E+00  0.00000000000E+00  0.28616617506E+03  0.28616617506E+03  0.00000000000E+00 0.  1.
          1   -1    0    0  503    0 -0.00000000000E+00 -0.00000000000E+00 -0.96590408135E+03  0.96590408135E+03  0.00000000000E+00 0. -1.
         25    1    1    2    0    0 -0.16121163732E+03  0.24766503748E+03 -0.19088337020E+03  0.37334785900E+03  0.12500000000E+03 0.  0.
         21    1    1    2  503  502  0.18012217789E+03 -0.26655243118E+03  0.61658764186E+02  0.32756068252E+03  0.00000000000E+00 0.  1.
          1    1    1    2  501    0 -0.18910540573E+02  0.18887393693E+02 -0.55051330027E+03  0.55116171489E+03  0.00000000000E+00 0. -1.
<mgrwt>
<rscale>  4 0.68889316E+03</rscale>
<asrwt>0</asrwt>
<pdfrwt beam="1">  1       21 0.44025564E-01 0.68889316E+03</pdfrwt>
<pdfrwt beam="2">  1        1 0.14860063E+00 0.68889316E+03</pdfrwt>
<totfact> 0.81773586E+02</totfact>
</mgrwt>
</event>
<event>
 5    0  0.7099509E-001  0.5212011E+03  0.7546771E-02  0.1008389E+00
          1   -1    0    0  503    0 -0.00000000000E+00  0.00000000000E+00  0.76222535397E+03  0.76222535397E+03  0.00000000000E+00 0. -1.
         21   -1    0    0  501  502  0.00000000000E+00 -0.00000000000E+00 -0.41100905337E+03  0.41100905337E+03  0.00000000000E+00 0.  1.
         25    1    1    2    0    0  0.20684408411E+03  0.68448318770E+02 -0.19927739937E+03  0.32063394919E+03  0.12500000000E+03 0.  0.
         21    1    1    2  503  502 -0.23607932864E+03 -0.85764137634E+02 -0.45819381779E+02  0.25532009804E+03  0.00000000000E+00 0.  1.
          1    1    1    2  501    0  0.29235244529E+02  0.17315818865E+02  0.59631308175E+03  0.59728036011E+03  0.00000000000E+00 0. -1.
<mgrwt>
<rscale>  4 0.52120114E+03</rscale>
<asrwt>0</asrwt>
<pdfrwt beam="1">  1       21 0.63232162E-01 0.52120114E+03</pdfrwt>
<pdfrwt beam="2">  1        1 0.11726544E+00 0.52120114E+03</pdfrwt>
<totfact> 0.56932072E+02</totfact>
</mgrwt>
</event>
<event>
 5    0  0.7099509E-001  0.5320477E+03  0.7546771E-02  0.1005737E+00
         21   -1    0    0  501  502  0.00000000000E+00  0.00000000000E+00  0.17923292731E+03  0.17923292731E+03  0.00000000000E+00 0. -1.
         -1   -1    0    0    0  501 -0.00000000000E+00 -0.00000000000E+00 -0.98748681288E+03  0.98748681288E+03  0.00000000000E+00 0. -1.
         25    1    1    2    0    0  0.19101893801E+03  0.12350077950E+03 -0.25620313778E+03  0.36469949963E+03  0.12500000000E+03 0.  0.
         21    1    1    2  503  502 -0.17417919612E+03 -0.10957047289E+03  0.39947752962E+02  0.20961847213E+03  0.00000000000E+00 0. -1.
         -1    1    1    2    0  503 -0.16839741890E+02 -0.13930306610E+02 -0.59199850075E+03  0.59240176843E+03  0.00000000000E+00 0. -1.
<mgrwt>
<rscale>  4 0.53204769E+03</rscale>
<asrwt>0</asrwt>
<pdfrwt beam="1">  1       21 0.27574297E-01 0.53204769E+03</pdfrwt>
<pdfrwt beam="2">  1       -1 0.15192105E+00 0.53204769E+03</pdfrwt>
<totfact> 0.39276557E+02</totfact>
</mgrwt>
</event>
<event>
 5    0  0.7099509E-001  0.6961312E+03  0.7546771E-02  0.9723871E-01
         21   -1    0    0  501  502  0.00000000000E+00  0.00000000000E+00  0.26227364012E+03  0.26227364012E+03  0.00000000000E+00 0.  1.
         -3   -1    0    0    0  501 -0.00000000000E+00 -0.00000000000E+00 -0.21908158243E+04  0.21908158243E+04  0.00000000000E+00 0.  1.
         25    1    1    2    0    0 -0.43572184283E+03  0.68898928972E+02  0.82559817240E+01  0.45857796281E+03  0.12500000000E+03 0.  0.
         21    1    1    2  503  502  0.17524553642E+01 -0.20293912831E+02 -0.29272608408E+03  0.29343393516E+03  0.00000000000E+00 0. -1.
         -3    1    1    2    0  503  0.43396938747E+03 -0.48605016141E+02 -0.16440720818E+04  0.17010775664E+04  0.00000000000E+00 0.  1.
<mgrwt>
<rscale>  4 0.69613121E+03</rscale>
<asrwt>0</asrwt>
<pdfrwt beam="1">  1       21 0.40349791E-01 0.69613121E+03</pdfrwt>
<pdfrwt beam="2">  1       -3 0.33704858E+00 0.69613121E+03</pdfrwt>
<totfact> 0.68349464E+00</totfact>
</mgrwt>
</event>
<event>
 5    0  0.7099509E-001  0.7779894E+03  0.7546771E-02  0.9592435E-01
          2   -1    0    0  503    0 -0.00000000000E+00  0.00000000000E+00  0.16329159956E+04  0.16329159956E+04  0.00000000000E+00 0.  1.
         21   -1    0    0  501  502  0.00000000000E+00 -0.00000000000E+00 -0.18196080593E+03  0.18196080593E+03  0.00000000000E+00 0.  1.
         25    1    1    2    0    0 -0.25229199689E+03 -0.25473401552E+03  0.28236532962E+03  0.47317634105E+03  0.12500000000E+03 0.  0.
         21    1    1    2  503  502  0.30168193550E+03  0.25676054324E+03  0.37154416436E+03  0.54312340480E+03  0.00000000000E+00 0.  1.
          2    1    1    2  501    0 -0.49389938615E+02 -0.20265277244E+01  0.79704569570E+03  0.79857705570E+03  0.00000000000E+00 0.  1.
<mgrwt>
<rscale>  4 0.77798943E+03</rscale>
<asrwt>0</asrwt>
<pdfrwt beam="1">  1       21 0.27993971E-01 0.77798943E+03</pdfrwt>
<pdfrwt beam="2">  1        2 0.25121783E+00 0.77798943E+03</pdfrwt>
<totfact> 0.15502849E+03</totfact>
</mgrwt>
</event>
<event>
 5    0  0.7099509E-001  0.4543723E+03  0.7546771E-02  0.1026426E+00
         21   -1    0    0  501  502  0.00000000000E+00  0.00000000000E+00  0.56296198549E+03  0.56296198549E+03  0.00000000000E+00 0.  1.
         -3   -1    0    0    0  501 -0.00000000000E+00 -0.00000000000E+00 -0.20581920437E+03  0.20581920437E+03  0.00000000000E+00 0.  1.
         25    1    1    2    0    0  0.71932389302E+02 -0.19042666831E+03  0.15532389502E+03  0.28493349575E+03  0.12500000000E+03 0.  0.
         21    1    1    2  503  502 -0.98339976128E+02  0.16587964062E+03  0.31262898870E+03  0.36731960287E+03  0.00000000000E+00 0.  1.
         -3    1    1    2    0  503  0.26407586826E+02  0.24547027692E+02 -0.11081010260E+03  0.11652809124E+03  0.00000000000E+00 0.  1.
<mgrwt>
<rscale>  4 0.45437232E+03</rscale>
<asrwt>0</asrwt>
<pdfrwt beam="1">  1       21 0.86609536E-01 0.45437232E+03</pdfrwt>
<pdfrwt beam="2">  1       -3 0.31664493E-01 0.45437232E+03</pdfrwt>
<totfact> 0.52685731E+02</totfact>
</mgrwt>
</event>
<event>
 5    0  0.7099509E-001  0.8245630E+03  0.7546771E-02  0.9525128E-01
         21   -1    0    0  501  502  0.00000000000E+00  0.00000000000E+00  0.30297513130E+03  0.30297513130E+03  0.00000000000E+00 0.  1.
          2   -1    0    0  503    0 -0.00000000000E+00 -0.00000000000E+00 -0.25978467800E+04  0.25978467800E+04  0.00000000000E+00 0. -1.
         25    1    1    2    0    0  0.17816555479E+03 -0.28102476304E+03 -0.33200600732E+03  0.48638551711E+03  0.12500000000E+03 0.  0.
         21    1    1    2  503  502  0.36878366856E+02  0.37814719205E+03  0.54048896978E+02  0.38376633003E+03  0.00000000000E+00 0.  1.
          2    1    1    2  501    0 -0.21504392165E+03 -0.97122429011E+02 -0.20169145384E+04  0.20306700642E+04  0.00000000000E+00 0. -1.
<mgrwt>
<rscale>  4 0.82456296E+03</rscale>
<asrwt>0</asrwt>
<pdfrwt beam="1">  1       21 0.46611559E-01 0.82456296E+03</pdfrwt>
<pdfrwt beam="2">  1        2 0.39966873E+00 0.82456296E+03</pdfrwt>
<totfact> 0.15723214E+02</totfact>
</mgrwt>
</event>
<event>
 5    0  0.7099509E-001  0.6252885E+03  0.7546771E-02  0.9854286E-01
          3   -1    0    0  503    0 -0.00000000000E+00  0.00000000000E+00  0.22827533197E+03  0.22827533197E+03  0.00000000000E+00 0.  1.
         21   -1    0    0  501  502  0.00000000000E+00 -0.00000000000E+00 -0.74142770359E+03  0.74142770359E+03  0.00000000000E+00 0.  1.
         25    1    1    2    0    0  0.27702550221E+03 -0.22583691318E+02 -0.31328656032E+03  0.43706592279E+03  0.12500000000E+03 0.  0.
         21    1    1    2  503  502 -0.31980232624E+03  0.92778122582E+01 -0.29011113902E+03  0.43188433481E+03  0.00000000000E+00 0.  1.
          3    1    1    2  501    0  0.42776824027E+02  0.13305879060E+02  0.90245327715E+02  0.10075277796E+03  0.00000000000E+00 0.  1.
<mgrwt>
<rscale>  4 0.62528855E+03</rscale>
<asrwt>0</asrwt>
<pdfrwt beam="1">  1       21 0.11406580E+00 0.62528855E+03</pdfrwt>
<pdfrwt beam="2">  1        3 0.35119282E-01 0.62528855E+03</pdfrwt>
<totfact> 0.21614286E+02</totfact>
</mgrwt>
</event>
<event>
 5    0  0.7099509E-001  0.4569010E+03  0.7546771E-02  0.1025684E+00
          1   -1    0    0  503    0 -0.00000000000E+00  0.00000000000E+00  0.17908278651E+03  0.17908278651E+03  0.00000000000E+00 0. -1.
         21   -1    0    0  501  502  0.00000000000E+00 -0.00000000000E+00 -0.52868878694E+03  0.52868878694E+03  0.00000000000E+00 0. -1.
         25    1    1    2    0    0  0.76729291267E+02  0.20403935998E+03 -0.26869247309E+03  0.36788597371E+03  0.12500000000E+03 0.  0.
         21    1    1    2  503  502 -0.85412870401E+02 -0.18434985135E+03 -0.15956509882E+03  0.25834327335E+03  0.00000000000E+00 0. -1.
          1    1    1    2  501    0  0.86835791341E+01 -0.19689508633E+02  0.78651571475E+02  0.81542326385E+02  0.00000000000E+00 0. -1.
<mgrwt>
<rscale>  4 0.45690100E+03</rscale>
<asrwt>0</asrwt>
<pdfrwt beam="1">  1       21 0.81336734E-01 0.45690100E+03</pdfrwt>
<pdfrwt beam="2">  1        1 0.27551199E-01 0.45690100E+03</pdfrwt>
<totfact> 0.22646994E+03</totfact>
</mgrwt>
</event>
<event>
 5    0  0.7099509E-001  0.5895005E+03  0.7546771E-02  0.9927432E-01
         21   -1    0    0  501  502  0.00000000000E+00  0.00000000000E+00  0.11766796937E+03  0.11766796937E+03  0.00000000000E+00 0.  1.
          2   -1    0    0  503    0 -0.00000000000E+00 -0.00000000000E+00 -0.12392418447E+04  0.12392418447E+04  0.00000000000E+00 0.  1.
         25    1    1    2    0    0  0.19996674363E+03 -0.12615785097E+03 -0.13354127192E+03  0.29893272358E+03  0.12500000000E+03 0.  0.
         21    1    1    2  503  502 -0.19720022047E+03  0.17980994469E+03 -0.49791419431E+03  0.56492308154E+03  0.00000000000E+00 0.  1.
          2    1    1    2  501    0 -0.27665231626E+01 -0.53652093726E+02 -0.49011840905E+03  0.49305400891E+03  0.00000000000E+00 0.  1.
<mgrwt>
<rscale>  4 0.58950051E+03</rscale>
<asrwt>0</asrwt>
<pdfrwt beam="1">  1       21 0.18102764E-01 0.58950051E+03</pdfrwt>
<pdfrwt beam="2">  1        2 0.19065260E+00 0.58950051E+03</pdfrwt>
<totfact> 0.61770886E+03</totfact>
</mgrwt>
</event>
<event>
 5    0  0.7099509E-001  0.5868598E+03  0.7546771E-02  0.9933049E-01
          2   -1    0    0  503    0 -0.00000000000E+00  0.00000000000E+00  0.92291291209E+03  0.92291291209E+03  0.00000000000E+00 0. -1.
         21   -1    0    0  501  502  0.00000000000E+00 -0.00000000000E+00 -0.12884676234E+03  0.12884676234E+03  0.00000000000E+00 0. -1.
         25    1    1    2    0    0 -0.21221376190E+03 -0.16841642778E+03  0.30635473193E+03  0.42764119968E+03  0.12500000000E+03 0.  0.
         21    1    1    2  503  502  0.23611577799E+03  0.16295852702E+03  0.23675277245E+03  0.37196507552E+03  0.00000000000E+00 0. -1.
          2    1    1    2  501    0 -0.23902016091E+02  0.54579007624E+01  0.25095864537E+03  0.25215339923E+03  0.00000000000E+00 0. -1.
<mgrwt>
<rscale>  4 0.58685981E+03</rscale>
<asrwt>0</asrwt>
<pdfrwt beam="1">  1       21 0.19822579E-01 0.58685981E+03</pdfrwt>
<pdfrwt beam="2">  1        2 0.14198660E+00 0.58685981E+03</pdfrwt>
<totfact> 0.81301388E+03</totfact>
</mgrwt>
</event>
<event>
 5    0  0.7099509E-001  0.7059340E+03  0.7546771E-02  0.9707138E-01
          1   -1    0    0  503    0 -0.00000000000E+00  0.00000000000E+00  0.11291959598E+04  0.11291959598E+04  0.00000000000E+00 0. -1.
         21   -1    0    0  501  502  0.00000000000E+00 -0.00000000000E+00 -0.42670385362E+03  0.42670385362E+03  0.00000000000E+00 0.  1.
         25    1    1    2    0    0  0.24228050421E+03 -0.30077511244E+02  0.14032454028E+03  0.30809166819E+03  0.12500000000E+03 0.  0.
         21    1    1    2  503  502 -0.28380636486E+03  0.11966874652E+03 -0.27012647945E+03  0.40967667316E+03  0.00000000000E+00 0.  1.
          1    1    1    2  501    0  0.41525860658E+02 -0.89591235277E+02  0.83229404537E+03  0.83813147208E+03  0.00000000000E+00 0. -1.
<mgrwt>
<rscale>  4 0.70593403E+03</rscale>
<asrwt>0</asrwt>
<pdfrwt beam="1">  1       21 0.65646747E-01 0.70593403E+03</pdfrwt>
<pdfrwt beam="2">  1        1 0.17372245E+00 0.70593403E+03</pdfrwt>
<totfact> 0.25707964E+02</totfact>
</mgrwt>
</event>
<event>
 5    0  0.7099509E-001  0.6206700E+03  0.7546771E-02  0.9863427E-01
         21   -1    0    0  501  502  0.00000000000E+00  0.00000000000E+00  0.43185501699E+03  0.43185501699E+03  0.00000000000E+00 0.  1.
          2   -1    0    0  503    0 -0.00000000000E+00 -0.00000000000E+00 -0.27749456192E+03  0.27749456192E+03  0.00000000000E+00 0.  1.
         25    1    1    2    0    0 -0.25217582350E+03  0.46643539415E+02  0.14567869249E+03  0.32033661541E+03  0.12500000000E+03 0.  0.
         21    1    1    2  503  502  0.30763912559E+03 -0.12223361227E+02 -0.35896965810E+02  0.30996747298E+03  0.00000000000E+00 0.  1.
          2    1    1    2  501    0 -0.55463302090E+02 -0.34420178188E+02  0.44578728387E+02  0.79045490509E+02  0.00000000000E+00 0.  1.
<mgrwt>
<rscale>  4 0.62066997E+03</rscale>
<asrwt>0</asrwt>
<pdfrwt beam="1">  1       21 0.66439234E-01 0.62066997E+03</pdfrwt>
<pdfrwt beam="2">  1        2 0.42691471E-01 0.62066997E+03</pdfrwt>
<totfact> 0.28057188E+03</totfact>
</mgrwt>
</event>
<event>
 5    0  0.7099509E-001  0.6815487E+03  0.7546771E-02  0.9749317E-01
         21   -1    0    0  501  502  0.00000000000E+00  0.00000000000E+00  0.97353364772E+02  0.97353364772E+02  0.00000000000E+00 0.  1.
          2   -1    0    0  503    0 -0.00000000000E+00 -0.00000000000E+00 -0.22012526129E+04  0.22012526129E+04  0.00000000000E+00 0.  1.
         25    1    1    2    0    0 -0.20970732461E+03  0.13479750408E+03 -0.92816425045E+03  0.96915499530E+03  0.12500000000E+03 0.  0.
         21    1    1    2  503  502  0.22743134592E+03 -0.15436025086E+03 -0.16962220480E+03  0.32299194497E+03  0.00000000000E+00 0.  1.
          2    1    1    2  501    0 -0.17724021305E+02  0.19562746775E+02 -0.10061127929E+04  0.10064590374E+04  0.00000000000E+00 0.  1.
<mgrwt>
<rscale>  4 0.68154869E+03</rscale>
<asrwt>0</asrwt>
<pdfrwt beam="1">  1       21 0.14977443E-01 0.68154869E+03</pdfrwt>
<pdfrwt beam="2">  1        2 0.33865421E+00 0.68154869E+03</pdfrwt>
<totfact> 0.25699874E+03</totfact>
</mgrwt>
</event>
<event>
 5    0  0.7099509E-001  0.5856177E+03  0.7546771E-02  0.9935702E-01
          1   -1    0    0  503    0 -0.00000000000E+00  0.00000000000E+00  0.57646364276E+03  0.57646364276E+03  0.00000000000E+00 0. -1.
         21   -1    0    0  501  502  0.00000000000E+00 -0.00000000000E+00 -0.33828146353E+03  0.33828146353E+03  0.00000000000E+00 0. -1.
         25    1    1    2    0    0  0.29028654476E+03 -0.85960340607E+02 -0.27746050669E+02  0.32871005697E+03  0.12500000000E+03 0.  0.
         21    1    1    2  503  502 -0.24868961637E+03  0.64688604093E+02 -0.54113407402E+02  0.26260122172E+03  0.00000000000E+00 0. -1.
          1    1    1    2  501    0 -0.41596928386E+02  0.21271736514E+02  0.32004163730E+03  0.32343382760E+03  0.00000000000E+00 0. -1.
<mgrwt>
<rscale>  4 0.58561767E+03</rscale>
<asrwt>0</asrwt>
<pdfrwt beam="1">  1       21 0.52043302E-01 0.58561767E+03</pdfrwt>
<pdfrwt beam="2">  1        1 0.88686714E-01 0.58561767E+03</pdfrwt>
<totfact> 0.12988016E+03</totfact>
</mgrwt>
</event>
<event>
 5    0  0.7099509E-001  0.4945731E+03  0.7546771E-02  0.1015205E+00
         21   -1    0    0  501  502  0.00000000000E+00  0.00000000000E+00  0.89091970348E+03  0.89091970348E+03  0.00000000000E+00 0. -1.
         -2   -1    0    0    0  501 -0.00000000000E+00 -0.00000000000E+00 -0.52199572165E+03  0.52199572165E+03  0.00000000000E+00 0. -1.
         25    1    1    2    0    0  0.32155175990E+03 -0.80255333860E+02  0.58118542011E+03  0.68061585748E+03  0.12500000000E+03 0.  0.
         21    1    1    2  503  502 -0.13971629370E+03  0.12473193241E+02  0.21861043608E+03  0.25974361597E+03  0.00000000000E+00 0.  1.
         -2    1    1    2    0  503 -0.18183546620E+03  0.67782140619E+02 -0.43087187435E+03  0.47255595167E+03  0.00000000000E+00 0. -1.
<mgrwt>
<rscale>  4 0.49457308E+03</rscale>
<asrwt>0</asrwt>
<pdfrwt beam="1">  1       21 0.13706457E+00 0.49457308E+03</pdfrwt>
<pdfrwt beam="2">  1       -2 0.80307034E-01 0.49457308E+03</pdfrwt>
<totfact> 0.37912679E+01</totfact>
</mgrwt>
</event>
<event>
 5    0  0.7099509E-001  0.4432927E+03  0.7546771E-02  0.1029741E+00
         21   -1    0    0  501  502  0.00000000000E+00  0.00000000000E+00  0.25130868396E+03  0.25130868396E+03  0.00000000000E+00 0. -1.
          2   -1    0    0  503    0 -0.00000000000E+00 -0.00000000000E+00 -0.97585186167E+03  0.97585186167E+03  0.00000000000E+00 0.  1.
         25    1    1    2    0    0 -0.18994713186E+03  0.82196177155E+02 -0.32451511073E+02  0.24395537504E+03  0.12500000000E+03 0.  0.
         21    1    1    2  503  502 -0.66656400498E+02 -0.18331111672E+03  0.41551868645E+02  0.19943068728E+03  0.00000000000E+00 0. -1.
          2    1    1    2  501    0  0.25660353236E+03  0.10111493956E+03 -0.73364353528E+03  0.78377448331E+03  0.00000000000E+00 0.  1.
<mgrwt>
<rscale>  4 0.44329266E+03</rscale>
<asrwt>0</asrwt>
<pdfrwt beam="1">  1       21 0.38662874E-01 0.44329266E+03</pdfrwt>
<pdfrwt beam="2">  1        2 0.15013106E+00 0.44329266E+03</pdfrwt>
<totfact> 0.20539094E+03</totfact>
</mgrwt>
</event>
<event>
 5    0  0.7099509E-001  0.4177282E+03  0.7546771E-02  0.1037808E+00
         -1   -1    0    0    0  501 -0.00000000000E+00  0.00000000000E+00  0.24433805990E+03  0.24433805990E+03  0.00000000000E+00 0.  1.
         21   -1    0    0  501  502  0.00000000000E+00 -0.00000000000E+00 -0.44665969033E+03  0.44665969033E+03  0.00000000000E+00 0.  1.
         25    1    1    2    0    0  0.85750299593E+02 -0.25407195417E+03 -0.27700523983E+03  0.40529319594E+03  0.12500000000E+03 0.  0.
         21    1    1    2  503  502 -0.52755396465E+02  0.64961297792E+02  0.18832075532E+02  0.85777322970E+02  0.00000000000E+00 0. -1.
         -1    1    1    2    0  503 -0.32994903128E+02  0.18911065638E+03  0.55851533874E+02  0.19992723132E+03  0.00000000000E+00 0.  1.
<mgrwt>
<rscale>  4 0.41772823E+03</rscale>
<asrwt>0</asrwt>
<pdfrwt beam="1">  1       21 0.68716875E-01 0.41772823E+03</pdfrwt>
<pdfrwt beam="2">  1       -1 0.37590471E-01 0.41772823E+03</pdfrwt>
<totfact> 0.11492738E+03</totfact>
</mgrwt>
</event>
<event>
 5    0  0.7099509E-001  0.4258784E+03  0.7546771E-02  0.1035170E+00
         21   -1    0    0  501  502  0.00000000000E+00  0.00000000000E+00  0.18456096100E+03  0.18456096100E+03  0.00000000000E+00 0. -1.
          2   -1    0    0  503    0 -0.00000000000E+00 -0.00000000000E+00 -0.57352166859E+03  0.57352166859E+03  0.00000000000E+00 0. -1.
         25    1    1    2    0    0 -0.12887940194E+03 -0.16548730635E+03  0.44274704890E+01  0.24421415049E+03  0.12500000000E+03 0.  0.
         21    1    1    2  503  502  0.12462810111E+03  0.12033593108E+03 -0.69245448866E+02  0.18656857207E+03  0.00000000000E+00 0. -1.
          2    1    1    2  501    0  0.42513008295E+01  0.45151375268E+02 -0.32414272921E+03  0.32729990704E+03  0.00000000000E+00 0. -1.
<mgrwt>
<rscale>  4 0.42587837E+03</rscale>
<asrwt>0</asrwt>
<pdfrwt beam="1">  1       21 0.28393994E-01 0.42587837E+03</pdfrwt>
<pdfrwt beam="2">  1        2 0.88234103E-01 0.42587837E+03</pdfrwt>
<totfact> 0.75595621E+03</totfact>
</mgrwt>
</event>
<event>
 5    0  0.7099509E-001  0.5269089E+03  0.7546771E-02  0.1006985E+00
         21   -1    0    0  501  502  0.00000000000E+00  0.00000000000E+00  0.90645853677E+03  0.90645853677E+03  0.00000000000E+00 0.  1.
          2   -1    0    0  503    0 -0.00000000000E+00 -0.00000000000E+00 -0.24974994094E+03  0.24974994094E+03  0.00000000000E+00 0.  1.
         25    1    1    2    0    0 -0.12413447687E+03  0.18434035215E+03  0.18701681822E+03  0.31621357351E+03  0.12500000000E+03 0.  0.
         21    1    1    2  503  502  0.46100120032E+02 -0.17543695493E+03  0.63316345863E+03  0.65863442938E+03  0.00000000000E+00 0.  1.
          2    1    1    2  501    0  0.78034356838E+02 -0.89033972206E+01 -0.16347168102E+03  0.18136047482E+03  0.00000000000E+00 0.  1.
<mgrwt>
<rscale>  4 0.52690886E+03</rscale>
<asrwt>0</asrwt>
<pdfrwt beam="1">  1       21 0.13945516E+00 0.52690886E+03</pdfrwt>
<pdfrwt beam="2">  1        2 0.38423068E-01 0.52690886E+03</pdfrwt>
<totfact> 0.52781999E+02</totfact>
</mgrwt>
</event>
<event>
 5    0  0.7099509E-001  0.1031237E+04  0.7546771E-02  0.9274932E-01
         21   -1    0    0  501  502  0.00000000000E+00  0.00000000000E+00  0.20914629903E+04  0.20914629903E+04  0.00000000000E+00 0.  1.
          2   -1    0    0  503    0 -0.00000000000E+00 -0.00000000000E+00 -0.41743808627E+03  0.41743808627E+03  0.00000000000E+00 0.  1.
         25    1    1    2    0    0 -0.28750082742E+03  0.80598427729E+02  0.12554716957E+03  0.34718860020E+03  0.12500000000E+03 0.  0.
         21    1    1    2  503  502  0.30810530589E+03 -0.16965275992E+03  0.18311525744E+04  0.18646261527E+04  0.00000000000E+00 0.  1.
          2    1    1    2  501    0 -0.20604478465E+02  0.89054332187E+02 -0.28267483993E+03  0.29708632372E+03  0.00000000000E+00 0.  1.
<mgrwt>
<rscale>  4 0.10312374E+04</rscale>
<asrwt>0</asrwt>
<pdfrwt beam="1">  1       21 0.32176353E+00 0.10312374E+04</pdfrwt>
<pdfrwt beam="2">  1        2 0.64221245E-01 0.10312374E+04</pdfrwt>
<totfact> 0.15904754E+01</totfact>
</mgrwt>
</event>
<event>
 5    0  0.7099509E-001  0.3711910E+03  0.7546771E-02  0.1054239E+00
          2   -1    0    0  503    0 -0.00000000000E+00  0.00000000000E+00  0.12029060564E+04  0.12029060564E+04  0.00000000000E+00 0. -1.
         21   -1    0    0  501  502  0.00000000000E+00 -0.00000000000E+00 -0.83255123291E+02  0.83255123291E+02  0.00000000000E+00 0.  1.
         25    1    1    2    0    0  0.14256174993E+03 -0.16968970497E+03  0.17459504289E+03  0.30858852461E+03  0.12500000000E+03 0.  0.
         21    1    1    2  503  502 -0.34964257853E+02  0.83631187266E+02  0.19593817976E+03  0.21588989115E+03  0.00000000000E+00 0. -1.
          2    1    1    2  501    0 -0.10759749207E+03  0.86058517704E+02  0.74911771048E+03  0.76168276397E+03  0.00000000000E+00 0. -1.
<mgrwt>
<rscale>  4 0.37119097E+03</rscale>
<asrwt>0</asrwt>
<pdfrwt beam="1">  1       21 0.12808481E-01 0.37119097E+03</pdfrwt>
<pdfrwt beam="2">  1        2 0.18506246E+00 0.37119097E+03</pdfrwt>
<totfact> 0.12750247E+04</totfact>
</mgrwt>
</event>
<event>
 5    0  0.7099509E-001  0.1101443E+04  0.7546771E-02  0.9203787E-01
         21   -1    0    0  501  502  0.00000000000E+00  0.00000000000E+00  0.17971582292E+04  0.17971582292E+04  0.00000000000E+00 0. -1.
          2   -1    0    0  503    0 -0.00000000000E+00 -0.00000000000E+00 -0.54185139183E+03  0.54185139183E+03  0.00000000000E+00 0. -1.
         25    1    1    2    0    0  0.31696729292E+03 -0.12817441512E+03  0.56346975511E+02  0.36837063825E+03  0.12500000000E+03 0.  0.
         21    1    1    2  503  502 -0.27464137788E+03  0.82571145954E+02  0.15692082757E+04  0.15951992017E+04  0.00000000000E+00 0. -1.
          2    1    1    2  501    0 -0.42325915043E+02  0.45603269169E+02 -0.37024841385E+03  0.37543978106E+03  0.00000000000E+00 0. -1.
<mgrwt>
<rscale>  4 0.11014430E+04</rscale>
<asrwt>0</asrwt>
<pdfrwt beam="1">  1       21 0.27648588E+00 0.11014430E+04</pdfrwt>
<pdfrwt beam="2">  1        2 0.83361753E-01 0.11014430E+04</pdfrwt>
<totfact> 0.22174631E+01</totfact>
</mgrwt>
</event>
<event>
 5    0  0.7099509E-001  0.4312858E+03  0.7546771E-02  0.1033455E+00
         21   -1    0    0  501  502  0.00000000000E+00  0.00000000000E+00  0.86504570396E+03  0.86504570396E+03  0.00000000000E+00 0. -1.
         -1   -1    0    0    0  501 -0.00000000000E+00 -0.00000000000E+00 -0.12438451224E+03  0.12438451224E+03  0.00000000000E+00 0.  1.
         25    1    1    2    0    0  0.26677735857E+03  0.25357815268E+00  0.36412672112E+03  0.46838391558E+03  0.12500000000E+03 0.  0.
         21    1    1    2  503  502 -0.10122728626E+03 -0.61081865413E+02  0.31130389410E+03  0.33299860698E+03  0.00000000000E+00 0.  1.
         -1    1    1    2    0  503 -0.16555007231E+03  0.60828287260E+02  0.65230576496E+02  0.18804769364E+03  0.00000000000E+00 0.  1.
<mgrwt>
<rscale>  4 0.43128579E+03</rscale>
<asrwt>0</asrwt>
<pdfrwt beam="1">  1       21 0.13308395E+00 0.43128579E+03</pdfrwt>
<pdfrwt beam="2">  1       -1 0.19136079E-01 0.43128579E+03</pdfrwt>
<totfact> 0.73767635E+02</totfact>
</mgrwt>
</event>
<event>
 5    0  0.7099509E-001  0.5387586E+03  0.7546771E-02  0.1004130E+00
         21   -1    0    0  501  502  0.00000000000E+00  0.00000000000E+00  0.74736594862E+03  0.74736594862E+03  0.00000000000E+00 0.  1.
         -4   -1    0    0    0  501 -0.00000000000E+00 -0.00000000000E+00 -0.28433714837E+03  0.28433714837E+03  0.00000000000E+00 0. -1.
         25    1    1    2    0    0 -0.61309848690E+02 -0.25215968130E+03  0.37483775648E+03  0.47272798320E+03  0.12500000000E+03 0.  0.
         21    1    1    2  503  502  0.33277519141E+02  0.24736069127E+03  0.27421220825E+03  0.37079244871E+03  0.00000000000E+00 0.  1.
         -4    1    1    2    0  503  0.28032329549E+02  0.47989900354E+01 -0.18602116447E+03  0.18818266508E+03  0.00000000000E+00 0. -1.
<mgrwt>
<rscale>  4 0.53875863E+03</rscale>
<asrwt>0</asrwt>
<pdfrwt beam="1">  1       21 0.11497938E+00 0.53875863E+03</pdfrwt>
<pdfrwt beam="2">  1       -4 0.43744177E-01 0.53875863E+03</pdfrwt>
<totfact> 0.11750074E+02</totfact>
</mgrwt>
</event>
<event>
 5    0  0.7099509E-001  0.7545440E+03  0.7546771E-02  0.9628248E-01
         21   -1    0    0  501  502  0.00000000000E+00  0.00000000000E+00  0.73709347316E+03  0.73709347316E+03  0.00000000000E+00 0. -1.
          1   -1    0    0  503    0 -0.00000000000E+00 -0.00000000000E+00 -0.14550485789E+04  0.14550485789E+04  0.00000000000E+00 0. -1.
         25    1    1    2    0    0  0.28280426708E+03 -0.46580943991E+02  0.56413860617E+03  0.64500031379E+03  0.12500000000E+03 0.  0.
         21    1    1    2  503  502 -0.27575419319E+03  0.69541486892E+02 -0.20291282770E+02  0.28511073221E+03  0.00000000000E+00 0.  1.
          1    1    1    2  501    0 -0.70500738889E+01 -0.22960542902E+02 -0.12618024291E+04  0.12620310060E+04  0.00000000000E+00 0. -1.
<mgrwt>
<rscale>  4 0.75454400E+03</rscale>
<asrwt>0</asrwt>
<pdfrwt beam="1">  1       21 0.11339900E+00 0.75454400E+03</pdfrwt>
<pdfrwt beam="2">  1        1 0.22385363E+00 0.75454400E+03</pdfrwt>
<totfact> 0.40641571E+01</totfact>
</mgrwt>
</event>
<event>
 5    0  0.7099509E-001  0.4235634E+03  0.7546771E-02  0.1035913E+00
         21   -1    0    0  501  502  0.00000000000E+00  0.00000000000E+00  0.73486844092E+03  0.73486844092E+03  0.00000000000E+00 0. -1.
          1   -1    0    0  503    0 -0.00000000000E+00 -0.00000000000E+00 -0.28133705004E+03  0.28133705004E+03  0.00000000000E+00 0. -1.
         25    1    1    2    0    0 -0.17084357462E+03  0.11313031333E+03  0.52960847576E+03  0.58146034463E+03  0.12500000000E+03 0.  0.
         21    1    1    2  503  502 -0.39768189902E+02 -0.13660311172E+03  0.87511543399E+02  0.16703349750E+03  0.00000000000E+00 0. -1.
          1    1    1    2  501    0  0.21061176452E+03  0.23472798393E+02 -0.16358862827E+03  0.26771164883E+03  0.00000000000E+00 0. -1.
<mgrwt>
<rscale>  4 0.42356335E+03</rscale>
<asrwt>0</asrwt>
<pdfrwt beam="1">  1       21 0.11305668E+00 0.42356335E+03</pdfrwt>
<pdfrwt beam="2">  1        1 0.43282623E-01 0.42356335E+03</pdfrwt>
<totfact> 0.57948836E+02</totfact>
</mgrwt>
</event>
<event>
 5    0  0.7099509E-001  0.5259569E+03  0.7546771E-02  0.1007217E+00
          1   -1    0    0  503    0 -0.00000000000E+00  0.00000000000E+00  0.22279780176E+04  0.22279780176E+04  0.00000000000E+00 0.  1.
         21   -1    0    0  501  502  0.00000000000E+00 -0.00000000000E+00 -0.13920800736E+03  0.13920800736E+03  0.00000000000E+00 0.  1.
         25    1    1    2    0    0 -0.21908611663E+03 -0.13525769381E+03  0.50668760322E+03  0.58193702193E+03  0.12500000000E+03 0.  0.
         21    1    1    2  503  502 -0.33648359080E+02 -0.23027435016E+02 -0.83636967140E+02  0.93046316986E+02  0.00000000000E+00 0.  1.
          1    1    1    2  501    0  0.25273447571E+03  0.15828512882E+03  0.16657193742E+04  0.16922026861E+04  0.00000000000E+00 0.  1.
<mgrwt>
<rscale>  4 0.52595691E+03</rscale>
<asrwt>0</asrwt>
<pdfrwt beam="1">  1       21 0.21416618E-01 0.52595691E+03</pdfrwt>
<pdfrwt beam="2">  1        1 0.34276582E+00 0.52595691E+03</pdfrwt>
<totfact> 0.48400723E+02</totfact>
</mgrwt>
</event>
<event>
 5    0  0.7099509E-001  0.3886952E+03  0.7546771E-02  0.1047766E+00
         21   -1    0    0  501  502  0.00000000000E+00  0.00000000000E+00  0.98409596620E+03  0.98409596620E+03  0.00000000000E+00 0. -1.
         -1   -1    0    0    0  501 -0.00000000000E+00 -0.00000000000E+00 -0.18330721738E+03  0.18330721738E+03  0.00000000000E+00 0. -1.
         25    1    1    2    0    0  0.16569675312E+03 -0.12777193948E+03  0.77096565844E+03  0.80857537002E+03  0.12500000000E+03 0.  0.
         21    1    1    2  503  502 -0.13729092988E+02  0.11340787595E+03  0.13243695588E+03  0.17489820355E+03  0.00000000000E+00 0.  1.
         -1    1    1    2    0  503 -0.15196766014E+03  0.14364063528E+02 -0.10261386549E+03  0.18392961001E+03  0.00000000000E+00 0. -1.
<mgrwt>
<rscale>  4 0.38869524E+03</rscale>
<asrwt>0</asrwt>
<pdfrwt beam="1">  1       21 0.15139938E+00 0.38869524E+03</pdfrwt>
<pdfrwt beam="2">  1       -1 0.28201111E-01 0.38869524E+03</pdfrwt>
<totfact> 0.27683515E+02</totfact>
</mgrwt>
</event>
<event>
 5    0  0.7099509E-001  0.6615815E+03  0.7546771E-02  0.9785287E-01
          1   -1    0    0  503    0 -0.00000000000E+00  0.00000000000E+00  0.10843081298E+04  0.10843081298E+04  0.00000000000E+00 0.  1.
         21   -1    0    0  501  502  0.00000000000E+00 -0.00000000000E+00 -0.36021327864E+03  0.36021327864E+03  0.00000000000E+00 0.  1.
         25    1    1    2    0    0 -0.14195738815E+03 -0.19420233479E+03  0.16718956137E+03  0.31850242749E+03  0.12500000000E+03 0.  0.
         21    1    1    2  503  502  0.13455473648E+03  0.22693715464E+03 -0.22296577910E+03  0.34542609617E+03  0.00000000000E+00 0.  1.
          1    1    1    2  501    0  0.74026516668E+01 -0.32734819844E+02  0.77987106891E+03  0.78059288480E+03  0.00000000000E+00 0.  1.
<mgrwt>
<rscale>  4 0.66158151E+03</rscale>
<asrwt>0</asrwt>
<pdfrwt beam="1">  1       21 0.55417428E-01 0.66158151E+03</pdfrwt>
<pdfrwt beam="2">  1        1 0.16681663E+00 0.66158151E+03</pdfrwt>
<totfact> 0.40736490E+02</totfact>
</mgrwt>
</event>
<event>
 5    0  0.7099509E-001  0.6008049E+03  0.7546771E-02  0.9903738E-01
         21   -1    0    0  501  502  0.00000000000E+00  0.00000000000E+00  0.47523370777E+03  0.47523370777E+03  0.00000000000E+00 0.  1.
          2   -1    0    0  503    0 -0.00000000000E+00 -0.00000000000E+00 -0.24603804682E+03  0.24603804682E+03  0.00000000000E+00 0.  1.
         25    1    1    2    0    0  0.15699778315E+03 -0.22799820143E+03 -0.13833315592E+02  0.30405237113E+03  0.12500000000E+03 0.  0.
         21    1    1    2  503  502 -0.96094808617E+02  0.20223492755E+03  0.26556334159E+03  0.34735726070E+03  0.00000000000E+00 0.  1.
          2    1    1    2  501    0 -0.60902974530E+02  0.25763273877E+02 -0.22534365048E+02  0.69862122753E+02  0.00000000000E+00 0.  1.
<mgrwt>
<rscale>  4 0.60080488E+03</rscale>
<asrwt>0</asrwt>
<pdfrwt beam="1">  1       21 0.73112878E-01 0.60080488E+03</pdfrwt>
<pdfrwt beam="2">  1        2 0.37852007E-01 0.60080488E+03</pdfrwt>
<totfact> 0.25872746E+03</totfact>
</mgrwt>
</event>
<event>
 5    0  0.7099509E-001  0.1484246E+04  0.7546771E-02  0.8894997E-01
         21   -1    0    0  501  502  0.00000000000E+00  0.00000000000E+00  0.52149083353E+03  0.52149083353E+03  0.00000000000E+00 0. -1.
          2   -1    0    0  503    0 -0.00000000000E+00 -0.00000000000E+00 -0.21836326185E+04  0.21836326185E+04  0.00000000000E+00 0. -1.
         25    1    1    2    0    0 -0.42401210924E+03  0.34023358614E+03 -0.75685996491E+03  0.94021655399E+03  0.12500000000E+03 0.  0.
         21    1    1    2  503  502  0.44651093155E+03 -0.39983572963E+03  0.21952015834E+03  0.63830221886E+03  0.00000000000E+00 0. -1.
          2    1    1    2  501    0 -0.22498822309E+02  0.59602143497E+02 -0.11248019784E+04  0.11266046792E+04  0.00000000000E+00 0. -1.
<mgrwt>
<rscale>  4 0.14842464E+04</rscale>
<asrwt>0</asrwt>
<pdfrwt beam="1">  1       21 0.80229359E-01 0.14842464E+04</pdfrwt>
<pdfrwt beam="2">  1        2 0.33594348E+00 0.14842464E+04</pdfrwt>
<totfact> 0.72207066E+01</totfact>
</mgrwt>
</event>
<event>
 5    0  0.7099509E-001  0.4675882E+03  0.7546771E-02  0.1022603E+00
         21   -1    0    0  501  502  0.00000000000E+00  0.00000000000E+00  0.22713072018E+03  0.22713072018E+03  0.00000000000E+00 0. -1.
          1   -1    0    0  503    0 -0.00000000000E+00 -0.00000000000E+00 -0.49644729498E+03  0.49644729498E+03  0.00000000000E+00 0. -1.
         25    1    1    2    0    0  0.49958373315E+02 -0.20916556247E+03 -0.84566720894E+02  0.26272152914E+03  0.12500000000E+03 0.  0.
         21    1    1    2  503  502 -0.47131169904E+02  0.18691612943E+03  0.70028678115E+02  0.20509266778E+03  0.00000000000E+00 0. -1.
          1    1    1    2  501    0 -0.28272034113E+01  0.22249433043E+02 -0.25477853201E+03  0.25576381825E+03  0.00000000000E+00 0. -1.
<mgrwt>
<rscale>  4 0.46758825E+03</rscale>
<asrwt>0</asrwt>
<pdfrwt beam="1">  1       21 0.34943188E-01 0.46758825E+03</pdfrwt>
<pdfrwt beam="2">  1        1 0.76376506E-01 0.46758825E+03</pdfrwt>
<totfact> 0.37351880E+03</totfact>
</mgrwt>
</event>
<event>
 5    0  0.7099509E-001  0.6986533E+03  0.7546771E-02  0.9719538E-01
         21   -1    0    0  501  502  0.00000000000E+00  0.00000000000E+00  0.95635237417E+03  0.95635237417E+03  0.00000000000E+00 0. -1.
          2   -1    0    0  503    0 -0.00000000000E+00 -0.00000000000E+00 -0.20917066648E+04  0.20917066648E+04  0.00000000000E+00 0.  1.
         25    1    1    2    0    0 -0.41373567479E+03 -0.16009295296E+03  0.60159891570E+03  0.75786094869E+03  0.12500000000E+03 0.  0.
         21    1    1    2  503  502  0.14306784312E+03  0.18374055489E+03  0.21648584787E+03  0.31795459043E+03  0.00000000000E+00 0. -1.
          2    1    1    2  501    0  0.27066783167E+03 -0.23647601931E+02 -0.19534390543E+04  0.19722434999E+04  0.00000000000E+00 0.  1.
<mgrwt>
<rscale>  4 0.69865327E+03</rscale>
<asrwt>0</asrwt>
<pdfrwt beam="1">  1       21 0.14713114E+00 0.69865327E+03</pdfrwt>
<pdfrwt beam="2">  1        2 0.32180102E+00 0.69865327E+03</pdfrwt>
<totfact> 0.20155479E+01</totfact>
</mgrwt>
</event>
<event>
 5    0  0.7099509E-001  0.5755167E+03  0.7546771E-02  0.9957545E-01
         21   -1    0    0  501  502  0.00000000000E+00  0.00000000000E+00  0.23607132130E+03  0.23607132130E+03  0.00000000000E+00 0. -1.
          2   -1    0    0  503    0 -0.00000000000E+00 -0.00000000000E+00 -0.12029616408E+04  0.12029616408E+04  0.00000000000E+00 0.  1.
         25    1    1    2    0    0  0.28194537738E+03  0.11797565883E+02  0.89082037296E+02  0.32123665381E+03  0.12500000000E+03 0.  0.
         21    1    1    2  503  502 -0.50529059378E+02  0.96073737663E+02 -0.25589647719E+03  0.27796826428E+03  0.00000000000E+00 0.  1.
          2    1    1    2  501    0 -0.23141631800E+03 -0.10787130355E+03 -0.80007587964E+03  0.83982804403E+03  0.00000000000E+00 0.  1.
<mgrwt>
<rscale>  4 0.57551670E+03</rscale>
<asrwt>0</asrwt>
<pdfrwt beam="1">  1       21 0.36318665E-01 0.57551670E+03</pdfrwt>
<pdfrwt beam="2">  1        2 0.18507102E+00 0.57551670E+03</pdfrwt>
<totfact> 0.16550964E+03</totfact>
</mgrwt>
</event>
<event>
 5    0  0.7099509E-001  0.7006685E+03  0.7546771E-02  0.9716090E-01
          2   -1    0    0  503    0 -0.00000000000E+00  0.00000000000E+00  0.10649206283E+04  0.10649206283E+04  0.00000000000E+00 0.  1.
         21   -1    0    0  501  502  0.00000000000E+00 -0.00000000000E+00 -0.26553346860E+03  0.26553346860E+03  0.00000000000E+00 0.  1.
         25    1    1    2    0    0  0.27389118608E+03  0.41095622805E+02  0.32600257539E+03  0.44565447511E+03  0.12500000000E+03 0.  0.
         21    1    1    2  503  502 -0.24987353433E+03 -0.27764115075E+02 -0.12845971748E+03  0.28232875918E+03  0.00000000000E+00 0.  1.
          2    1    1    2  501    0 -0.24017651750E+02 -0.13331507730E+02  0.60184430177E+03  0.60247086259E+03  0.00000000000E+00 0.  1.
<mgrwt>
<rscale>  4 0.70066854E+03</rscale>
<asrwt>0</asrwt>
<pdfrwt beam="1">  1       21 0.40851303E-01 0.70066854E+03</pdfrwt>
<pdfrwt beam="2">  1        2 0.16383394E+00 0.70066854E+03</pdfrwt>
<totfact> 0.15402969E+03</totfact>
</mgrwt>
</event>
<event>
 5    0  0.7099509E-001  0.4105467E+03  0.7546771E-02  0.1040188E+00
          2   -1    0    0  503    0 -0.00000000000E+00  0.00000000000E+00  0.14230331216E+04  0.14230331216E+04  0.00000000000E+00 0. -1.
         21   -1    0    0  501  502  0.00000000000E+00 -0.00000000000E+00 -0.12813026091E+03  0.12813026091E+03  0.00000000000E+00 0. -1.
         25    1    1    2    0    0  0.12782348984E+03  0.16012377798E+03  0.11608996690E+03  0.26660898193E+03  0.12500000000E+03 0.  0.
         21    1    1    2  503  502 -0.97461588973E+02 -0.13992849011E+03  0.85727724942E+02  0.19086117073E+03  0.00000000000E+00 0. -1.
          2    1    1    2  501    0 -0.30361900871E+02 -0.20195287874E+02  0.10930851688E+04  0.10936932298E+04  0.00000000000E+00 0. -1.
<mgrwt>
<rscale>  4 0.41054666E+03</rscale>
<asrwt>0</asrwt>
<pdfrwt beam="1">  1       21 0.19712349E-01 0.41054666E+03</pdfrwt>
<pdfrwt beam="2">  1        2 0.21892816E+00 0.41054666E+03</pdfrwt>
<totfact> 0.42677113E+03</totfact>
</mgrwt>
</event>
<event>
 5    0  0.7099509E-001  0.1414278E+04  0.7546771E-02  0.8943547E-01
         21   -1    0    0  501  502  0.00000000000E+00  0.00000000000E+00  0.72634021242E+03  0.72634021242E+03  0.00000000000E+00 0.  1.
          2   -1    0    0  503    0 -0.00000000000E+00 -0.00000000000E+00 -0.13166845952E+04  0.13166845952E+04  0.00000000000E+00 0.  1.
         25    1    1    2    0    0  0.17874930210E+03 -0.34862486620E+03 -0.55228955710E+03  0.68857778443E+03  0.12500000000E+03 0.  0.
         21    1    1    2  503  502 -0.17527708371E+03  0.38683700189E+03  0.58904135072E+03  0.72617810141E+03  0.00000000000E+00 0.  1.
          2    1    1    2  501    0 -0.34722183879E+01 -0.38212135686E+02 -0.62709617635E+03  0.62826892173E+03  0.00000000000E+00 0.  1.
<mgrwt>
<rscale>  4 0.14142784E+04</rscale>
<asrwt>0</asrwt>
<pdfrwt beam="1">  1       21 0.11174465E+00 0.14142784E+04</pdfrwt>
<pdfrwt beam="2">  1        2 0.20256686E+00 0.14142784E+04</pdfrwt>
<totfact> 0.98925580E+01</totfact>
</mgrwt>
</event>
<event>
 5    0  0.7099509E-001  0.3080680E+03  0.7546771E-02  0.1081276E+00
          2   -1    0    0  503    0 -0.00000000000E+00  0.00000000000E+00  0.53874983428E+03  0.53874983428E+03  0.00000000000E+00 0.  1.
         21   -1    0    0  501  502  0.00000000000E+00 -0.00000000000E+00 -0.37835604611E+03  0.37835604611E+03  0.00000000000E+00 0. -1.
         25    1    1    2    0    0 -0.15352815057E+02  0.21487346687E+03 -0.29701283703E+03  0.38761829298E+03  0.12500000000E+03 0.  0.
         21    1    1    2  503  502 -0.26057550444E+02  0.90553449150E+01  0.13803813021E+02  0.30847049464E+02  0.00000000000E+00 0.  1.
          2    1    1    2  501    0  0.41410365501E+02 -0.22392881178E+03  0.44360281217E+03  0.49864053795E+03  0.00000000000E+00 0.  1.
<mgrwt>
<rscale>  4 0.30806800E+03</rscale>
<asrwt>0</asrwt>
<pdfrwt beam="1">  1       21 0.58208622E-01 0.30806800E+03</pdfrwt>
<pdfrwt beam="2">  1        2 0.82884590E-01 0.30806800E+03</pdfrwt>
<totfact> 0.18997992E+03</totfact>
</mgrwt>
</event>
<event>
 5    0  0.7099509E-001  0.7469215E+03  0.7546771E-02  0.9640192E-01
          1   -1    0    0  503    0 -0.00000000000E+00  0.00000000000E+00  0.11456884171E+04  0.11456884171E+04  0.00000000000E+00 0. -1.
         21   -1    0    0  501  502  0.00000000000E+00 -0.00000000000E+00 -0.39676907178E+03  0.39676907178E+03  0.00000000000E+00 0. -1.
         25    1    1    2    0    0 -0.27869551596E+03 -0.12991118543E+03 -0.24380070410E+03  0.41183964116E+03  0.12500000000E+03 0.  0.
         21    1    1    2  503  502  0.24157742238E+03  0.12265276617E+03  0.19940341409E+03  0.33640016885E+03  0.00000000000E+00 0.  1.
          1    1    1    2  501    0  0.37118093579E+02  0.72584192577E+01  0.79331663531E+03  0.79421767884E+03  0.00000000000E+00 0. -1.
<mgrwt>
<rscale>  4 0.74692148E+03</rscale>
<asrwt>0</asrwt>
<pdfrwt beam="1">  1       21 0.61041396E-01 0.74692148E+03</pdfrwt>
<pdfrwt beam="2">  1        1 0.17625975E+00 0.74692148E+03</pdfrwt>
<totfact> 0.29190507E+02</totfact>
</mgrwt>
</event>
<event>
 5    0  0.7099509E-001  0.7147479E+03  0.7546771E-02  0.9692339E-01
          2   -1    0    0  503    0 -0.00000000000E+00  0.00000000000E+00  0.69304468007E+03  0.69304468007E+03  0.00000000000E+00 0. -1.
         21   -1    0    0  501  502  0.00000000000E+00 -0.00000000000E+00 -0.18849636975E+04  0.18849636975E+04  0.00000000000E+00 0.  1.
         25    1    1    2    0    0  0.23659317928E+03 -0.26854506955E+03 -0.15761864929E+04  0.16211359126E+04  0.12500000000E+03 0.  0.
         21    1    1    2  503  502 -0.21308459726E+03  0.63468255754E+02 -0.22335079068E+03  0.31514891841E+03  0.00000000000E+00 0. -1.
          2    1    1    2  501    0 -0.23508582014E+02  0.20507681379E+03  0.60761826607E+03  0.64172354659E+03  0.00000000000E+00 0. -1.
<mgrwt>
<rscale>  4 0.71474787E+03</rscale>
<asrwt>0</asrwt>
<pdfrwt beam="1">  1       21 0.28999441E+00 0.71474787E+03</pdfrwt>
<pdfrwt beam="2">  1        2 0.10662226E+00 0.71474787E+03</pdfrwt>
<totfact> 0.14915517E+01</totfact>
</mgrwt>
</event>
<event>
 5    0  0.7099509E-001  0.6643643E+03  0.7546771E-02  0.9780193E-01
         21   -1    0    0  501  502  0.00000000000E+00  0.00000000000E+00  0.82191791894E+03  0.82191791894E+03  0.00000000000E+00 0. -1.
          1   -1    0    0  503    0 -0.00000000000E+00 -0.00000000000E+00 -0.96159340848E+03  0.96159340848E+03  0.00000000000E+00 0. -1.
         25    1    1    2    0    0  0.71198196403E+02  0.31504138011E+03  0.15874958331E+03  0.38098121286E+03  0.12500000000E+03 0.  0.
         21    1    1    2  503  502 -0.14911241244E+02 -0.22747683463E+03  0.52510158960E+03  0.57245063963E+03  0.00000000000E+00 0. -1.
          1    1    1    2  501    0 -0.56286955159E+02 -0.87564545483E+02 -0.82352666244E+03  0.83007947493E+03  0.00000000000E+00 0. -1.
<mgrwt>
<rscale>  4 0.66436426E+03</rscale>
<asrwt>0</asrwt>
<pdfrwt beam="1">  1       21 0.12644891E+00 0.66436426E+03</pdfrwt>
<pdfrwt beam="2">  1        1 0.14793745E+00 0.66436426E+03</pdfrwt>
<totfact> 0.71706282E+01</totfact>
</mgrwt>
</event>
<event>
 5    0  0.7099509E-001  0.6947250E+03  0.7546771E-02  0.9726296E-01
          2   -1    0    0  503    0 -0.00000000000E+00  0.00000000000E+00  0.12479154036E+04  0.12479154036E+04  0.00000000000E+00 0. -1.
         21   -1    0    0  501  502  0.00000000000E+00 -0.00000000000E+00 -0.38821004421E+03  0.38821004421E+03  0.00000000000E+00 0. -1.
         25    1    1    2    0    0 -0.28615513654E+03  0.78471464733E+02  0.14507820690E+03  0.35315041988E+03  0.12500000000E+03 0.  0.
         21    1    1    2  503  502  0.25305923463E+03 -0.79293505015E+02 -0.22194854774E+03  0.34581439243E+03  0.00000000000E+00 0. -1.
          2    1    1    2  501    0  0.33095901906E+02  0.82204028261E+00  0.93657570019E+03  0.93716063546E+03  0.00000000000E+00 0. -1.
<mgrwt>
<rscale>  4 0.69472495E+03</rscale>
<asrwt>0</asrwt>
<pdfrwt beam="1">  1       21 0.59724623E-01 0.69472495E+03</pdfrwt>
<pdfrwt beam="2">  1        2 0.19198698E+00 0.69472495E+03</pdfrwt>
<totfact> 0.53041130E+02</totfact>
</mgrwt>
</event>
<event>
 5    0  0.7099509E-001  0.6199016E+03  0.7546771E-02  0.9864956E-01
         21   -1    0    0  501  502  0.00000000000E+00  0.00000000000E+00  0.22667516154E+04  0.22667516154E+04  0.00000000000E+00 0. -1.
         -3   -1    0    0    0  501 -0.00000000000E+00 -0.00000000000E+00 -0.25008080656E+03  0.25008080656E+03  0.00000000000E+00 0.  1.
         25    1    1    2    0    0  0.27729464443E+02  0.31034508405E+03  0.72590852278E+03  0.79978195643E+03  0.12500000000E+03 0.  0.
         21    1    1    2  503  502 -0.10194011872E+03 -0.15947138269E+03  0.14636788520E+04  0.14758654043E+04  0.00000000000E+00 0. -1.
         -3    1    1    2    0  503  0.74210654280E+02 -0.15087370136E+03 -0.17291656598E+03  0.24118506123E+03  0.00000000000E+00 0.  1.
<mgrwt>
<rscale>  4 0.61990164E+03</rscale>
<asrwt>0</asrwt>
<pdfrwt beam="1">  1       21 0.34873101E+00 0.61990164E+03</pdfrwt>
<pdfrwt beam="2">  1       -3 0.38473972E-01 0.61990164E+03</pdfrwt>
<totfact> 0.44865981E+00</totfact>
</mgrwt>
</event>
<event>
 5    0  0.7099509E-001  0.4871404E+03  0.7546771E-02  0.1017191E+00
          2   -1    0    0  503    0 -0.00000000000E+00  0.00000000000E+00  0.14756536201E+03  0.14756536201E+03  0.00000000000E+00 0. -1.
         21   -1    0    0  501  502  0.00000000000E+00 -0.00000000000E+00 -0.10021345546E+04  0.10021345546E+04  0.00000000000E+00 0. -1.
         25    1    1    2    0    0  0.21171157238E+03  0.90742373650E+01 -0.75870214891E+03  0.79759518707E+03  0.12500000000E+03 0.  0.
         21    1    1    2  503  502 -0.18666878541E+03 -0.22905984513E+02 -0.18177585293E+03  0.26155760413E+03  0.00000000000E+00 0. -1.
          2    1    1    2  501    0 -0.25042786968E+02  0.13831747148E+02  0.85908809262E+02  0.90547125394E+02  0.00000000000E+00 0. -1.
<mgrwt>
<rscale>  4 0.48714039E+03</rscale>
<asrwt>0</asrwt>
<pdfrwt beam="1">  1       21 0.15417454E+00 0.48714039E+03</pdfrwt>
<pdfrwt beam="2">  1        2 0.22702364E-01 0.48714039E+03</pdfrwt>
<totfact> 0.73397718E+02</totfact>
</mgrwt>
</event>
<event>
 5    0  0.7099509E-001  0.5049938E+03  0.7546771E-02  0.1012484E+00
         21   -1    0    0  501  502  0.00000000000E+00  0.00000000000E+00  0.14534959950E+03  0.14534959950E+03  0.00000000000E+00 0.  1.
          2   -1    0    0  503    0 -0.00000000000E+00 -0.00000000000E+00 -0.66597019864E+03  0.66597019864E+03  0.00000000000E+00 0.  1.
         25    1    1    2    0    0  0.17666428316E+03  0.12069890253E+03 -0.29244005947E+03  0.38330755589E+03  0.12500000000E+03 0.  0.
         21    1    1    2  503  502 -0.18121828407E+03 -0.90794796573E+02 -0.49604951073E+01  0.20275198662E+03  0.00000000000E+00 0.  1.
          2    1    1    2  501    0  0.45540009173E+01 -0.29904105960E+02 -0.22322004456E+03  0.22526025564E+03  0.00000000000E+00 0.  1.
<mgrwt>
<rscale>  4 0.50499376E+03</rscale>
<asrwt>0</asrwt>
<pdfrwt beam="1">  1       21 0.22361477E-01 0.50499376E+03</pdfrwt>
<pdfrwt beam="2">  1        2 0.10245695E+00 0.50499376E+03</pdfrwt>
<totfact> 0.99664400E+03</totfact>
</mgrwt>
</event>
<event>
 5    0  0.7099509E-001  0.5025851E+03  0.7546771E-02  0.1013106E+00
         21   -1    0    0  501  502  0.00000000000E+00  0.00000000000E+00  0.48634627904E+03  0.48634627904E+03  0.00000000000E+00 0.  1.
          1   -1    0    0  503    0 -0.00000000000E+00 -0.00000000000E+00 -0.22729774689E+04  0.22729774689E+04  0.00000000000E+00 0.  1.
         25    1    1    2    0    0 -0.37660483791E+03 -0.13574091410E+03  0.34281841557E+03  0.54166988633E+03  0.12500000000E+03 0.  0.
         21    1    1    2  503  502  0.27187516220E+02  0.57303376186E+02 -0.54313946367E+01  0.63657976784E+02  0.00000000000E+00 0. -1.
          1    1    1    2  501    0  0.34941732169E+03  0.78437537911E+02 -0.21240182108E+04  0.21539958848E+04  0.00000000000E+00 0.  1.
<mgrwt>
<rscale>  4 0.50258514E+03</rscale>
<asrwt>0</asrwt>
<pdfrwt beam="1">  1       21 0.74822507E-01 0.50258514E+03</pdfrwt>
<pdfrwt beam="2">  1        1 0.34968883E+00 0.50258514E+03</pdfrwt>
<totfact> 0.33798621E+01</totfact>
</mgrwt>
</event>
<event>
 5    0  0.7099509E-001  0.5317987E+03  0.7546771E-02  0.1005797E+00
         21   -1    0    0  501  502  0.00000000000E+00  0.00000000000E+00  0.71419873288E+02  0.71419873288E+02  0.00000000000E+00 0. -1.
          2   -1    0    0  503    0 -0.00000000000E+00 -0.00000000000E+00 -0.20804508234E+04  0.20804508234E+04  0.00000000000E+00 0. -1.
         25    1    1    2    0    0  0.38154984789E+02  0.22070740990E+03 -0.54838551562E+03  0.60540832287E+03  0.12500000000E+03 0.  0.
         21    1    1    2  503  502 -0.14498437553E+03 -0.22734036294E+03 -0.41213690089E+03  0.49250475616E+03  0.00000000000E+00 0. -1.
          2    1    1    2  501    0  0.10682939074E+03  0.66329530397E+01 -0.10485085336E+04  0.10539576176E+04  0.00000000000E+00 0. -1.
<mgrwt>
<rscale>  4 0.53179866E+03</rscale>
<asrwt>0</asrwt>
<pdfrwt beam="1">  1       21 0.10987673E-01 0.53179866E+03</pdfrwt>
<pdfrwt beam="2">  1        2 0.32006935E+00 0.53179866E+03</pdfrwt>
<totfact> 0.54344202E+03</totfact>
</mgrwt>
</event>
<event>
 5    0  0.7099509E-001  0.1191418E+04  0.7546771E-02  0.9120402E-01
          2   -1    0    0  503    0 -0.00000000000E+00  0.00000000000E+00  0.89486801444E+03  0.89486801444E+03  0.00000000000E+00 0.  1.
         21   -1    0    0  501  502  0.00000000000E+00 -0.00000000000E+00 -0.17265577845E+04  0.17265577845E+04  0.00000000000E+00 0. -1.
         25    1    1    2    0    0 -0.48933170897E+03 -0.86662527494E+02 -0.37181665125E+03  0.63311020938E+03  0.12500000000E+03 0.  0.
         21    1    1    2  503  502  0.59723275205E+03  0.10597040187E+03 -0.11443241889E+04  0.12951426699E+04  0.00000000000E+00 0. -1.
          2    1    1    2  501    0 -0.10790104308E+03 -0.19307874372E+02  0.68445107010E+03  0.69317291960E+03  0.00000000000E+00 0.  1.
<mgrwt>
<rscale>  4 0.11914177E+04</rscale>
<asrwt>0</asrwt>
<pdfrwt beam="1">  1       21 0.26562428E+00 0.11914177E+04</pdfrwt>
<pdfrwt beam="2">  1        2 0.13767200E+00 0.11914177E+04</pdfrwt>
<totfact> 0.13391105E+01</totfact>
</mgrwt>
</event>
<event>
 5    0  0.7099509E-001  0.4381089E+03  0.7546771E-02  0.1031329E+00
          2   -1    0    0  503    0 -0.00000000000E+00  0.00000000000E+00  0.30185868099E+04  0.30185868099E+04  0.00000000000E+00 0. -1.
         21   -1    0    0  501  502  0.00000000000E+00 -0.00000000000E+00 -0.55673470844E+02  0.55673470844E+02  0.00000000000E+00 0. -1.
         25    1    1    2    0    0 -0.74409062298E+02  0.22561721318E+03  0.45360606412E+03  0.52708945810E+03  0.12500000000E+03 0.  0.
         21    1    1    2  503  502  0.99806862481E+02 -0.13338593636E+03  0.37056463156E+03  0.40628975373E+03  0.00000000000E+00 0. -1.
          2    1    1    2  501    0 -0.25397800182E+02 -0.92231276818E+02  0.21387426434E+04  0.21408810689E+04  0.00000000000E+00 0. -1.
<mgrwt>
<rscale>  4 0.43810891E+03</rscale>
<asrwt>0</asrwt>
<pdfrwt beam="1">  1       21 0.85651517E-02 0.43810891E+03</pdfrwt>
<pdfrwt beam="2">  1        2 0.46439784E+00 0.43810891E+03</pdfrwt>
<totfact> 0.25608522E+03</totfact>
</mgrwt>
</event>
<event>
 5    0  0.7099509E-001  0.5286460E+03  0.7546771E-02  0.1006561E+00
          2   -1    0    0  503    0 -0.00000000000E+00  0.00000000000E+00  0.54247264759E+03  0.54247264759E+03  0.00000000000E+00 0.  1.
         21   -1    0    0  501  502  0.00000000000E+00 -0.00000000000E+00 -0.32120508143E+03  0.32120508143E+03  0.00000000000E+00 0.  1.
         25    1    1    2    0    0  0.22270590041E+03  0.78485656699E+02  0.21398494415E+02  0.26803136374E+03  0.12500000000E+03 0.  0.
         21    1    1    2  503  502 -0.23570372473E+03 -0.47727947353E+02 -0.12364657942E+03  0.27041205486E+03  0.00000000000E+00 0.  1.
          2    1    1    2  501    0  0.12997824316E+02 -0.30757709346E+02  0.32351565118E+03  0.32523431042E+03  0.00000000000E+00 0.  1.
<mgrwt>
<rscale>  4 0.52864605E+03</rscale>
<asrwt>0</asrwt>
<pdfrwt beam="1">  1       21 0.49416166E-01 0.52864605E+03</pdfrwt>
<pdfrwt beam="2">  1        2 0.83457331E-01 0.52864605E+03</pdfrwt>
<totfact> 0.25562085E+03</totfact>
</mgrwt>
</event>
<event>
 5    0  0.7099509E-001  0.3783871E+03  0.7546771E-02  0.1051532E+00
         21   -1    0    0  501  502  0.00000000000E+00  0.00000000000E+00  0.13081396260E+03  0.13081396260E+03  0.00000000000E+00 0.  1.
         -1   -1    0    0    0  501 -0.00000000000E+00 -0.00000000000E+00 -0.54454733871E+03  0.54454733871E+03  0.00000000000E+00 0.  1.
         25    1    1    2    0    0  0.91674152831E+02 -0.19900494415E+03 -0.18755257220E+03  0.31433753424E+03  0.12500000000E+03 0.  0.
         21    1    1    2  503  502  0.26513927803E+02  0.11851752554E+03 -0.43428488898E+02  0.12897839305E+03  0.00000000000E+00 0. -1.
         -1    1    1    2    0  503 -0.11818808063E+03  0.80487418611E+02 -0.18275231502E+03  0.23204537402E+03  0.00000000000E+00 0.  1.
<mgrwt>
<rscale>  4 0.37838705E+03</rscale>
<asrwt>0</asrwt>
<pdfrwt beam="1">  1       21 0.20125225E-01 0.37838705E+03</pdfrwt>
<pdfrwt beam="2">  1       -1 0.83776515E-01 0.37838705E+03</pdfrwt>
<totfact> 0.30430157E+03</totfact>
</mgrwt>
</event>
<event>
 5    0  0.1115479E+000  0.5159672E+03  0.7546771E-02  0.1009693E+00
          2   -1    0    0  503    0 -0.00000000000E+00  0.00000000000E+00  0.19201910738E+04  0.19201910738E+04  0.00000000000E+00 0.  1.
         21   -1    0    0  501  502  0.00000000000E+00 -0.00000000000E+00 -0.13856278226E+03  0.13856278226E+03  0.00000000000E+00 0. -1.
         25    1    1    2    0    0  0.15276973107E+03 -0.16870814740E+03  0.71044111802E+01  0.25976239602E+03  0.12500000000E+03 0.  0.
         21    1    1    2  503  502 -0.86745937517E+02  0.83158422847E+02  0.34386747087E+03  0.36425954825E+03  0.00000000000E+00 0.  1.
          2    1    1    2  501    0 -0.66023793548E+02  0.85549724551E+02  0.14306564095E+04  0.14347319118E+04  0.00000000000E+00 0.  1.
<mgrwt>
<rscale>  4 0.51596717E+03</rscale>
<asrwt>0</asrwt>
<pdfrwt beam="1">  1       21 0.21317352E-01 0.51596717E+03</pdfrwt>
<pdfrwt beam="2">  1        2 0.29541399E+00 0.51596717E+03</pdfrwt>
<totfact> 0.19324944E+03</totfact>
</mgrwt>
</event>
<event>
 5    0  0.7099509E-001  0.5938313E+03  0.7546771E-02  0.9918287E-01
          2   -1    0    0  503    0 -0.00000000000E+00  0.00000000000E+00  0.11366049984E+04  0.11366049984E+04  0.00000000000E+00 0.  1.
         21   -1    0    0  501  502  0.00000000000E+00 -0.00000000000E+00 -0.42552060140E+03  0.42552060140E+03  0.00000000000E+00 0.  1.
         25    1    1    2    0    0 -0.13309427325E+03 -0.34151564860E+03 -0.42564610358E+02  0.38959436580E+03  0.12500000000E+03 0.  0.
         21    1    1    2  503  502  0.30819369905E+02  0.17322692317E+03 -0.16004961597E+03  0.23785138226E+03  0.00000000000E+00 0.  1.
          2    1    1    2  501    0  0.10227490335E+03  0.16828872543E+03  0.91369862329E+03  0.93467985170E+03  0.00000000000E+00 0.  1.
<mgrwt>
<rscale>  4 0.59383132E+03</rscale>
<asrwt>0</asrwt>
<pdfrwt beam="1">  1       21 0.65464708E-01 0.59383132E+03</pdfrwt>
<pdfrwt beam="2">  1        2 0.17486231E+00 0.59383132E+03</pdfrwt>
<totfact> 0.51324797E+02</totfact>
</mgrwt>
</event>
<event>
 5    0  0.7099509E-001  0.4100374E+03  0.7546771E-02  0.1040358E+00
         21   -1    0    0  501  502  0.00000000000E+00  0.00000000000E+00  0.42861732389E+03  0.42861732389E+03  0.00000000000E+00 0.  1.
          2   -1    0    0  503    0 -0.00000000000E+00 -0.00000000000E+00 -0.21334383867E+03  0.21334383867E+03  0.00000000000E+00 0. -1.
         25    1    1    2    0    0  0.24912485439E+03 -0.63318475029E+02  0.23426512974E+03  0.36956403149E+03  0.12500000000E+03 0.  0.
         21    1    1    2  503  502 -0.10868742010E+03  0.39109154262E+02  0.33912954991E+02  0.12038508941E+03  0.00000000000E+00 0. -1.
          2    1    1    2  501    0 -0.14043743429E+03  0.24209320767E+02 -0.52904599521E+02  0.15201204167E+03  0.00000000000E+00 0. -1.
<mgrwt>
<rscale>  4 0.41003738E+03</rscale>
<asrwt>0</asrwt>
<pdfrwt beam="1">  1       21 0.65941126E-01 0.41003738E+03</pdfrwt>
<pdfrwt beam="2">  1        2 0.32822129E-01 0.41003738E+03</pdfrwt>
<totfact> 0.39316563E+03</totfact>
</mgrwt>
</event>
<event>
 5    0  0.7099509E-001  0.4147631E+03  0.7546771E-02  0.1038784E+00
          2   -1    0    0  503    0 -0.00000000000E+00  0.00000000000E+00  0.27191461677E+04  0.27191461677E+04  0.00000000000E+00 0.  1.
         21   -1    0    0  501  502  0.00000000000E+00 -0.00000000000E+00 -0.25026557776E+02  0.25026557776E+02  0.00000000000E+00 0.  1.
         25    1    1    2    0    0  0.18902690885E+03 -0.66143188246E+02  0.13707795366E+04  0.13909592487E+04  0.12500000000E+03 0.  0.
         21    1    1    2  503  502 -0.15311302089E+03  0.87071591837E+02  0.12838574658E+04  0.12958838883E+04  0.00000000000E+00 0.  1.
          2    1    1    2  501    0 -0.35913887961E+02 -0.20928403591E+02  0.39482607533E+02  0.57329588546E+02  0.00000000000E+00 0.  1.
<mgrwt>
<rscale>  4 0.41476310E+03</rscale>
<asrwt>0</asrwt>
<pdfrwt beam="1">  1       21 0.38502418E-02 0.41476310E+03</pdfrwt>
<pdfrwt beam="2">  1        2 0.41832995E+00 0.41476310E+03</pdfrwt>
<totfact> 0.15501890E+04</totfact>
</mgrwt>
</event>
<event>
 5    0  0.7099509E-001  0.6090090E+03  0.7546771E-02  0.9886890E-01
         21   -1    0    0  501  502  0.00000000000E+00  0.00000000000E+00  0.27955591224E+03  0.27955591224E+03  0.00000000000E+00 0. -1.
          2   -1    0    0  503    0 -0.00000000000E+00 -0.00000000000E+00 -0.87391917754E+03  0.87391917754E+03  0.00000000000E+00 0.  1.
         25    1    1    2    0    0 -0.25705851752E+03  0.16280065237E+03  0.14019146642E+02  0.32924864512E+03  0.12500000000E+03 0.  0.
         21    1    1    2  503  502  0.95023041725E+02 -0.24964191611E+03 -0.10272447295E+03  0.28618662107E+03  0.00000000000E+00 0.  1.
          2    1    1    2  501    0  0.16203547580E+03  0.86841263743E+02 -0.50565793899E+03  0.53803982359E+03  0.00000000000E+00 0.  1.
<mgrwt>
<rscale>  4 0.60900898E+03</rscale>
<asrwt>0</asrwt>
<pdfrwt beam="1">  1       21 0.43008602E-01 0.60900898E+03</pdfrwt>
<pdfrwt beam="2">  1        2 0.13444910E+00 0.60900898E+03</pdfrwt>
<totfact> 0.18633564E+03</totfact>
</mgrwt>
</event>
<event>
 5    0  0.7099509E-001  0.4896800E+03  0.7546771E-02  0.1016508E+00
          4   -1    0    0  503    0 -0.00000000000E+00  0.00000000000E+00  0.34635373428E+03  0.34635373428E+03  0.00000000000E+00 0. -1.
         21   -1    0    0  501  502  0.00000000000E+00 -0.00000000000E+00 -0.77806162545E+03  0.77806162545E+03  0.00000000000E+00 0. -1.
         25    1    1    2    0    0 -0.10234159215E+03 -0.33579907937E+03 -0.33435353006E+03  0.50065168156E+03  0.12500000000E+03 0.  0.
         21    1    1    2  503  502  0.65799320187E+02 -0.91659847276E+02 -0.15411836875E+03  0.19100667456E+03  0.00000000000E+00 0. -1.
          4    1    1    2  501    0  0.36542271962E+02  0.42745892665E+03  0.56764007634E+02  0.43275700361E+03  0.00000000000E+00 0. -1.
<mgrwt>
<rscale>  4 0.48967998E+03</rscale>
<asrwt>0</asrwt>
<pdfrwt beam="1">  1       21 0.11970179E+00 0.48967998E+03</pdfrwt>
<pdfrwt beam="2">  1        4 0.53285191E-01 0.48967998E+03</pdfrwt>
<totfact> 0.70949428E+01</totfact>
</mgrwt>
</event>
<event>
 5    0  0.7099509E-001  0.6963718E+03  0.7546771E-02  0.9723457E-01
         21   -1    0    0  501  502  0.00000000000E+00  0.00000000000E+00  0.12250369690E+04  0.12250369690E+04  0.00000000000E+00 0. -1.
          2   -1    0    0  503    0 -0.00000000000E+00 -0.00000000000E+00 -0.80074514834E+03  0.80074514834E+03  0.00000000000E+00 0.  1.
         25    1    1    2    0    0  0.13147080020E+03 -0.28906490414E+03  0.95843104011E+03  0.10173780756E+04  0.12500000000E+03 0.  0.
         21    1    1    2  503  502  0.43340037350E+02  0.24836701789E+03  0.15521421041E+03  0.29606753541E+03  0.00000000000E+00 0.  1.
          2    1    1    2  501    0 -0.17481083755E+03  0.40697886251E+02 -0.68935342989E+03  0.71233650628E+03  0.00000000000E+00 0.  1.
<mgrwt>
<rscale>  4 0.69637176E+03</rscale>
<asrwt>0</asrwt>
<pdfrwt beam="1">  1       21 0.18846723E+00 0.69637176E+03</pdfrwt>
<pdfrwt beam="2">  1        2 0.12319156E+00 0.69637176E+03</pdfrwt>
<totfact> 0.55757802E+01</totfact>
</mgrwt>
</event>
<event>
 5    0  0.7099509E-001  0.6441786E+03  0.7546771E-02  0.9817764E-01
         21   -1    0    0  501  502  0.00000000000E+00  0.00000000000E+00  0.83319289212E+03  0.83319289212E+03  0.00000000000E+00 0. -1.
          2   -1    0    0  503    0 -0.00000000000E+00 -0.00000000000E+00 -0.12514048311E+04  0.12514048311E+04  0.00000000000E+00 0.  1.
         25    1    1    2    0    0 -0.77619940180E+02  0.25820985068E+03  0.64676385885E+03  0.71177641940E+03  0.12500000000E+03 0.  0.
         21    1    1    2  503  502  0.68660136410E+02 -0.22775074616E+03  0.61661147424E+02  0.24573708269E+03  0.00000000000E+00 0. -1.
          2    1    1    2  501    0  0.89598037696E+01 -0.30459104521E+02 -0.11266369453E+04  0.11270842212E+04  0.00000000000E+00 0.  1.
<mgrwt>
<rscale>  4 0.64417864E+03</rscale>
<asrwt>0</asrwt>
<pdfrwt beam="1">  1       21 0.12818352E+00 0.64417864E+03</pdfrwt>
<pdfrwt beam="2">  1        2 0.19252382E+00 0.64417864E+03</pdfrwt>
<totfact> 0.86114900E+01</totfact>
</mgrwt>
</event>
<event>
 5    0  0.7099509E-001  0.7235674E+03  0.7546771E-02  0.9677757E-01
         21   -1    0    0  501  502  0.00000000000E+00  0.00000000000E+00  0.73662691992E+03  0.73662691992E+03  0.00000000000E+00 0.  1.
          3   -1    0    0  503    0 -0.00000000000E+00 -0.00000000000E+00 -0.45983639968E+03  0.45983639968E+03  0.00000000000E+00 0.  1.
         25    1    1    2    0    0 -0.32484216233E+03 -0.11333475595E+03  0.42971279903E+03  0.56448674650E+03  0.12500000000E+03 0.  0.
         21    1    1    2  503  502  0.31353279576E+03  0.84847327262E+02  0.12819515164E+03  0.34919318416E+03  0.00000000000E+00 0.  1.
          3    1    1    2  501    0  0.11309366568E+02  0.28487428689E+02 -0.28111743043E+03  0.28278338893E+03  0.00000000000E+00 0.  1.
<mgrwt>
<rscale>  4 0.72356737E+03</rscale>
<asrwt>0</asrwt>
<pdfrwt beam="1">  1       21 0.11332722E+00 0.72356737E+03</pdfrwt>
<pdfrwt beam="2">  1        3 0.70744061E-01 0.72356737E+03</pdfrwt>
<totfact> 0.51303064E+01</totfact>
</mgrwt>
</event>
<event>
 5    0  0.7099509E-001  0.4426210E+03  0.7546771E-02  0.1029946E+00
          2   -1    0    0  503    0 -0.00000000000E+00  0.00000000000E+00  0.15105973725E+04  0.15105973725E+04  0.00000000000E+00 0. -1.
         21   -1    0    0  501  502  0.00000000000E+00 -0.00000000000E+00 -0.10983829392E+03  0.10983829392E+03  0.00000000000E+00 0. -1.
         25    1    1    2    0    0 -0.14612497999E+03  0.17103636306E+03  0.26592108778E+03  0.37006076825E+03  0.12500000000E+03 0.  0.
         21    1    1    2  503  502  0.16832545106E+03  0.75312000032E+02  0.15840278402E+03  0.24309832745E+03  0.00000000000E+00 0. -1.
          2    1    1    2  501    0 -0.22200471071E+02 -0.24634836310E+03  0.97643520680E+03  0.10072765708E+04  0.00000000000E+00 0. -1.
<mgrwt>
<rscale>  4 0.44262098E+03</rscale>
<asrwt>0</asrwt>
<pdfrwt beam="1">  1       21 0.16898200E-01 0.44262098E+03</pdfrwt>
<pdfrwt beam="2">  1        2 0.23239958E+00 0.44262098E+03</pdfrwt>
<totfact> 0.50736509E+03</totfact>
</mgrwt>
</event>
<event>
 5    0  0.7099509E-001  0.6658114E+03  0.7546771E-02  0.9777554E-01
          2   -1    0    0  503    0 -0.00000000000E+00  0.00000000000E+00  0.12696312942E+04  0.12696312942E+04  0.00000000000E+00 0.  1.
         21   -1    0    0  501  502  0.00000000000E+00 -0.00000000000E+00 -0.17626860730E+03  0.17626860730E+03  0.00000000000E+00 0. -1.
         25    1    1    2    0    0  0.60229182243E+02 -0.27638956490E+03  0.51882244459E+03  0.60400370445E+03  0.12500000000E+03 0.  0.
         21    1    1    2  503  502 -0.15674246993E+02  0.20160788522E+03 -0.52437429103E+02  0.20890453651E+03  0.00000000000E+00 0. -1.
          2    1    1    2  501    0 -0.44554935250E+02  0.74781679677E+02  0.62697767139E+03  0.63299166053E+03  0.00000000000E+00 0.  1.
<mgrwt>
<rscale>  4 0.66581140E+03</rscale>
<asrwt>0</asrwt>
<pdfrwt beam="1">  1       21 0.27118248E-01 0.66581140E+03</pdfrwt>
<pdfrwt beam="2">  1        2 0.19532788E+00 0.66581140E+03</pdfrwt>
<totfact> 0.26841945E+03</totfact>
</mgrwt>
</event>
<event>
 5    0  0.7099509E-001  0.4155514E+03  0.7546771E-02  0.1038524E+00
          2   -1    0    0  503    0 -0.00000000000E+00  0.00000000000E+00  0.44428882528E+03  0.44428882528E+03  0.00000000000E+00 0.  1.
         21   -1    0    0  501  502  0.00000000000E+00 -0.00000000000E+00 -0.19843548682E+03  0.19843548682E+03  0.00000000000E+00 0.  1.
         25    1    1    2    0    0 -0.21136685091E+03  0.43390837884E+02  0.34374652343E+02  0.25172470518E+03  0.12500000000E+03 0.  0.
         21    1    1    2  503  502  0.54487461253E+02 -0.12767117745E+03  0.14547467309E+03  0.20107633748E+03  0.00000000000E+00 0. -1.
          2    1    1    2  501    0  0.15687938966E+03  0.84280339562E+02  0.66004013030E+02  0.18992326943E+03  0.00000000000E+00 0.  1.
<mgrwt>
<rscale>  4 0.41555145E+03</rscale>
<asrwt>0</asrwt>
<pdfrwt beam="1">  1       21 0.30528536E-01 0.41555145E+03</pdfrwt>
<pdfrwt beam="2">  1        2 0.68352127E-01 0.41555145E+03</pdfrwt>
<totfact> 0.87841858E+03</totfact>
</mgrwt>
</event>
<event>
 5    0  0.7099509E-001  0.4797721E+03  0.7546771E-02  0.1019198E+00
         21   -1    0    0  501  502  0.00000000000E+00  0.00000000000E+00  0.89804284100E+02  0.89804284100E+02  0.00000000000E+00 0.  1.
          2   -1    0    0  503    0 -0.00000000000E+00 -0.00000000000E+00 -0.16279246556E+04  0.16279246556E+04  0.00000000000E+00 0. -1.
         25    1    1    2    0    0 -0.11665157903E+03  0.16427734133E+03 -0.39152680739E+03  0.45772576579E+03  0.12500000000E+03 0.  0.
         21    1    1    2  503  502  0.11256415797E+03 -0.19104522735E+03 -0.16097035116E+03  0.27400807015E+03  0.00000000000E+00 0.  1.
          2    1    1    2  501    0  0.40874210520E+01  0.26767886018E+02 -0.98562321294E+03  0.98599510375E+03  0.00000000000E+00 0. -1.
<mgrwt>
<rscale>  4 0.47977213E+03</rscale>
<asrwt>0</asrwt>
<pdfrwt beam="1">  1       21 0.13816043E-01 0.47977213E+03</pdfrwt>
<pdfrwt beam="2">  1        2 0.25044996E+00 0.47977213E+03</pdfrwt>
<totfact> 0.63248443E+03</totfact>
</mgrwt>
</event>
<event>
 5    0  0.7099509E-001  0.6334273E+03  0.7546771E-02  0.9838383E-01
          2   -1    0    0  503    0 -0.00000000000E+00  0.00000000000E+00  0.25933796909E+03  0.25933796909E+03  0.00000000000E+00 0.  1.
         21   -1    0    0  501  502  0.00000000000E+00 -0.00000000000E+00 -0.57309171044E+03  0.57309171044E+03  0.00000000000E+00 0.  1.
         25    1    1    2    0    0  0.17965779405E+03 -0.16620592595E+03  0.21375221770E+02  0.27565056301E+03  0.12500000000E+03 0.  0.
         21    1    1    2  503  502 -0.16083615310E+03  0.14923649018E+03 -0.41693280125E+03  0.47113985069E+03  0.00000000000E+00 0.  1.
          2    1    1    2  501    0 -0.18821640952E+02  0.16969435765E+02  0.81803838131E+02  0.85639265826E+02  0.00000000000E+00 0.  1.
<mgrwt>
<rscale>  4 0.63342728E+03</rscale>
<asrwt>0</asrwt>
<pdfrwt beam="1">  1       21 0.88167955E-01 0.63342728E+03</pdfrwt>
<pdfrwt beam="2">  1        2 0.39898149E-01 0.63342728E+03</pdfrwt>
<totfact> 0.15707199E+03</totfact>
</mgrwt>
</event>
<event>
 5    0  0.7099509E-001  0.5146669E+03  0.7546771E-02  0.1010020E+00
         21   -1    0    0  501  502  0.00000000000E+00  0.00000000000E+00  0.53723731475E+02  0.53723731475E+02  0.00000000000E+00 0. -1.
         -3   -1    0    0    0  501 -0.00000000000E+00 -0.00000000000E+00 -0.18926599839E+04  0.18926599839E+04  0.00000000000E+00 0. -1.
         25    1    1    2    0    0 -0.15836838863E+03  0.14146976780E+03 -0.29607464273E+03  0.38520051374E+03  0.12500000000E+03 0.  0.
         21    1    1    2  503  502  0.14571618981E+03 -0.93565853924E+02 -0.90626464900E+03  0.92266103798E+03  0.00000000000E+00 0.  1.
         -3    1    1    2    0  503  0.12652198826E+02 -0.47903913879E+02 -0.63659696072E+03  0.63852216367E+03  0.00000000000E+00 0. -1.
<mgrwt>
<rscale>  4 0.51466695E+03</rscale>
<asrwt>0</asrwt>
<pdfrwt beam="1">  1       21 0.82651908E-02 0.51466695E+03</pdfrwt>
<pdfrwt beam="2">  1       -3 0.29117841E+00 0.51466695E+03</pdfrwt>
<totfact> 0.25983767E+02</totfact>
</mgrwt>
</event>
<event>
 5    0  0.7099509E-001  0.6762156E+03  0.7546771E-02  0.9758794E-01
         21   -1    0    0  501  502  0.00000000000E+00  0.00000000000E+00  0.13968703833E+03  0.13968703833E+03  0.00000000000E+00 0. -1.
          2   -1    0    0  503    0 -0.00000000000E+00 -0.00000000000E+00 -0.18657474771E+04  0.18657474771E+04  0.00000000000E+00 0.  1.
         25    1    1    2    0    0  0.24205017072E+03 -0.24448354872E+03 -0.48163950258E+03  0.60494801528E+03  0.12500000000E+03 0.  0.
         21    1    1    2  503  502 -0.20269569494E+03  0.21265007849E+03 -0.20127699004E+03  0.35611518831E+03  0.00000000000E+00 0. -1.
          2    1    1    2  501    0 -0.39354475778E+02  0.31833470231E+02 -0.10431439462E+04  0.10443713119E+04  0.00000000000E+00 0.  1.
<mgrwt>
<rscale>  4 0.67621561E+03</rscale>
<asrwt>0</asrwt>
<pdfrwt beam="1">  1       21 0.21490314E-01 0.67621561E+03</pdfrwt>
<pdfrwt beam="2">  1        2 0.28703807E+00 0.67621561E+03</pdfrwt>
<totfact> 0.19739432E+03</totfact>
</mgrwt>
</event>
