<event>
 5    0  0.2349231E+000  0.4932737E+03  0.7546771E-02  0.1015550E+00
         21   -1    0    0  504  501  0.00000000000E+00  0.00000000000E+00  0.52438954869E+03  0.52438954869E+03  0.00000000000E+00 0. -1.
         21   -1    0    0  501  502 -0.00000000000E+00 -0.00000000000E+00 -0.16312436300E+03  0.16312436300E+03  0.00000000000E+00 0. -1.
         25    1    1    2    0    0 -0.76140243955E+02  0.20193250179E+03  0.24438320594E+03  0.34917362926E+03  0.12500000000E+03 0.  0.
         21    1    1    2  503  502  0.66350210545E+02 -0.17419186053E+03 -0.29773588610E+02  0.18876340030E+03  0.00000000000E+00 0. -1.
         21    1    1    2  504  503  0.97900334098E+01 -0.27740641256E+02  0.14665556836E+03  0.14957688211E+03  0.00000000000E+00 0. -1.
<mgrwt>
<rscale>  4 0.49327372E+03</rscale>
<asrwt>0</asrwt>
<pdfrwt beam="1">  1       21 0.80675315E-01 0.49327372E+03</pdfrwt>
<pdfrwt beam="2">  1       21 0.25096056E-01 0.49327372E+03</pdfrwt>
<totfact> 0.18098147E+04</totfact>
</mgrwt>
</event>
<event>
 5    0  0.2349231E+000  0.4269671E+03  0.7546771E-02  0.1034822E+00
         21   -1    0    0  502  501  0.00000000000E+00  0.00000000000E+00  0.32826997463E+03  0.32826997463E+03  0.00000000000E+00 0.  1.
         21   -1    0    0  504  502 -0.00000000000E+00 -0.00000000000E+00 -0.97841010282E+03  0.97841010282E+03  0.00000000000E+00 0.  1.
         25    1    1    2    0    0  0.17347044981E+03  0.14903658512E+03 -0.47104232853E+03  0.53833983312E+03  0.12500000000E+03 0.  0.
         21    1    1    2  503  501 -0.28079198549E+02 -0.88574494716E+02  0.27364826574E+03  0.28899352216E+03  0.00000000000E+00 0.  1.
         21    1    1    2  504  503 -0.14539125126E+03 -0.60462090407E+02 -0.45274606540E+03  0.47934672217E+03  0.00000000000E+00 0.  1.
<mgrwt>
<rscale>  4 0.42696713E+03</rscale>
<asrwt>0</asrwt>
<pdfrwt beam="1">  1       21 0.50503073E-01 0.42696713E+03</pdfrwt>
<pdfrwt beam="2">  1       21 0.15052463E+00 0.42696713E+03</pdfrwt>
<totfact> 0.94168934E+02</totfact>
</mgrwt>
</event>
<event>
 5    0  0.2349231E+000  0.4981523E+03  0.7546771E-02  0.1014262E+00
         21   -1    0    0  502  501  0.00000000000E+00  0.00000000000E+00  0.12480821613E+04  0.12480821613E+04  0.00000000000E+00 0.  1.
         21   -1    0    0  504  502 -0.00000000000E+00 -0.00000000000E+00 -0.66979479161E+03  0.66979479161E+03  0.00000000000E+00 0.  1.
         25    1    1    2    0    0  0.26578047135E+03 -0.75002709843E+00 -0.50902508401E+03  0.58768304182E+03  0.12500000000E+03 0.  0.
         21    1    1    2  503  501 -0.22013586575E+03  0.14730242532E+03  0.11380984832E+04  0.11685144250E+04  0.00000000000E+00 0.  1.
         21    1    1    2  504  503 -0.45644605601E+02 -0.14655239822E+03 -0.50786029493E+02  0.16167948614E+03  0.00000000000E+00 0. -1.
<mgrwt>
<rscale>  4 0.49815230E+03</rscale>
<asrwt>0</asrwt>
<pdfrwt beam="1">  1       21 0.19201264E+00 0.49815230E+03</pdfrwt>
<pdfrwt beam="2">  1       21 0.10304535E+00 0.49815230E+03</pdfrwt>
<totfact> 0.89615119E+01</totfact>
</mgrwt>
</event>
