<event>
 5    0  0.1911311E+001  0.2592030E+03  0.7546771E-02  0.1107623E+00
         21   -1    0    0  502  501  0.00000000000E+00  0.00000000000E+00  0.61823470835E+03  0.61823470835E+03  0.00000000000E+00 0. -1.
         21   -1    0    0  504  502 -0.00000000000E+00 -0.00000000000E+00 -0.52285186254E+03  0.52285186254E+03  0.00000000000E+00 0. -1.
         25    1    1    2    0    0  0.19938060678E+03  0.12805528639E+03 -0.42236550911E+03  0.50016837767E+03  0.12500000000E+03 0.  0.
         21    1    1    2  503  501 -0.19984689789E+03 -0.10687142032E+03  0.55420474795E+03  0.59875135551E+03  0.00000000000E+00 0. -1.
         21    1    1    2  504  503  0.46629111106E+00 -0.21183866072E+02 -0.36456393028E+02  0.42166837702E+02  0.00000000000E+00 0. -1.
<mgrwt>
<rscale>  4 0.25920305E+03</rscale>
<asrwt>0</asrwt>
<pdfrwt beam="1">  1       21 0.95113032E-01 0.25920305E+03</pdfrwt>
<pdfrwt beam="2">  1       21 0.80438748E-01 0.25920305E+03</pdfrwt>
<totfact> 0.11852229E+03</totfact>
</mgrwt>
</event>
<event>
 5    0  0.1911311E+001  0.2623030E+03  0.7546771E-02  0.1105767E+00
         21   -1    0    0  504  501  0.00000000000E+00  0.00000000000E+00  0.28028014773E+04  0.28028014773E+04  0.00000000000E+00 0.  1.
         21   -1    0    0  503  502 -0.00000000000E+00 -0.00000000000E+00 -0.12567536262E+04  0.12567536262E+04  0.00000000000E+00 0.  1.
         25    1    1    2    0    0  0.22313616277E+03 -0.25358815374E+02 -0.11769884482E+04  0.12047238787E+04  0.12500000000E+03 0.  0.
         21    1    1    2  503  501  0.74324134307E+01  0.19993699120E+02 -0.59265413523E+02  0.62987125780E+02  0.00000000000E+00 0.  1.
         21    1    1    2  504  502 -0.23056857620E+03  0.53651162540E+01  0.27823017128E+04  0.27918440991E+04  0.00000000000E+00 0.  1.
<mgrwt>
<rscale>  4 0.26230295E+03</rscale>
<asrwt>0</asrwt>
<pdfrwt beam="1">  1       21 0.43120023E+00 0.26230295E+03</pdfrwt>
<pdfrwt beam="2">  1       21 0.19334671E+00 0.26230295E+03</pdfrwt>
<totfact> 0.70217605E-01</totfact>
</mgrwt>
</event>
<event>
 5    0  0.1911311E+001  0.2617218E+03  0.7546771E-02  0.1106113E+00
         21   -1    0    0  503  501  0.00000000000E+00  0.00000000000E+00  0.16900012490E+03  0.16900012490E+03  0.00000000000E+00 0. -1.
         21   -1    0    0  501  502 -0.00000000000E+00 -0.00000000000E+00 -0.42617610437E+03  0.42617610437E+03  0.00000000000E+00 0. -1.
         25    1    1    2    0    0  0.22247574892E+03  0.38789293702E+02 -0.10943252912E+03  0.28035789019E+03  0.12500000000E+03 0.  0.
         21    1    1    2  503  504 -0.65796639916E+00  0.40231898710E+02 -0.36763267822E+02  0.54502994914E+02  0.00000000000E+00 0.  1.
         21    1    1    2  504  502 -0.22181778252E+03 -0.79021192413E+02 -0.11098018254E+03  0.26031534417E+03  0.00000000000E+00 0. -1.
<mgrwt>
<rscale>  4 0.26172178E+03</rscale>
<asrwt>0</asrwt>
<pdfrwt beam="1">  1       21 0.26000019E-01 0.26172178E+03</pdfrwt>
<pdfrwt beam="2">  1       21 0.65565555E-01 0.26172178E+03</pdfrwt>
<totfact> 0.29043477E+04</totfact>
</mgrwt>
</event>
<event>
 5    0  0.1911311E+001  0.2366565E+03  0.7546771E-02  0.1122040E+00
         21   -1    0    0  504  501  0.00000000000E+00  0.00000000000E+00  0.14397734237E+03  0.14397734237E+03  0.00000000000E+00 0. -1.
         21   -1    0    0  503  502 -0.00000000000E+00 -0.00000000000E+00 -0.53606664514E+03  0.53606664514E+03  0.00000000000E+00 0. -1.
         25    1    1    2    0    0  0.13520471052E+03  0.17281870771E+03 -0.20993690200E+03  0.32839781105E+03  0.12500000000E+03 0.  0.
         21    1    1    2  503  501 -0.10377213804E+03 -0.15965639210E+03 -0.22637854442E+03  0.29581424162E+03  0.00000000000E+00 0. -1.
         21    1    1    2  504  502 -0.31432572479E+02 -0.13162315610E+02  0.44226143653E+02  0.55831934834E+02  0.00000000000E+00 0. -1.
<mgrwt>
<rscale>  4 0.23665653E+03</rscale>
<asrwt>0</asrwt>
<pdfrwt beam="1">  1       21 0.22150360E-01 0.23665653E+03</pdfrwt>
<pdfrwt beam="2">  1       21 0.82471792E-01 0.23665653E+03</pdfrwt>
<totfact> 0.23876794E+04</totfact>
</mgrwt>
</event>
