<event>
 5    0  0.2629946E-001  0.7620495E+03  0.7546771E-02  0.9616634E-01
         21   -1    0    0  504  501  0.00000000000E+00  0.00000000000E+00  0.46021405973E+03  0.46021405973E+03  0.00000000000E+00 0.  1.
         21   -1    0    0  501  502 -0.00000000000E+00 -0.00000000000E+00 -0.31546159144E+03  0.31546159144E+03  0.00000000000E+00 0.  1.
         25    1    1    2    0    0  0.15525379641E+02  0.34377167777E+03  0.19749513875E+03  0.41599198752E+03  0.12500000000E+03 0.  0.
         21    1    1    2  503  502  0.13356438377E+02 -0.31629417452E+02  0.17348029334E+02  0.38467760739E+02  0.00000000000E+00 0.  1.
         21    1    1    2  504  503 -0.28881818018E+02 -0.31214226032E+03 -0.70090699798E+02  0.32121590292E+03  0.00000000000E+00 0.  1.
<mgrwt>
<rscale>  4 0.76204950E+03</rscale>
<asrwt>0</asrwt>
<pdfrwt beam="1">  1       21 0.70802163E-01 0.76204950E+03</pdfrwt>
<pdfrwt beam="2">  1       21 0.48532552E-01 0.76204950E+03</pdfrwt>
<totfact> 0.60187814E+03</totfact>
</mgrwt>
</event>
<event>
 5    0  0.2629946E-001  0.4662563E+03  0.7546771E-02  0.1022982E+00
         21   -1    0    0  502  501  0.00000000000E+00  0.00000000000E+00  0.15170148081E+03  0.15170148081E+03  0.00000000000E+00 0. -1.
         21   -1    0    0  504  502 -0.00000000000E+00 -0.00000000000E+00 -0.35826104145E+03  0.35826104145E+03  0.00000000000E+00 0. -1.
         25    1    1    2    0    0 -0.13977890889E+02  0.20436668219E+03 -0.10783705296E+03  0.26308734712E+03  0.12500000000E+03 0.  0.
         21    1    1    2  503  501  0.16551932020E+02 -0.18192224570E+03 -0.44327050304E+02  0.18797488482E+03  0.00000000000E+00 0. -1.
         21    1    1    2  504  503 -0.25740411305E+01 -0.22444436490E+02 -0.54395457370E+02  0.58900290318E+02  0.00000000000E+00 0.  1.
<mgrwt>
<rscale>  4 0.46625628E+03</rscale>
<asrwt>0</asrwt>
<pdfrwt beam="1">  1       21 0.23338689E-01 0.46625628E+03</pdfrwt>
<pdfrwt beam="2">  1       21 0.55117083E-01 0.46625628E+03</pdfrwt>
<totfact> 0.49169499E+04</totfact>
</mgrwt>
</event>
<event>
 5    0  0.2629946E-001  0.7928390E+03  0.7546771E-02  0.9570441E-01
         21   -1    0    0  502  501  0.00000000000E+00  0.00000000000E+00  0.11210924664E+03  0.11210924664E+03  0.00000000000E+00 0. -1.
         21   -1    0    0  504  502 -0.00000000000E+00 -0.00000000000E+00 -0.14017437857E+04  0.14017437857E+04  0.00000000000E+00 0. -1.
         25    1    1    2    0    0 -0.13724588232E+03 -0.25580594599E+03 -0.11269539362E+04  0.11704372211E+04  0.12500000000E+03 0.  0.
         21    1    1    2  503  501  0.10537211684E+03  0.24811890805E+03 -0.14247542569E+03  0.30490248025E+03  0.00000000000E+00 0. -1.
         21    1    1    2  504  503  0.31873765485E+02  0.76870379451E+01 -0.20205177153E+02  0.38513330969E+02  0.00000000000E+00 0. -1.
<mgrwt>
<rscale>  4 0.79283905E+03</rscale>
<asrwt>0</asrwt>
<pdfrwt beam="1">  1       21 0.17247577E-01 0.79283905E+03</pdfrwt>
<pdfrwt beam="2">  1       21 0.21565288E+00 0.79283905E+03</pdfrwt>
<totfact> 0.24746788E+03</totfact>
</mgrwt>
</event>
<event>
 5    0  0.2629946E-001  0.4849980E+03  0.7546771E-02  0.1017771E+00
         21   -1    0    0  502  501  0.00000000000E+00  0.00000000000E+00  0.58362412609E+03  0.58362412609E+03  0.00000000000E+00 0.  1.
         21   -1    0    0  504  502 -0.00000000000E+00 -0.00000000000E+00 -0.10075965612E+03  0.10075965612E+03  0.00000000000E+00 0.  1.
         25    1    1    2    0    0  0.10812709666E+03 -0.17076599851E+03  0.18343552153E+03  0.30021006951E+03  0.12500000000E+03 0.  0.
         21    1    1    2  503  501 -0.75803704653E+02  0.17361348058E+03  0.29615324471E+03  0.35156021765E+03  0.00000000000E+00 0.  1.
         21    1    1    2  504  503 -0.32323392007E+02 -0.28474820710E+01  0.32757037321E+01  0.32613495059E+02  0.00000000000E+00 0.  1.
<mgrwt>
<rscale>  4 0.48499801E+03</rscale>
<asrwt>0</asrwt>
<pdfrwt beam="1">  1       21 0.89788325E-01 0.48499801E+03</pdfrwt>
<pdfrwt beam="2">  1       21 0.15501486E-01 0.48499801E+03</pdfrwt>
<totfact> 0.35318500E+04</totfact>
</mgrwt>
</event>
<event>
 5    0  0.2629946E-001  0.5528802E+03  0.7546771E-02  0.1000829E+00
         21   -1    0    0  504  501  0.00000000000E+00  0.00000000000E+00  0.52413805613E+03  0.52413805613E+03  0.00000000000E+00 0. -1.
         21   -1    0    0  501  502 -0.00000000000E+00 -0.00000000000E+00 -0.14579961888E+03  0.14579961888E+03  0.00000000000E+00 0. -1.
         25    1    1    2    0    0  0.25754251148E+03 -0.34206204285E+02  0.18616084661E+03  0.34318955468E+03  0.12500000000E+03 0.  0.
         21    1    1    2  503  502 -0.65853427921E+02  0.17112949743E+02  0.27244884610E+02  0.73292637798E+02  0.00000000000E+00 0.  1.
         21    1    1    2  504  503 -0.19168908355E+03  0.17093254542E+02  0.16493270603E+03  0.25345548253E+03  0.00000000000E+00 0. -1.
<mgrwt>
<rscale>  4 0.55288020E+03</rscale>
<asrwt>0</asrwt>
<pdfrwt beam="1">  1       21 0.80636623E-01 0.55288020E+03</pdfrwt>
<pdfrwt beam="2">  1       21 0.22430711E-01 0.55288020E+03</pdfrwt>
<totfact> 0.22231489E+04</totfact>
</mgrwt>
</event>
<event>
 5    0  0.2629946E-001  0.7891171E+03  0.7546771E-02  0.9575905E-01
         21   -1    0    0  504  501  0.00000000000E+00  0.00000000000E+00  0.11024510742E+03  0.11024510742E+03  0.00000000000E+00 0.  1.
         21   -1    0    0  501  502 -0.00000000000E+00 -0.00000000000E+00 -0.14120940906E+04  0.14120940906E+04  0.00000000000E+00 0.  1.
         25    1    1    2    0    0  0.24081593765E+03  0.26117192317E+03 -0.85408301287E+03  0.93342695598E+03  0.12500000000E+03 0.  0.
         21    1    1    2  503  502 -0.98630962522E+02 -0.15971703888E+03 -0.32533670253E+03  0.37560826574E+03  0.00000000000E+00 0.  1.
         21    1    1    2  504  503 -0.14218497513E+03 -0.10145488428E+03 -0.12242926777E+03  0.21330397629E+03  0.00000000000E+00 0.  1.
<mgrwt>
<rscale>  4 0.78911714E+03</rscale>
<asrwt>0</asrwt>
<pdfrwt beam="1">  1       21 0.16960788E-01 0.78911714E+03</pdfrwt>
<pdfrwt beam="2">  1       21 0.21724521E+00 0.78911714E+03</pdfrwt>
<totfact> 0.24957712E+03</totfact>
</mgrwt>
</event>
<event>
 5    0  0.2629946E-001  0.8620511E+03  0.7546771E-02  0.9474304E-01
         21   -1    0    0  504  501  0.00000000000E+00  0.00000000000E+00  0.11441957964E+03  0.11441957964E+03  0.00000000000E+00 0. -1.
         21   -1    0    0  501  502 -0.00000000000E+00 -0.00000000000E+00 -0.16236997367E+04  0.16236997367E+04  0.00000000000E+00 0. -1.
         25    1    1    2    0    0 -0.11726011593E+03  0.23261647916E+03 -0.14110532014E+04  0.14403320792E+04  0.12500000000E+03 0.  0.
         21    1    1    2  503  502  0.88572354908E+02 -0.23236041743E+03 -0.10214727870E+03  0.26883171723E+03  0.00000000000E+00 0. -1.
         21    1    1    2  504  503  0.28687761024E+02 -0.25606172887E+00  0.39203230609E+01  0.28955519907E+02  0.00000000000E+00 0.  1.
<mgrwt>
<rscale>  4 0.86205114E+03</rscale>
<asrwt>0</asrwt>
<pdfrwt beam="1">  1       21 0.17603014E-01 0.86205114E+03</pdfrwt>
<pdfrwt beam="2">  1       21 0.24979993E+00 0.86205114E+03</pdfrwt>
<totfact> 0.14113605E+03</totfact>
</mgrwt>
</event>
<event>
 5    0  0.2629946E-001  0.5071072E+03  0.7546771E-02  0.1011940E+00
         21   -1    0    0  504  501  0.00000000000E+00  0.00000000000E+00  0.62370103594E+02  0.62370103594E+02  0.00000000000E+00 0. -1.
         21   -1    0    0  501  502 -0.00000000000E+00 -0.00000000000E+00 -0.10307733090E+04  0.10307733090E+04  0.00000000000E+00 0. -1.
         25    1    1    2    0    0 -0.20770018167E+03 -0.22847543378E+02 -0.29223003531E+03  0.38037451182E+03  0.12500000000E+03 0.  0.
         21    1    1    2  503  502  0.14989532479E+03  0.11934745832E+02 -0.58689907128E+03  0.60585606081E+03  0.00000000000E+00 0. -1.
         21    1    1    2  504  503  0.57804856886E+02  0.10912797547E+02 -0.89274098825E+02  0.10691283997E+03  0.00000000000E+00 0. -1.
<mgrwt>
<rscale>  4 0.50710724E+03</rscale>
<asrwt>0</asrwt>
<pdfrwt beam="1">  1       21 0.95954019E-02 0.50710724E+03</pdfrwt>
<pdfrwt beam="2">  1       21 0.15858049E+00 0.50710724E+03</pdfrwt>
<totfact> 0.19754091E+04</totfact>
</mgrwt>
</event>
<event>
 5    0  0.2629946E-001  0.1166499E+04  0.7546771E-02  0.9142696E-01
         21   -1    0    0  504  501  0.00000000000E+00  0.00000000000E+00  0.80885989064E+03  0.80885989064E+03  0.00000000000E+00 0. -1.
         21   -1    0    0  501  502 -0.00000000000E+00 -0.00000000000E+00 -0.42056693734E+03  0.42056693734E+03  0.00000000000E+00 0. -1.
         25    1    1    2    0    0  0.30484497361E+03  0.34899389418E+03 -0.14292653766E+03  0.50077958353E+03  0.12500000000E+03 0.  0.
         21    1    1    2  503  502 -0.25938619735E+03 -0.34836470876E+03  0.40256933910E+03  0.59220033980E+03  0.00000000000E+00 0. -1.
         21    1    1    2  504  503 -0.45458776266E+02 -0.62918542482E+00  0.12865015186E+03  0.13644690465E+03  0.00000000000E+00 0. -1.
<mgrwt>
<rscale>  4 0.11664986E+04</rscale>
<asrwt>0</asrwt>
<pdfrwt beam="1">  1       21 0.12443998E+00 0.11664986E+04</pdfrwt>
<pdfrwt beam="2">  1       21 0.64702606E-01 0.11664986E+04</pdfrwt>
<totfact> 0.75380368E+02</totfact>
</mgrwt>
</event>
<event>
 5    0  0.2629946E-001  0.5229710E+03  0.7546771E-02  0.1007951E+00
         21   -1    0    0  502  501  0.00000000000E+00  0.00000000000E+00  0.20600500374E+03  0.20600500374E+03  0.00000000000E+00 0. -1.
         21   -1    0    0  504  502 -0.00000000000E+00 -0.00000000000E+00 -0.33190775269E+03  0.33190775269E+03  0.00000000000E+00 0. -1.
         25    1    1    2    0    0 -0.74245610649E+02  0.18632999126E+03 -0.10143855198E+03  0.25718875592E+03  0.12500000000E+03 0.  0.
         21    1    1    2  503  501  0.71206621072E+02 -0.49154175760E+02  0.72357852786E+02  0.11279261828E+03  0.00000000000E+00 0. -1.
         21    1    1    2  504  503  0.30389895766E+01 -0.13717581550E+03 -0.96822049766E+02  0.16793138223E+03  0.00000000000E+00 0. -1.
<mgrwt>
<rscale>  4 0.52297097E+03</rscale>
<asrwt>0</asrwt>
<pdfrwt beam="1">  1       21 0.31693078E-01 0.52297097E+03</pdfrwt>
<pdfrwt beam="2">  1       21 0.51062731E-01 0.52297097E+03</pdfrwt>
<totfact> 0.31358583E+04</totfact>
</mgrwt>
</event>
<event>
 5    0  0.2629946E-001  0.7006432E+03  0.7546771E-02  0.9716133E-01
         21   -1    0    0  502  501  0.00000000000E+00  0.00000000000E+00  0.86289455706E+03  0.86289455706E+03  0.00000000000E+00 0.  1.
         21   -1    0    0  504  502 -0.00000000000E+00 -0.00000000000E+00 -0.14222504886E+03  0.14222504886E+03  0.00000000000E+00 0.  1.
         25    1    1    2    0    0  0.26360526395E+03  0.16913014941E+03  0.22002691903E+03  0.40265318541E+03  0.12500000000E+03 0.  0.
         21    1    1    2  503  501 -0.14240242637E+02  0.15954626511E+02  0.15377450233E+02  0.26340094782E+02  0.00000000000E+00 0. -1.
         21    1    1    2  504  503 -0.24936502132E+03 -0.18508477592E+03  0.48526513894E+03  0.57612632573E+03  0.00000000000E+00 0.  1.
<mgrwt>
<rscale>  4 0.70064319E+03</rscale>
<asrwt>0</asrwt>
<pdfrwt beam="1">  1       21 0.13275301E+00 0.70064319E+03</pdfrwt>
<pdfrwt beam="2">  1       21 0.21880777E-01 0.70064319E+03</pdfrwt>
<totfact> 0.65905255E+03</totfact>
</mgrwt>
</event>
<event>
 5    0  0.2629946E-001  0.4878254E+03  0.7546771E-02  0.1017006E+00
         21   -1    0    0  504  501  0.00000000000E+00  0.00000000000E+00  0.77599310930E+03  0.77599310930E+03  0.00000000000E+00 0. -1.
         21   -1    0    0  501  502 -0.00000000000E+00 -0.00000000000E+00 -0.76667436134E+02  0.76667436134E+02  0.00000000000E+00 0. -1.
         25    1    1    2    0    0 -0.79420778504E+02 -0.19588020855E+03  0.26769414432E+03  0.36326556548E+03  0.12500000000E+03 0.  0.
         21    1    1    2  503  502  0.19884911526E+02  0.31979024084E+02  0.20646454304E+02  0.42945823582E+02  0.00000000000E+00 0. -1.
         21    1    1    2  504  503  0.59535866977E+02  0.16390118447E+03  0.41098507454E+03  0.44644915637E+03  0.00000000000E+00 0. -1.
<mgrwt>
<rscale>  4 0.48782539E+03</rscale>
<asrwt>0</asrwt>
<pdfrwt beam="1">  1       21 0.11938355E+00 0.48782539E+03</pdfrwt>
<pdfrwt beam="2">  1       21 0.11794991E-01 0.48782539E+03</pdfrwt>
<totfact> 0.29032896E+04</totfact>
</mgrwt>
</event>
<event>
 5    0  0.2629946E-001  0.5378936E+03  0.7546771E-02  0.1004336E+00
         21   -1    0    0  504  501  0.00000000000E+00  0.00000000000E+00  0.22989754278E+04  0.22989754278E+04  0.00000000000E+00 0. -1.
         21   -1    0    0  501  502 -0.00000000000E+00 -0.00000000000E+00 -0.31462871274E+02  0.31462871274E+02  0.00000000000E+00 0. -1.
         25    1    1    2    0    0  0.19279331214E+03 -0.13677349683E+03  0.95665068758E+03  0.99331857361E+03  0.12500000000E+03 0.  0.
         21    1    1    2  503  502 -0.19341866342E+03  0.10764028410E+03  0.96634607141E+03  0.99137376395E+03  0.00000000000E+00 0. -1.
         21    1    1    2  504  503  0.62535127586E+00  0.29133212731E+02  0.34451579757E+03  0.34574596155E+03  0.00000000000E+00 0.  1.
<mgrwt>
<rscale>  4 0.53789355E+03</rscale>
<asrwt>0</asrwt>
<pdfrwt beam="1">  1       21 0.35368840E+00 0.53789355E+03</pdfrwt>
<pdfrwt beam="2">  1       21 0.48404435E-02 0.53789355E+03</pdfrwt>
<totfact> 0.36884156E+03</totfact>
</mgrwt>
</event>
<event>
 5    0  0.2629946E-001  0.7564490E+03  0.7546771E-02  0.9625287E-01
         21   -1    0    0  502  501  0.00000000000E+00  0.00000000000E+00  0.40208933727E+03  0.40208933727E+03  0.00000000000E+00 0.  1.
         21   -1    0    0  504  502 -0.00000000000E+00 -0.00000000000E+00 -0.35577611009E+03  0.35577611009E+03  0.00000000000E+00 0.  1.
         25    1    1    2    0    0  0.28432735845E+03 -0.14699158121E+03 -0.12796403009E+03  0.36667201244E+03  0.12500000000E+03 0.  0.
         21    1    1    2  503  501 -0.18763056140E+03  0.21581836152E+02  0.12011543503E+03  0.22382743566E+03  0.00000000000E+00 0.  1.
         21    1    1    2  504  503 -0.96696797051E+02  0.12540974506E+03  0.54161822240E+02  0.16736599925E+03  0.00000000000E+00 0.  1.
<mgrwt>
<rscale>  4 0.75644902E+03</rscale>
<asrwt>0</asrwt>
<pdfrwt beam="1">  1       21 0.61859898E-01 0.75644902E+03</pdfrwt>
<pdfrwt beam="2">  1       21 0.54734786E-01 0.75644902E+03</pdfrwt>
<totfact> 0.62999497E+03</totfact>
</mgrwt>
</event>
<event>
 5    0  0.2629946E-001  0.4801198E+03  0.7546771E-02  0.1019102E+00
         21   -1    0    0  504  501  0.00000000000E+00  0.00000000000E+00  0.11292891606E+04  0.11292891606E+04  0.00000000000E+00 0.  1.
         21   -1    0    0  501  502 -0.00000000000E+00 -0.00000000000E+00 -0.51030998816E+02  0.51030998816E+02  0.00000000000E+00 0.  1.
         25    1    1    2    0    0  0.20902074733E+03  0.51878858186E+02  0.44373602464E+03  0.50882978323E+03  0.12500000000E+03 0.  0.
         21    1    1    2  503  502 -0.15549389706E+03 -0.24646466453E+02  0.49928102034E+03  0.52351441013E+03  0.00000000000E+00 0.  1.
         21    1    1    2  504  503 -0.53526850266E+02 -0.27232391733E+02  0.13524111683E+03  0.14797596609E+03  0.00000000000E+00 0.  1.
<mgrwt>
<rscale>  4 0.48011979E+03</rscale>
<asrwt>0</asrwt>
<pdfrwt beam="1">  1       21 0.17373678E+00 0.48011979E+03</pdfrwt>
<pdfrwt beam="2">  1       21 0.78509237E-02 0.48011979E+03</pdfrwt>
<totfact> 0.21984308E+04</totfact>
</mgrwt>
</event>
<event>
 5    0  0.2629946E-001  0.5193736E+03  0.7546771E-02  0.1008842E+00
         21   -1    0    0  502  501  0.00000000000E+00  0.00000000000E+00  0.12505949653E+03  0.12505949653E+03  0.00000000000E+00 0. -1.
         21   -1    0    0  504  502 -0.00000000000E+00 -0.00000000000E+00 -0.53924125287E+03  0.53924125287E+03  0.00000000000E+00 0. -1.
         25    1    1    2    0    0  0.21754602032E+03  0.10249280517E+03 -0.18852625291E+03  0.33014874543E+03  0.12500000000E+03 0.  0.
         21    1    1    2  503  501 -0.12790193062E+03 -0.77484648666E+02 -0.10968219710E+03  0.18545338767E+03  0.00000000000E+00 0. -1.
         21    1    1    2  504  503 -0.89644089699E+02 -0.25008156509E+02 -0.11597330633E+03  0.14869861631E+03  0.00000000000E+00 0. -1.
<mgrwt>
<rscale>  4 0.51937362E+03</rscale>
<asrwt>0</asrwt>
<pdfrwt beam="1">  1       21 0.19239923E-01 0.51937362E+03</pdfrwt>
<pdfrwt beam="2">  1       21 0.82960191E-01 0.51937362E+03</pdfrwt>
<totfact> 0.28123032E+04</totfact>
</mgrwt>
</event>
<event>
 5    0  0.2629946E-001  0.6342521E+03  0.7546771E-02  0.9836786E-01
         21   -1    0    0  504  501  0.00000000000E+00  0.00000000000E+00  0.64633897985E+03  0.64633897985E+03  0.00000000000E+00 0.  1.
         21   -1    0    0  501  502 -0.00000000000E+00 -0.00000000000E+00 -0.15559779874E+03  0.15559779874E+03  0.00000000000E+00 0.  1.
         25    1    1    2    0    0  0.12572226041E+02  0.22858939951E+03  0.32242324492E+01  0.26085737504E+03  0.12500000000E+03 0.  0.
         21    1    1    2  503  502 -0.23203709585E+02 -0.19616880491E+03  0.37996526345E+03  0.42824550621E+03  0.00000000000E+00 0.  1.
         21    1    1    2  504  503  0.10631483544E+02 -0.32420594608E+02  0.10755168521E+03  0.11283389734E+03  0.00000000000E+00 0.  1.
<mgrwt>
<rscale>  4 0.63425207E+03</rscale>
<asrwt>0</asrwt>
<pdfrwt beam="1">  1       21 0.99436765E-01 0.63425207E+03</pdfrwt>
<pdfrwt beam="2">  1       21 0.23938123E-01 0.63425207E+03</pdfrwt>
<totfact> 0.11693552E+04</totfact>
</mgrwt>
</event>
<event>
 5    0  0.2629946E-001  0.5562317E+03  0.7546771E-02  0.1000062E+00
         21   -1    0    0  504  501  0.00000000000E+00  0.00000000000E+00  0.40304823611E+03  0.40304823611E+03  0.00000000000E+00 0.  1.
         21   -1    0    0  501  502 -0.00000000000E+00 -0.00000000000E+00 -0.19190863898E+03  0.19190863898E+03  0.00000000000E+00 0.  1.
         25    1    1    2    0    0 -0.19593584840E+03  0.15722823855E+03  0.17379969600E+03  0.33006500877E+03  0.12500000000E+03 0.  0.
         21    1    1    2  503  502  0.13648747402E+03 -0.14922417818E+03  0.30555691918E+02  0.20452465922E+03  0.00000000000E+00 0.  1.
         21    1    1    2  504  503  0.59448374381E+02 -0.80040603644E+01  0.67842092126E+01  0.60367207104E+02  0.00000000000E+00 0.  1.
<mgrwt>
<rscale>  4 0.55623174E+03</rscale>
<asrwt>0</asrwt>
<pdfrwt beam="1">  1       21 0.62007421E-01 0.55623174E+03</pdfrwt>
<pdfrwt beam="2">  1       21 0.29524406E-01 0.55623174E+03</pdfrwt>
<totfact> 0.23516958E+04</totfact>
</mgrwt>
</event>
<event>
 5    0  0.2629946E-001  0.5174833E+03  0.7546771E-02  0.1009314E+00
         21   -1    0    0  504  501  0.00000000000E+00  0.00000000000E+00  0.46044144356E+03  0.46044144356E+03  0.00000000000E+00 0. -1.
         21   -1    0    0  501  502 -0.00000000000E+00 -0.00000000000E+00 -0.14539793358E+03  0.14539793358E+03  0.00000000000E+00 0. -1.
         25    1    1    2    0    0 -0.20874321286E+03 -0.81941470354E+02  0.23176500017E+03  0.34587302407E+03  0.12500000000E+03 0.  0.
         21    1    1    2  503  502  0.85774920196E+02  0.64227772710E+02 -0.54540210312E+01  0.10729534038E+03  0.00000000000E+00 0. -1.
         21    1    1    2  504  503  0.12296829267E+03  0.17713697644E+02  0.88732530836E+02  0.15267101268E+03  0.00000000000E+00 0. -1.
<mgrwt>
<rscale>  4 0.51748327E+03</rscale>
<asrwt>0</asrwt>
<pdfrwt beam="1">  1       21 0.70837144E-01 0.51748327E+03</pdfrwt>
<pdfrwt beam="2">  1       21 0.22368913E-01 0.51748327E+03</pdfrwt>
<totfact> 0.30310090E+04</totfact>
</mgrwt>
</event>
<event>
 5    0  0.2629946E-001  0.4722756E+03  0.7546771E-02  0.1021280E+00
         21   -1    0    0  504  501  0.00000000000E+00  0.00000000000E+00  0.14698332715E+03  0.14698332715E+03  0.00000000000E+00 0. -1.
         21   -1    0    0  501  502 -0.00000000000E+00 -0.00000000000E+00 -0.37936992761E+03  0.37936992761E+03  0.00000000000E+00 0. -1.
         25    1    1    2    0    0  0.90226149369E+02  0.18012550292E+03 -0.20501483646E+03  0.31343585947E+03  0.12500000000E+03 0.  0.
         21    1    1    2  503  502 -0.28224535469E+02 -0.20912462944E+02 -0.23027448323E+02  0.42002605695E+02  0.00000000000E+00 0. -1.
         21    1    1    2  504  503 -0.62001613900E+02 -0.15921303998E+03 -0.43443156733E+01  0.17091478960E+03  0.00000000000E+00 0. -1.
<mgrwt>
<rscale>  4 0.47227557E+03</rscale>
<asrwt>0</asrwt>
<pdfrwt beam="1">  1       21 0.22612820E-01 0.47227557E+03</pdfrwt>
<pdfrwt beam="2">  1       21 0.58364603E-01 0.47227557E+03</pdfrwt>
<totfact> 0.46092659E+04</totfact>
</mgrwt>
</event>
<event>
 5    0  0.2629946E-001  0.4570684E+03  0.7546771E-02  0.1025635E+00
         21   -1    0    0  504  501  0.00000000000E+00  0.00000000000E+00  0.61785710003E+02  0.61785710003E+02  0.00000000000E+00 0.  1.
         21   -1    0    0  501  502 -0.00000000000E+00 -0.00000000000E+00 -0.84530680042E+03  0.84530680042E+03  0.00000000000E+00 0.  1.
         25    1    1    2    0    0 -0.18851338507E+03  0.69752102262E+02 -0.32770681419E+03  0.40425166442E+03  0.12500000000E+03 0.  0.
         21    1    1    2  503  502  0.18053583603E+02  0.13576017110E+02 -0.48203660947E+02  0.53233758557E+02  0.00000000000E+00 0. -1.
         21    1    1    2  504  503  0.17045980146E+03 -0.83328119372E+02 -0.40761061528E+03  0.44960708744E+03  0.00000000000E+00 0.  1.
<mgrwt>
<rscale>  4 0.45706840E+03</rscale>
<asrwt>0</asrwt>
<pdfrwt beam="1">  1       21 0.95054939E-02 0.45706840E+03</pdfrwt>
<pdfrwt beam="2">  1       21 0.13004720E+00 0.45706840E+03</pdfrwt>
<totfact> 0.34675367E+04</totfact>
</mgrwt>
</event>
<event>
 5    0  0.2629946E-001  0.4682794E+03  0.7546771E-02  0.1022407E+00
         21   -1    0    0  504  501  0.00000000000E+00  0.00000000000E+00  0.84965760153E+02  0.84965760153E+02  0.00000000000E+00 0. -1.
         21   -1    0    0  501  502 -0.00000000000E+00 -0.00000000000E+00 -0.64521764353E+03  0.64521764353E+03  0.00000000000E+00 0. -1.
         25    1    1    2    0    0 -0.20000923748E+03  0.40424297864E+02 -0.25082947629E+03  0.34666734070E+03  0.12500000000E+03 0.  0.
         21    1    1    2  503  502  0.16813261561E+03 -0.70714157161E+02 -0.25578891097E+03  0.31416084325E+03  0.00000000000E+00 0. -1.
         21    1    1    2  504  503  0.31876621872E+02  0.30289859297E+02 -0.53633496121E+02  0.69355219734E+02  0.00000000000E+00 0. -1.
<mgrwt>
<rscale>  4 0.46827944E+03</rscale>
<asrwt>0</asrwt>
<pdfrwt beam="1">  1       21 0.13071656E-01 0.46827944E+03</pdfrwt>
<pdfrwt beam="2">  1       21 0.99264247E-01 0.46827944E+03</pdfrwt>
<totfact> 0.38207258E+04</totfact>
</mgrwt>
</event>
<event>
 5    0  0.2629946E-001  0.5040609E+03  0.7546771E-02  0.1012724E+00
         21   -1    0    0  504  501  0.00000000000E+00  0.00000000000E+00  0.43626938913E+02  0.43626938913E+02  0.00000000000E+00 0. -1.
         21   -1    0    0  501  502 -0.00000000000E+00 -0.00000000000E+00 -0.14559660184E+04  0.14559660184E+04  0.00000000000E+00 0. -1.
         25    1    1    2    0    0  0.72318497557E+02 -0.21211526250E+03 -0.63689679637E+03  0.68664792936E+03  0.12500000000E+03 0.  0.
         21    1    1    2  503  502 -0.74652302616E+02  0.72031589654E+02 -0.34731881633E+03  0.36248017377E+03  0.00000000000E+00 0. -1.
         21    1    1    2  504  503  0.23338050599E+01  0.14008367285E+03 -0.42812346682E+03  0.45046485422E+03  0.00000000000E+00 0. -1.
<mgrwt>
<rscale>  4 0.50406087E+03</rscale>
<asrwt>0</asrwt>
<pdfrwt beam="1">  1       21 0.67118375E-02 0.50406087E+03</pdfrwt>
<pdfrwt beam="2">  1       21 0.22399475E+00 0.50406087E+03</pdfrwt>
<totfact> 0.13193176E+04</totfact>
</mgrwt>
</event>
<event>
 5    0  0.2629946E-001  0.5041566E+03  0.7546771E-02  0.1012700E+00
         21   -1    0    0  504  501  0.00000000000E+00  0.00000000000E+00  0.12890581768E+04  0.12890581768E+04  0.00000000000E+00 0.  1.
         21   -1    0    0  501  502 -0.00000000000E+00 -0.00000000000E+00 -0.49294495515E+02  0.49294495515E+02  0.00000000000E+00 0.  1.
         25    1    1    2    0    0  0.21138737024E+03 -0.84449452260E+02  0.79307821444E+03  0.83451446033E+03  0.12500000000E+03 0.  0.
         21    1    1    2  503  502 -0.18136912935E+03  0.84840257708E+02  0.35775343958E+03  0.40997579678E+03  0.00000000000E+00 0.  1.
         21    1    1    2  504  503 -0.30018240889E+02 -0.39080544776E+00  0.88932027249E+02  0.93862415192E+02  0.00000000000E+00 0.  1.
<mgrwt>
<rscale>  4 0.50415661E+03</rscale>
<asrwt>0</asrwt>
<pdfrwt beam="1">  1       21 0.19831662E+00 0.50415661E+03</pdfrwt>
<pdfrwt beam="2">  1       21 0.75837695E-02 0.50415661E+03</pdfrwt>
<totfact> 0.15659174E+04</totfact>
</mgrwt>
</event>
<event>
 5    0  0.2629946E-001  0.8553458E+03  0.7546771E-02  0.9483190E-01
         21   -1    0    0  502  501  0.00000000000E+00  0.00000000000E+00  0.29902202522E+03  0.29902202522E+03  0.00000000000E+00 0.  1.
         21   -1    0    0  504  502 -0.00000000000E+00 -0.00000000000E+00 -0.61167441197E+03  0.61167441197E+03  0.00000000000E+00 0.  1.
         25    1    1    2    0    0 -0.19233277325E+02  0.39470905715E+03 -0.21010281061E+03  0.46468629180E+03  0.12500000000E+03 0.  0.
         21    1    1    2  503  501  0.80105184443E+02 -0.34860394387E+03 -0.85659885315E+02  0.36780316231E+03  0.00000000000E+00 0.  1.
         21    1    1    2  504  503 -0.60871907118E+02 -0.46105113286E+02 -0.16889690826E+02  0.78206983086E+02  0.00000000000E+00 0. -1.
<mgrwt>
<rscale>  4 0.85534583E+03</rscale>
<asrwt>0</asrwt>
<pdfrwt beam="1">  1       21 0.46003389E-01 0.85534583E+03</pdfrwt>
<pdfrwt beam="2">  1       21 0.94103755E-01 0.85534583E+03</pdfrwt>
<totfact> 0.33971434E+03</totfact>
</mgrwt>
</event>
<event>
 5    0  0.2629946E-001  0.6237324E+03  0.7546771E-02  0.9857356E-01
         21   -1    0    0  502  501  0.00000000000E+00  0.00000000000E+00  0.16785241321E+03  0.16785241321E+03  0.00000000000E+00 0.  1.
         21   -1    0    0  504  502 -0.00000000000E+00 -0.00000000000E+00 -0.57944081069E+03  0.57944081069E+03  0.00000000000E+00 0.  1.
         25    1    1    2    0    0 -0.17128791668E+03 -0.20383736326E+03 -0.57074436706E+02  0.29961927906E+03  0.12500000000E+03 0.  0.
         21    1    1    2  503  501  0.70310142126E+01  0.18821010748E+02 -0.73981945727E+01  0.21410251969E+02  0.00000000000E+00 0.  1.
         21    1    1    2  504  503  0.16425690247E+03  0.18501635251E+03 -0.34711576620E+03  0.42626369286E+03  0.00000000000E+00 0.  1.
<mgrwt>
<rscale>  4 0.62373244E+03</rscale>
<asrwt>0</asrwt>
<pdfrwt beam="1">  1       21 0.25823448E-01 0.62373244E+03</pdfrwt>
<pdfrwt beam="2">  1       21 0.89144741E-01 0.62373244E+03</pdfrwt>
<totfact> 0.13148921E+04</totfact>
</mgrwt>
</event>
<event>
 5    0  0.2629946E-001  0.5810774E+03  0.7546771E-02  0.9945461E-01
         21   -1    0    0  502  501  0.00000000000E+00  0.00000000000E+00  0.46806249363E+02  0.46806249363E+02  0.00000000000E+00 0. -1.
         21   -1    0    0  504  502 -0.00000000000E+00 -0.00000000000E+00 -0.18034498860E+04  0.18034498860E+04  0.00000000000E+00 0. -1.
         25    1    1    2    0    0 -0.15912479648E+03 -0.20639265723E+03 -0.81436107931E+03  0.86413401582E+03  0.12500000000E+03 0.  0.
         21    1    1    2  503  501  0.11966095122E+03  0.19735329036E+03 -0.89299751740E+03  0.92234030084E+03  0.00000000000E+00 0. -1.
         21    1    1    2  504  503  0.39463845258E+02  0.90393668617E+01 -0.49285039916E+02  0.63781818689E+02  0.00000000000E+00 0. -1.
<mgrwt>
<rscale>  4 0.58107736E+03</rscale>
<asrwt>0</asrwt>
<pdfrwt beam="1">  1       21 0.72009615E-02 0.58107736E+03</pdfrwt>
<pdfrwt beam="2">  1       21 0.27745383E+00 0.58107736E+03</pdfrwt>
<totfact> 0.52913828E+03</totfact>
</mgrwt>
</event>
<event>
 5    0  0.2629946E-001  0.6272748E+03  0.7546771E-02  0.9850381E-01
         21   -1    0    0  504  501  0.00000000000E+00  0.00000000000E+00  0.42953660417E+03  0.42953660417E+03  0.00000000000E+00 0. -1.
         21   -1    0    0  501  502 -0.00000000000E+00 -0.00000000000E+00 -0.22901054336E+03  0.22901054336E+03  0.00000000000E+00 0. -1.
         25    1    1    2    0    0 -0.12977868701E+02  0.29648545058E+03  0.13058918161E+03  0.34749184427E+03  0.12500000000E+03 0.  0.
         21    1    1    2  503  502 -0.15397564165E-01 -0.24873640231E+02 -0.11210256004E+02  0.27283109337E+02  0.00000000000E+00 0. -1.
         21    1    1    2  504  503  0.12993266265E+02 -0.27161181035E+03  0.81147135200E+02  0.28377219392E+03  0.00000000000E+00 0. -1.
<mgrwt>
<rscale>  4 0.62727478E+03</rscale>
<asrwt>0</asrwt>
<pdfrwt beam="1">  1       21 0.66082555E-01 0.62727478E+03</pdfrwt>
<pdfrwt beam="2">  1       21 0.35232391E-01 0.62727478E+03</pdfrwt>
<totfact> 0.14089617E+04</totfact>
</mgrwt>
</event>
