<event>
 5    0  0.1911311E+001  0.3182743E+03  0.7546771E-02  0.1076446E+00
         21   -1    0    0  502  501  0.00000000000E+00  0.00000000000E+00  0.39038243952E+03  0.39038243952E+03  0.00000000000E+00 0. -1.
         21   -1    0    0  504  502 -0.00000000000E+00 -0.00000000000E+00 -0.10501678466E+04  0.10501678466E+04  0.00000000000E+00 0. -1.
         25    1    1    2    0    0 -0.33387055688E+03  0.10130642155E+03  0.18779191892E+03  0.41547965607E+03  0.12500000000E+03 0.  0.
         21    1    1    2  503  501  0.22060105773E+03 -0.23871850848E+02 -0.65936559317E+02  0.23147855579E+03  0.00000000000E+00 0. -1.
         21    1    1    2  504  503  0.11326949914E+03 -0.77434570702E+02 -0.78164076672E+03  0.79359207428E+03  0.00000000000E+00 0. -1.
<mgrwt>
<rscale>  4 0.31827426E+03</rscale>
<asrwt>0</asrwt>
<pdfrwt beam="1">  1       21 0.60058837E-01 0.31827426E+03</pdfrwt>
<pdfrwt beam="2">  1       21 0.16156428E+00 0.31827426E+03</pdfrwt>
<totfact> 0.56779101E+02</totfact>
</mgrwt>
</event>
<event>
 5    0  0.1911311E+001  0.2846846E+03  0.7546771E-02  0.1093157E+00
         21   -1    0    0  502  501  0.00000000000E+00  0.00000000000E+00  0.17105760558E+03  0.17105760558E+03  0.00000000000E+00 0.  1.
         21   -1    0    0  504  502 -0.00000000000E+00 -0.00000000000E+00 -0.14425052942E+04  0.14425052942E+04  0.00000000000E+00 0.  1.
         25    1    1    2    0    0 -0.13220769102E+03 -0.24798719370E+03 -0.13642339261E+03  0.33647119320E+03  0.12500000000E+03 0.  0.
         21    1    1    2  503  501 -0.85725130677E+01  0.38274265393E+02  0.51074220146E+02  0.64397075517E+02  0.00000000000E+00 0.  1.
         21    1    1    2  504  503  0.14078020409E+03  0.20971292831E+03 -0.11860985161E+04  0.12126946310E+04  0.00000000000E+00 0.  1.
<mgrwt>
<rscale>  4 0.28468461E+03</rscale>
<asrwt>0</asrwt>
<pdfrwt beam="1">  1       21 0.26316553E-01 0.28468461E+03</pdfrwt>
<pdfrwt beam="2">  1       21 0.22192391E+00 0.28468461E+03</pdfrwt>
<totfact> 0.12323370E+03</totfact>
</mgrwt>
</event>
<event>
 5    0  0.1911311E+001  0.2612632E+03  0.7546771E-02  0.1106387E+00
         21   -1    0    0  504  501  0.00000000000E+00  0.00000000000E+00  0.33372403950E+03  0.33372403950E+03  0.00000000000E+00 0.  1.
         21   -1    0    0  503  502 -0.00000000000E+00 -0.00000000000E+00 -0.24044931536E+03  0.24044931536E+03  0.00000000000E+00 0.  1.
         25    1    1    2    0    0 -0.23524869473E+03  0.63319915993E+02  0.59934811494E+02  0.28030080585E+03  0.12500000000E+03 0.  0.
         21    1    1    2  503  501  0.21582872962E+03 -0.49755626379E+02 -0.32536474429E+02  0.22386666803E+03  0.00000000000E+00 0.  1.
         21    1    1    2  504  502  0.19419965110E+02 -0.13564289613E+02  0.65876387077E+02  0.70005880981E+02  0.00000000000E+00 0.  1.
<mgrwt>
<rscale>  4 0.26126322E+03</rscale>
<asrwt>0</asrwt>
<pdfrwt beam="1">  1       21 0.51342160E-01 0.26126322E+03</pdfrwt>
<pdfrwt beam="2">  1       21 0.36992202E-01 0.26126322E+03</pdfrwt>
<totfact> 0.24535324E+04</totfact>
</mgrwt>
</event>
<event>
 5    0  0.1911311E+001  0.3491321E+03  0.7546771E-02  0.1062972E+00
         21   -1    0    0  504  501  0.00000000000E+00  0.00000000000E+00  0.17015116610E+03  0.17015116610E+03  0.00000000000E+00 0. -1.
         21   -1    0    0  503  502 -0.00000000000E+00 -0.00000000000E+00 -0.74954065811E+03  0.74954065811E+03  0.00000000000E+00 0. -1.
         25    1    1    2    0    0  0.85696118818E+02  0.31452250712E+03 -0.41715907396E+03  0.54398062948E+03  0.12500000000E+03 0.  0.
         21    1    1    2  503  501 -0.64655546952E+02 -0.28910866930E+03 -0.17034677076E+03  0.34173408481E+03  0.00000000000E+00 0. -1.
         21    1    1    2  504  502 -0.21040571867E+02 -0.25413837820E+02  0.81163527099E+01  0.33977109920E+02  0.00000000000E+00 0. -1.
<mgrwt>
<rscale>  4 0.34913211E+03</rscale>
<asrwt>0</asrwt>
<pdfrwt beam="1">  1       21 0.26177103E-01 0.34913211E+03</pdfrwt>
<pdfrwt beam="2">  1       21 0.11531395E+00 0.34913211E+03</pdfrwt>
<totfact> 0.73965554E+03</totfact>
</mgrwt>
</event>
<event>
 5    0  0.1911311E+001  0.2418002E+03  0.7546771E-02  0.1118599E+00
         21   -1    0    0  502  501  0.00000000000E+00  0.00000000000E+00  0.36359418260E+03  0.36359418260E+03  0.00000000000E+00 0. -1.
         21   -1    0    0  504  502 -0.00000000000E+00 -0.00000000000E+00 -0.69369387803E+03  0.69369387803E+03  0.00000000000E+00 0. -1.
         25    1    1    2    0    0 -0.22114909780E+02  0.22087084166E+03 -0.53950090898E+03  0.59662318822E+03  0.12500000000E+03 0.  0.
         21    1    1    2  503  501  0.49164411101E+02 -0.20031015233E+03  0.29991043792E+03  0.36398841632E+03  0.00000000000E+00 0. -1.
         21    1    1    2  504  503 -0.27049501321E+02 -0.20560689331E+02 -0.90509224356E+02  0.96676456085E+02  0.00000000000E+00 0.  1.
<mgrwt>
<rscale>  4 0.24180024E+03</rscale>
<asrwt>0</asrwt>
<pdfrwt beam="1">  1       21 0.55937567E-01 0.24180024E+03</pdfrwt>
<pdfrwt beam="2">  1       21 0.10672213E+00 0.24180024E+03</pdfrwt>
<totfact> 0.20294891E+03</totfact>
</mgrwt>
</event>
<event>
 5    0  0.1911311E+001  0.3240225E+03  0.7546771E-02  0.1073813E+00
         21   -1    0    0  504  501  0.00000000000E+00  0.00000000000E+00  0.48493275341E+03  0.48493275341E+03  0.00000000000E+00 0. -1.
         21   -1    0    0  503  502 -0.00000000000E+00 -0.00000000000E+00 -0.32847413706E+03  0.32847413706E+03  0.00000000000E+00 0. -1.
         25    1    1    2    0    0 -0.21663407765E+03  0.23780405848E+03 -0.37550002798E+02  0.34715428348E+03  0.12500000000E+03 0.  0.
         21    1    1    2  503  501  0.18847023897E+03 -0.20398577808E+03  0.10910233824E+02  0.27793931323E+03  0.00000000000E+00 0. -1.
         21    1    1    2  504  502  0.28163838677E+02 -0.33818280405E+02  0.18309838532E+03  0.18831329376E+03  0.00000000000E+00 0.  1.
<mgrwt>
<rscale>  4 0.32402255E+03</rscale>
<asrwt>0</asrwt>
<pdfrwt beam="1">  1       21 0.74605039E-01 0.32402255E+03</pdfrwt>
<pdfrwt beam="2">  1       21 0.50534482E-01 0.32402255E+03</pdfrwt>
<totfact> 0.55439132E+03</totfact>
</mgrwt>
</event>
<event>
 5    0  0.1911311E+001  0.3404821E+03  0.7546771E-02  0.1066591E+00
         21   -1    0    0  503  501  0.00000000000E+00  0.00000000000E+00  0.19310133371E+03  0.19310133371E+03  0.00000000000E+00 0.  1.
         21   -1    0    0  501  502 -0.00000000000E+00 -0.00000000000E+00 -0.68995603948E+03  0.68995603948E+03  0.00000000000E+00 0. -1.
         25    1    1    2    0    0  0.28348461791E+03 -0.61204458894E+02 -0.11459071968E+03  0.33595468060E+03  0.12500000000E+03 0.  0.
         21    1    1    2  503  504 -0.32131770373E+03  0.82961550880E+02 -0.37837832160E+03  0.50328703531E+03  0.00000000000E+00 0. -1.
         21    1    1    2  504  502  0.37833085818E+02 -0.21757091986E+02 -0.38856644866E+01  0.43815657278E+02  0.00000000000E+00 0. -1.
<mgrwt>
<rscale>  4 0.34048214E+03</rscale>
<asrwt>0</asrwt>
<pdfrwt beam="1">  1       21 0.29707898E-01 0.34048214E+03</pdfrwt>
<pdfrwt beam="2">  1       21 0.10614708E+00 0.34048214E+03</pdfrwt>
<totfact> 0.71064556E+03</totfact>
</mgrwt>
</event>
