<event>
 5    0  0.3188794E-002  0.5343781E+03  0.7546771E-02  0.1005176E+00
         -1   -1    0    0    0  501 -0.00000000000E+00  0.00000000000E+00  0.49080013273E+03  0.49080013273E+03  0.00000000000E+00 0. -1.
         21   -1    0    0  501  502  0.00000000000E+00 -0.00000000000E+00 -0.17383576117E+03  0.17383576117E+03  0.00000000000E+00 0.  1.
         25    1    1    2    0    0  0.95777210239E+02  0.24871450028E+03  0.17951644461E+03  0.34479462081E+03  0.12500000000E+03 0.  0.
         21    1    1    2  503  502 -0.10883209168E+03 -0.21390761656E+03  0.14702149076E+03  0.28145374637E+03  0.00000000000E+00 0.  1.
         -1    1    1    2    0  503  0.13054881438E+02 -0.34806883727E+02 -0.95735638164E+01  0.38387526728E+02  0.00000000000E+00 0. -1.
<mgrwt>
<rscale>  4 0.53437814E+03</rscale>
<asrwt>0</asrwt>
<pdfrwt beam="1">  1       21 0.26743963E-01 0.53437814E+03</pdfrwt>
<pdfrwt beam="2">  1       -1 0.75507712E-01 0.53437814E+03</pdfrwt>
<totfact> 0.21392842E+03</totfact>
</mgrwt>
</event>
<event>
 5    0  0.3188794E-002  0.5741294E+03  0.7546771E-02  0.9960582E-01
          2   -1    0    0  503    0 -0.00000000000E+00  0.00000000000E+00  0.19680121942E+04  0.19680121942E+04  0.00000000000E+00 0. -1.
         21   -1    0    0  501  502  0.00000000000E+00 -0.00000000000E+00 -0.46934700726E+02  0.46934700726E+02  0.00000000000E+00 0.  1.
         25    1    1    2    0    0  0.22410921194E+03 -0.85782070933E+02  0.13556763689E+04  0.13824134402E+04  0.12500000000E+03 0.  0.
         21    1    1    2  503  502 -0.24526348616E+03  0.80040657683E+02  0.54309805333E+03  0.60126215585E+03  0.00000000000E+00 0.  1.
          2    1    1    2  501    0  0.21154274219E+02  0.57414132494E+01  0.22303071254E+02  0.31271298841E+02  0.00000000000E+00 0. -1.
<mgrwt>
<rscale>  4 0.57412940E+03</rscale>
<asrwt>0</asrwt>
<pdfrwt beam="1">  1       21 0.72207247E-02 0.57412940E+03</pdfrwt>
<pdfrwt beam="2">  1        2 0.30277104E+00 0.57412940E+03</pdfrwt>
<totfact> 0.13176471E+04</totfact>
</mgrwt>
</event>
<event>
 5    0  0.3188794E-002  0.4240042E+03  0.7546771E-02  0.1035771E+00
         21   -1    0    0  503  502  0.00000000000E+00  0.00000000000E+00  0.33398332512E+02  0.33398332512E+02  0.00000000000E+00 0.  1.
         -1   -1    0    0    0  501 -0.00000000000E+00 -0.00000000000E+00 -0.22633175123E+04  0.22633175123E+04  0.00000000000E+00 0. -1.
         25    1    1    2    0    0 -0.21532001402E+03  0.13294122035E+02 -0.15053031478E+04  0.15258119179E+04  0.12500000000E+03 0.  0.
         21    1    1    2  503  501  0.16155542408E+03 -0.40581952842E+02 -0.66708151603E+03  0.68756439624E+03  0.00000000000E+00 0.  1.
         -1    1    1    2    0  502  0.53764589941E+02  0.27287830806E+02 -0.57534515961E+02  0.83339530647E+02  0.00000000000E+00 0. -1.
<mgrwt>
<rscale>  4 0.42400422E+03</rscale>
<asrwt>0</asrwt>
<pdfrwt beam="1">  1       21 0.51382058E-02 0.42400422E+03</pdfrwt>
<pdfrwt beam="2">  1       -1 0.34820264E+00 0.42400422E+03</pdfrwt>
<totfact> 0.44053899E+02</totfact>
</mgrwt>
</event>
<event>
 5    0  0.3188794E-002  0.6126426E+03  0.7546771E-02  0.9879518E-01
         21   -1    0    0  501  502  0.00000000000E+00  0.00000000000E+00  0.35114925494E+03  0.35114925494E+03  0.00000000000E+00 0.  1.
          1   -1    0    0  503    0 -0.00000000000E+00 -0.00000000000E+00 -0.46827205570E+03  0.46827205570E+03  0.00000000000E+00 0. -1.
         25    1    1    2    0    0  0.15265933789E+03 -0.19564446382E+03 -0.11873747837E+03  0.30216753372E+03  0.12500000000E+03 0.  0.
         21    1    1    2  503  502  0.63559115758E+01  0.31409334545E+03  0.35284098691E+02  0.31613287537E+03  0.00000000000E+00 0.  1.
          1    1    1    2  501    0 -0.15901524946E+03 -0.11844888164E+03 -0.33669421082E+02  0.20112090154E+03  0.00000000000E+00 0. -1.
<mgrwt>
<rscale>  4 0.61264258E+03</rscale>
<asrwt>0</asrwt>
<pdfrwt beam="1">  1       21 0.54022963E-01 0.61264258E+03</pdfrwt>
<pdfrwt beam="2">  1        1 0.72041854E-01 0.61264258E+03</pdfrwt>
<totfact> 0.15894104E+03</totfact>
</mgrwt>
</event>
<event>
 5    0  0.3188794E-002  0.3761413E+03  0.7546771E-02  0.1052369E+00
         -2   -1    0    0    0  501 -0.00000000000E+00  0.00000000000E+00  0.64705807915E+03  0.64705807915E+03  0.00000000000E+00 0. -1.
         21   -1    0    0  503  502  0.00000000000E+00 -0.00000000000E+00 -0.18279886645E+03  0.18279886645E+03  0.00000000000E+00 0. -1.
         25    1    1    2    0    0 -0.96358543157E+02 -0.22150407289E+03  0.44903870589E+03  0.52498550697E+03  0.12500000000E+03 0.  0.
         21    1    1    2  503  501  0.19416694085E+02  0.96113634893E+02  0.95840943506E+02  0.13711427815E+03  0.00000000000E+00 0.  1.
         -2    1    1    2    0  502  0.76941849072E+02  0.12539043799E+03 -0.80620436689E+02  0.16775716047E+03  0.00000000000E+00 0. -1.
<mgrwt>
<rscale>  4 0.37614132E+03</rscale>
<asrwt>0</asrwt>
<pdfrwt beam="1">  1       21 0.28122903E-01 0.37614132E+03</pdfrwt>
<pdfrwt beam="2">  1       -2 0.99547395E-01 0.37614132E+03</pdfrwt>
<totfact> 0.82209810E+02</totfact>
</mgrwt>
</event>
<event>
 5    0  0.3188794E-002  0.4249656E+03  0.7546771E-02  0.1035462E+00
          2   -1    0    0  503    0 -0.00000000000E+00  0.00000000000E+00  0.13308927540E+04  0.13308927540E+04  0.00000000000E+00 0. -1.
         21   -1    0    0  501  502  0.00000000000E+00 -0.00000000000E+00 -0.89433240620E+02  0.89433240620E+02  0.00000000000E+00 0. -1.
         25    1    1    2    0    0  0.88227101577E+00  0.20421392164E+03  0.81404499123E+03  0.84852716630E+03  0.12500000000E+03 0.  0.
         21    1    1    2  503  502 -0.25904522729E+02 -0.18050367822E+03  0.47742164087E+03  0.51106168446E+03  0.00000000000E+00 0.  1.
          2    1    1    2  501    0  0.25022251714E+02 -0.23710243422E+02 -0.50007118713E+02  0.60737143874E+02  0.00000000000E+00 0. -1.
<mgrwt>
<rscale>  4 0.42496562E+03</rscale>
<asrwt>0</asrwt>
<pdfrwt beam="1">  1       21 0.13758961E-01 0.42496562E+03</pdfrwt>
<pdfrwt beam="2">  1        2 0.20475272E+00 0.42496562E+03</pdfrwt>
<totfact> 0.93709874E+03</totfact>
</mgrwt>
</event>
<event>
 5    0  0.3188794E-002  0.5868532E+03  0.7546771E-02  0.9933063E-01
          2   -1    0    0  503    0 -0.00000000000E+00  0.00000000000E+00  0.17474944336E+04  0.17474944336E+04  0.00000000000E+00 0. -1.
         21   -1    0    0  501  502  0.00000000000E+00 -0.00000000000E+00 -0.27298227176E+03  0.27298227176E+03  0.00000000000E+00 0. -1.
         25    1    1    2    0    0 -0.19318544477E+03 -0.64308366144E+02  0.80140699733E+03  0.83626213438E+03  0.12500000000E+03 0.  0.
         21    1    1    2  503  502  0.32927470966E+03 -0.92910165203E+02  0.84678191776E+03  0.91328733127E+03  0.00000000000E+00 0. -1.
          2    1    1    2  501    0 -0.13608926489E+03  0.15721853135E+03 -0.17367675322E+03  0.27092723973E+03  0.00000000000E+00 0. -1.
<mgrwt>
<rscale>  4 0.58685316E+03</rscale>
<asrwt>0</asrwt>
<pdfrwt beam="1">  1       21 0.41997274E-01 0.58685316E+03</pdfrwt>
<pdfrwt beam="2">  1        2 0.26884529E+00 0.58685316E+03</pdfrwt>
<totfact> 0.60839393E+02</totfact>
</mgrwt>
</event>
<event>
 5    0  0.3188794E-002  0.4402720E+03  0.7546771E-02  0.1030663E+00
          1   -1    0    0  503    0 -0.00000000000E+00  0.00000000000E+00  0.13753032051E+03  0.13753032051E+03  0.00000000000E+00 0.  1.
         21   -1    0    0  501  502  0.00000000000E+00 -0.00000000000E+00 -0.59684933846E+03  0.59684933846E+03  0.00000000000E+00 0. -1.
         25    1    1    2    0    0  0.20183530650E+03  0.24233484696E+02 -0.76641400700E+02  0.25064647820E+03  0.12500000000E+03 0.  0.
         21    1    1    2  503  502 -0.16574348207E+03  0.76799436081E+02 -0.19247901971E+03  0.26536244697E+03  0.00000000000E+00 0. -1.
          1    1    1    2  501    0 -0.36091824430E+02 -0.10103292078E+03 -0.19019859755E+03  0.21837073380E+03  0.00000000000E+00 0.  1.
<mgrwt>
<rscale>  4 0.44027197E+03</rscale>
<asrwt>0</asrwt>
<pdfrwt beam="1">  1       21 0.91822974E-01 0.44027197E+03</pdfrwt>
<pdfrwt beam="2">  1        1 0.21158511E-01 0.44027197E+03</pdfrwt>
<totfact> 0.24065668E+03</totfact>
</mgrwt>
</event>
<event>
 5    0  0.3188794E-002  0.4366207E+03  0.7546771E-02  0.1031789E+00
          1   -1    0    0  503    0 -0.00000000000E+00  0.00000000000E+00  0.14029880701E+04  0.14029880701E+04  0.00000000000E+00 0.  1.
         21   -1    0    0  501  502  0.00000000000E+00 -0.00000000000E+00 -0.12197380971E+03  0.12197380971E+03  0.00000000000E+00 0.  1.
         25    1    1    2    0    0 -0.21634132601E+03 -0.75730449579E+02  0.41600297231E+03  0.49114370942E+03  0.12500000000E+03 0.  0.
         21    1    1    2  503  502 -0.13765924707E+03  0.68624589407E+02  0.50891246505E+03  0.53164960233E+03  0.00000000000E+00 0. -1.
          1    1    1    2  501    0  0.35400057308E+03  0.71058601718E+01  0.35609882305E+03  0.50216856808E+03  0.00000000000E+00 0.  1.
<mgrwt>
<rscale>  4 0.43662065E+03</rscale>
<asrwt>0</asrwt>
<pdfrwt beam="1">  1       21 0.18765202E-01 0.43662065E+03</pdfrwt>
<pdfrwt beam="2">  1        1 0.21584431E+00 0.43662065E+03</pdfrwt>
<totfact> 0.22557073E+03</totfact>
</mgrwt>
</event>
<event>
 5    0  0.3188794E-002  0.4696149E+03  0.7546771E-02  0.1022029E+00
         21   -1    0    0  501  502  0.00000000000E+00  0.00000000000E+00  0.11455746452E+03  0.11455746452E+03  0.00000000000E+00 0. -1.
          1   -1    0    0  503    0 -0.00000000000E+00 -0.00000000000E+00 -0.14720939095E+04  0.14720939095E+04  0.00000000000E+00 0. -1.
         25    1    1    2    0    0 -0.26831599525E+03  0.17905789398E+03 -0.50833971807E+03  0.61488980449E+03  0.12500000000E+03 0.  0.
         21    1    1    2  503  502 -0.60117484956E+02 -0.70822488005E+02 -0.36577809648E+03  0.37739045122E+03  0.00000000000E+00 0.  1.
          1    1    1    2  501    0  0.32843348021E+03 -0.10823540597E+03 -0.48341863045E+03  0.59437111832E+03  0.00000000000E+00 0. -1.
<mgrwt>
<rscale>  4 0.46961490E+03</rscale>
<asrwt>0</asrwt>
<pdfrwt beam="1">  1       21 0.17624227E-01 0.46961490E+03</pdfrwt>
<pdfrwt beam="2">  1        1 0.22647596E+00 0.46961490E+03</pdfrwt>
<totfact> 0.22619371E+03</totfact>
</mgrwt>
</event>
<event>
 5    0  0.3188794E-002  0.7136429E+03  0.7546771E-02  0.9694181E-01
         21   -1    0    0  501  502  0.00000000000E+00  0.00000000000E+00  0.39917108247E+03  0.39917108247E+03  0.00000000000E+00 0.  1.
          1   -1    0    0  503    0 -0.00000000000E+00 -0.00000000000E+00 -0.15807131343E+04  0.15807131343E+04  0.00000000000E+00 0. -1.
         25    1    1    2    0    0  0.31132126846E+03  0.47563975004E+03 -0.46782122737E+02  0.58392437098E+03  0.12500000000E+03 0.  0.
         21    1    1    2  503  502  0.10286884341E+03  0.57514855651E+02 -0.75915325943E+02  0.14018949418E+03  0.00000000000E+00 0. -1.
          1    1    1    2  501    0 -0.41419011187E+03 -0.53315460569E+03 -0.10588446031E+04  0.12557703516E+04  0.00000000000E+00 0. -1.
<mgrwt>
<rscale>  4 0.71364293E+03</rscale>
<asrwt>0</asrwt>
<pdfrwt beam="1">  1       21 0.61410934E-01 0.71364293E+03</pdfrwt>
<pdfrwt beam="2">  1        1 0.24318664E+00 0.71364293E+03</pdfrwt>
<totfact> 0.14365405E+02</totfact>
</mgrwt>
</event>
<event>
 5    0  0.3188794E-002  0.4595647E+03  0.7546771E-02  0.1024908E+00
         21   -1    0    0  501  502  0.00000000000E+00  0.00000000000E+00  0.10208029989E+03  0.10208029989E+03  0.00000000000E+00 0.  1.
          2   -1    0    0  503    0 -0.00000000000E+00 -0.00000000000E+00 -0.23342347445E+04  0.23342347445E+04  0.00000000000E+00 0.  1.
         25    1    1    2    0    0 -0.25286858593E+03  0.12509589205E+03 -0.14978936105E+04  0.15293468450E+04  0.12500000000E+03 0.  0.
         21    1    1    2  503  502 -0.22646190712E+02 -0.14638049456E+03 -0.56233246148E+03  0.58151345331E+03  0.00000000000E+00 0.  1.
          2    1    1    2  501    0  0.27551477664E+03  0.21284602502E+02 -0.17192837272E+03  0.32545474616E+03  0.00000000000E+00 0.  1.
<mgrwt>
<rscale>  4 0.45956472E+03</rscale>
<asrwt>0</asrwt>
<pdfrwt beam="1">  1       21 0.15704663E-01 0.45956472E+03</pdfrwt>
<pdfrwt beam="2">  1        2 0.35911301E+00 0.45956472E+03</pdfrwt>
<totfact> 0.20832978E+03</totfact>
</mgrwt>
</event>
<event>
 5    0  0.3188794E-002  0.7181185E+03  0.7546771E-02  0.9686739E-01
         21   -1    0    0  501  502  0.00000000000E+00  0.00000000000E+00  0.29497467861E+03  0.29497467861E+03  0.00000000000E+00 0.  1.
          2   -1    0    0  503    0 -0.00000000000E+00 -0.00000000000E+00 -0.83888327493E+03  0.83888327493E+03  0.00000000000E+00 0. -1.
         25    1    1    2    0    0 -0.27135205763E+03  0.15474229736E+03 -0.75552597232E+02  0.34483374649E+03  0.12500000000E+03 0.  0.
         21    1    1    2  503  502  0.18322035762E+03 -0.14073443816E+03 -0.59260613777E+03  0.63604867428E+03  0.00000000000E+00 0. -1.
          2    1    1    2  501    0  0.88131700006E+02 -0.14007859204E+02  0.12425013868E+03  0.15297553277E+03  0.00000000000E+00 0. -1.
<mgrwt>
<rscale>  4 0.71811853E+03</rscale>
<asrwt>0</asrwt>
<pdfrwt beam="1">  1       21 0.45380720E-01 0.71811853E+03</pdfrwt>
<pdfrwt beam="2">  1        2 0.12905896E+00 0.71811853E+03</pdfrwt>
<totfact> 0.17318579E+03</totfact>
</mgrwt>
</event>
<event>
 5    0  0.3188794E-002  0.3978318E+03  0.7546771E-02  0.1044533E+00
         21   -1    0    0  503  502  0.00000000000E+00  0.00000000000E+00  0.62155262857E+03  0.62155262857E+03  0.00000000000E+00 0. -1.
         -1   -1    0    0    0  501 -0.00000000000E+00 -0.00000000000E+00 -0.10348407719E+03  0.10348407719E+03  0.00000000000E+00 0. -1.
         25    1    1    2    0    0 -0.43302018951E+02  0.19529303928E+03  0.19184051169E+03  0.30404311859E+03  0.12500000000E+03 0.  0.
         21    1    1    2  503  501 -0.40799266203E+02 -0.15655907602E+03  0.14399642762E+03  0.21658784725E+03  0.00000000000E+00 0. -1.
         -1    1    1    2    0  502  0.84101285154E+02 -0.38733963256E+02  0.18223161207E+03  0.20440573992E+03  0.00000000000E+00 0. -1.
<mgrwt>
<rscale>  4 0.39783181E+03</rscale>
<asrwt>0</asrwt>
<pdfrwt beam="1">  1       21 0.95623479E-01 0.39783181E+03</pdfrwt>
<pdfrwt beam="2">  1       -1 0.15920628E-01 0.39783181E+03</pdfrwt>
<totfact> 0.22868990E+03</totfact>
</mgrwt>
</event>
<event>
 5    0  0.3188794E-002  0.8106089E+03  0.7546771E-02  0.9544787E-01
          2   -1    0    0  503    0 -0.00000000000E+00  0.00000000000E+00  0.71266100538E+03  0.71266100538E+03  0.00000000000E+00 0.  1.
         21   -1    0    0  501  502  0.00000000000E+00 -0.00000000000E+00 -0.25500640970E+03  0.25500640970E+03  0.00000000000E+00 0. -1.
         25    1    1    2    0    0 -0.40077806678E+03  0.13011730967E+02  0.29393645203E+03  0.51265583171E+03  0.12500000000E+03 0.  0.
         21    1    1    2  503  502  0.38487171963E+03 -0.33290894381E+02  0.17822145589E+03  0.42543790564E+03  0.00000000000E+00 0. -1.
          2    1    1    2  501    0  0.15906347155E+02  0.20279163413E+02 -0.14503312242E+02  0.29573677731E+02  0.00000000000E+00 0.  1.
<mgrwt>
<rscale>  4 0.81060889E+03</rscale>
<asrwt>0</asrwt>
<pdfrwt beam="1">  1       21 0.39231756E-01 0.81060889E+03</pdfrwt>
<pdfrwt beam="2">  1        2 0.10964015E+00 0.81060889E+03</pdfrwt>
<totfact> 0.28796192E+03</totfact>
</mgrwt>
</event>
<event>
 5    0  0.3188794E-002  0.6535007E+03  0.7546771E-02  0.9800232E-01
         21   -1    0    0  501  502  0.00000000000E+00  0.00000000000E+00  0.59165910401E+03  0.59165910401E+03  0.00000000000E+00 0. -1.
          2   -1    0    0  503    0 -0.00000000000E+00 -0.00000000000E+00 -0.67495749716E+03  0.67495749716E+03  0.00000000000E+00 0.  1.
         25    1    1    2    0    0  0.18721302284E+02 -0.42724058296E+03  0.12662363509E+03  0.46318845825E+03  0.12500000000E+03 0.  0.
         21    1    1    2  503  502 -0.12338483232E+03 -0.14670443268E+03 -0.40614755143E+02  0.19594786488E+03  0.00000000000E+00 0.  1.
          2    1    1    2  501    0  0.10466353004E+03  0.57394501564E+03 -0.16930727310E+03  0.60748027805E+03  0.00000000000E+00 0.  1.
<mgrwt>
<rscale>  4 0.65350070E+03</rscale>
<asrwt>0</asrwt>
<pdfrwt beam="1">  1       21 0.91024477E-01 0.65350070E+03</pdfrwt>
<pdfrwt beam="2">  1        2 0.10383962E+00 0.65350070E+03</pdfrwt>
<totfact> 0.48592399E+02</totfact>
</mgrwt>
</event>
<event>
 5    0  0.3188794E-002  0.4241681E+03  0.7546771E-02  0.1035718E+00
         21   -1    0    0  503  502  0.00000000000E+00  0.00000000000E+00  0.84176513770E+02  0.84176513770E+02  0.00000000000E+00 0. -1.
          1   -1    0    0  502    0 -0.00000000000E+00 -0.00000000000E+00 -0.95814032067E+03  0.95814032067E+03  0.00000000000E+00 0.  1.
         25    1    1    2    0    0 -0.22348302968E+03  0.70454092025E+02 -0.66380235306E+03  0.71495944470E+03  0.12500000000E+03 0.  0.
         21    1    1    2  503  501  0.92845298548E+02 -0.16280734901E+02 -0.31265326826E+02  0.99311794128E+02  0.00000000000E+00 0.  1.
          1    1    1    2  501    0  0.13063773113E+03 -0.54173357123E+02 -0.17889612701E+03  0.22804559561E+03  0.00000000000E+00 0.  1.
<mgrwt>
<rscale>  4 0.42416809E+03</rscale>
<asrwt>0</asrwt>
<pdfrwt beam="1">  1       21 0.12950233E-01 0.42416809E+03</pdfrwt>
<pdfrwt beam="2">  1        1 0.14740621E+00 0.42416809E+03</pdfrwt>
<totfact> 0.94255144E+03</totfact>
</mgrwt>
</event>
<event>
 5    0  0.3188794E-002  0.1359086E+04  0.7546771E-02  0.8983978E-01
          1   -1    0    0  503    0 -0.00000000000E+00  0.00000000000E+00  0.15032551452E+04  0.15032551452E+04  0.00000000000E+00 0.  1.
         21   -1    0    0  501  502  0.00000000000E+00 -0.00000000000E+00 -0.12594780087E+04  0.12594780087E+04  0.00000000000E+00 0.  1.
         25    1    1    2    0    0 -0.76880409116E+02 -0.21784517566E+03 -0.23059575234E+03  0.34952327370E+03  0.12500000000E+03 0.  0.
         21    1    1    2  503  502 -0.12296460811E+01  0.32229636404E+03  0.14212786066E+04  0.14573638310E+04  0.00000000000E+00 0.  1.
          1    1    1    2  501    0  0.78110055197E+02 -0.10445118838E+03 -0.94690571774E+03  0.95584604920E+03  0.00000000000E+00 0.  1.
<mgrwt>
<rscale>  4 0.13590862E+04</rscale>
<asrwt>0</asrwt>
<pdfrwt beam="1">  1       21 0.19376585E+00 0.13590862E+04</pdfrwt>
<pdfrwt beam="2">  1        1 0.23127002E+00 0.13590862E+04</pdfrwt>
<totfact> 0.74795913E+00</totfact>
</mgrwt>
</event>
<event>
 5    0  0.3188794E-002  0.4810916E+03  0.7546771E-02  0.1018836E+00
         21   -1    0    0  501  502  0.00000000000E+00  0.00000000000E+00  0.29384007903E+03  0.29384007903E+03  0.00000000000E+00 0.  1.
          1   -1    0    0  503    0 -0.00000000000E+00 -0.00000000000E+00 -0.88106170855E+03  0.88106170855E+03  0.00000000000E+00 0. -1.
         25    1    1    2    0    0 -0.22117749940E+03  0.82100596832E+02 -0.36403166767E+03  0.45144661845E+03  0.12500000000E+03 0.  0.
         21    1    1    2  503  502  0.19033452533E+03 -0.73621337167E+02 -0.45015148228E+03  0.49425063461E+03  0.00000000000E+00 0. -1.
          1    1    1    2  501    0  0.30842974070E+02 -0.84792596654E+01  0.22696152042E+03  0.22920453452E+03  0.00000000000E+00 0. -1.
<mgrwt>
<rscale>  4 0.48109156E+03</rscale>
<asrwt>0</asrwt>
<pdfrwt beam="1">  1       21 0.45206166E-01 0.48109156E+03</pdfrwt>
<pdfrwt beam="2">  1        1 0.13554796E+00 0.48109156E+03</pdfrwt>
<totfact> 0.94006488E+02</totfact>
</mgrwt>
</event>
<event>
 5    0  0.3188794E-002  0.7580698E+03  0.7546771E-02  0.9622774E-01
          2   -1    0    0  503    0 -0.00000000000E+00  0.00000000000E+00  0.20221223494E+04  0.20221223494E+04  0.00000000000E+00 0. -1.
         21   -1    0    0  501  502  0.00000000000E+00 -0.00000000000E+00 -0.21464843995E+03  0.21464843995E+03  0.00000000000E+00 0.  1.
         25    1    1    2    0    0 -0.21812401648E+03 -0.17446970710E+03  0.31619608058E+03  0.44002582497E+03  0.12500000000E+03 0.  0.
         21    1    1    2  503  502  0.19855747680E+03  0.14510556910E+03  0.16326333248E+04  0.16510518681E+04  0.00000000000E+00 0. -1.
          2    1    1    2  501    0  0.19566539686E+02  0.29364138004E+02 -0.14135549595E+03  0.14569309631E+03  0.00000000000E+00 0. -1.
<mgrwt>
<rscale>  4 0.75806983E+03</rscale>
<asrwt>0</asrwt>
<pdfrwt beam="1">  1       21 0.33022838E-01 0.75806983E+03</pdfrwt>
<pdfrwt beam="2">  1        2 0.31109573E+00 0.75806983E+03</pdfrwt>
<totfact> 0.68354970E+02</totfact>
</mgrwt>
</event>
<event>
 5    0  0.3188794E-002  0.7901676E+03  0.7546771E-02  0.9574359E-01
          2   -1    0    0  503    0 -0.00000000000E+00  0.00000000000E+00  0.87714842783E+03  0.87714842783E+03  0.00000000000E+00 0.  1.
         21   -1    0    0  501  502  0.00000000000E+00 -0.00000000000E+00 -0.32630257583E+03  0.32630257583E+03  0.00000000000E+00 0. -1.
         25    1    1    2    0    0  0.17872746881E+03 -0.25868056723E+03  0.79378190872E+02  0.34754142365E+03  0.12500000000E+03 0.  0.
         21    1    1    2  503  502 -0.19657155243E+03  0.27981439902E+03  0.61826323834E+03  0.70653089459E+03  0.00000000000E+00 0.  1.
          2    1    1    2  501    0  0.17844083618E+02 -0.21133831787E+02 -0.14679557722E+03  0.14937868542E+03  0.00000000000E+00 0.  1.
<mgrwt>
<rscale>  4 0.79016763E+03</rscale>
<asrwt>0</asrwt>
<pdfrwt beam="1">  1       21 0.50200397E-01 0.79016763E+03</pdfrwt>
<pdfrwt beam="2">  1        2 0.13494591E+00 0.79016763E+03</pdfrwt>
<totfact> 0.13014012E+03</totfact>
</mgrwt>
</event>
<event>
 5    0  0.3188794E-002  0.4472121E+03  0.7546771E-02  0.1028557E+00
         21   -1    0    0  503  502  0.00000000000E+00  0.00000000000E+00  0.24166196799E+03  0.24166196799E+03  0.00000000000E+00 0. -1.
          2   -1    0    0  502    0 -0.00000000000E+00 -0.00000000000E+00 -0.30296062040E+03  0.30296062040E+03  0.00000000000E+00 0.  1.
         25    1    1    2    0    0 -0.23080444618E+03 -0.44583060688E+02 -0.99526421963E+02  0.28423379522E+03  0.12500000000E+03 0.  0.
         21    1    1    2  503  501  0.15243004863E+03  0.77535661725E+02  0.12098416258E+02  0.17144407322E+03  0.00000000000E+00 0.  1.
          2    1    1    2  501    0  0.78374397546E+02 -0.32952601037E+02  0.26129353294E+02  0.88944719963E+02  0.00000000000E+00 0.  1.
<mgrwt>
<rscale>  4 0.44721210E+03</rscale>
<asrwt>0</asrwt>
<pdfrwt beam="1">  1       21 0.37178765E-01 0.44721210E+03</pdfrwt>
<pdfrwt beam="2">  1        2 0.46609326E-01 0.44721210E+03</pdfrwt>
<totfact> 0.89855332E+03</totfact>
</mgrwt>
</event>
<event>
 5    0  0.3188794E-002  0.4304254E+03  0.7546771E-02  0.1033726E+00
         21   -1    0    0  501  502  0.00000000000E+00  0.00000000000E+00  0.21421081487E+03  0.21421081487E+03  0.00000000000E+00 0. -1.
          1   -1    0    0  503    0 -0.00000000000E+00 -0.00000000000E+00 -0.61638795951E+03  0.61638795951E+03  0.00000000000E+00 0. -1.
         25    1    1    2    0    0  0.24396156862E+03  0.15348007096E+03 -0.28315636434E+03  0.42293723625E+03  0.12500000000E+03 0.  0.
         21    1    1    2  503  502  0.34129862931E+02 -0.10131020899E+03 -0.35634555307E+02  0.11268729974E+03  0.00000000000E+00 0.  1.
          1    1    1    2  501    0 -0.27809143155E+03 -0.52169861971E+02 -0.83386224997E+02  0.29497423840E+03  0.00000000000E+00 0. -1.
<mgrwt>
<rscale>  4 0.43042536E+03</rscale>
<asrwt>0</asrwt>
<pdfrwt beam="1">  1       21 0.32955510E-01 0.43042536E+03</pdfrwt>
<pdfrwt beam="2">  1        1 0.94828918E-01 0.43042536E+03</pdfrwt>
<totfact> 0.31319159E+03</totfact>
</mgrwt>
</event>
<event>
 5    0  0.3188794E-002  0.3861690E+03  0.7546771E-02  0.1048677E+00
         21   -1    0    0  501  502  0.00000000000E+00  0.00000000000E+00  0.11043462472E+03  0.11043462472E+03  0.00000000000E+00 0.  1.
          2   -1    0    0  503    0 -0.00000000000E+00 -0.00000000000E+00 -0.80041418808E+03  0.80041418808E+03  0.00000000000E+00 0. -1.
         25    1    1    2    0    0  0.61840929068E+02  0.26939860135E+03 -0.28016181507E+03  0.41293528493E+03  0.12500000000E+03 0.  0.
         21    1    1    2  503  502 -0.42028830776E+02 -0.65753109349E+02 -0.12024957455E+03  0.14335220328E+03  0.00000000000E+00 0. -1.
          2    1    1    2  501    0 -0.19812098291E+02 -0.20364549200E+03 -0.28956817374E+03  0.35456132459E+03  0.00000000000E+00 0. -1.
<mgrwt>
<rscale>  4 0.38616899E+03</rscale>
<asrwt>0</asrwt>
<pdfrwt beam="1">  1       21 0.16989943E-01 0.38616899E+03</pdfrwt>
<pdfrwt beam="2">  1        2 0.12314064E+00 0.38616899E+03</pdfrwt>
<totfact> 0.13514205E+04</totfact>
</mgrwt>
</event>
<event>
 5    0  0.3188794E-002  0.4461601E+03  0.7546771E-02  0.1028873E+00
          1   -1    0    0  503    0 -0.00000000000E+00  0.00000000000E+00  0.54490303734E+03  0.54490303734E+03  0.00000000000E+00 0.  1.
         21   -1    0    0  501  502  0.00000000000E+00 -0.00000000000E+00 -0.29365159976E+03  0.29365159976E+03  0.00000000000E+00 0.  1.
         25    1    1    2    0    0 -0.24854297990E+03 -0.21185518203E+03  0.28667556985E+03  0.45217708186E+03  0.12500000000E+03 0.  0.
         21    1    1    2  503  502  0.72460590722E+02 -0.34958646396E+02  0.44741311930E+01  0.80577056384E+02  0.00000000000E+00 0. -1.
          1    1    1    2  501    0  0.17608238917E+03  0.24681382842E+03 -0.39898263465E+02  0.30580049886E+03  0.00000000000E+00 0.  1.
<mgrwt>
<rscale>  4 0.44616009E+03</rscale>
<asrwt>0</asrwt>
<pdfrwt beam="1">  1       21 0.45177169E-01 0.44616009E+03</pdfrwt>
<pdfrwt beam="2">  1        1 0.83831236E-01 0.44616009E+03</pdfrwt>
<totfact> 0.19448203E+03</totfact>
</mgrwt>
</event>
<event>
 5    0  0.3188794E-002  0.5677197E+03  0.7546771E-02  0.9974737E-01
          2   -1    0    0  503    0 -0.00000000000E+00  0.00000000000E+00  0.83176269773E+03  0.83176269773E+03  0.00000000000E+00 0. -1.
         21   -1    0    0  501  502  0.00000000000E+00 -0.00000000000E+00 -0.12515817510E+03  0.12515817510E+03  0.00000000000E+00 0.  1.
         25    1    1    2    0    0 -0.24733869605E+03  0.13934468476E+03  0.47449482774E+03  0.56688950712E+03  0.12500000000E+03 0.  0.
         21    1    1    2  503  502  0.22918508200E+03 -0.95485926002E+02  0.23581338313E+03  0.34241979432E+03  0.00000000000E+00 0.  1.
          2    1    1    2  501    0  0.18153614055E+02 -0.43858758763E+02 -0.37036882374E+01  0.47611571388E+02  0.00000000000E+00 0. -1.
<mgrwt>
<rscale>  4 0.56771969E+03</rscale>
<asrwt>0</asrwt>
<pdfrwt beam="1">  1       21 0.19255104E-01 0.56771969E+03</pdfrwt>
<pdfrwt beam="2">  1        2 0.12796349E+00 0.56771969E+03</pdfrwt>
<totfact> 0.99260826E+03</totfact>
</mgrwt>
</event>
<event>
 5    0  0.3188794E-002  0.4239781E+03  0.7546771E-02  0.1035779E+00
         -1   -1    0    0    0  501 -0.00000000000E+00  0.00000000000E+00  0.45921572458E+03  0.45921572458E+03  0.00000000000E+00 0.  1.
         21   -1    0    0  503  502  0.00000000000E+00 -0.00000000000E+00 -0.29553776768E+03  0.29553776768E+03  0.00000000000E+00 0. -1.
         25    1    1    2    0    0  0.24635877276E+02 -0.22645314884E+03 -0.18365263968E+03  0.31818429743E+03  0.12500000000E+03 0.  0.
         21    1    1    2  503  501  0.23304986679E+02  0.11580989547E+02  0.10922024544E+03  0.11227779717E+03  0.00000000000E+00 0.  1.
         -1    1    1    2    0  502 -0.47940863955E+02  0.21487215930E+03  0.23811035114E+03  0.32429139766E+03  0.00000000000E+00 0.  1.
<mgrwt>
<rscale>  4 0.42397811E+03</rscale>
<asrwt>0</asrwt>
<pdfrwt beam="1">  1       21 0.45467349E-01 0.42397811E+03</pdfrwt>
<pdfrwt beam="2">  1       -1 0.70648573E-01 0.42397811E+03</pdfrwt>
<totfact> 0.85069364E+02</totfact>
</mgrwt>
</event>
<event>
 5    0  0.3188794E-002  0.1025964E+04  0.7546771E-02  0.9280518E-01
          2   -1    0    0  502    0 -0.00000000000E+00  0.00000000000E+00  0.22383089608E+04  0.22383089608E+04  0.00000000000E+00 0. -1.
         21   -1    0    0  503  502  0.00000000000E+00 -0.00000000000E+00 -0.40056909090E+03  0.40056909090E+03  0.00000000000E+00 0. -1.
         25    1    1    2    0    0  0.58081031696E+02  0.66899968707E+03  0.14183603414E+04  0.15742633343E+04  0.12500000000E+03 0.  0.
         21    1    1    2  503  501  0.45495631151E+02  0.12395345533E+03 -0.45452867535E+02  0.13964338405E+03  0.00000000000E+00 0.  1.
          2    1    1    2  501    0 -0.10357666285E+03 -0.79295314240E+03  0.46483239598E+03  0.92497133333E+03  0.00000000000E+00 0. -1.
<mgrwt>
<rscale>  4 0.10259636E+04</rscale>
<asrwt>0</asrwt>
<pdfrwt beam="1">  1       21 0.61626016E-01 0.10259636E+04</pdfrwt>
<pdfrwt beam="2">  1        2 0.34435522E+00 0.10259636E+04</pdfrwt>
<totfact> 0.13155638E+02</totfact>
</mgrwt>
</event>
<event>
 5    0  0.3188794E-002  0.4158491E+03  0.7546771E-02  0.1038426E+00
         21   -1    0    0  501  502  0.00000000000E+00  0.00000000000E+00  0.49177507448E+02  0.49177507448E+02  0.00000000000E+00 0.  1.
          2   -1    0    0  503    0 -0.00000000000E+00 -0.00000000000E+00 -0.26774851566E+04  0.26774851566E+04  0.00000000000E+00 0. -1.
         25    1    1    2    0    0  0.15002376352E+03 -0.17019849028E+03 -0.19468453756E+04  0.19640026915E+04  0.12500000000E+03 0.  0.
         21    1    1    2  503  502 -0.59763438616E+02  0.13127765630E+03 -0.63987347856E+03  0.65592953905E+03  0.00000000000E+00 0. -1.
          2    1    1    2  501    0 -0.90260324903E+02  0.38920833979E+02 -0.41588795021E+02  0.10673043353E+03  0.00000000000E+00 0. -1.
<mgrwt>
<rscale>  4 0.41584909E+03</rscale>
<asrwt>0</asrwt>
<pdfrwt beam="1">  1       21 0.75657668E-02 0.41584909E+03</pdfrwt>
<pdfrwt beam="2">  1        2 0.41192099E+00 0.41584909E+03</pdfrwt>
<totfact> 0.50864186E+03</totfact>
</mgrwt>
</event>
<event>
 5    0  0.3188794E-002  0.5240774E+03  0.7546771E-02  0.1007679E+00
          2   -1    0    0  503    0 -0.00000000000E+00  0.00000000000E+00  0.88079887998E+03  0.88079887998E+03  0.00000000000E+00 0. -1.
         21   -1    0    0  501  502  0.00000000000E+00 -0.00000000000E+00 -0.23960085697E+03  0.23960085697E+03  0.00000000000E+00 0.  1.
         25    1    1    2    0    0 -0.73067253523E+02  0.24184620065E+03  0.41270095674E+03  0.49977543758E+03  0.12500000000E+03 0.  0.
         21    1    1    2  503  502  0.15633292320E+02 -0.24138801861E+03  0.38456914147E+03  0.45431927092E+03  0.00000000000E+00 0. -1.
          2    1    1    2  501    0  0.57433961203E+02 -0.45818204815E+00 -0.15607207521E+03  0.16630502846E+03  0.00000000000E+00 0. -1.
<mgrwt>
<rscale>  4 0.52407738E+03</rscale>
<asrwt>0</asrwt>
<pdfrwt beam="1">  1       21 0.36861671E-01 0.52407738E+03</pdfrwt>
<pdfrwt beam="2">  1        2 0.13550752E+00 0.52407738E+03</pdfrwt>
<totfact> 0.25717513E+03</totfact>
</mgrwt>
</event>
<event>
 5    0  0.3188794E-002  0.5724793E+03  0.7546771E-02  0.9964207E-01
         21   -1    0    0  501  502  0.00000000000E+00  0.00000000000E+00  0.58283500655E+02  0.58283500655E+02  0.00000000000E+00 0. -1.
          2   -1    0    0  503    0 -0.00000000000E+00 -0.00000000000E+00 -0.19715252171E+04  0.19715252171E+04  0.00000000000E+00 0.  1.
         25    1    1    2    0    0 -0.97160614975E+02  0.21031850917E+03 -0.44636561047E+03  0.51820972454E+03  0.12500000000E+03 0.  0.
         21    1    1    2  503  502  0.56206358302E+02 -0.18479639182E+03 -0.14462973258E+04  0.14591383813E+04  0.00000000000E+00 0.  1.
          2    1    1    2  501    0  0.40954256674E+02 -0.25522117347E+02 -0.20578780240E+02  0.52460611984E+02  0.00000000000E+00 0.  1.
<mgrwt>
<rscale>  4 0.57247929E+03</rscale>
<asrwt>0</asrwt>
<pdfrwt beam="1">  1       21 0.89666951E-02 0.57247929E+03</pdfrwt>
<pdfrwt beam="2">  1        2 0.30331148E+00 0.57247929E+03</pdfrwt>
<totfact> 0.89220180E+03</totfact>
</mgrwt>
</event>
<event>
 5    0  0.3188794E-002  0.3773823E+03  0.7546771E-02  0.1051906E+00
         21   -1    0    0  501  502  0.00000000000E+00  0.00000000000E+00  0.77388585233E+02  0.77388585233E+02  0.00000000000E+00 0.  1.
          2   -1    0    0  503    0 -0.00000000000E+00 -0.00000000000E+00 -0.10590089138E+04  0.10590089138E+04  0.00000000000E+00 0. -1.
         25    1    1    2    0    0 -0.26923322658E+02  0.23234867063E+03 -0.28287223791E+03  0.38775310834E+03  0.12500000000E+03 0.  0.
         21    1    1    2  503  502  0.11528971148E+02 -0.39278264185E+02 -0.32618784787E+03  0.32874642403E+03  0.00000000000E+00 0. -1.
          2    1    1    2  501    0  0.15394351511E+02 -0.19307040644E+03 -0.37256024277E+03  0.41989796665E+03  0.00000000000E+00 0. -1.
<mgrwt>
<rscale>  4 0.37738229E+03</rscale>
<asrwt>0</asrwt>
<pdfrwt beam="1">  1       21 0.11905937E-01 0.37738229E+03</pdfrwt>
<pdfrwt beam="2">  1        2 0.16292444E+00 0.37738229E+03</pdfrwt>
<totfact> 0.17693853E+04</totfact>
</mgrwt>
</event>
<event>
 5    0  0.3188794E-002  0.8015383E+03  0.7546771E-02  0.9557793E-01
         21   -1    0    0  503  502  0.00000000000E+00  0.00000000000E+00  0.50430491865E+03  0.50430491865E+03  0.00000000000E+00 0. -1.
          2   -1    0    0  502    0 -0.00000000000E+00 -0.00000000000E+00 -0.21535847626E+04  0.21535847626E+04  0.00000000000E+00 0. -1.
         25    1    1    2    0    0  0.27347275255E+03  0.49011282518E+03 -0.41333205403E+02  0.57648188321E+03  0.12500000000E+03 0.  0.
         21    1    1    2  503  501  0.52584709416E+02  0.20423145984E+03  0.81401787886E+02  0.22605727576E+03  0.00000000000E+00 0.  1.
          2    1    1    2  501    0 -0.32605746197E+03 -0.69434428503E+03 -0.16893484265E+04  0.18553505223E+04  0.00000000000E+00 0. -1.
<mgrwt>
<rscale>  4 0.80153828E+03</rscale>
<asrwt>0</asrwt>
<pdfrwt beam="1">  1       21 0.77585374E-01 0.80153828E+03</pdfrwt>
<pdfrwt beam="2">  1        2 0.33132072E+00 0.80153828E+03</pdfrwt>
<totfact> 0.90419479E+01</totfact>
</mgrwt>
</event>
<event>
 5    0  0.3188794E-002  0.9153197E+03  0.7546771E-02  0.9406631E-01
          2   -1    0    0  503    0 -0.00000000000E+00  0.00000000000E+00  0.24403666913E+04  0.24403666913E+04  0.00000000000E+00 0. -1.
         21   -1    0    0  501  502  0.00000000000E+00 -0.00000000000E+00 -0.26191237898E+03  0.26191237898E+03  0.00000000000E+00 0. -1.
         25    1    1    2    0    0 -0.22168039939E+03 -0.30699303567E+03  0.19129278820E+04  0.19540483631E+04  0.12500000000E+03 0.  0.
         21    1    1    2  503  502  0.32809170911E+03  0.63686993566E+02  0.33554856670E+03  0.47359586501E+03  0.00000000000E+00 0. -1.
          2    1    1    2  501    0 -0.10641130972E+03  0.24330604210E+03 -0.70022136405E+02  0.27463484219E+03  0.00000000000E+00 0. -1.
<mgrwt>
<rscale>  4 0.91531970E+03</rscale>
<asrwt>0</asrwt>
<pdfrwt beam="1">  1       21 0.40294214E-01 0.91531970E+03</pdfrwt>
<pdfrwt beam="2">  1        2 0.37544101E+00 0.91531970E+03</pdfrwt>
<totfact> 0.25856782E+02</totfact>
</mgrwt>
</event>
<event>
 5    0  0.3188794E-002  0.4711680E+03  0.7546771E-02  0.1021591E+00
         21   -1    0    0  501  502  0.00000000000E+00  0.00000000000E+00  0.45456823002E+02  0.45456823002E+02  0.00000000000E+00 0. -1.
          2   -1    0    0  503    0 -0.00000000000E+00 -0.00000000000E+00 -0.19144191384E+04  0.19144191384E+04  0.00000000000E+00 0. -1.
         25    1    1    2    0    0  0.15258844795E+03  0.15040146285E+03 -0.12621644324E+04  0.12863078515E+04  0.12500000000E+03 0.  0.
         21    1    1    2  503  502 -0.18044573330E+03 -0.93232080757E+02 -0.55675052882E+03  0.59264157371E+03  0.00000000000E+00 0.  1.
          2    1    1    2  501    0  0.27857285348E+02 -0.57169382096E+02 -0.50047354183E+02  0.80926536173E+02  0.00000000000E+00 0. -1.
<mgrwt>
<rscale>  4 0.47116802E+03</rscale>
<asrwt>0</asrwt>
<pdfrwt beam="1">  1       21 0.69933581E-02 0.47116802E+03</pdfrwt>
<pdfrwt beam="2">  1        2 0.29452599E+00 0.47116802E+03</pdfrwt>
<totfact> 0.15130138E+04</totfact>
</mgrwt>
</event>
<event>
 5    0  0.3188794E-002  0.4647366E+03  0.7546771E-02  0.1023416E+00
         21   -1    0    0  503  502  0.00000000000E+00  0.00000000000E+00  0.41689809870E+03  0.41689809870E+03  0.00000000000E+00 0. -1.
          1   -1    0    0  502    0 -0.00000000000E+00 -0.00000000000E+00 -0.96865771527E+03  0.96865771527E+03  0.00000000000E+00 0.  1.
         25    1    1    2    0    0  0.34153340919E+03  0.37664250826E+02  0.20575901485E+03  0.41955385539E+03  0.12500000000E+03 0.  0.
         21    1    1    2  503  501 -0.33909346570E+02 -0.92533226395E+02  0.42348373807E+02  0.10726428360E+03  0.00000000000E+00 0.  1.
          1    1    1    2  501    0 -0.30762406262E+03  0.54868975569E+02 -0.79986700522E+03  0.85873767498E+03  0.00000000000E+00 0.  1.
<mgrwt>
<rscale>  4 0.46473657E+03</rscale>
<asrwt>0</asrwt>
<pdfrwt beam="1">  1       21 0.64138170E-01 0.46473657E+03</pdfrwt>
<pdfrwt beam="2">  1        1 0.14902426E+00 0.46473657E+03</pdfrwt>
<totfact> 0.37844549E+02</totfact>
</mgrwt>
</event>
<event>
 5    0  0.3188794E-002  0.7468629E+03  0.7546771E-02  0.9640285E-01
          2   -1    0    0  503    0 -0.00000000000E+00  0.00000000000E+00  0.52152955773E+03  0.52152955773E+03  0.00000000000E+00 0.  1.
         21   -1    0    0  501  502  0.00000000000E+00 -0.00000000000E+00 -0.36534769115E+03  0.36534769115E+03  0.00000000000E+00 0. -1.
         25    1    1    2    0    0 -0.37022050387E+02 -0.32976811337E+03  0.23030112284E+03  0.42282531616E+03  0.12500000000E+03 0.  0.
         21    1    1    2  503  502  0.99466318555E+02  0.34663527183E+03  0.65121433939E+01  0.36068264197E+03  0.00000000000E+00 0. -1.
          2    1    1    2  501    0 -0.62444268167E+02 -0.16867158464E+02 -0.80631399646E+02  0.10336929075E+03  0.00000000000E+00 0.  1.
<mgrwt>
<rscale>  4 0.74686290E+03</rscale>
<asrwt>0</asrwt>
<pdfrwt beam="1">  1       21 0.56207337E-01 0.74686290E+03</pdfrwt>
<pdfrwt beam="2">  1        2 0.80235316E-01 0.74686290E+03</pdfrwt>
<totfact> 0.19688310E+03</totfact>
</mgrwt>
</event>
<event>
 5    0  0.3188794E-002  0.6801482E+03  0.7546771E-02  0.9751797E-01
          3   -1    0    0  503    0 -0.00000000000E+00  0.00000000000E+00  0.10583611648E+03  0.10583611648E+03  0.00000000000E+00 0. -1.
         21   -1    0    0  501  502  0.00000000000E+00 -0.00000000000E+00 -0.13840534572E+04  0.13840534572E+04  0.00000000000E+00 0.  1.
         25    1    1    2    0    0 -0.18547590193E+03 -0.91670639772E+02 -0.96994328471E+03  0.99960981986E+03  0.12500000000E+03 0.  0.
         21    1    1    2  503  502  0.22081003272E+03  0.44094417916E+02 -0.57220426957E+02  0.23232642016E+03  0.00000000000E+00 0. -1.
          3    1    1    2  501    0 -0.35334130793E+02  0.47576221855E+02 -0.25105362907E+03  0.25795333367E+03  0.00000000000E+00 0. -1.
<mgrwt>
<rscale>  4 0.68014823E+03</rscale>
<asrwt>0</asrwt>
<pdfrwt beam="1">  1       21 0.21293130E+00 0.68014823E+03</pdfrwt>
<pdfrwt beam="2">  1        3 0.16282480E-01 0.68014823E+03</pdfrwt>
<totfact> 0.15355776E+02</totfact>
</mgrwt>
</event>
<event>
 5    0  0.3188794E-002  0.5393566E+03  0.7546771E-02  0.1003988E+00
          2   -1    0    0  503    0 -0.00000000000E+00  0.00000000000E+00  0.13956179896E+04  0.13956179896E+04  0.00000000000E+00 0. -1.
         21   -1    0    0  501  502  0.00000000000E+00 -0.00000000000E+00 -0.22905590181E+03  0.22905590181E+03  0.00000000000E+00 0. -1.
         25    1    1    2    0    0 -0.49822591671E+02  0.26802139002E+03  0.10510648819E+04  0.10930142461E+04  0.12500000000E+03 0.  0.
         21    1    1    2  503  502  0.81426723866E+01 -0.19879352152E+03  0.28285137085E+03  0.34581796556E+03  0.00000000000E+00 0.  1.
          2    1    1    2  501    0  0.41679919285E+02 -0.69227868499E+02 -0.16735416491E+03  0.18584167983E+03  0.00000000000E+00 0. -1.
<mgrwt>
<rscale>  4 0.53935662E+03</rscale>
<asrwt>0</asrwt>
<pdfrwt beam="1">  1       21 0.35239371E-01 0.53935662E+03</pdfrwt>
<pdfrwt beam="2">  1        2 0.21471045E+00 0.53935662E+03</pdfrwt>
<totfact> 0.13756702E+03</totfact>
</mgrwt>
</event>
<event>
 5    0  0.3188794E-002  0.4257772E+03  0.7546771E-02  0.1035202E+00
         21   -1    0    0  501  502  0.00000000000E+00  0.00000000000E+00  0.40500934300E+03  0.40500934300E+03  0.00000000000E+00 0.  1.
          1   -1    0    0  503    0 -0.00000000000E+00 -0.00000000000E+00 -0.24015795055E+03  0.24015795055E+03  0.00000000000E+00 0. -1.
         25    1    1    2    0    0 -0.17421357620E+03 -0.12918316409E+03 -0.63710422042E+02  0.25830733224E+03  0.12500000000E+03 0.  0.
         21    1    1    2  503  502 -0.12482822601E+02  0.12041933221E+03  0.12124632344E+03  0.17133974255E+03  0.00000000000E+00 0. -1.
          1    1    1    2  501    0  0.18669639880E+03  0.87638318711E+01  0.10731549105E+03  0.21552021876E+03  0.00000000000E+00 0. -1.
<mgrwt>
<rscale>  4 0.42577721E+03</rscale>
<asrwt>0</asrwt>
<pdfrwt beam="1">  1       21 0.62309130E-01 0.42577721E+03</pdfrwt>
<pdfrwt beam="2">  1        1 0.36947377E-01 0.42577721E+03</pdfrwt>
<totfact> 0.28532353E+03</totfact>
</mgrwt>
</event>
<event>
 5    0  0.3188794E-002  0.4245624E+03  0.7546771E-02  0.1035592E+00
          1   -1    0    0  503    0 -0.00000000000E+00  0.00000000000E+00  0.11105134667E+04  0.11105134667E+04  0.00000000000E+00 0. -1.
         21   -1    0    0  501  502  0.00000000000E+00 -0.00000000000E+00 -0.59854224038E+02  0.59854224038E+02  0.00000000000E+00 0.  1.
         25    1    1    2    0    0 -0.15925190382E+01  0.21012420175E+03  0.62496611309E+03  0.67109042519E+03  0.12500000000E+03 0.  0.
         21    1    1    2  503  502 -0.15190598589E+02 -0.17919041953E+03  0.42775892418E+03  0.46402333773E+03  0.00000000000E+00 0.  1.
          1    1    1    2  501    0  0.16783117627E+02 -0.30933782213E+02 -0.20657946080E+01  0.35253927819E+02  0.00000000000E+00 0. -1.
<mgrwt>
<rscale>  4 0.42456242E+03</rscale>
<asrwt>0</asrwt>
<pdfrwt beam="1">  1       21 0.92083429E-02 0.42456242E+03</pdfrwt>
<pdfrwt beam="2">  1        1 0.17084821E+00 0.42456242E+03</pdfrwt>
<totfact> 0.13411522E+04</totfact>
</mgrwt>
</event>
<event>
 5    0  0.3188794E-002  0.7785892E+03  0.7546771E-02  0.9591536E-01
          1   -1    0    0  503    0 -0.00000000000E+00  0.00000000000E+00  0.11100008280E+04  0.11100008280E+04  0.00000000000E+00 0.  1.
         21   -1    0    0  501  502  0.00000000000E+00 -0.00000000000E+00 -0.53162124168E+03  0.53162124168E+03  0.00000000000E+00 0.  1.
         25    1    1    2    0    0 -0.27137127260E+03  0.15573424639E+03  0.80124693680E+03  0.86920491073E+03  0.12500000000E+03 0.  0.
         21    1    1    2  503  502  0.29295633241E+03 -0.16370714286E+03  0.17184590150E+03  0.37703375868E+03  0.00000000000E+00 0. -1.
          1    1    1    2  501    0 -0.21585059809E+02  0.79728964720E+01 -0.39471325200E+03  0.39538340025E+03  0.00000000000E+00 0.  1.
<mgrwt>
<rscale>  4 0.77858920E+03</rscale>
<asrwt>0</asrwt>
<pdfrwt beam="1">  1       21 0.81787884E-01 0.77858920E+03</pdfrwt>
<pdfrwt beam="2">  1        1 0.17076936E+00 0.77858920E+03</pdfrwt>
<totfact> 0.15810948E+02</totfact>
</mgrwt>
</event>
<event>
 5    0  0.3188794E-002  0.6028218E+03  0.7546771E-02  0.9899569E-01
          1   -1    0    0  502    0 -0.00000000000E+00  0.00000000000E+00  0.10621614724E+04  0.10621614724E+04  0.00000000000E+00 0. -1.
         21   -1    0    0  503  502  0.00000000000E+00 -0.00000000000E+00 -0.33926307391E+03  0.33926307391E+03  0.00000000000E+00 0. -1.
         25    1    1    2    0    0  0.14099933329E+03  0.20240086367E+03  0.18727945473E+03  0.33398430467E+03  0.12500000000E+03 0.  0.
         21    1    1    2  503  501  0.17047959885E+03  0.27018868037E+03  0.34499506735E+03  0.47019869536E+03  0.00000000000E+00 0. -1.
          1    1    1    2  501    0 -0.31147893214E+03 -0.47258954404E+03  0.19062387637E+03  0.59724154623E+03  0.00000000000E+00 0. -1.
<mgrwt>
<rscale>  4 0.60282181E+03</rscale>
<asrwt>0</asrwt>
<pdfrwt beam="1">  1       21 0.52194320E-01 0.60282181E+03</pdfrwt>
<pdfrwt beam="2">  1        1 0.16340946E+00 0.60282181E+03</pdfrwt>
<totfact> 0.48752306E+02</totfact>
</mgrwt>
</event>
<event>
 5    0  0.3188794E-002  0.4245328E+03  0.7546771E-02  0.1035601E+00
          2   -1    0    0  503    0 -0.00000000000E+00  0.00000000000E+00  0.22455493417E+03  0.22455493417E+03  0.00000000000E+00 0. -1.
         21   -1    0    0  501  502  0.00000000000E+00 -0.00000000000E+00 -0.98523143849E+03  0.98523143849E+03  0.00000000000E+00 0. -1.
         25    1    1    2    0    0  0.24830833423E+03 -0.69775620885E+02 -0.79189271139E+02  0.29735770846E+03  0.12500000000E+03 0.  0.
         21    1    1    2  503  502 -0.93718327500E+02 -0.23516053466E+02  0.82710907738E+02  0.12718971633E+03  0.00000000000E+00 0.  1.
          2    1    1    2  501    0 -0.15459000673E+03  0.93291674351E+02 -0.76419814091E+03  0.78523894787E+03  0.00000000000E+00 0. -1.
<mgrwt>
<rscale>  4 0.42453282E+03</rscale>
<asrwt>0</asrwt>
<pdfrwt beam="1">  1       21 0.15157406E+00 0.42453282E+03</pdfrwt>
<pdfrwt beam="2">  1        2 0.34546914E-01 0.42453282E+03</pdfrwt>
<totfact> 0.48693397E+02</totfact>
</mgrwt>
</event>
<event>
 5    0  0.3188794E-002  0.7425377E+03  0.7546771E-02  0.9647131E-01
          2   -1    0    0  502    0 -0.00000000000E+00  0.00000000000E+00  0.11808468726E+04  0.11808468726E+04  0.00000000000E+00 0.  1.
         21   -1    0    0  503  502  0.00000000000E+00 -0.00000000000E+00 -0.26455897897E+03  0.26455897897E+03  0.00000000000E+00 0. -1.
         25    1    1    2    0    0 -0.21080968910E+03  0.35797872551E+03  0.67138045580E+03  0.79935361973E+03  0.12500000000E+03 0.  0.
         21    1    1    2  503  501 -0.39433089365E+02 -0.80846483913E+02 -0.10226589983E+03  0.13619631701E+03  0.00000000000E+00 0.  1.
          2    1    1    2  501    0  0.25024277846E+03 -0.27713224160E+03  0.34717333768E+03  0.50985591484E+03  0.00000000000E+00 0.  1.
<mgrwt>
<rscale>  4 0.74253775E+03</rscale>
<asrwt>0</asrwt>
<pdfrwt beam="1">  1       21 0.40701382E-01 0.74253775E+03</pdfrwt>
<pdfrwt beam="2">  1        2 0.18166875E+00 0.74253775E+03</pdfrwt>
<totfact> 0.13122317E+03</totfact>
</mgrwt>
</event>
<event>
 5    0  0.3188794E-002  0.3322776E+03  0.7546771E-02  0.1070134E+00
          2   -1    0    0  503    0 -0.00000000000E+00  0.00000000000E+00  0.57764337167E+03  0.57764337167E+03  0.00000000000E+00 0.  1.
         21   -1    0    0  501  502  0.00000000000E+00 -0.00000000000E+00 -0.16147852677E+03  0.16147852677E+03  0.00000000000E+00 0.  1.
         25    1    1    2    0    0  0.11087228406E+03  0.18955034966E+03  0.42061604541E+03  0.49067795558E+03  0.12500000000E+03 0.  0.
         21    1    1    2  503  502 -0.28720130354E+01 -0.66545978453E+02  0.41436007492E+02  0.78444620109E+02  0.00000000000E+00 0. -1.
          2    1    1    2  501    0 -0.10800027103E+03 -0.12300437121E+03 -0.45887207995E+02  0.16999932275E+03  0.00000000000E+00 0.  1.
<mgrwt>
<rscale>  4 0.33227760E+03</rscale>
<asrwt>0</asrwt>
<pdfrwt beam="1">  1       21 0.24842851E-01 0.33227760E+03</pdfrwt>
<pdfrwt beam="2">  1        2 0.88868210E-01 0.33227760E+03</pdfrwt>
<totfact> 0.98684973E+03</totfact>
</mgrwt>
</event>
<event>
 5    0  0.3188794E-002  0.4853644E+03  0.7546771E-02  0.1017671E+00
         21   -1    0    0  501  502  0.00000000000E+00  0.00000000000E+00  0.59889584842E+03  0.59889584842E+03  0.00000000000E+00 0.  1.
          2   -1    0    0  503    0 -0.00000000000E+00 -0.00000000000E+00 -0.10888102352E+03  0.10888102352E+03  0.00000000000E+00 0. -1.
         25    1    1    2    0    0 -0.21019267654E+03  0.17494028562E+02  0.30292837882E+03  0.38971477391E+03  0.12500000000E+03 0.  0.
         21    1    1    2  503  502  0.22634208811E+03 -0.30943406225E+02  0.14378594953E+03  0.26993079579E+03  0.00000000000E+00 0.  1.
          2    1    1    2  501    0 -0.16149411568E+02  0.13449377663E+02  0.43300496549E+02  0.48131302236E+02  0.00000000000E+00 0. -1.
<mgrwt>
<rscale>  4 0.48536439E+03</rscale>
<asrwt>0</asrwt>
<pdfrwt beam="1">  1       21 0.92137821E-01 0.48536439E+03</pdfrwt>
<pdfrwt beam="2">  1        2 0.16750927E-01 0.48536439E+03</pdfrwt>
<totfact> 0.38969744E+03</totfact>
</mgrwt>
</event>
<event>
 5    0  0.3188794E-002  0.7900848E+03  0.7546771E-02  0.9574481E-01
          2   -1    0    0  503    0 -0.00000000000E+00  0.00000000000E+00  0.27533496111E+04  0.27533496111E+04  0.00000000000E+00 0. -1.
         21   -1    0    0  501  502  0.00000000000E+00 -0.00000000000E+00 -0.63421641462E+02  0.63421641462E+02  0.00000000000E+00 0.  1.
         25    1    1    2    0    0 -0.88730005627E+02 -0.32023876883E+03  0.19262398951E+04  0.19586860434E+04  0.12500000000E+03 0.  0.
         21    1    1    2  503  502  0.10928763762E+03  0.34047658615E+03  0.73516171222E+03  0.81751503751E+03  0.00000000000E+00 0.  1.
          2    1    1    2  501    0 -0.20557631993E+02 -0.20237817324E+02  0.28526362288E+02  0.40570171660E+02  0.00000000000E+00 0. -1.
<mgrwt>
<rscale>  4 0.79008476E+03</rscale>
<asrwt>0</asrwt>
<pdfrwt beam="1">  1       21 0.97571777E-02 0.79008476E+03</pdfrwt>
<pdfrwt beam="2">  1        2 0.42359216E+00 0.79008476E+03</pdfrwt>
<totfact> 0.27069831E+03</totfact>
</mgrwt>
</event>
<event>
 5    0  0.3188794E-002  0.9064168E+03  0.7546771E-02  0.9417595E-01
         21   -1    0    0  501  502  0.00000000000E+00  0.00000000000E+00  0.65003128454E+03  0.65003128454E+03  0.00000000000E+00 0. -1.
          2   -1    0    0  503    0 -0.00000000000E+00 -0.00000000000E+00 -0.12179522386E+04  0.12179522386E+04  0.00000000000E+00 0. -1.
         25    1    1    2    0    0  0.23364558930E+03  0.17041903162E+02  0.58392323888E+02  0.27187377835E+03  0.12500000000E+03 0.  0.
         21    1    1    2  503  502 -0.10087558001E+03 -0.11922547274E+03 -0.10910112043E+04  0.11021324983E+04  0.00000000000E+00 0. -1.
          2    1    1    2  501    0 -0.13277000929E+03  0.10218356958E+03  0.46469792635E+03  0.49397724645E+03  0.00000000000E+00 0. -1.
<mgrwt>
<rscale>  4 0.90641684E+03</rscale>
<asrwt>0</asrwt>
<pdfrwt beam="1">  1       21 0.10000481E+00 0.90641684E+03</pdfrwt>
<pdfrwt beam="2">  1        2 0.18737727E+00 0.90641684E+03</pdfrwt>
<totfact> 0.16021011E+02</totfact>
</mgrwt>
</event>
<event>
 5    0  0.3188794E-002  0.3493071E+03  0.7546771E-02  0.1062900E+00
          1   -1    0    0  503    0 -0.00000000000E+00  0.00000000000E+00  0.19001194013E+04  0.19001194013E+04  0.00000000000E+00 0.  1.
         21   -1    0    0  501  502  0.00000000000E+00 -0.00000000000E+00 -0.66645749740E+02  0.66645749740E+02  0.00000000000E+00 0.  1.
         25    1    1    2    0    0 -0.16466382908E+03 -0.13866254927E+03  0.38331259432E+03  0.45705035187E+03  0.12500000000E+03 0.  0.
         21    1    1    2  503  502 -0.82755026829E+02 -0.50415131636E+02  0.21367781653E+03  0.23462371841E+03  0.00000000000E+00 0. -1.
          1    1    1    2  501    0  0.24741885591E+03  0.18907768091E+03  0.12364832407E+04  0.12750910807E+04  0.00000000000E+00 0.  1.
<mgrwt>
<rscale>  4 0.34930713E+03</rscale>
<asrwt>0</asrwt>
<pdfrwt beam="1">  1       21 0.10253194E-01 0.34930713E+03</pdfrwt>
<pdfrwt beam="2">  1        1 0.29232602E+00 0.34930713E+03</pdfrwt>
<totfact> 0.32752702E+03</totfact>
</mgrwt>
</event>
<event>
 5    0  0.3188794E-002  0.7079533E+03  0.7546771E-02  0.9703727E-01
          1   -1    0    0  503    0 -0.00000000000E+00  0.00000000000E+00  0.44830650071E+03  0.44830650071E+03  0.00000000000E+00 0. -1.
         21   -1    0    0  501  502  0.00000000000E+00 -0.00000000000E+00 -0.37632293030E+03  0.37632293030E+03  0.00000000000E+00 0.  1.
         25    1    1    2    0    0 -0.26338629865E+03  0.98782500075E+02 -0.82235631777E+02  0.31861893191E+03  0.12500000000E+03 0.  0.
         21    1    1    2  503  502  0.28825684078E+03 -0.20149792361E+03  0.18302176096E+03  0.39647242585E+03  0.00000000000E+00 0. -1.
          1    1    1    2  501    0 -0.24870542127E+02  0.10271542354E+03 -0.28802558774E+02  0.10953807324E+03  0.00000000000E+00 0. -1.
<mgrwt>
<rscale>  4 0.70795325E+03</rscale>
<asrwt>0</asrwt>
<pdfrwt beam="1">  1       21 0.57895836E-01 0.70795325E+03</pdfrwt>
<pdfrwt beam="2">  1        1 0.68970231E-01 0.70795325E+03</pdfrwt>
<totfact> 0.14306989E+03</totfact>
</mgrwt>
</event>
<event>
 5    0  0.3188794E-002  0.6030077E+03  0.7546771E-02  0.9899186E-01
          1   -1    0    0  503    0 -0.00000000000E+00  0.00000000000E+00  0.30800277826E+03  0.30800277826E+03  0.00000000000E+00 0.  1.
         21   -1    0    0  501  502  0.00000000000E+00 -0.00000000000E+00 -0.88226533019E+03  0.88226533019E+03  0.00000000000E+00 0. -1.
         25    1    1    2    0    0  0.34017363589E+02 -0.25225503982E+03 -0.92892004920E+02  0.29840192814E+03  0.12500000000E+03 0.  0.
         21    1    1    2  503  502 -0.46134384390E+02  0.28236581714E+03  0.10487304082E+03  0.30472477878E+03  0.00000000000E+00 0. -1.
          1    1    1    2  501    0  0.12117020801E+02 -0.30110777321E+02 -0.58624358784E+03  0.58714140153E+03  0.00000000000E+00 0.  1.
<mgrwt>
<rscale>  4 0.60300769E+03</rscale>
<asrwt>0</asrwt>
<pdfrwt beam="1">  1       21 0.13573313E+00 0.60300769E+03</pdfrwt>
<pdfrwt beam="2">  1        1 0.47385043E-01 0.60300769E+03</pdfrwt>
<totfact> 0.30908961E+02</totfact>
</mgrwt>
</event>
<event>
 5    0  0.3188794E-002  0.4324804E+03  0.7546771E-02  0.1033079E+00
         21   -1    0    0  501  502  0.00000000000E+00  0.00000000000E+00  0.95320244993E+03  0.95320244993E+03  0.00000000000E+00 0. -1.
          2   -1    0    0  503    0 -0.00000000000E+00 -0.00000000000E+00 -0.11908160790E+03  0.11908160790E+03  0.00000000000E+00 0.  1.
         25    1    1    2    0    0 -0.19602761500E+03  0.14186454291E+03  0.44119617083E+03  0.51848957129E+03  0.12500000000E+03 0.  0.
         21    1    1    2  503  502  0.98578976123E+01 -0.46454179283E+02 -0.46906397706E+02  0.66748625933E+02  0.00000000000E+00 0.  1.
          2    1    1    2  501    0  0.18616971739E+03 -0.95410363627E+02  0.43983106891E+03  0.48704586061E+03  0.00000000000E+00 0.  1.
<mgrwt>
<rscale>  4 0.43248043E+03</rscale>
<asrwt>0</asrwt>
<pdfrwt beam="1">  1       21 0.14664653E+00 0.43248043E+03</pdfrwt>
<pdfrwt beam="2">  1        2 0.18320248E-01 0.43248043E+03</pdfrwt>
<totfact> 0.10937987E+03</totfact>
</mgrwt>
</event>
<event>
 5    0  0.3188794E-002  0.7842331E+03  0.7546771E-02  0.9583124E-01
         21   -1    0    0  503  502  0.00000000000E+00  0.00000000000E+00  0.39254116058E+03  0.39254116058E+03  0.00000000000E+00 0.  1.
          2   -1    0    0  502    0 -0.00000000000E+00 -0.00000000000E+00 -0.70565056076E+03  0.70565056076E+03  0.00000000000E+00 0. -1.
         25    1    1    2    0    0 -0.13863501500E+03 -0.29131653299E+03 -0.51669380518E+03  0.62183798379E+03  0.12500000000E+03 0.  0.
         21    1    1    2  503  501  0.91718241044E+02  0.43421034747E+02  0.19972720552E+03  0.22402807553E+03  0.00000000000E+00 0. -1.
          2    1    1    2  501    0  0.46916773952E+02  0.24789549824E+03  0.38571994766E+01  0.25232566202E+03  0.00000000000E+00 0. -1.
<mgrwt>
<rscale>  4 0.78423311E+03</rscale>
<asrwt>0</asrwt>
<pdfrwt beam="1">  1       21 0.60390948E-01 0.78423311E+03</pdfrwt>
<pdfrwt beam="2">  1        2 0.10856162E+00 0.78423311E+03</pdfrwt>
<totfact> 0.11589163E+03</totfact>
</mgrwt>
</event>
<event>
 5    0  0.3188794E-002  0.4426547E+03  0.7546771E-02  0.1029935E+00
         -1   -1    0    0    0  501 -0.00000000000E+00  0.00000000000E+00  0.24567472356E+03  0.24567472356E+03  0.00000000000E+00 0. -1.
         21   -1    0    0  501  502  0.00000000000E+00 -0.00000000000E+00 -0.28004259168E+03  0.28004259168E+03  0.00000000000E+00 0.  1.
         25    1    1    2    0    0 -0.12826977254E+03 -0.16861081402E+03  0.70029785533E+02  0.25575752582E+03  0.12500000000E+03 0.  0.
         21    1    1    2  503  502  0.90329661270E+02  0.16218401392E+03 -0.32575751514E+02  0.18847886264E+03  0.00000000000E+00 0. -1.
         -1    1    1    2    0  503  0.37940111270E+02  0.64268001020E+01 -0.71821902137E+02  0.81480926783E+02  0.00000000000E+00 0. -1.
<mgrwt>
<rscale>  4 0.44265468E+03</rscale>
<asrwt>0</asrwt>
<pdfrwt beam="1">  1       21 0.43083475E-01 0.44265468E+03</pdfrwt>
<pdfrwt beam="2">  1       -1 0.37796111E-01 0.44265468E+03</pdfrwt>
<totfact> 0.31017786E+03</totfact>
</mgrwt>
</event>
<event>
 5    0  0.3188794E-002  0.4698929E+03  0.7546771E-02  0.1021950E+00
         21   -1    0    0  501  502  0.00000000000E+00  0.00000000000E+00  0.11642793801E+03  0.11642793801E+03  0.00000000000E+00 0. -1.
          2   -1    0    0  503    0 -0.00000000000E+00 -0.00000000000E+00 -0.87837673209E+03  0.87837673209E+03  0.00000000000E+00 0.  1.
         25    1    1    2    0    0  0.64611076610E+02 -0.28638695989E+03 -0.33220661405E+03  0.46062817590E+03  0.12500000000E+03 0.  0.
         21    1    1    2  503  502 -0.66844430040E+02  0.11997548923E+03 -0.27280370949E+03  0.30542455657E+03  0.00000000000E+00 0.  1.
          2    1    1    2  501    0  0.22333534295E+01  0.16641147066E+03 -0.15693847055E+03  0.22875193763E+03  0.00000000000E+00 0.  1.
<mgrwt>
<rscale>  4 0.46989286E+03</rscale>
<asrwt>0</asrwt>
<pdfrwt beam="1">  1       21 0.17911990E-01 0.46989286E+03</pdfrwt>
<pdfrwt beam="2">  1        2 0.13513489E+00 0.46989286E+03</pdfrwt>
<totfact> 0.10699974E+04</totfact>
</mgrwt>
</event>
<event>
 5    0  0.3188794E-002  0.8645060E+03  0.7546771E-02  0.9471072E-01
          2   -1    0    0  503    0 -0.00000000000E+00  0.00000000000E+00  0.16817347201E+04  0.16817347201E+04  0.00000000000E+00 0.  1.
         21   -1    0    0  501  502  0.00000000000E+00 -0.00000000000E+00 -0.23567369721E+03  0.23567369721E+03  0.00000000000E+00 0.  1.
         25    1    1    2    0    0 -0.40470593200E+03 -0.21851746107E+03  0.11178079946E+04  0.12151775528E+04  0.12500000000E+03 0.  0.
         21    1    1    2  503  502  0.34055523565E+03  0.84231311077E+02  0.40414985165E+03  0.53517276171E+03  0.00000000000E+00 0. -1.
          2    1    1    2  501    0  0.64150696350E+02  0.13428615000E+03 -0.75896823297E+02  0.16705810279E+03  0.00000000000E+00 0.  1.
<mgrwt>
<rscale>  4 0.86450595E+03</rscale>
<asrwt>0</asrwt>
<pdfrwt beam="1">  1       21 0.36257493E-01 0.86450595E+03</pdfrwt>
<pdfrwt beam="2">  1        2 0.25872841E+00 0.86450595E+03</pdfrwt>
<totfact> 0.85227443E+02</totfact>
</mgrwt>
</event>
<event>
 5    0  0.3188794E-002  0.9641515E+03  0.7546771E-02  0.9348761E-01
         21   -1    0    0  503  502  0.00000000000E+00  0.00000000000E+00  0.16468682302E+04  0.16468682302E+04  0.00000000000E+00 0.  1.
          1   -1    0    0  502    0 -0.00000000000E+00 -0.00000000000E+00 -0.88901882207E+03  0.88901882207E+03  0.00000000000E+00 0. -1.
         25    1    1    2    0    0  0.36921420923E+03 -0.73122638142E+03  0.11262478924E+04  0.13982383446E+04  0.12500000000E+03 0.  0.
         21    1    1    2  503  501 -0.53673755701E+02 -0.10701653955E+03  0.71855589284E+02  0.13963036023E+03  0.00000000000E+00 0. -1.
          1    1    1    2  501    0 -0.31554045353E+03  0.83824292096E+03 -0.44025407361E+03  0.99801834737E+03  0.00000000000E+00 0. -1.
<mgrwt>
<rscale>  4 0.96415154E+03</rscale>
<asrwt>0</asrwt>
<pdfrwt beam="1">  1       21 0.25336434E+00 0.96415154E+03</pdfrwt>
<pdfrwt beam="2">  1        1 0.13677213E+00 0.96415154E+03</pdfrwt>
<totfact> 0.92877651E+00</totfact>
</mgrwt>
</event>
<event>
 5    0  0.3188794E-002  0.5486849E+03  0.7546771E-02  0.1001799E+00
         21   -1    0    0  501  502  0.00000000000E+00  0.00000000000E+00  0.59818767033E+02  0.59818767033E+02  0.00000000000E+00 0.  1.
          2   -1    0    0  503    0 -0.00000000000E+00 -0.00000000000E+00 -0.14327474426E+04  0.14327474426E+04  0.00000000000E+00 0. -1.
         25    1    1    2    0    0 -0.14901645533E+03 -0.18897520520E+03 -0.64911327640E+03  0.70348459667E+03  0.12500000000E+03 0.  0.
         21    1    1    2  503  502  0.16964557953E+03  0.21947829745E+03 -0.63719480032E+03  0.69495867449E+03  0.00000000000E+00 0.  1.
          2    1    1    2  501    0 -0.20629124194E+02 -0.30503092248E+02 -0.86620598815E+02  0.94122938441E+02  0.00000000000E+00 0. -1.
<mgrwt>
<rscale>  4 0.54868490E+03</rscale>
<asrwt>0</asrwt>
<pdfrwt beam="1">  1       21 0.92028886E-02 0.54868490E+03</pdfrwt>
<pdfrwt beam="2">  1        2 0.22042265E+00 0.54868490E+03</pdfrwt>
<totfact> 0.16775399E+04</totfact>
</mgrwt>
</event>
<event>
 5    0  0.3188794E-002  0.3829197E+03  0.7546771E-02  0.1049860E+00
          2   -1    0    0  503    0 -0.00000000000E+00  0.00000000000E+00  0.89904329959E+03  0.89904329959E+03  0.00000000000E+00 0. -1.
         21   -1    0    0  501  502  0.00000000000E+00 -0.00000000000E+00 -0.15929356488E+03  0.15929356488E+03  0.00000000000E+00 0. -1.
         25    1    1    2    0    0  0.24745868647E+03 -0.59193493025E+02  0.51259439705E+03  0.58576248344E+03  0.12500000000E+03 0.  0.
         21    1    1    2  503  502  0.40335679356E+02  0.89217183165E+02  0.13912313570E+03  0.17012324853E+03  0.00000000000E+00 0. -1.
          2    1    1    2  501    0 -0.28779436582E+03 -0.30023690140E+02  0.88032201954E+02  0.30245113250E+03  0.00000000000E+00 0. -1.
<mgrwt>
<rscale>  4 0.38291970E+03</rscale>
<asrwt>0</asrwt>
<pdfrwt beam="1">  1       21 0.24506703E-01 0.38291970E+03</pdfrwt>
<pdfrwt beam="2">  1        2 0.13831435E+00 0.38291970E+03</pdfrwt>
<totfact> 0.57753716E+03</totfact>
</mgrwt>
</event>
<event>
 5    0  0.3188794E-002  0.7274068E+03  0.7546771E-02  0.9671478E-01
         -1   -1    0    0    0  501 -0.00000000000E+00  0.00000000000E+00  0.14967008703E+04  0.14967008703E+04  0.00000000000E+00 0. -1.
         21   -1    0    0  503  502  0.00000000000E+00 -0.00000000000E+00 -0.17697173919E+03  0.17697173919E+03  0.00000000000E+00 0.  1.
         25    1    1    2    0    0 -0.15879696705E+02  0.37945179024E+03  0.46481359042E+03  0.61311703591E+03  0.12500000000E+03 0.  0.
         21    1    1    2  503  501 -0.22669326503E+03 -0.23505800094E+03  0.32835897627E+03  0.46310011608E+03  0.00000000000E+00 0.  1.
         -1    1    1    2    0  502  0.24257296174E+03 -0.14439378930E+03  0.52655656441E+03  0.59745545748E+03  0.00000000000E+00 0. -1.
<mgrwt>
<rscale>  4 0.72740679E+03</rscale>
<asrwt>0</asrwt>
<pdfrwt beam="1">  1       21 0.27226422E-01 0.72740679E+03</pdfrwt>
<pdfrwt beam="2">  1       -1 0.23026166E+00 0.72740679E+03</pdfrwt>
<totfact> 0.11020794E+02</totfact>
</mgrwt>
</event>
<event>
 5    0  0.3188794E-002  0.1432080E+04  0.7546771E-02  0.8930919E-01
          2   -1    0    0  503    0 -0.00000000000E+00  0.00000000000E+00  0.20716426031E+04  0.20716426031E+04  0.00000000000E+00 0.  1.
         21   -1    0    0  501  502  0.00000000000E+00 -0.00000000000E+00 -0.32587195939E+03  0.32587195939E+03  0.00000000000E+00 0. -1.
         25    1    1    2    0    0 -0.61546339933E+03  0.11796607165E+03  0.14858463253E+04  0.16174286668E+04  0.12500000000E+03 0.  0.
         21    1    1    2  503  502  0.60416688676E+03 -0.33120527132E+02  0.31109350225E+03  0.68036296453E+03  0.00000000000E+00 0. -1.
          2    1    1    2  501    0  0.11296512577E+02 -0.84845544515E+02 -0.51169183810E+02  0.99722931125E+02  0.00000000000E+00 0.  1.
<mgrwt>
<rscale>  4 0.14320802E+04</rscale>
<asrwt>0</asrwt>
<pdfrwt beam="1">  1       21 0.50134149E-01 0.14320802E+04</pdfrwt>
<pdfrwt beam="2">  1        2 0.31871424E+00 0.14320802E+04</pdfrwt>
<totfact> 0.24393938E+02</totfact>
</mgrwt>
</event>
<event>
 5    0  0.3188794E-002  0.3275696E+03  0.7546771E-02  0.1072217E+00
         21   -1    0    0  503  502  0.00000000000E+00  0.00000000000E+00  0.53101505266E+02  0.53101505266E+02  0.00000000000E+00 0. -1.
          1   -1    0    0  502    0 -0.00000000000E+00 -0.00000000000E+00 -0.24117575871E+04  0.24117575871E+04  0.00000000000E+00 0.  1.
         25    1    1    2    0    0  0.17902341684E+03 -0.14324041331E+03 -0.35707546181E+03  0.44237437224E+03  0.12500000000E+03 0.  0.
         21    1    1    2  503  501 -0.44720421320E+02  0.43059000745E+02 -0.13721541036E+03  0.15060565218E+03  0.00000000000E+00 0.  1.
          1    1    1    2  501    0 -0.13430299552E+03  0.10018141257E+03 -0.18643652097E+04  0.18718790680E+04  0.00000000000E+00 0.  1.
<mgrwt>
<rscale>  4 0.32756960E+03</rscale>
<asrwt>0</asrwt>
<pdfrwt beam="1">  1       21 0.81694630E-02 0.32756960E+03</pdfrwt>
<pdfrwt beam="2">  1        1 0.37103960E+00 0.32756960E+03</pdfrwt>
<totfact> 0.22764667E+03</totfact>
</mgrwt>
</event>
<event>
 5    0  0.3188794E-002  0.3857416E+03  0.7546771E-02  0.1048832E+00
         21   -1    0    0  501  502  0.00000000000E+00  0.00000000000E+00  0.29760469982E+02  0.29760469982E+02  0.00000000000E+00 0. -1.
          2   -1    0    0  503    0 -0.00000000000E+00 -0.00000000000E+00 -0.23748270229E+04  0.23748270229E+04  0.00000000000E+00 0. -1.
         25    1    1    2    0    0  0.20072951172E+03 -0.35983256113E+02 -0.90126786035E+03  0.93246763359E+03  0.12500000000E+03 0.  0.
         21    1    1    2  503  502 -0.76335976958E+02  0.10238910860E+03 -0.95122669810E+03  0.95976191950E+03  0.00000000000E+00 0. -1.
          2    1    1    2  501    0 -0.12439353476E+03 -0.66405852491E+02 -0.49257199450E+03  0.51235793983E+03  0.00000000000E+00 0. -1.
<mgrwt>
<rscale>  4 0.38574161E+03</rscale>
<asrwt>0</asrwt>
<pdfrwt beam="1">  1       21 0.45785349E-02 0.38574161E+03</pdfrwt>
<pdfrwt beam="2">  1        2 0.36535792E+00 0.38574161E+03</pdfrwt>
<totfact> 0.18084723E+04</totfact>
</mgrwt>
</event>
<event>
 5    0  0.3188794E-002  0.4328096E+03  0.7546771E-02  0.1032976E+00
          1   -1    0    0  502    0 -0.00000000000E+00  0.00000000000E+00  0.40616503225E+03  0.40616503225E+03  0.00000000000E+00 0.  1.
         21   -1    0    0  503  502  0.00000000000E+00 -0.00000000000E+00 -0.27602504662E+03  0.27602504662E+03  0.00000000000E+00 0. -1.
         25    1    1    2    0    0  0.14325477225E+03 -0.14369317260E+03 -0.89226783177E+02  0.25447215262E+03  0.12500000000E+03 0.  0.
         21    1    1    2  503  501  0.81376750328E+02  0.79867033834E+02  0.14113563515E+03  0.18143920771E+03  0.00000000000E+00 0.  1.
          1    1    1    2  501    0 -0.22463152258E+03  0.63826138765E+02  0.78231133659E+02  0.24627871853E+03  0.00000000000E+00 0.  1.
<mgrwt>
<rscale>  4 0.43280964E+03</rscale>
<asrwt>0</asrwt>
<pdfrwt beam="1">  1       21 0.42465392E-01 0.43280964E+03</pdfrwt>
<pdfrwt beam="2">  1        1 0.62486928E-01 0.43280964E+03</pdfrwt>
<totfact> 0.32894434E+03</totfact>
</mgrwt>
</event>
<event>
 5    0  0.3188794E-002  0.3112559E+03  0.7546771E-02  0.1079745E+00
          2   -1    0    0  503    0 -0.00000000000E+00  0.00000000000E+00  0.14331297975E+04  0.14331297975E+04  0.00000000000E+00 0.  1.
         21   -1    0    0  501  502  0.00000000000E+00 -0.00000000000E+00 -0.49125905421E+02  0.49125905421E+02  0.00000000000E+00 0. -1.
         25    1    1    2    0    0 -0.12491267970E+03 -0.17364421656E+03  0.90727482080E+03  0.94049353637E+03  0.12500000000E+03 0.  0.
         21    1    1    2  503  502 -0.24293327973E+02  0.56933778780E+02  0.17366183605E+03  0.18436391797E+03  0.00000000000E+00 0.  1.
          2    1    1    2  501    0  0.14920600767E+03  0.11671043778E+03  0.30306723519E+03  0.35739824854E+03  0.00000000000E+00 0.  1.
<mgrwt>
<rscale>  4 0.31125590E+03</rscale>
<asrwt>0</asrwt>
<pdfrwt beam="1">  1       21 0.75578327E-02 0.31125590E+03</pdfrwt>
<pdfrwt beam="2">  1        2 0.22048148E+00 0.31125590E+03</pdfrwt>
<totfact> 0.24595065E+04</totfact>
</mgrwt>
</event>
<event>
 5    0  0.3188794E-002  0.3714812E+03  0.7546771E-02  0.1054128E+00
         21   -1    0    0  501  502  0.00000000000E+00  0.00000000000E+00  0.34473518117E+03  0.34473518117E+03  0.00000000000E+00 0.  1.
          1   -1    0    0  503    0 -0.00000000000E+00 -0.00000000000E+00 -0.10423134670E+04  0.10423134670E+04  0.00000000000E+00 0.  1.
         25    1    1    2    0    0  0.20698781455E+03  0.11596094001E+03 -0.50051593241E+03  0.56783104316E+03  0.12500000000E+03 0.  0.
         21    1    1    2  503  502  0.13055415970E+02 -0.38621655793E+02 -0.46339958881E+03  0.46518948300E+03  0.00000000000E+00 0.  1.
          1    1    1    2  501    0 -0.22004323052E+03 -0.77339284221E+02  0.26633723542E+03  0.35402812198E+03  0.00000000000E+00 0.  1.
<mgrwt>
<rscale>  4 0.37148119E+03</rscale>
<asrwt>0</asrwt>
<pdfrwt beam="1">  1       21 0.53036181E-01 0.37148119E+03</pdfrwt>
<pdfrwt beam="2">  1        1 0.16035592E+00 0.37148119E+03</pdfrwt>
<totfact> 0.51787822E+02</totfact>
</mgrwt>
</event>
