<event>
 5    0  0.1911311E+001  0.7235443E+03  0.7546771E-02  0.9677794E-01
         21   -1    0    0  502  501  0.00000000000E+00  0.00000000000E+00  0.45757191305E+03  0.45757191305E+03  0.00000000000E+00 0.  1.
         21   -1    0    0  504  502 -0.00000000000E+00 -0.00000000000E+00 -0.20362944154E+04  0.20362944154E+04  0.00000000000E+00 0.  1.
         25    1    1    2    0    0  0.62960948661E+03  0.34607912611E+03 -0.11145683444E+04  0.13319408626E+04  0.12500000000E+03 0.  0.
         21    1    1    2  503  501 -0.56253735201E+03 -0.43811777807E+03 -0.30612545452E+02  0.71367540788E+03  0.00000000000E+00 0.  1.
         21    1    1    2  504  503 -0.67072134597E+02  0.92038651956E+02 -0.43354161245E+03  0.44825005791E+03  0.00000000000E+00 0.  1.
<mgrwt>
<rscale>  4 0.72354431E+03</rscale>
<asrwt>0</asrwt>
<pdfrwt beam="1">  1       21 0.70395681E-01 0.72354431E+03</pdfrwt>
<pdfrwt beam="2">  1       21 0.31327606E+00 0.72354431E+03</pdfrwt>
<totfact> 0.34173811E+01</totfact>
</mgrwt>
</event>
<event>
 5    0  0.1911311E+001  0.2479814E+03  0.7546771E-02  0.1114587E+00
         21   -1    0    0  504  501  0.00000000000E+00  0.00000000000E+00  0.43952495088E+02  0.43952495088E+02  0.00000000000E+00 0. -1.
         21   -1    0    0  501  502 -0.00000000000E+00 -0.00000000000E+00 -0.19104191440E+04  0.19104191440E+04  0.00000000000E+00 0.  1.
         25    1    1    2    0    0  0.21243477395E+03 -0.65665190972E+02 -0.14318051073E+04  0.14543491038E+04  0.12500000000E+03 0.  0.
         21    1    1    2  503  502 -0.19348551058E+03  0.25258529607E+02 -0.29749249250E+03  0.35577579909E+03  0.00000000000E+00 0. -1.
         21    1    1    2  504  503 -0.18949263373E+02  0.40406661365E+02 -0.13716904912E+03  0.14424673619E+03  0.00000000000E+00 0.  1.
<mgrwt>
<rscale>  4 0.24798137E+03</rscale>
<asrwt>0</asrwt>
<pdfrwt beam="1">  1       21 0.67619236E-02 0.24798137E+03</pdfrwt>
<pdfrwt beam="2">  1       21 0.29391058E+00 0.24798137E+03</pdfrwt>
<totfact> 0.56210880E+03</totfact>
</mgrwt>
</event>
<event>
 5    0  0.2204422E+001  0.3600928E+03  0.7546771E-02  0.1058547E+00
         21   -1    0    0  504  501  0.00000000000E+00  0.00000000000E+00  0.24009674330E+03  0.24009674330E+03  0.00000000000E+00 0.  1.
         21   -1    0    0  503  502 -0.00000000000E+00 -0.00000000000E+00 -0.66016659587E+03  0.66016659587E+03  0.00000000000E+00 0.  1.
         25    1    1    2    0    0  0.15305933581E+03  0.30441215485E+03 -0.24304322836E+03  0.43679392298E+03  0.12500000000E+03 0.  0.
         21    1    1    2  503  501 -0.96293414995E+02 -0.32332436166E+03 -0.20776340588E+03  0.39620284885E+03  0.00000000000E+00 0.  1.
         21    1    1    2  504  502 -0.56765920818E+02  0.18912206805E+02  0.30736781675E+02  0.67266567329E+02  0.00000000000E+00 0. -1.
<mgrwt>
<rscale>  4 0.36009276E+03</rscale>
<asrwt>0</asrwt>
<pdfrwt beam="1">  1       21 0.36937961E-01 0.36009276E+03</pdfrwt>
<pdfrwt beam="2">  1       21 0.10156409E+00 0.36009276E+03</pdfrwt>
<totfact> 0.50772195E+03</totfact>
</mgrwt>
</event>
<event>
 5    0  0.1911311E+001  0.2630595E+03  0.7546771E-02  0.1105319E+00
         21   -1    0    0  504  501  0.00000000000E+00  0.00000000000E+00  0.18105111933E+03  0.18105111933E+03  0.00000000000E+00 0. -1.
         21   -1    0    0  503  502 -0.00000000000E+00 -0.00000000000E+00 -0.56414718562E+03  0.56414718562E+03  0.00000000000E+00 0. -1.
         25    1    1    2    0    0  0.21149105905E+03  0.36404242027E+02 -0.39117149628E+03  0.46335070562E+03  0.12500000000E+03 0.  0.
         21    1    1    2  503  501  0.23544234206E+02 -0.19759689107E+02 -0.30251471722E+02  0.43126880473E+02  0.00000000000E+00 0. -1.
         21    1    1    2  504  502 -0.23503529326E+03 -0.16644552920E+02  0.38326901713E+02  0.23872071886E+03  0.00000000000E+00 0. -1.
<mgrwt>
<rscale>  4 0.26305947E+03</rscale>
<asrwt>0</asrwt>
<pdfrwt beam="1">  1       21 0.27854019E-01 0.26305947E+03</pdfrwt>
<pdfrwt beam="2">  1       21 0.86791874E-01 0.26305947E+03</pdfrwt>
<totfact> 0.13494462E+04</totfact>
</mgrwt>
</event>
<event>
 5    0  0.1911311E+001  0.2547407E+03  0.7546771E-02  0.1110345E+00
         21   -1    0    0  503  501  0.00000000000E+00  0.00000000000E+00  0.10716062326E+04  0.10716062326E+04  0.00000000000E+00 0.  1.
         21   -1    0    0  504  502 -0.00000000000E+00 -0.00000000000E+00 -0.82436109125E+02  0.82436109125E+02  0.00000000000E+00 0.  1.
         25    1    1    2    0    0  0.93610423123E+02  0.21698412321E+03  0.67281187943E+03  0.72397917522E+03  0.12500000000E+03 0.  0.
         21    1    1    2  503  502 -0.10150998656E+03 -0.19265647189E+03  0.15648644548E+03  0.26815816444E+03  0.00000000000E+00 0.  1.
         21    1    1    2  504  501  0.78995634385E+01 -0.24327651313E+02  0.15987179857E+03  0.16190500208E+03  0.00000000000E+00 0.  1.
<mgrwt>
<rscale>  4 0.25474071E+03</rscale>
<asrwt>0</asrwt>
<pdfrwt beam="1">  1       21 0.16486249E+00 0.25474071E+03</pdfrwt>
<pdfrwt beam="2">  1       21 0.12682479E-01 0.25474071E+03</pdfrwt>
<totfact> 0.11824747E+04</totfact>
</mgrwt>
</event>
<event>
 5    0  0.1911311E+001  0.2548510E+03  0.7546771E-02  0.1110277E+00
         21   -1    0    0  502  501  0.00000000000E+00  0.00000000000E+00  0.17508413154E+04  0.17508413154E+04  0.00000000000E+00 0. -1.
         21   -1    0    0  504  502 -0.00000000000E+00 -0.00000000000E+00 -0.40628630554E+02  0.40628630554E+02  0.00000000000E+00 0. -1.
         25    1    1    2    0    0  0.13751361685E+03 -0.17439620232E+03  0.52273085081E+03  0.58154670715E+03  0.12500000000E+03 0.  0.
         21    1    1    2  503  501 -0.57031895194E+02  0.10838890622E+03  0.76891561277E+03  0.77860902359E+03  0.00000000000E+00 0. -1.
         21    1    1    2  504  503 -0.80481721661E+02  0.66007296100E+02  0.41856622128E+03  0.43131421523E+03  0.00000000000E+00 0. -1.
<mgrwt>
<rscale>  4 0.25485100E+03</rscale>
<asrwt>0</asrwt>
<pdfrwt beam="1">  1       21 0.26936014E+00 0.25485100E+03</pdfrwt>
<pdfrwt beam="2">  1       21 0.62505599E-02 0.25485100E+03</pdfrwt>
<totfact> 0.89161927E+03</totfact>
</mgrwt>
</event>
