<LesHouchesEvents version="3.0">
  <!--
  <scalesfunctionalform>
    muR  H_T/2 := sum_i mT(i)/2, i=final state
    muF1 H_T/2 := sum_i mT(i)/2, i=final state
    muF2 H_T/2 := sum_i mT(i)/2, i=final state
    QES  H_T/2 := sum_i mT(i)/2, i=final state
  </scalesfunctionalform>
HERWIG6   
  -->
  <header>
      159
  </header>
  <init>
   2212   2212 0.65000000D+04 0.65000000D+04 -1 -1   247000   247000 -3   1
 0.31795503D-01 0.53907260D-03 0.43779995D-03     66
  </init>
  <event>
  6     66 0.43779995E-03 0.28307754E+03 0.75467711E-02 0.98497839E-01
        2 -1    0    0  502    0 0.00000000E+00 0.00000000E+00 0.14576464E+04 0.14576464E+04 0.32000000E+00 0.0000E+00 0.9000E+01
       21 -1    0    0  503  502 0.00000000E+00 0.00000000E+00 -.12817894E+04 0.12817896E+04 0.75000000E+00 0.0000E+00 0.9000E+01
       25  1    1    2    0    0 -.31166813E+03 -.57030630E+02 0.49705774E+03 0.60256196E+03 0.12500000E+03 0.0000E+00 0.9000E+01
       24  1    1    2    0    0 0.94403873E+01 -.54516559E+02 0.33480936E+02 0.10319576E+03 0.80419002E+02 0.0000E+00 0.9000E+01
        1  1    1    2  501    0 -.19211482E+03 0.23879193E+03 0.75357536E+03 0.81351436E+03 0.32000000E+00 0.0000E+00 0.9000E+01
       21  1    1    2  503  501 0.49434256E+03 -.12724474E+03 -.11082571E+04 0.12201640E+04 0.75000000E+00 0.0000E+00 0.9000E+01
#aMCatNLO 2  0  0  2  5 0.61086818D+02 0.00000000D+00  -5  6  0 0.00000000D+00 0.00000000D+00 0.00000000D+00 0.00000000D+00 0.00000000D+00
  <mgrwgt>
 0.1673138716D-01    1    2    0
 0.315702787738458D+03 0.000000000000000D+00 0.000000000000000D+00 0.315702787738458D+03
 0.315702787738458D+03 0.000000000000000D+00 0.000000000000000D+00 -.315702787738458D+03
 0.206464419347353D+03 -.124032775656364D+03 -.105328398119014D+03 -.228988115215630D+02
 0.198593207576935D+03 0.125458003689361D+03 -.843797799431705D+02 -.100560370864210D+03
 0.226347948552628D+03 -.142522803299742D+01 0.189708178062185D+03 0.123459182385773D+03
 0.000000000000000D+00 0.000000000000000D+00 -.000000000000000D+00 -.000000000000000D+00
 0.422173179604657D+03 0.000000000000000D+00 0.000000000000000D+00 0.422173179604657D+03
 0.442566184415030D+04 0.000000000000000D+00 0.000000000000000D+00 -.442566184415030D+04
 0.341377928688874D+03 -.311668149561114D+03 -.570306862658753D+02 -.228988115215630D+02
 0.140145586219167D+03 0.944035653629248D+01 -.545166108857064D+02 -.100560370864210D+03
 0.330411698704648D+03 -.192114766661522D+03 0.238792037882582D+03 0.123459182385773D+03
 0.403589981014227D+04 0.494342559686344D+03 -.127244740731000D+03 -.400348866454564D+04
0.557371322768D-02 0.000000000000D+00 0.000000000000D+00 0.594177196719D-07 0.658919206411D-09  6 2 21 25 24 1 21 4 0.22425329D+00 0.19719837D+00 0.39385577D+06 0.39385577D+06 0.39385577D+06 0.11125468D+01  1  2  1  2  6  2       21 0.167313871576D-01 0.100000000000D+01
  </mgrwgt>
  </event>
  <event>
  5     66 0.43779995E-03 0.33060873E+02 0.75467711E-02 0.11875323E+00
        2 -1    0    0  502    0 0.00000000E+00 0.00000000E+00 0.28299314E+04 0.28299314E+04 0.32000000E+00 0.0000E+00 0.9000E+01
       21 -1    0    0  501  502 0.00000000E+00 0.00000000E+00 -.92999167E+01 0.93301099E+01 0.75000000E+00 0.0000E+00 0.9000E+01
       25  1    1    2    0    0 -.41892562E+02 0.73793415E+02 0.12916083E+04 0.13004143E+04 0.12500000E+03 0.0000E+00 0.9000E+01
       24  1    1    2    0    0 0.21454247E+02 -.99778765E+02 0.13848217E+04 0.13909042E+04 0.80419002E+02 0.0000E+00 0.9000E+01
        1  1    1    2  501    0 0.20438314E+02 0.25985350E+02 0.14420152E+03 0.14794304E+03 0.32000000E+00 0.0000E+00 0.9000E+01
#aMCatNLO 1  0  0  2  1 0.78135763D+01 0.00000000D+00  -5  6  0 0.00000000D+00 0.00000000D+00 0.00000000D+00 0.00000000D+00 0.00000000D+00
  <mgrwgt>
 0.2391829296D+00   32    2    0
 0.162360755420886D+03 0.000000000000000D+00 0.000000000000000D+00 0.162360755420886D+03
 0.162360755420886D+03 0.000000000000000D+00 0.000000000000000D+00 -.162360755420886D+03
 0.151099742078543D+03 -.418928514327448D+02 0.737930463761171D+02 -.238900849065716D+01
 0.132634059828926D+03 0.214539926901054D+02 -.997790879926816D+02 0.266164924310869D+02
 0.409877089343034D+02 0.204388587426394D+02 0.259860416165645D+02 -.242274839404298D+02
 0.000000000000000D+00 -.000000000000000D+00 0.000000000000000D+00 -.000000000000000D+00
 0.163886000516802D+03 0.000000000000000D+00 0.000000000000000D+00 0.163886000516802D+03
 0.172732804100351D+03 0.000000000000000D+00 0.000000000000000D+00 -.172732804100351D+03
 0.149559558546485D+03 -.385228696772949D+02 0.724799469017278D+02 -.238900849065716D+01
 0.134025138044657D+03 0.244428795460542D+02 -.100943695413244D+03 0.266164924310869D+02
 0.412308073143924D+02 0.213604164630966D+02 0.256269604564381D+02 -.242274839404298D+02
 0.118033007116190D+02 -.728042633185591D+01 0.283678805507760D+01 -.884680358354890D+01
0.202700698307D-05 0.000000000000D+00 0.000000000000D+00 0.636805267711D-06 0.000000000000D+00  6 2 21 25 24 1 21 2 0.43537639D+00 0.14330804D-02 0.24661200D+05 0.24661200D+05 0.24661200D+05 0.12239335D+01  1  2  2  2  6  2       21 0.222995273617D-01 0.100000000000D+01
0.909593511660D-07 0.106968097279D-06 -.409194309223D-08 0.636805267711D-06 0.000000000000D+00  6 2 21 25 24 1 21 4 0.43537639D+00 0.14330804D-02 0.24661200D+05 0.24661200D+05 0.24661200D+05 0.12239335D+01  1  2  3  2  6  2       21 0.149900607130D-02 0.100000000000D+01
0.192991895671D-06 0.000000000000D+00 0.000000000000D+00 0.636805267711D-06 0.000000000000D+00  6 2 21 25 24 1 21 4 0.43537639D+00 0.14330804D-02 0.24661200D+05 0.24661200D+05 0.24661200D+05 0.12239335D+01  1  2 15  2  6  2       21 0.318049787751D-02 0.100000000000D+01
0.151478516334D-04 0.000000000000D+00 0.000000000000D+00 0.634375400149D-06 0.000000000000D+00  6 2 21 25 24 1 21 4 0.43537639D+00 0.15310976D-02 0.25932506D+05 0.25932506D+05 0.25932506D+05 0.12215962D+01  1  2 12  2  6  2       21 0.222527578122D+00 0.100000000000D+01
-.859259726533D-05 0.000000000000D+00 0.000000000000D+00 0.636805267711D-06 0.000000000000D+00  6 2 21 25 24 1 21 4 0.43537639D+00 0.14330804D-02 0.24661200D+05 0.24661200D+05 0.24661200D+05 0.12239335D+01  1  2  4  2  6  2       21 -.141605621675D+00 0.100000000000D+01
-.751577428333D-04 0.000000000000D+00 -.908598302231D-05 0.636805267711D-06 0.000000000000D+00  6 2 21 25 24 1 21 4 0.43537639D+00 0.15429249D-02 0.24661200D+05 0.24661200D+05 0.24661200D+05 0.12239335D+01  1  2  5  2  6  2       21 -.110026332695D+01 0.100000000000D+01
0.749423981015D-04 0.000000000000D+00 0.898762719231D-05 0.636805267711D-06 0.000000000000D+00  6 2 21 25 24 1 21 4 0.43537639D+00 0.14330804D-02 0.24661200D+05 0.24661200D+05 0.24661200D+05 0.12239335D+01  1  2  6  2  6  2       21 0.123504739548D+01 0.100000000000D+01
0.775144817430D-07 0.000000000000D+00 0.000000000000D+00 0.636805267711D-06 0.131759870117D-06  6 2 21 25 24 1 21 4 0.43946639D+00 0.15246294D-02 0.25932506D+05 0.25932506D+05 0.25932506D+05 0.12215962D+01  1  2 11  2  6  2       21 0.110745911727D-02 0.100000000000D+01
0.295217901062D-06 0.000000000000D+00 0.000000000000D+00 0.634375400149D-06 0.000000000000D+00  6 2 -1 25 24 1 -1 4 0.43537639D+00 0.15310976D-02 0.25932506D+05 0.25932506D+05 0.25932506D+05 0.12215962D+01  1  2 12  5  6  2       21 0.200574284658D-03 0.100000000000D+01
-.125633573491D-05 0.000000000000D+00 -.165657223439D-06 0.636805267711D-06 0.000000000000D+00  6 2 -1 25 24 1 -1 4 0.43537639D+00 0.15429249D-02 0.24661200D+05 0.24661200D+05 0.24661200D+05 0.12239335D+01  1  2  5  5  6  2       21 -.851025572548D-03 0.100000000000D+01
0.198773837723D-07 0.000000000000D+00 0.000000000000D+00 0.636805267711D-06 0.322362561374D-07  6 2 -1 25 24 1 -1 4 0.43946639D+00 0.15246294D-02 0.25932506D+05 0.25932506D+05 0.25932506D+05 0.12215962D+01  1  2 11  5  6  2       21 0.131250644433D-04 0.100000000000D+01
0.295217901062D-06 0.000000000000D+00 0.000000000000D+00 0.634375400149D-06 0.000000000000D+00  6 2 1 25 24 1 1 4 0.43537639D+00 0.15310976D-02 0.25932506D+05 0.25932506D+05 0.25932506D+05 0.12215962D+01  1  2 12  6  6  2       21 0.208365476205D-03 0.100000000000D+01
-.125633573491D-05 0.000000000000D+00 -.165657223439D-06 0.636805267711D-06 0.000000000000D+00  6 2 1 25 24 1 1 4 0.43537639D+00 0.15429249D-02 0.24661200D+05 0.24661200D+05 0.24661200D+05 0.12239335D+01  1  2  5  6  6  2       21 -.884380235420D-03 0.100000000000D+01
0.391527804531D-08 0.000000000000D+00 0.000000000000D+00 0.636805267711D-06 0.124982791999D-08  6 2 1 25 24 1 1 4 0.43946639D+00 0.15246294D-02 0.25932506D+05 0.25932506D+05 0.25932506D+05 0.12215962D+01  1  2 11  6  6  2       21 0.268526550985D-05 0.100000000000D+01
0.295217901062D-06 0.000000000000D+00 0.000000000000D+00 0.634375400149D-06 0.000000000000D+00  6 2 -2 25 24 1 -2 4 0.43537639D+00 0.15310976D-02 0.25932506D+05 0.25932506D+05 0.25932506D+05 0.12215962D+01  1  2 12  7  6  2       21 0.199189975784D-03 0.100000000000D+01
-.125633573491D-05 0.000000000000D+00 -.165657223439D-06 0.636805267711D-06 0.000000000000D+00  6 2 -2 25 24 1 -2 4 0.43537639D+00 0.15429249D-02 0.24661200D+05 0.24661200D+05 0.24661200D+05 0.12239335D+01  1  2  5  7  6  2       21 -.845096983079D-03 0.100000000000D+01
0.398665045163D-08 0.000000000000D+00 0.000000000000D+00 0.636805267711D-06 0.237315776049D-08  6 2 -2 25 24 1 -2 4 0.43946639D+00 0.15246294D-02 0.25932506D+05 0.25932506D+05 0.25932506D+05 0.12215962D+01  1  2 11  7  6  2       21 0.261430279454D-05 0.100000000000D+01
0.295217901062D-06 0.000000000000D+00 0.000000000000D+00 0.634375400149D-06 0.000000000000D+00  6 2 2 25 24 1 2 4 0.43537639D+00 0.15310976D-02 0.25932506D+05 0.25932506D+05 0.25932506D+05 0.12215962D+01  1  2 12  8  6  2       21 0.213763089740D-03 0.100000000000D+01
-.125633573491D-05 0.000000000000D+00 -.165657223439D-06 0.636805267711D-06 0.000000000000D+00  6 2 2 25 24 1 2 4 0.43537639D+00 0.15429249D-02 0.24661200D+05 0.24661200D+05 0.24661200D+05 0.12239335D+01  1  2  5  8  6  2       21 -.907482274145D-03 0.100000000000D+01
0.389716790601D-08 0.000000000000D+00 0.000000000000D+00 0.636805267711D-06 0.245587870421D-08  6 2 2 25 24 1 2 4 0.43946639D+00 0.15246294D-02 0.25932506D+05 0.25932506D+05 0.25932506D+05 0.12215962D+01  1  2 11  8  6  2       21 0.274181082662D-05 0.100000000000D+01
0.295217901062D-06 0.000000000000D+00 0.000000000000D+00 0.634375400149D-06 0.000000000000D+00  6 2 -3 25 24 1 -3 4 0.43537639D+00 0.15310976D-02 0.25932506D+05 0.25932506D+05 0.25932506D+05 0.12215962D+01  1  2 12  9  6  2       21 0.159179123220D-03 0.100000000000D+01
0.295217901062D-06 0.000000000000D+00 0.000000000000D+00 0.634375400149D-06 0.000000000000D+00  6 2 -4 25 24 1 -4 4 0.43537639D+00 0.15310976D-02 0.25932506D+05 0.25932506D+05 0.25932506D+05 0.12215962D+01  1  2 12  9  6  2       21 0.145685307675D-03 0.100000000000D+01
-.125633573491D-05 0.000000000000D+00 -.165657223439D-06 0.636805267711D-06 0.000000000000D+00  6 2 -3 25 24 1 -3 4 0.43537639D+00 0.15429249D-02 0.24661200D+05 0.24661200D+05 0.24661200D+05 0.12239335D+01  1  2  5  9  6  2       21 -.674362606363D-03 0.100000000000D+01
-.125633573491D-05 0.000000000000D+00 -.165657223439D-06 0.636805267711D-06 0.000000000000D+00  6 2 -4 25 24 1 -4 4 0.43537639D+00 0.15429249D-02 0.24661200D+05 0.24661200D+05 0.24661200D+05 0.12239335D+01  1  2  5  9  6  2       21 -.616842053870D-03 0.100000000000D+01
0.398228885678D-08 0.000000000000D+00 0.000000000000D+00 0.636805267711D-06 0.237056140729D-08  6 2 -3 25 24 1 -3 4 0.43946639D+00 0.15246294D-02 0.25932506D+05 0.25932506D+05 0.25932506D+05 0.12215962D+01  1  2 11  9  6  2       21 0.208747827878D-05 0.100000000000D+01
0.398228885678D-08 0.000000000000D+00 0.000000000000D+00 0.636805267711D-06 0.237056140729D-08  6 2 -4 25 24 1 -4 4 0.43946639D+00 0.15246294D-02 0.25932506D+05 0.25932506D+05 0.25932506D+05 0.12215962D+01  1  2 11  9  6  2       21 0.191064521642D-05 0.100000000000D+01
0.295217901062D-06 0.000000000000D+00 0.000000000000D+00 0.634375400149D-06 0.000000000000D+00  6 2 3 25 24 1 3 4 0.43537639D+00 0.15310976D-02 0.25932506D+05 0.25932506D+05 0.25932506D+05 0.12215962D+01  1  2 12 10  6  2       21 0.159171708070D-03 0.100000000000D+01
0.295217901062D-06 0.000000000000D+00 0.000000000000D+00 0.634375400149D-06 0.000000000000D+00  6 2 4 25 24 1 4 4 0.43537639D+00 0.15310976D-02 0.25932506D+05 0.25932506D+05 0.25932506D+05 0.12215962D+01  1  2 12 10  6  2       21 0.145685307675D-03 0.100000000000D+01
-.125633573491D-05 0.000000000000D+00 -.165657223439D-06 0.636805267711D-06 0.000000000000D+00  6 2 3 25 24 1 3 4 0.43537639D+00 0.15429249D-02 0.24661200D+05 0.24661200D+05 0.24661200D+05 0.12239335D+01  1  2  5 10  6  2       21 -.674330896988D-03 0.100000000000D+01
-.125633573491D-05 0.000000000000D+00 -.165657223439D-06 0.636805267711D-06 0.000000000000D+00  6 2 4 25 24 1 4 4 0.43537639D+00 0.15429249D-02 0.24661200D+05 0.24661200D+05 0.24661200D+05 0.12239335D+01  1  2  5 10  6  2       21 -.616842053870D-03 0.100000000000D+01
0.398228885678D-08 0.000000000000D+00 0.000000000000D+00 0.636805267711D-06 0.237056140729D-08  6 2 3 25 24 1 3 4 0.43946639D+00 0.15246294D-02 0.25932506D+05 0.25932506D+05 0.25932506D+05 0.12215962D+01  1  2 11 10  6  2       21 0.208738132142D-05 0.100000000000D+01
0.398228885678D-08 0.000000000000D+00 0.000000000000D+00 0.636805267711D-06 0.237056140729D-08  6 2 4 25 24 1 4 4 0.43946639D+00 0.15246294D-02 0.25932506D+05 0.25932506D+05 0.25932506D+05 0.12215962D+01  1  2 11 10  6  2       21 0.191064521642D-05 0.100000000000D+01
  </mgrwgt>
  </event>
  <event>
  5     66 0.43779995E-03 0.65975178E+02 0.75467711E-02 0.10647417E+00
        2 -1    0    0  502    0 0.00000000E+00 0.00000000E+00 0.15095224E+04 0.15095224E+04 0.32000000E+00 0.0000E+00 0.9000E+01
       21 -1    0    0  501  502 0.00000000E+00 0.00000000E+00 -.27854241E+02 0.27864337E+02 0.75000000E+00 0.0000E+00 0.9000E+01
       25  1    1    2    0    0 -.33889201E+02 0.40381812E+02 0.10302944E+04 0.10391875E+04 0.12500000E+03 0.0000E+00 0.9000E+01
       24  1    1    2    0    0 0.91884556E+02 -.89296586E+01 0.38745408E+03 0.40633778E+03 0.80419002E+02 0.0000E+00 0.9000E+01
        1  1    1    2  501    0 -.57995355E+02 -.31452153E+02 0.63919648E+02 0.91861433E+02 0.32000000E+00 0.0000E+00 0.9000E+01
#aMCatNLO 1  0  0  2  1 0.83365878D+02 0.00000000D+00  -5  6  0 0.00000000D+00 0.00000000D+00 0.00000000D+00 0.00000000D+00 0.00000000D+00
  <mgrwgt>
 0.9043837369D-01   12    2    0
 0.205071662557405D+03 0.000000000000000D+00 0.000000000000000D+00 0.205071662557405D+03
 0.205071662557405D+03 0.000000000000000D+00 0.000000000000000D+00 -.205071662557405D+03
 0.173302316803962D+03 -.338891032866074D+02 0.403818643963771D+02 0.107840283363515D+03
 0.123420187123557D+03 0.918846250481747D+02 -.892962092612496D+01 -.155821752369606D+02
 0.113420821187291D+03 -.579955217615673D+02 -.314522434702521D+02 -.922581081265539D+02
 0.000000000000000D+00 0.000000000000000D+00 -.000000000000000D+00 -.000000000000000D+00
 0.365547309985491D+03 0.000000000000000D+00 0.000000000000000D+00 0.365547309985491D+03
 0.381804552905772D+03 0.000000000000000D+00 0.000000000000000D+00 -.381804552905772D+03
 0.236308173898383D+03 -.139776497185011D+03 0.951291604606813D+02 0.107840283363515D+03
 0.917502995976629D+02 0.362614352131332D+02 0.198294138354806D+02 -.155821752369606D+02
 0.157983036687228D+03 -.128155461159186D+03 0.482277315486654D+01 -.922581081265539D+02
 0.261310352707990D+03 0.231670523131064D+03 -.119781347451028D+03 -.162572429202813D+02
0.619758583081D-05 0.000000000000D+00 0.000000000000D+00 0.485404613500D-06 0.000000000000D+00  6 2 21 25 24 1 21 2 0.23223499D+00 0.42860471D-02 0.26255296D+05 0.26255296D+05 0.26255296D+05 0.12210230D+01  1  2  2  2  6  2       21 0.561920486612D-01 0.100000000000D+01
0.180201142114D-07 0.327055589637D-06 -.125111401888D-07 0.485404613500D-06 0.000000000000D+00  6 2 21 25 24 1 21 4 0.23223499D+00 0.42860471D-02 0.26255296D+05 0.26255296D+05 0.26255296D+05 0.12210230D+01  1  2  3  2  6  2       21 0.243588947319D-03 0.100000000000D+01
0.614914585963D-06 0.000000000000D+00 0.000000000000D+00 0.485404613500D-06 0.000000000000D+00  6 2 21 25 24 1 21 4 0.23223499D+00 0.42860471D-02 0.26255296D+05 0.26255296D+05 0.26255296D+05 0.12210230D+01  1  2 15  2  6  2       21 0.831217798782D-02 0.100000000000D+01
0.154993381733D-04 0.000000000000D+00 -.240428405714D-04 0.485404613500D-06 0.000000000000D+00  6 2 21 25 24 1 21 4 0.23223499D+00 0.16016242D-01 0.26255296D+05 0.26255296D+05 0.26255296D+05 0.12210230D+01  1  2  5  2  6  2       21 0.210939413936D-01 0.100000000000D+01
0.618979480700D-05 0.000000000000D+00 -.930042598969D-05 0.485404613500D-06 0.000000000000D+00  6 2 -1 25 24 1 -1 4 0.23223499D+00 0.16016242D-01 0.26255296D+05 0.26255296D+05 0.26255296D+05 0.12210230D+01  1  2  5  5  6  2       21 0.627074251439D-03 0.100000000000D+01
0.618979480700D-05 0.000000000000D+00 -.930042598969D-05 0.485404613500D-06 0.000000000000D+00  6 2 1 25 24 1 1 4 0.23223499D+00 0.16016242D-01 0.26255296D+05 0.26255296D+05 0.26255296D+05 0.12210230D+01  1  2  5  6  6  2       21 0.880212033438D-03 0.100000000000D+01
0.618979480700D-05 0.000000000000D+00 -.930042598969D-05 0.485404613500D-06 0.000000000000D+00  6 2 -2 25 24 1 -2 4 0.23223499D+00 0.16016242D-01 0.26255296D+05 0.26255296D+05 0.26255296D+05 0.12210230D+01  1  2  5  7  6  2       21 0.583687706254D-03 0.100000000000D+01
0.618979480700D-05 0.000000000000D+00 -.930042598969D-05 0.485404613500D-06 0.000000000000D+00  6 2 2 25 24 1 2 4 0.23223499D+00 0.16016242D-01 0.26255296D+05 0.26255296D+05 0.26255296D+05 0.12210230D+01  1  2  5  8  6  2       21 0.105562279116D-02 0.100000000000D+01
0.618979480700D-05 0.000000000000D+00 -.930042598969D-05 0.485404613500D-06 0.000000000000D+00  6 2 -3 25 24 1 -3 4 0.23223499D+00 0.16016242D-01 0.26255296D+05 0.26255296D+05 0.26255296D+05 0.12210230D+01  1  2  5  9  6  2       21 0.389390148961D-03 0.100000000000D+01
0.618979480700D-05 0.000000000000D+00 -.930042598969D-05 0.485404613500D-06 0.000000000000D+00  6 2 -4 25 24 1 -4 4 0.23223499D+00 0.16016242D-01 0.26255296D+05 0.26255296D+05 0.26255296D+05 0.12210230D+01  1  2  5  9  6  2       21 0.335641973069D-03 0.100000000000D+01
0.618979480700D-05 0.000000000000D+00 -.930042598969D-05 0.485404613500D-06 0.000000000000D+00  6 2 3 25 24 1 3 4 0.23223499D+00 0.16016242D-01 0.26255296D+05 0.26255296D+05 0.26255296D+05 0.12210230D+01  1  2  5 10  6  2       21 0.389345827587D-03 0.100000000000D+01
0.618979480700D-05 0.000000000000D+00 -.930042598969D-05 0.485404613500D-06 0.000000000000D+00  6 2 4 25 24 1 4 4 0.23223499D+00 0.16016242D-01 0.26255296D+05 0.26255296D+05 0.26255296D+05 0.12210230D+01  1  2  5 10  6  2       21 0.335641973069D-03 0.100000000000D+01
  </mgrwgt>
  </event>
  <event>
  5     66 -.43779995E-03 0.19105815E+03 0.75467711E-02 0.10330279E+00
        2 -1    0    0  502    0 0.00000000E+00 0.00000000E+00 0.95659787E+03 0.95659792E+03 0.32000000E+00 0.0000E+00 0.9000E+01
       21 -1    0    0  501  502 0.00000000E+00 0.00000000E+00 -.10954900E+03 0.10955157E+03 0.75000000E+00 0.0000E+00 0.9000E+01
       25  1    1    2    0    0 0.14949439E+03 0.13032740E+03 0.26067341E+03 0.35058441E+03 0.12500000E+03 0.0000E+00 0.9000E+01
       24  1    1    2    0    0 -.16424882E+03 0.60160021E+02 0.42077992E+03 0.46273087E+03 0.80419002E+02 0.0000E+00 0.9000E+01
        1  1    1    2  501    0 0.14754439E+02 -.19048742E+03 0.16559554E+03 0.25283421E+03 0.32000000E+00 0.0000E+00 0.9000E+01
#aMCatNLO 1  0  0  2  2 0.21023300D+03 0.00000000D+00  -5  6  0 0.00000000D+00 0.00000000D+00 0.00000000D+00 0.00000000D+00 0.00000000D+00
  <mgrwgt>
 -.2363242363D+00   12    2    0
 0.323721700006468D+03 0.000000000000000D+00 0.000000000000000D+00 0.323721700006468D+03
 0.323721700006468D+03 0.000000000000000D+00 0.000000000000000D+00 -.323721700006468D+03
 0.236271313894727D+03 0.149494378350716D+03 0.130327491969301D+03 -.294161426442250D+02
 0.211476641112918D+03 -.164248830538898D+03 0.601601004318032D+02 0.875113579181060D+02
 0.199695445005291D+03 0.147544521881820D+02 -.190487592401104D+03 -.580952152738810D+02
 0.000000000000000D+00 0.000000000000000D+00 -.000000000000000D+00 -.000000000000000D+00
 0.342095149655105D+03 0.000000000000000D+00 0.000000000000000D+00 0.342095149655105D+03
 0.670994254997975D+04 0.000000000000000D+00 0.000000000000000D+00 -.670994254997975D+04
 0.221573590746474D+03 0.834361739876430D+02 0.160134167305183D+03 -.294161426442250D+02
 0.278994491382722D+03 -.235014371393777D+03 0.920908124692707D+02 0.875113579181060D+02
 0.180152765404514D+03 -.400503309509084D+02 -.165758667453313D+03 -.580952152738810D+02
 0.637131685210114D+04 0.191628528357042D+03 -.864663123211408D+02 -.636784740032464D+04
0.335635126003D-05 0.000000000000D+00 0.000000000000D+00 0.594022565688D-07 0.000000000000D+00  6 2 21 25 24 1 21 2 0.14716910D+00 0.16853894D-01 0.95484586D+05 0.95484586D+05 0.95484586D+05 0.11654195D+01  1  2  2  2  6  2       21 0.498664678517D-02 0.100000000000D+01
-.241916512208D-06 0.177119522076D-06 -.677550618633D-08 0.594022565688D-07 0.000000000000D+00  6 2 21 25 24 1 21 4 0.14716910D+00 0.16853894D-01 0.95484586D+05 0.95484586D+05 0.95484586D+05 0.11654195D+01  1  2  3  2  6  2       21 -.488170246547D-03 0.100000000000D+01
0.354385602914D-06 0.000000000000D+00 0.000000000000D+00 0.594022565688D-07 0.000000000000D+00  6 2 21 25 24 1 21 4 0.14716910D+00 0.16853894D-01 0.95484586D+05 0.95484586D+05 0.95484586D+05 0.11654195D+01  1  2 15  2  6  2       21 0.715124840254D-03 0.100000000000D+01
-.652588994812D-01 0.000000000000D+00 -.432438587840D-03 0.594022565688D-07 0.000000000000D+00  6 2 21 25 24 1 21 4 0.14716910D+00 0.35086081D+00 0.95484586D+05 0.95484586D+05 0.95484586D+05 0.11654195D+01  1  2  5  2  6  2       21 -.633170195699D-01 0.100000000000D+01
-.289407729720D-01 0.000000000000D+00 -.191498394761D-03 0.594022565688D-07 0.000000000000D+00  6 2 -1 25 24 1 -1 4 0.14716910D+00 0.35086081D+00 0.95484586D+05 0.95484586D+05 0.95484586D+05 0.11654195D+01  1  2  5  5  6  2       21 -.311144723999D-02 0.100000000000D+01
-.289407729720D-01 0.000000000000D+00 -.191498394761D-03 0.594022565688D-07 0.000000000000D+00  6 2 1 25 24 1 1 4 0.14716910D+00 0.35086081D+00 0.95484586D+05 0.95484586D+05 0.95484586D+05 0.11654195D+01  1  2  5  6  6  2       21 -.445371535691D-01 0.100000000000D+01
-.289407729720D-01 0.000000000000D+00 -.191498394761D-03 0.594022565688D-07 0.000000000000D+00  6 2 -2 25 24 1 -2 4 0.14716910D+00 0.35086081D+00 0.95484586D+05 0.95484586D+05 0.95484586D+05 0.11654195D+01  1  2  5  7  6  2       21 -.270168840072D-02 0.100000000000D+01
-.289407729720D-01 0.000000000000D+00 -.191498394761D-03 0.594022565688D-07 0.000000000000D+00  6 2 2 25 24 1 2 4 0.14716910D+00 0.35086081D+00 0.95484586D+05 0.95484586D+05 0.95484586D+05 0.11654195D+01  1  2  5  8  6  2       21 -.120895070215D+00 0.100000000000D+01
-.289407729720D-01 0.000000000000D+00 -.191498394761D-03 0.594022565688D-07 0.000000000000D+00  6 2 -3 25 24 1 -3 4 0.14716910D+00 0.35086081D+00 0.95484586D+05 0.95484586D+05 0.95484586D+05 0.11654195D+01  1  2  5  9  6  2       21 -.209552373006D-02 0.100000000000D+01
-.289407729720D-01 0.000000000000D+00 -.191498394761D-03 0.594022565688D-07 0.000000000000D+00  6 2 -4 25 24 1 -4 4 0.14716910D+00 0.35086081D+00 0.95484586D+05 0.95484586D+05 0.95484586D+05 0.11654195D+01  1  2  5  9  6  2       21 -.136250663095D-02 0.100000000000D+01
-.289407729720D-01 0.000000000000D+00 -.191498394761D-03 0.594022565688D-07 0.000000000000D+00  6 2 3 25 24 1 3 4 0.14716910D+00 0.35086081D+00 0.95484586D+05 0.95484586D+05 0.95484586D+05 0.11654195D+01  1  2  5 10  6  2       21 -.215492164863D-02 0.100000000000D+01
-.289407729720D-01 0.000000000000D+00 -.191498394761D-03 0.594022565688D-07 0.000000000000D+00  6 2 4 25 24 1 4 4 0.14716910D+00 0.35086081D+00 0.95484586D+05 0.95484586D+05 0.95484586D+05 0.11654195D+01  1  2  5 10  6  2       21 -.136250663095D-02 0.100000000000D+01
  </mgrwgt>
  </event>
  <event>
  5     66 0.43779995E-03 0.31865618E+02 0.75467711E-02 0.11631256E+00
        2 -1    0    0  502    0 0.00000000E+00 0.00000000E+00 0.32833031E+03 0.32833047E+03 0.32000000E+00 0.0000E+00 0.9000E+01
       21 -1    0    0  501  502 0.00000000E+00 0.00000000E+00 -.18784034E+03 0.18784183E+03 0.75000000E+00 0.0000E+00 0.9000E+01
       25  1    1    2    0    0 -.73859796E+01 -.11528830E+03 0.25086491E+03 0.30315697E+03 0.12500000E+03 0.0000E+00 0.9000E+01
       24  1    1    2    0    0 0.39250012E+02 0.11500661E+03 -.70232426E+02 0.16176184E+03 0.80419002E+02 0.0000E+00 0.9000E+01
        1  1    1    2  501    0 -.31864033E+02 0.28168277E+00 -.40142515E+02 0.51253486E+02 0.32000000E+00 0.0000E+00 0.9000E+01
#aMCatNLO 1  0  0  1  2 0.21171214D+02 0.00000000D+00  -5  6  0 0.00000000D+00 0.00000000D+00 0.00000000D+00 0.00000000D+00 0.00000000D+00
  <mgrwgt>
 0.4637448079D-01    9    2    0
 0.248342711913383D+03 0.000000000000000D+00 0.000000000000000D+00 0.248342711913383D+03
 0.248342711913383D+03 0.000000000000000D+00 0.000000000000000D+00 -.248342711913383D+03
 0.244092815622244D+03 -.738578758057168D+01 -.115288296903475D+03 0.174958170364536D+03
 0.187973841723249D+03 0.392501601464534D+02 0.115006611125752D+03 -.118742804176398D+03
 0.646187664812716D+02 -.318643725658817D+02 0.281685777722283D+00 -.562153661881378D+02
 0.000000000000000D+00 -.000000000000000D+00 0.000000000000000D+00 0.000000000000000D+00
 0.304996559061132D+03 0.000000000000000D+00 0.000000000000000D+00 0.304996559061132D+03
 0.250554009464573D+03 0.000000000000000D+00 0.000000000000000D+00 -.250554009464573D+03
 0.248870268924000D+03 -.402949170295138D+01 -.125239021768832D+03 0.174958170364536D+03
 0.184034184834045D+03 0.417829441319422D+02 0.107497429128112D+03 -.118742804176398D+03
 0.642319767657198D+02 -.309871035939337D+02 -.231923574143730D+01 -.562153661881378D+02
 0.584141380019412D+02 -.676634883505711D+01 0.200608283821578D+02 0.544425495965588D+02
0.518222228758D-05 0.000000000000D+00 0.000000000000D+00 0.372646122106D-06 0.000000000000D+00  6 2 21 25 24 1 21 2 0.50512482D-01 0.28898641D-01 0.30240187D+05 0.30240187D+05 0.30240187D+05 0.12145351D+01  1  2  2  1  6  1        2 0.108195203704D-01 0.100000000000D+01
0.343114736094D-06 0.273473383373D-06 -.104614137342D-07 0.372646122106D-06 0.000000000000D+00  6 2 21 25 24 1 21 4 0.50512482D-01 0.28898641D-01 0.30240187D+05 0.30240187D+05 0.30240187D+05 0.12145351D+01  1  2  3  1  6  1        2 0.105669943447D-02 0.100000000000D+01
0.500485292980D-06 0.000000000000D+00 0.000000000000D+00 0.372646122106D-06 0.000000000000D+00  6 2 21 25 24 1 21 4 0.50512482D-01 0.28898641D-01 0.30240187D+05 0.30240187D+05 0.30240187D+05 0.12145351D+01  1  2 15  1  6  1        2 0.154135765800D-02 0.100000000000D+01
0.146019391108D-03 0.000000000000D+00 0.000000000000D+00 0.369243563353D-06 0.000000000000D+00  6 2 21 25 24 1 21 4 0.62226539D-01 0.28898641D-01 0.34195029D+05 0.34195029D+05 0.34195029D+05 0.12089775D+01  1  2 12  1  6  1        2 0.352159085852D+00 0.100000000000D+01
-.134862059428D-03 0.000000000000D+00 0.000000000000D+00 0.372646122106D-06 0.000000000000D+00  6 2 21 25 24 1 21 4 0.50512482D-01 0.28898641D-01 0.30240187D+05 0.30240187D+05 0.30240187D+05 0.12145351D+01  1  2  4  1  6  1        2 -.415338214707D+00 0.100000000000D+01
-.163682521581D-03 0.000000000000D+00 -.118092841583D-04 0.372646122106D-06 0.000000000000D+00  6 2 21 25 24 1 21 4 0.62325593D-01 0.28898641D-01 0.30240187D+05 0.30240187D+05 0.30240187D+05 0.12145351D+01  1  2  5  1  6  1        2 -.402317619626D+00 0.100000000000D+01
0.162811879295D-03 0.000000000000D+00 0.115532271276D-04 0.372646122106D-06 0.000000000000D+00  6 2 21 25 24 1 21 4 0.50512482D-01 0.28898641D-01 0.30240187D+05 0.30240187D+05 0.30240187D+05 0.12145351D+01  1  2  6  1  6  1        2 0.501416006594D+00 0.100000000000D+01
0.431458053806D-05 0.000000000000D+00 0.000000000000D+00 0.369243563353D-06 0.000000000000D+00  6 21 21 25 24 1 -2 4 0.62226539D-01 0.28898641D-01 0.34195029D+05 0.34195029D+05 0.34195029D+05 0.12089775D+01  1  2 12  4  6  1        2 0.254141116550D-01 0.100000000000D+01
-.471648086797D-05 0.000000000000D+00 -.350962528368D-06 0.372646122106D-06 0.000000000000D+00  6 21 21 25 24 1 -2 4 0.62325593D-01 0.28898641D-01 0.30240187D+05 0.30240187D+05 0.30240187D+05 0.12145351D+01  1  2  5  4  6  1        2 -.283764664388D-01 0.100000000000D+01
  </mgrwgt>
  </event>
  <event>
  5     66 0.43779995E-03 0.17726029E+03 0.75467711E-02 0.10942787E+00
        2 -1    0    0  502    0 0.00000000E+00 0.00000000E+00 0.85268911E+03 0.85268917E+03 0.32000000E+00 0.0000E+00 0.9000E+01
       21 -1    0    0  501  502 0.00000000E+00 0.00000000E+00 -.98701606E+02 0.98704456E+02 0.75000000E+00 0.0000E+00 0.9000E+01
       25  1    1    2    0    0 0.18500270E+02 0.96126796E+02 0.34023720E+03 0.37545835E+03 0.12500000E+03 0.0000E+00 0.9000E+01
       24  1    1    2    0    0 0.80844850E+02 0.11316069E+03 0.11350789E+03 0.19670406E+03 0.80419002E+02 0.0000E+00 0.9000E+01
        1  1    1    2  501    0 -.99345120E+02 -.20928748E+03 0.30024241E+03 0.37923121E+03 0.32000000E+00 0.0000E+00 0.9000E+01
#aMCatNLO 1  0  0  2  1 0.13463118D+02 0.00000000D+00  -5  6  0 0.00000000D+00 0.00000000D+00 0.00000000D+00 0.00000000D+00 0.00000000D+00
  <mgrwgt>
 0.1078896714D+00   23    2    0
 0.290108891093450D+03 0.000000000000000D+00 0.000000000000000D+00 0.290108891093450D+03
 0.290108891093450D+03 0.000000000000000D+00 0.000000000000000D+00 -.290108891093450D+03
 0.173510892584417D+03 0.185002982646862D+02 0.961268556955049D+02 0.699885449459726D+02
 0.175036844790194D+03 0.808448787459674D+02 0.113160747868421D+03 -.694941134352069D+02
 0.231670044812289D+03 -.993451770106536D+02 -.209287603563926D+03 -.494431510765743D+00
 0.000000000000000D+00 -.000000000000000D+00 -.000000000000000D+00 -.000000000000000D+00
 0.296236887458943D+03 0.000000000000000D+00 0.000000000000000D+00 0.296236887458943D+03
 0.297676990034110D+03 0.000000000000000D+00 0.000000000000000D+00 -.297676990034110D+03
 0.175797971691764D+03 0.199112154123404D+02 0.999253417711803D+02 0.699885449459726D+02
 0.178198555711910D+03 0.822716558326573D+02 0.117001932239803D+03 -.694941134352069D+02
 0.226377429893994D+03 -.974950463595408D+02 -.204306662246346D+03 -.494431510765743D+00
 0.135399201953856D+02 -.468782488545696D+01 -.126206117646372D+02 -.144010257516685D+01
0.601447483671D-05 0.000000000000D+00 0.000000000000D+00 0.117636469717D-06 0.000000000000D+00  6 2 21 25 24 1 21 2 0.13118316D+00 0.15185086D-01 0.75924708D+05 0.75924708D+05 0.75924708D+05 0.11747225D+01  1  2  2  2  6  2       21 0.129407227368D-01 0.100000000000D+01
-.626940760506D-06 0.317392557001D-06 -.121414918483D-07 0.117636469717D-06 0.000000000000D+00  6 2 21 25 24 1 21 4 0.13118316D+00 0.15185086D-01 0.75924708D+05 0.75924708D+05 0.75924708D+05 0.11747225D+01  1  2  3  2  6  2       21 -.186147811314D-02 0.100000000000D+01
0.604993010017D-06 0.000000000000D+00 0.000000000000D+00 0.117636469717D-06 0.000000000000D+00  6 2 21 25 24 1 21 4 0.13118316D+00 0.15185086D-01 0.75924708D+05 0.75924708D+05 0.75924708D+05 0.11747225D+01  1  2 15  2  6  2       21 0.179631205640D-02 0.100000000000D+01
0.120636234947D-04 0.000000000000D+00 0.000000000000D+00 0.117222016254D-06 0.000000000000D+00  6 2 21 25 24 1 21 4 0.13118316D+00 0.15737833D-01 0.79861261D+05 0.79861261D+05 0.79861261D+05 0.11726513D+01  1  2 12  2  6  2       21 0.332584681060D-01 0.100000000000D+01
-.697159715906D-06 0.000000000000D+00 0.000000000000D+00 0.117636469717D-06 0.000000000000D+00  6 2 21 25 24 1 21 4 0.13118316D+00 0.15185086D-01 0.75924708D+05 0.75924708D+05 0.75924708D+05 0.11747225D+01  1  2  4  2  6  2       21 -.206996838341D-02 0.100000000000D+01
-.266475293830D-03 0.000000000000D+00 -.413019570427D-04 0.117636469717D-06 0.000000000000D+00  6 2 21 25 24 1 21 4 0.13118316D+00 0.15909469D-01 0.75924708D+05 0.75924708D+05 0.75924708D+05 0.11747225D+01  1  2  5  2  6  2       21 -.726147224401D+00 0.100000000000D+01
0.267241086255D-03 0.000000000000D+00 0.411231226100D-04 0.117636469717D-06 0.000000000000D+00  6 2 21 25 24 1 21 4 0.13118316D+00 0.15185086D-01 0.75924708D+05 0.75924708D+05 0.75924708D+05 0.11747225D+01  1  2  6  2  6  2       21 0.793477572894D+00 0.100000000000D+01
0.244932066308D-06 0.000000000000D+00 0.000000000000D+00 0.117222016254D-06 0.000000000000D+00  6 2 -1 25 24 1 -1 4 0.13118316D+00 0.15737833D-01 0.79861261D+05 0.79861261D+05 0.79861261D+05 0.11726513D+01  1  2 12  5  6  2       21 0.513005817382D-04 0.100000000000D+01
-.253539937155D-05 0.000000000000D+00 -.457680560558D-06 0.117636469717D-06 0.000000000000D+00  6 2 -1 25 24 1 -1 4 0.13118316D+00 0.15909469D-01 0.75924708D+05 0.75924708D+05 0.75924708D+05 0.11747225D+01  1  2  5  5  6  2       21 -.525676369103D-03 0.100000000000D+01
0.244932066308D-06 0.000000000000D+00 0.000000000000D+00 0.117222016254D-06 0.000000000000D+00  6 2 1 25 24 1 1 4 0.13118316D+00 0.15737833D-01 0.79861261D+05 0.79861261D+05 0.79861261D+05 0.11726513D+01  1  2 12  6  6  2       21 0.715832639202D-04 0.100000000000D+01
-.253539937155D-05 0.000000000000D+00 -.457680560558D-06 0.117636469717D-06 0.000000000000D+00  6 2 1 25 24 1 1 4 0.13118316D+00 0.15909469D-01 0.75924708D+05 0.75924708D+05 0.75924708D+05 0.11747225D+01  1  2  5  6  6  2       21 -.735812139652D-03 0.100000000000D+01
0.244932066308D-06 0.000000000000D+00 0.000000000000D+00 0.117222016254D-06 0.000000000000D+00  6 2 -2 25 24 1 -2 4 0.13118316D+00 0.15737833D-01 0.79861261D+05 0.79861261D+05 0.79861261D+05 0.11726513D+01  1  2 12  7  6  2       21 0.478474109337D-04 0.100000000000D+01
-.253539937155D-05 0.000000000000D+00 -.457680560558D-06 0.117636469717D-06 0.000000000000D+00  6 2 -2 25 24 1 -2 4 0.13118316D+00 0.15909469D-01 0.75924708D+05 0.75924708D+05 0.75924708D+05 0.11747225D+01  1  2  5  7  6  2       21 -.489907952521D-03 0.100000000000D+01
0.244932066308D-06 0.000000000000D+00 0.000000000000D+00 0.117222016254D-06 0.000000000000D+00  6 2 2 25 24 1 2 4 0.13118316D+00 0.15737833D-01 0.79861261D+05 0.79861261D+05 0.79861261D+05 0.11726513D+01  1  2 12  8  6  2       21 0.857357346722D-04 0.100000000000D+01
-.253539937155D-05 0.000000000000D+00 -.457680560558D-06 0.117636469717D-06 0.000000000000D+00  6 2 2 25 24 1 2 4 0.13118316D+00 0.15909469D-01 0.75924708D+05 0.75924708D+05 0.75924708D+05 0.11747225D+01  1  2  5  8  6  2       21 -.882486089337D-03 0.100000000000D+01
0.244932066308D-06 0.000000000000D+00 0.000000000000D+00 0.117222016254D-06 0.000000000000D+00  6 2 -3 25 24 1 -3 4 0.13118316D+00 0.15737833D-01 0.79861261D+05 0.79861261D+05 0.79861261D+05 0.11726513D+01  1  2 12  9  6  2       21 0.326799129978D-04 0.100000000000D+01
0.244932066308D-06 0.000000000000D+00 0.000000000000D+00 0.117222016254D-06 0.000000000000D+00  6 2 -4 25 24 1 -4 4 0.13118316D+00 0.15737833D-01 0.79861261D+05 0.79861261D+05 0.79861261D+05 0.11726513D+01  1  2 12  9  6  2       21 0.284741194616D-04 0.100000000000D+01
-.253539937155D-05 0.000000000000D+00 -.457680560558D-06 0.117636469717D-06 0.000000000000D+00  6 2 -3 25 24 1 -3 4 0.13118316D+00 0.15909469D-01 0.75924708D+05 0.75924708D+05 0.75924708D+05 0.11747225D+01  1  2  5  9  6  2       21 -.334024573981D-03 0.100000000000D+01
-.253539937155D-05 0.000000000000D+00 -.457680560558D-06 0.117636469717D-06 0.000000000000D+00  6 2 -4 25 24 1 -4 4 0.13118316D+00 0.15909469D-01 0.75924708D+05 0.75924708D+05 0.75924708D+05 0.11747225D+01  1  2  5  9  6  2       21 -.290803470784D-03 0.100000000000D+01
0.244932066308D-06 0.000000000000D+00 0.000000000000D+00 0.117222016254D-06 0.000000000000D+00  6 2 3 25 24 1 3 4 0.13118316D+00 0.15737833D-01 0.79861261D+05 0.79861261D+05 0.79861261D+05 0.11726513D+01  1  2 12 10  6  2       21 0.326766428649D-04 0.100000000000D+01
0.244932066308D-06 0.000000000000D+00 0.000000000000D+00 0.117222016254D-06 0.000000000000D+00  6 2 4 25 24 1 4 4 0.13118316D+00 0.15737833D-01 0.79861261D+05 0.79861261D+05 0.79861261D+05 0.11726513D+01  1  2 12 10  6  2       21 0.284741194616D-04 0.100000000000D+01
-.253539937155D-05 0.000000000000D+00 -.457680560558D-06 0.117636469717D-06 0.000000000000D+00  6 2 3 25 24 1 3 4 0.13118316D+00 0.15909469D-01 0.75924708D+05 0.75924708D+05 0.75924708D+05 0.11747225D+01  1  2  5 10  6  2       21 -.333991215481D-03 0.100000000000D+01
-.253539937155D-05 0.000000000000D+00 -.457680560558D-06 0.117636469717D-06 0.000000000000D+00  6 2 4 25 24 1 4 4 0.13118316D+00 0.15909469D-01 0.75924708D+05 0.75924708D+05 0.75924708D+05 0.11747225D+01  1  2  5 10  6  2       21 -.290803470784D-03 0.100000000000D+01
  </mgrwgt>
  </event>
  <event>
  6     66 -.43779995E-03 0.10283016E+03 0.75467711E-02 0.11496749E+00
        4 -1    0    0  503    0 0.00000000E+00 0.00000000E+00 0.27708269E+03 0.27708703E+03 0.15500000E+01 0.0000E+00 0.9000E+01
       21 -1    0    0  501  502 0.00000000E+00 0.00000000E+00 -.23960205E+03 0.23960322E+03 0.75000000E+00 0.0000E+00 0.9000E+01
       25  1    1    2    0    0 0.34018494E+02 -.12921277E+02 0.16244114E+03 0.20817382E+03 0.12500000E+03 0.0000E+00 0.9000E+01
       24  1    1    2    0    0 0.90499377E+02 -.32153715E+01 -.52076357E+02 0.13183186E+03 0.80419002E+02 0.0000E+00 0.9000E+01
        3  1    1    2  501    0 -.11737343E+03 -.13701380E+02 -.82957610E+02 0.14438305E+03 0.50000000E+00 0.0000E+00 0.9000E+01
       21  1    1    2  503  502 -.71444464E+01 0.29838029E+02 0.10073472E+02 0.32301523E+02 0.75000000E+00 0.0000E+00 0.9000E+01
#aMCatNLO 2  0  0  1  2 0.30681445D+02 0.00000000D+00  -5  6  0 0.00000000D+00 0.00000000D+00 0.00000000D+00 0.00000000D+00 0.00000000D+00
  <mgrwgt>
 -.7200955600D-02    2    2    0
 0.241319257110003D+03 0.000000000000000D+00 0.000000000000000D+00 0.241319257110003D+03
 0.241319257110003D+03 0.000000000000000D+00 0.000000000000000D+00 -.241319257110003D+03
 0.198402130005428D+03 0.310781489293473D+02 -.640090583427843D+00 0.150904420524586D+03
 0.133728764134462D+03 0.885126241260844D+02 0.508286511617616D+01 -.596309169398341D+02
 0.150507620080115D+03 -.119590773055432D+03 -.444277453274832D+01 -.912735035847516D+02
 0.000000000000000D+00 -.000000000000000D+00 0.000000000000000D+00 0.000000000000000D+00
 0.261822619356349D+03 0.000000000000000D+00 0.000000000000000D+00 0.261822619356349D+03
 0.253563709237771D+03 0.000000000000000D+00 0.000000000000000D+00 -.253563709237771D+03
 0.199302233339885D+03 0.340187686310707D+02 -.129212793960512D+02 0.150904420524586D+03
 0.134994708706755D+03 0.904995611863306D+02 -.321536847770919D+01 -.596309169398341D+02
 0.149315802274378D+03 -.117373883465894D+03 -.137013806727703D+02 -.912735035847516D+02
 0.317735842731017D+02 -.714444635150698D+01 0.298380285465307D+02 0.825891011857797D+01
-.387407633501D-04 0.000000000000D+00 0.000000000000D+00 0.165959491536D-06 0.000000000000D+00  6 4 21 25 24 3 21 4 0.43556177D-01 0.35081613D-01 0.40030393D+05 0.40030393D+05 0.40030393D+05 0.12019668D+01  1  2 13  1  6  1        4 -.136750414016D-01 0.100000000000D+01
0.193864330341D-04 0.000000000000D+00 0.000000000000D+00 0.168013410256D-06 0.155886129806D-08  6 4 21 25 24 3 21 4 0.42627795D-01 0.36861642D-01 0.40030393D+05 0.40030393D+05 0.40030393D+05 0.12019668D+01  1  2  1  1  6  1        4 0.647408580196D-02 0.100000000000D+01
  </mgrwgt>
  </event>
  <event>
  5     66 -.43779995E-03 0.22817920E+03 0.75467711E-02 0.10052270E+00
        2 -1    0    0  502    0 0.00000000E+00 0.00000000E+00 0.19964528E+04 0.19964528E+04 0.32000000E+00 0.0000E+00 0.9000E+01
       21 -1    0    0  501  502 0.00000000E+00 0.00000000E+00 -.18020489E+03 0.18020645E+03 0.75000000E+00 0.0000E+00 0.9000E+01
       25  1    1    2    0    0 -.32730470E+03 -.49435301E+02 0.80708653E+03 0.88124111E+03 0.12500000E+03 0.0000E+00 0.9000E+01
       24  1    1    2    0    0 0.34739550E+03 0.29361252E+03 0.92923604E+03 0.10377084E+04 0.80419002E+02 0.0000E+00 0.9000E+01
        1  1    1    2  501    0 -.20090798E+02 -.24417722E+03 0.79925364E+02 0.25770976E+03 0.32000000E+00 0.0000E+00 0.9000E+01
#aMCatNLO 1  0  0  2  5 0.82241128D+01 0.00000000D+00  -5  6  0 0.00000000D+00 0.00000000D+00 0.00000000D+00 0.00000000D+00 0.00000000D+00
  <mgrwgt>
 -.7413749506D-01   41    2    0
 0.599810201939656D+03 0.000000000000000D+00 0.000000000000000D+00 0.599810201939656D+03
 0.599810201939656D+03 0.000000000000000D+00 0.000000000000000D+00 -.599810201939656D+03
 0.377029600670360D+03 -.327304700574064D+03 -.494352681177273D+02 0.130207937660889D+03
 0.475996152826177D+03 0.347395504554337D+03 0.293612560399034D+03 0.114948463853640D+03
 0.346594650382775D+03 -.200908039802732D+02 -.244177292281307D+03 -.245156401514530D+03
 0.000000000000000D+00 -.000000000000000D+00 -.000000000000000D+00 -.000000000000000D+00
 0.600375660618100D+03 0.000000000000000D+00 0.000000000000000D+00 0.600375660618100D+03
 0.630491917090429D+03 0.000000000000000D+00 0.000000000000000D+00 -.630491917090429D+03
 0.376532294845998D+03 -.327111064435340D+03 -.468595087049603D+02 0.130207937660889D+03
 0.478193099984788D+03 0.347640694131498D+03 0.296874086710426D+03 0.114948463853640D+03
 0.344923199314345D+03 -.199131107515277D+02 -.241813606403542D+03 -.245156401514530D+03
 0.312189835633981D+02 -.616518944630102D+00 -.820097160192400D+01 -.301162564723286D+02
0.301955369686D-04 0.000000000000D+00 0.000000000000D+00 0.263642139800D-07 0.000000000000D+00  6 2 21 25 24 1 21 2 0.30714671D+00 0.27723951D-01 0.28129383D+06 0.28129383D+06 0.28129383D+06 0.11244356D+01  1  2  2  2  6  2       21 0.401069297975D-02 0.100000000000D+01
-.539719950204D-06 0.159346226374D-05 -.609560894197D-07 0.263642139800D-07 0.000000000000D+00  6 2 21 25 24 1 21 4 0.30714671D+00 0.27723951D-01 0.28129383D+06 0.28129383D+06 0.28129383D+06 0.11244356D+01  1  2  3  2  6  2       21 -.906388336936D-04 0.100000000000D+01
0.265036203845D-05 0.000000000000D+00 0.000000000000D+00 0.263642139800D-07 0.000000000000D+00  6 2 21 25 24 1 21 4 0.30714671D+00 0.27723951D-01 0.28129383D+06 0.28129383D+06 0.28129383D+06 0.11244356D+01  1  2 15  2  6  2       21 0.445093282063D-03 0.100000000000D+01
0.126255061693D-02 0.000000000000D+00 0.000000000000D+00 0.263402350408D-07 0.000000000000D+00  6 2 21 25 24 1 21 4 0.30714671D+00 0.29154800D-01 0.28533241D+06 0.28533241D+06 0.28533241D+06 0.11239241D+01  1  2 12  2  6  2       21 0.191377192076D+00 0.100000000000D+01
0.114210639616D-02 0.000000000000D+00 0.000000000000D+00 0.263402350408D-07 0.000000000000D+00  6 2 21 25 24 1 21 4 0.30714671D+00 0.29298961D-01 0.28533241D+06 0.28533241D+06 0.28533241D+06 0.11239241D+01  1  2 12  2  6  2       21 0.171430922650D+00 0.100000000000D+01
-.302779595639D-02 0.000000000000D+00 0.000000000000D+00 0.263642139800D-07 0.000000000000D+00  6 2 21 25 24 1 21 4 0.30714671D+00 0.27723951D-01 0.28129383D+06 0.28129383D+06 0.28129383D+06 0.11244356D+01  1  2  4  2  6  2       21 -.508478321110D+00 0.100000000000D+01
-.413804129622D-02 0.000000000000D+00 -.189741365501D-03 0.263642139800D-07 0.000000000000D+00  6 2 21 25 24 1 21 4 0.30714671D+00 0.29157359D-01 0.28129383D+06 0.28129383D+06 0.28129383D+06 0.11244356D+01  1  2  5  2  6  2       21 -.628864828070D+00 0.100000000000D+01
0.413477083145D-02 0.000000000000D+00 0.188780472533D-03 0.263642139800D-07 0.000000000000D+00  6 2 21 25 24 1 21 4 0.30714671D+00 0.27723951D-01 0.28129383D+06 0.28129383D+06 0.28129383D+06 0.11244356D+01  1  2  6  2  6  2       21 0.694380123639D+00 0.100000000000D+01
0.169128246739D-04 0.000000000000D+00 0.000000000000D+00 0.263642139800D-07 0.937330860231D-08  6 2 21 25 24 1 21 4 0.30743627D+00 0.29142096D-01 0.28533241D+06 0.28533241D+06 0.28533241D+06 0.11239241D+01  1  2 11  2  6  2       21 0.255987114571D-02 0.100000000000D+01
0.287993609631D-04 0.000000000000D+00 0.000000000000D+00 0.263402350408D-07 0.000000000000D+00  6 2 -1 25 24 1 -1 4 0.30714671D+00 0.29154800D-01 0.28533241D+06 0.28533241D+06 0.28533241D+06 0.11239241D+01  1  2 12  5  6  2       21 0.399027057402D-03 0.100000000000D+01
0.286072956568D-04 0.000000000000D+00 0.000000000000D+00 0.263402350408D-07 0.000000000000D+00  6 2 -1 25 24 1 -1 4 0.30714671D+00 0.29298961D-01 0.28533241D+06 0.28533241D+06 0.28533241D+06 0.11239241D+01  1  2 12  5  6  2       21 0.393004664578D-03 0.100000000000D+01
-.652965889932D-04 0.000000000000D+00 -.228665514291D-05 0.263642139800D-07 0.000000000000D+00  6 2 -1 25 24 1 -1 4 0.30714671D+00 0.29157359D-01 0.28129383D+06 0.28129383D+06 0.28129383D+06 0.11244356D+01  1  2  5  5  6  2       21 -.906777121609D-03 0.100000000000D+01
0.266485422902D-06 0.000000000000D+00 0.000000000000D+00 0.263642139800D-07 0.147281083709D-09  6 2 -1 25 24 1 -1 4 0.30743627D+00 0.29142096D-01 0.28533241D+06 0.28533241D+06 0.28533241D+06 0.11239241D+01  1  2 11  5  6  2       21 0.368641342507D-05 0.100000000000D+01
0.287993609631D-04 0.000000000000D+00 0.000000000000D+00 0.263402350408D-07 0.000000000000D+00  6 2 1 25 24 1 1 4 0.30714671D+00 0.29154800D-01 0.28533241D+06 0.28533241D+06 0.28533241D+06 0.11239241D+01  1  2 12  6  6  2       21 0.693456159799D-03 0.100000000000D+01
0.286072956568D-04 0.000000000000D+00 0.000000000000D+00 0.263402350408D-07 0.000000000000D+00  6 2 1 25 24 1 1 4 0.30714671D+00 0.29298961D-01 0.28533241D+06 0.28533241D+06 0.28533241D+06 0.11239241D+01  1  2 12  6  6  2       21 0.684458974689D-03 0.100000000000D+01
-.652965889932D-04 0.000000000000D+00 -.228665514291D-05 0.263642139800D-07 0.000000000000D+00  6 2 1 25 24 1 1 4 0.30714671D+00 0.29157359D-01 0.28129383D+06 0.28129383D+06 0.28129383D+06 0.11244356D+01  1  2  5  6  6  2       21 -.157589997221D-02 0.100000000000D+01
0.159412863719D-06 0.000000000000D+00 0.000000000000D+00 0.263642139800D-07 0.325746721543D-10  6 2 1 25 24 1 1 4 0.30743627D+00 0.29142096D-01 0.28533241D+06 0.28533241D+06 0.28533241D+06 0.11239241D+01  1  2 11  6  6  2       21 0.383167181904D-05 0.100000000000D+01
0.287993609631D-04 0.000000000000D+00 0.000000000000D+00 0.263402350408D-07 0.000000000000D+00  6 2 -2 25 24 1 -2 4 0.30714671D+00 0.29154800D-01 0.28533241D+06 0.28533241D+06 0.28533241D+06 0.11239241D+01  1  2 12  7  6  2       21 0.352553106818D-03 0.100000000000D+01
0.286072956568D-04 0.000000000000D+00 0.000000000000D+00 0.263402350408D-07 0.000000000000D+00  6 2 -2 25 24 1 -2 4 0.30714671D+00 0.29298961D-01 0.28533241D+06 0.28533241D+06 0.28533241D+06 0.11239241D+01  1  2 12  7  6  2       21 0.347041204678D-03 0.100000000000D+01
-.652965889932D-04 0.000000000000D+00 -.228665514291D-05 0.263642139800D-07 0.000000000000D+00  6 2 -2 25 24 1 -2 4 0.30714671D+00 0.29157359D-01 0.28129383D+06 0.28129383D+06 0.28129383D+06 0.11244356D+01  1  2  5  7  6  2       21 -.801146243799D-03 0.100000000000D+01
0.153540410153D-06 0.000000000000D+00 0.000000000000D+00 0.263642139800D-07 0.626765387740D-10  6 2 -2 25 24 1 -2 4 0.30743627D+00 0.29142096D-01 0.28533241D+06 0.28533241D+06 0.28533241D+06 0.11239241D+01  1  2 11  7  6  2       21 0.187670731075D-05 0.100000000000D+01
0.287993609631D-04 0.000000000000D+00 0.000000000000D+00 0.263402350408D-07 0.000000000000D+00  6 2 2 25 24 1 2 4 0.30714671D+00 0.29154800D-01 0.28533241D+06 0.28533241D+06 0.28533241D+06 0.11239241D+01  1  2 12  8  6  2       21 0.911426212382D-03 0.100000000000D+01
0.286072956568D-04 0.000000000000D+00 0.000000000000D+00 0.263402350408D-07 0.000000000000D+00  6 2 2 25 24 1 2 4 0.30714671D+00 0.29298961D-01 0.28533241D+06 0.28533241D+06 0.28533241D+06 0.11239241D+01  1  2 12  8  6  2       21 0.900333998308D-03 0.100000000000D+01
-.652965889932D-04 0.000000000000D+00 -.228665514291D-05 0.263642139800D-07 0.000000000000D+00  6 2 2 25 24 1 2 4 0.30714671D+00 0.29157359D-01 0.28129383D+06 0.28129383D+06 0.28129383D+06 0.11244356D+01  1  2  5  8  6  2       21 -.207121550851D-02 0.100000000000D+01
0.150809762084D-06 0.000000000000D+00 0.000000000000D+00 0.263642139800D-07 0.617215748139D-10  6 2 2 25 24 1 2 4 0.30743627D+00 0.29142096D-01 0.28533241D+06 0.28533241D+06 0.28533241D+06 0.11239241D+01  1  2 11  8  6  2       21 0.476393327699D-05 0.100000000000D+01
0.287993609631D-04 0.000000000000D+00 0.000000000000D+00 0.263402350408D-07 0.000000000000D+00  6 2 -3 25 24 1 -3 4 0.30714671D+00 0.29154800D-01 0.28533241D+06 0.28533241D+06 0.28533241D+06 0.11239241D+01  1  2 12  9  6  2       21 0.236084096966D-03 0.100000000000D+01
0.287993609631D-04 0.000000000000D+00 0.000000000000D+00 0.263402350408D-07 0.000000000000D+00  6 2 -4 25 24 1 -4 4 0.30714671D+00 0.29154800D-01 0.28533241D+06 0.28533241D+06 0.28533241D+06 0.11239241D+01  1  2 12  9  6  2       21 0.202933668985D-03 0.100000000000D+01
0.286072956568D-04 0.000000000000D+00 0.000000000000D+00 0.263402350408D-07 0.000000000000D+00  6 2 -3 25 24 1 -3 4 0.30714671D+00 0.29298961D-01 0.28533241D+06 0.28533241D+06 0.28533241D+06 0.11239241D+01  1  2 12  9  6  2       21 0.232330432901D-03 0.100000000000D+01
0.286072956568D-04 0.000000000000D+00 0.000000000000D+00 0.263402350408D-07 0.000000000000D+00  6 2 -4 25 24 1 -4 4 0.30714671D+00 0.29298961D-01 0.28533241D+06 0.28533241D+06 0.28533241D+06 0.11239241D+01  1  2 12  9  6  2       21 0.199668543860D-03 0.100000000000D+01
-.652965889932D-04 0.000000000000D+00 -.228665514291D-05 0.263642139800D-07 0.000000000000D+00  6 2 -3 25 24 1 -3 4 0.30714671D+00 0.29157359D-01 0.28129383D+06 0.28129383D+06 0.28129383D+06 0.11244356D+01  1  2  5  9  6  2       21 -.536363507400D-03 0.100000000000D+01
-.652965889932D-04 0.000000000000D+00 -.228665514291D-05 0.263642139800D-07 0.000000000000D+00  6 2 -4 25 24 1 -4 4 0.30714671D+00 0.29157359D-01 0.28129383D+06 0.28129383D+06 0.28129383D+06 0.11244356D+01  1  2  5  9  6  2       21 -.461002483248D-03 0.100000000000D+01
0.153644251629D-06 0.000000000000D+00 0.000000000000D+00 0.263642139800D-07 0.627189277730D-10  6 2 -3 25 24 1 -3 4 0.30743627D+00 0.29142096D-01 0.28533241D+06 0.28533241D+06 0.28533241D+06 0.11239241D+01  1  2 11  9  6  2       21 0.125760056893D-05 0.100000000000D+01
0.153644251629D-06 0.000000000000D+00 0.000000000000D+00 0.263642139800D-07 0.627189277730D-10  6 2 -4 25 24 1 -4 4 0.30743627D+00 0.29142096D-01 0.28533241D+06 0.28533241D+06 0.28533241D+06 0.11239241D+01  1  2 11  9  6  2       21 0.108102939339D-05 0.100000000000D+01
0.287993609631D-04 0.000000000000D+00 0.000000000000D+00 0.263402350408D-07 0.000000000000D+00  6 2 3 25 24 1 3 4 0.30714671D+00 0.29154800D-01 0.28533241D+06 0.28533241D+06 0.28533241D+06 0.11239241D+01  1  2 12 10  6  2       21 0.236096192715D-03 0.100000000000D+01
0.287993609631D-04 0.000000000000D+00 0.000000000000D+00 0.263402350408D-07 0.000000000000D+00  6 2 4 25 24 1 4 4 0.30714671D+00 0.29154800D-01 0.28533241D+06 0.28533241D+06 0.28533241D+06 0.11239241D+01  1  2 12 10  6  2       21 0.202933668985D-03 0.100000000000D+01
0.286072956568D-04 0.000000000000D+00 0.000000000000D+00 0.263402350408D-07 0.000000000000D+00  6 2 3 25 24 1 3 4 0.30714671D+00 0.29298961D-01 0.28533241D+06 0.28533241D+06 0.28533241D+06 0.11239241D+01  1  2 12 10  6  2       21 0.232342826689D-03 0.100000000000D+01
0.286072956568D-04 0.000000000000D+00 0.000000000000D+00 0.263402350408D-07 0.000000000000D+00  6 2 4 25 24 1 4 4 0.30714671D+00 0.29298961D-01 0.28533241D+06 0.28533241D+06 0.28533241D+06 0.11239241D+01  1  2 12 10  6  2       21 0.199668543860D-03 0.100000000000D+01
-.652965889932D-04 0.000000000000D+00 -.228665514291D-05 0.263642139800D-07 0.000000000000D+00  6 2 3 25 24 1 3 4 0.30714671D+00 0.29157359D-01 0.28129383D+06 0.28129383D+06 0.28129383D+06 0.11244356D+01  1  2  5 10  6  2       21 -.536390902371D-03 0.100000000000D+01
-.652965889932D-04 0.000000000000D+00 -.228665514291D-05 0.263642139800D-07 0.000000000000D+00  6 2 4 25 24 1 4 4 0.30714671D+00 0.29157359D-01 0.28129383D+06 0.28129383D+06 0.28129383D+06 0.11244356D+01  1  2  5 10  6  2       21 -.461002483248D-03 0.100000000000D+01
0.153644251629D-06 0.000000000000D+00 0.000000000000D+00 0.263642139800D-07 0.627189277730D-10  6 2 3 25 24 1 3 4 0.30743627D+00 0.29142096D-01 0.28533241D+06 0.28533241D+06 0.28533241D+06 0.11239241D+01  1  2 11 10  6  2       21 0.125766476878D-05 0.100000000000D+01
0.153644251629D-06 0.000000000000D+00 0.000000000000D+00 0.263642139800D-07 0.627189277730D-10  6 2 4 25 24 1 4 4 0.30743627D+00 0.29142096D-01 0.28533241D+06 0.28533241D+06 0.28533241D+06 0.11239241D+01  1  2 11 10  6  2       21 0.108102939339D-05 0.100000000000D+01
  </mgrwgt>
  </event>
  <event>
  6     66 0.43779995E-03 0.98680672E+02 0.75467711E-02 0.11124858E+00
        2 -1    0    0  502    0 0.00000000E+00 0.00000000E+00 0.74827430E+03 0.74827437E+03 0.32000000E+00 0.0000E+00 0.9000E+01
       21 -1    0    0  501  502 0.00000000E+00 0.00000000E+00 -.11845408E+03 0.11845646E+03 0.75000000E+00 0.0000E+00 0.9000E+01
       25  1    1    2    0    0 -.27019748E+02 -.28617377E+02 0.89761347E+01 0.13135674E+03 0.12500000E+03 0.0000E+00 0.9000E+01
       24  1    1    2    0    0 -.15055058E+03 0.76533717E+02 0.27644259E+03 0.33378228E+03 0.80419002E+02 0.0000E+00 0.9000E+01
        1  1    1    2  503    0 0.12122575E+03 -.39747948E+02 0.14000340E+03 0.18941129E+03 0.32000000E+00 0.0000E+00 0.9000E+01
       21  1    1    2  501  503 0.56344576E+02 -.81683923E+01 0.20439810E+03 0.21218053E+03 0.75000000E+00 0.0000E+00 0.9000E+01
#aMCatNLO 2  0  0  5  2 0.46312901D+02 0.00000000D+00  -5  6  0 0.00000000D+00 0.00000000D+00 0.00000000D+00 0.00000000D+00 0.00000000D+00
  <mgrwgt>
 0.1367839038D-01    2    2    0
 0.297720013300351D+03 0.000000000000000D+00 0.000000000000000D+00 0.297720013300351D+03
 0.297720013300351D+03 -.000000000000000D+00 -.000000000000000D+00 -.297720013300351D+03
 0.184190084310028D+03 -.328927506500903D+02 -.270325810242103D+02 -.128406750897201D+03
 0.198394273868073D+03 -.156840065861719D+03 0.782308995252859D+02 0.466282323193324D+02
 0.212855668422601D+03 0.189732816511810D+03 -.511983185010756D+02 0.817785185778685D+02
 0.000000000000000D+00 0.000000000000000D+00 0.000000000000000D+00 0.000000000000000D+00
 0.297720013300351D+03 0.000000000000000D+00 0.000000000000000D+00 0.297720013300351D+03
 0.297720013300351D+03 -.000000000000000D+00 -.000000000000000D+00 -.297720013300351D+03
 0.181708498573724D+03 -.270153146450736D+02 -.286185736115064D+02 -.125873462147458D+03
 0.193450345357222D+03 -.150545858173742D+03 0.765324434761664D+02 0.493411577362814D+02
 0.127329030177698D+03 0.120944383563980D+03 -.396789759483751D+02 0.327366430935544D+01
 0.929521524920596D+02 0.566167892548362D+02 -.823489391628491D+01 0.732586401018207D+02
-.127972944866D-04 0.000000000000D+00 0.000000000000D+00 0.693252689080D-07 0.000000000000D+00  6 2 21 25 24 1 21 4 0.11511931D+00 0.18223893D-01 0.63151843D+05 0.63151843D+05 0.63151843D+05 0.11823666D+01  1  2 13  3  6  5        1 -.330323284538D-01 0.100000000000D+01
0.180965391363D-04 0.000000000000D+00 0.000000000000D+00 0.689660295277D-07 0.228498430178D-09  6 2 21 25 24 1 21 4 0.11511931D+00 0.18223893D-01 0.63151843D+05 0.63151843D+05 0.63151843D+05 0.11823666D+01  1  2  1  3  6  5        1 0.467107188360D-01 0.100000000000D+01
  </mgrwgt>
  </event>
  <event>
  5     66 0.43779995E-03 0.19573809E+03 0.75467711E-02 0.10932728E+00
        2 -1    0    0  502    0 0.00000000E+00 0.00000000E+00 0.48592226E+03 0.48592237E+03 0.32000000E+00 0.0000E+00 0.9000E+01
       21 -1    0    0  501  502 0.00000000E+00 0.00000000E+00 -.15087356E+03 0.15087542E+03 0.75000000E+00 0.0000E+00 0.9000E+01
       25  1    1    2    0    0 -.87319897E+01 -.96539353E+02 0.72181104E+02 0.17387123E+03 0.12500000E+03 0.0000E+00 0.9000E+01
       24  1    1    2    0    0 0.69963302E+02 -.10534868E+03 0.38049776E+02 0.15462279E+03 0.80419002E+02 0.0000E+00 0.9000E+01
        1  1    1    2  501    0 -.61231313E+02 0.20188803E+03 0.22481783E+03 0.30830376E+03 0.32000000E+00 0.0000E+00 0.9000E+01
#aMCatNLO 1  0  0  1  2 0.47424170D+02 0.00000000D+00  -5  6  0 0.00000000D+00 0.00000000D+00 0.00000000D+00 0.00000000D+00 0.00000000D+00
  <mgrwgt>
 0.1365641262D-01    9    2    0
 0.270764559410804D+03 0.000000000000000D+00 0.000000000000000D+00 0.270764559410804D+03
 0.270764559410804D+03 0.000000000000000D+00 0.000000000000000D+00 -.270764559410804D+03
 0.159800553543445D+03 -.873197120228441D+01 -.965394140485782D+02 -.226960597212649D+02
 0.158283188160809D+03 0.699633207171693D+02 -.105348736551641D+03 -.509227764480599D+02
 0.223445377117354D+03 -.612313495148849D+02 0.201888150600219D+03 0.736188361693248D+02
 0.000000000000000D+00 -.000000000000000D+00 -.000000000000000D+00 0.000000000000000D+00
 0.338503723506804D+03 0.000000000000000D+00 0.000000000000000D+00 0.338503723506804D+03
 0.280230232080550D+03 0.000000000000000D+00 0.000000000000000D+00 -.280230232080550D+03
 0.151969003839242D+03 -.610421663277379D+01 -.831697393306026D+02 -.226960597212649D+02
 0.151017948951249D+03 0.725702701679889D+02 -.920849155814222D+02 -.509227764480599D+02
 0.240614774939889D+03 -.573200112965758D+02 0.221788532583198D+03 0.736188361693248D+02
 0.751322278569745D+02 -.914604223863922D+01 -.465338776711729D+02 0.582734914262538D+02
0.740159362899D-05 0.000000000000D+00 0.000000000000D+00 0.165572033819D-06 0.000000000000D+00  6 2 21 25 24 1 21 2 0.74757423D-01 0.23211468D-01 0.67344952D+05 0.67344952D+05 0.67344952D+05 0.11796814D+01  1  2  2  1  6  1        2 0.142767084038D-01 0.100000000000D+01
-.893474057163D-06 0.390592826734D-06 -.149416850433D-07 0.165572033819D-06 0.000000000000D+00  6 2 21 25 24 1 21 4 0.74757423D-01 0.23211468D-01 0.67344952D+05 0.67344952D+05 0.67344952D+05 0.11796814D+01  1  2  3  1  6  1        2 -.239835957370D-02 0.100000000000D+01
0.771620482193D-06 0.000000000000D+00 0.000000000000D+00 0.165572033819D-06 0.000000000000D+00  6 2 21 25 24 1 21 4 0.74757423D-01 0.23211468D-01 0.67344952D+05 0.67344952D+05 0.67344952D+05 0.11796814D+01  1  2 15  1  6  1        2 0.207126704563D-02 0.100000000000D+01
0.568636372095D-04 0.000000000000D+00 0.000000000000D+00 0.163454121575D-06 0.000000000000D+00  6 2 21 25 24 1 21 4 0.94536438D-01 0.23211468D-01 0.80922645D+05 0.80922645D+05 0.80922645D+05 0.11721122D+01  1  2 12  1  6  1        2 0.113193704480D+00 0.100000000000D+01
-.632857388548D-04 0.000000000000D+00 0.000000000000D+00 0.165572033819D-06 0.000000000000D+00  6 2 21 25 24 1 21 4 0.74757423D-01 0.23211468D-01 0.67344952D+05 0.67344952D+05 0.67344952D+05 0.11796814D+01  1  2  4  1  6  1        2 -.169878416104D+00 0.100000000000D+01
-.837164480559D-04 0.000000000000D+00 -.144800194000D-04 0.165572033819D-06 0.000000000000D+00  6 2 21 25 24 1 21 4 0.95450490D-01 0.23211468D-01 0.67344952D+05 0.67344952D+05 0.67344952D+05 0.11796814D+01  1  2  5  1  6  1        2 -.169892119018D+00 0.100000000000D+01
0.851225202798D-04 0.000000000000D+00 0.140582090276D-04 0.165572033819D-06 0.000000000000D+00  6 2 21 25 24 1 21 4 0.74757423D-01 0.23211468D-01 0.67344952D+05 0.67344952D+05 0.67344952D+05 0.11796814D+01  1  2  6  1  6  1        2 0.228495063526D+00 0.100000000000D+01
0.183663794815D-05 0.000000000000D+00 0.000000000000D+00 0.163454121575D-06 0.000000000000D+00  6 21 21 25 24 1 -2 4 0.94536438D-01 0.23211468D-01 0.80922645D+05 0.80922645D+05 0.80922645D+05 0.11721122D+01  1  2 12  4  6  1        2 0.538830174646D-02 0.100000000000D+01
-.255211600356D-05 0.000000000000D+00 -.481855146649D-06 0.165572033819D-06 0.000000000000D+00  6 21 21 25 24 1 -2 4 0.95450490D-01 0.23211468D-01 0.67344952D+05 0.67344952D+05 0.67344952D+05 0.11796814D+01  1  2  5  4  6  1        2 -.759973788250D-02 0.100000000000D+01
  </mgrwgt>
  </event>
  <event>
  5     66 0.43779995E-03 0.36851790E+02 0.75467711E-02 0.11719516E+00
        4 -1    0    0  502    0 0.00000000E+00 0.00000000E+00 0.18780370E+03 0.18781010E+03 0.15500000E+01 0.0000E+00 0.9000E+01
       21 -1    0    0  501  502 0.00000000E+00 0.00000000E+00 -.16071406E+03 0.16071581E+03 0.75000000E+00 0.0000E+00 0.9000E+01
       25  1    1    2    0    0 0.72476829E+02 0.61779051E+02 0.28774386E+01 0.15717131E+03 0.12500000E+03 0.0000E+00 0.9000E+01
       24  1    1    2    0    0 -.81915046E+02 -.97398818E+02 0.31457853E+02 0.15379667E+03 0.80419002E+02 0.0000E+00 0.9000E+01
        3  1    1    2  501    0 0.94382174E+01 0.35619767E+02 -.72456445E+01 0.37557917E+02 0.50000000E+00 0.0000E+00 0.9000E+01
#aMCatNLO 1  0  0  2  1 0.69476637D+01 0.00000000D+00  -5  6  0 0.00000000D+00 0.00000000D+00 0.00000000D+00 0.00000000D+00 0.00000000D+00
  <mgrwgt>
 0.2358931275D-01   32    2    0
 0.173735759477795D+03 0.000000000000000D+00 0.000000000000000D+00 0.173735759477795D+03
 0.173735759477795D+03 0.000000000000000D+00 0.000000000000000D+00 -.173735759477795D+03
 0.157423176064272D+03 0.724764629289723D+02 0.617776712455116D+02 -.936685747459952D+01
 0.151811931781027D+03 -.819153985396169D+02 -.974001489080024D+02 0.195633624796813D+02
 0.382364111102913D+02 0.943893561064467D+01 0.356224776624908D+02 -.101965050050818D+02
 0.000000000000000D+00 -.000000000000000D+00 -.000000000000000D+00 -.000000000000000D+00
 0.175193478842254D+03 0.000000000000000D+00 0.000000000000000D+00 0.175193478842254D+03
 0.182250853941298D+03 0.000000000000000D+00 0.000000000000000D+00 -.182250853941298D+03
 0.159149654256278D+03 0.755557270338253D+02 0.625076518782577D+02 -.936685747459952D+01
 0.149799322849857D+03 -.789816637997653D+02 -.967046679525590D+02 0.195633624796813D+02
 0.385919938840863D+02 0.101862358432412D+02 0.357996351514448D+02 -.101965050050818D+02
 0.990336179332992D+01 -.676029907730123D+01 -.160261907714350D+01 -.705737509904375D+01
0.223061129678D-05 0.000000000000D+00 0.000000000000D+00 0.356989436288D-06 0.000000000000D+00  6 4 21 25 24 3 21 2 0.28893504D-01 0.24725866D-01 0.29677329D+05 0.29677329D+05 0.29677329D+05 0.12153916D+01  1  2  2  2  6  2       21 0.243205820736D-02 0.100000000000D+01
0.596881422175D-07 0.117712592102D-06 -.450296154059D-08 0.356989436288D-06 0.000000000000D+00  6 4 21 25 24 3 21 4 0.28893504D-01 0.24725866D-01 0.29677329D+05 0.29677329D+05 0.29677329D+05 0.12153916D+01  1  2  3  2  6  2       21 0.961325809778D-04 0.100000000000D+01
0.229180547047D-06 0.000000000000D+00 0.000000000000D+00 0.356989436288D-06 0.000000000000D+00  6 4 21 25 24 3 21 4 0.28893504D-01 0.24725866D-01 0.29677329D+05 0.29677329D+05 0.29677329D+05 0.12153916D+01  1  2 15  2  6  2       21 0.369113808522D-03 0.100000000000D+01
0.131888769065D-04 0.000000000000D+00 0.000000000000D+00 0.355911832688D-06 0.000000000000D+00  6 4 21 25 24 3 21 4 0.28893504D-01 0.26038331D-01 0.30898328D+05 0.30898328D+05 0.30898328D+05 0.12135558D+01  1  2 12  2  6  2       21 0.191517381384D-01 0.100000000000D+01
-.100458829798D-04 0.000000000000D+00 0.000000000000D+00 0.356989436288D-06 0.000000000000D+00  6 4 21 25 24 3 21 4 0.28893504D-01 0.24725866D-01 0.29677329D+05 0.29677329D+05 0.29677329D+05 0.12153916D+01  1  2  4  2  6  2       21 -.161797071104D-01 0.100000000000D+01
-.109408180678D-03 0.000000000000D+00 -.129353081514D-04 0.356989436288D-06 0.000000000000D+00  6 4 21 25 24 3 21 4 0.28893504D-01 0.26123090D-01 0.29677329D+05 0.29677329D+05 0.29677329D+05 0.12153916D+01  1  2  5  2  6  2       21 -.158673451716D+00 0.100000000000D+01
0.109429432942D-03 0.000000000000D+00 0.128574691398D-04 0.356989436288D-06 0.000000000000D+00  6 4 21 25 24 3 21 4 0.28893504D-01 0.24725866D-01 0.29677329D+05 0.29677329D+05 0.29677329D+05 0.12153916D+01  1  2  6  2  6  2       21 0.176244953065D+00 0.100000000000D+01
0.762708257632D-06 0.000000000000D+00 0.000000000000D+00 0.356989436288D-06 0.981720416110D-07  6 4 21 25 24 3 21 4 0.29135933D-01 0.25937724D-01 0.30898328D+05 0.30898328D+05 0.30898328D+05 0.12135558D+01  1  2 11  2  6  2       21 0.109827216720D-02 0.100000000000D+01
0.275836177850D-06 0.000000000000D+00 0.000000000000D+00 0.355911832688D-06 0.000000000000D+00  6 4 -3 25 24 3 -3 4 0.28893504D-01 0.26038331D-01 0.30898328D+05 0.30898328D+05 0.30898328D+05 0.12135558D+01  1  2 12  5  6  2       21 0.194965175740D-04 0.100000000000D+01
-.130587522626D-05 0.000000000000D+00 -.171068945151D-06 0.356989436288D-06 0.000000000000D+00  6 4 -3 25 24 3 -3 4 0.28893504D-01 0.26123090D-01 0.29677329D+05 0.29677329D+05 0.29677329D+05 0.12153916D+01  1  2  5  5  6  2       21 -.920454392237D-04 0.100000000000D+01
0.155626661879D-06 0.000000000000D+00 0.000000000000D+00 0.356989436288D-06 0.191579973170D-07  6 4 -3 25 24 3 -3 4 0.29135933D-01 0.25937724D-01 0.30898328D+05 0.30898328D+05 0.30898328D+05 0.12135558D+01  1  2 11  5  6  2       21 0.109042109462D-04 0.100000000000D+01
0.275836177850D-06 0.000000000000D+00 0.000000000000D+00 0.355911832688D-06 0.000000000000D+00  6 4 3 25 24 3 3 4 0.28893504D-01 0.26038331D-01 0.30898328D+05 0.30898328D+05 0.30898328D+05 0.12135558D+01  1  2 12  6  6  2       21 0.194960291035D-04 0.100000000000D+01
-.130587522626D-05 0.000000000000D+00 -.171068945151D-06 0.356989436288D-06 0.000000000000D+00  6 4 3 25 24 3 3 4 0.28893504D-01 0.26123090D-01 0.29677329D+05 0.29677329D+05 0.29677329D+05 0.12153916D+01  1  2  5  6  6  2       21 -.920431631369D-04 0.100000000000D+01
0.252012392676D-07 0.000000000000D+00 0.000000000000D+00 0.356989436288D-06 0.697190510709D-09  6 4 3 25 24 3 3 4 0.29135933D-01 0.25937724D-01 0.30898328D+05 0.30898328D+05 0.30898328D+05 0.12135558D+01  1  2 11  6  6  2       21 0.176571550155D-05 0.100000000000D+01
0.275836177850D-06 0.000000000000D+00 0.000000000000D+00 0.355911832688D-06 0.000000000000D+00  6 4 -4 25 24 3 -4 4 0.28893504D-01 0.26038331D-01 0.30898328D+05 0.30898328D+05 0.30898328D+05 0.12135558D+01  1  2 12  7  6  2       21 0.165256416149D-04 0.100000000000D+01
-.130587522626D-05 0.000000000000D+00 -.171068945151D-06 0.356989436288D-06 0.000000000000D+00  6 4 -4 25 24 3 -4 4 0.28893504D-01 0.26123090D-01 0.29677329D+05 0.29677329D+05 0.29677329D+05 0.12153916D+01  1  2  5  7  6  2       21 -.779774826597D-04 0.100000000000D+01
0.254890962023D-07 0.000000000000D+00 0.000000000000D+00 0.356989436288D-06 0.136693474622D-08  6 4 -4 25 24 3 -4 4 0.29135933D-01 0.25937724D-01 0.30898328D+05 0.30898328D+05 0.30898328D+05 0.12135558D+01  1  2 11  7  6  2       21 0.151402290738D-05 0.100000000000D+01
0.275836177850D-06 0.000000000000D+00 0.000000000000D+00 0.355911832688D-06 0.000000000000D+00  6 4 4 25 24 3 4 4 0.28893504D-01 0.26038331D-01 0.30898328D+05 0.30898328D+05 0.30898328D+05 0.12135558D+01  1  2 12  8  6  2       21 0.165256416149D-04 0.100000000000D+01
-.130587522626D-05 0.000000000000D+00 -.171068945151D-06 0.356989436288D-06 0.000000000000D+00  6 4 4 25 24 3 4 4 0.28893504D-01 0.26123090D-01 0.29677329D+05 0.29677329D+05 0.29677329D+05 0.12153916D+01  1  2  5  8  6  2       21 -.779774826597D-04 0.100000000000D+01
0.254563805850D-07 0.000000000000D+00 0.000000000000D+00 0.356989436288D-06 0.146474365646D-08  6 4 4 25 24 3 4 4 0.29135933D-01 0.25937724D-01 0.30898328D+05 0.30898328D+05 0.30898328D+05 0.12135558D+01  1  2 11  8  6  2       21 0.151207963746D-05 0.100000000000D+01
0.275836177850D-06 0.000000000000D+00 0.000000000000D+00 0.355911832688D-06 0.000000000000D+00  6 4 -1 25 24 3 -1 4 0.28893504D-01 0.26038331D-01 0.30898328D+05 0.30898328D+05 0.30898328D+05 0.12135558D+01  1  2 12  9  6  2       21 0.337396937988D-04 0.100000000000D+01
0.275836177850D-06 0.000000000000D+00 0.000000000000D+00 0.355911832688D-06 0.000000000000D+00  6 4 -2 25 24 3 -2 4 0.28893504D-01 0.26038331D-01 0.30898328D+05 0.30898328D+05 0.30898328D+05 0.12135558D+01  1  2 12  9  6  2       21 0.300985163039D-04 0.100000000000D+01
-.130587522626D-05 0.000000000000D+00 -.171068945151D-06 0.356989436288D-06 0.000000000000D+00  6 4 -1 25 24 3 -1 4 0.28893504D-01 0.26123090D-01 0.29677329D+05 0.29677329D+05 0.29677329D+05 0.12153916D+01  1  2  5  9  6  2       21 -.159519303668D-03 0.100000000000D+01
-.130587522626D-05 0.000000000000D+00 -.171068945151D-06 0.356989436288D-06 0.000000000000D+00  6 4 -2 25 24 3 -2 4 0.28893504D-01 0.26123090D-01 0.29677329D+05 0.29677329D+05 0.29677329D+05 0.12153916D+01  1  2  5  9  6  2       21 -.142247420453D-03 0.100000000000D+01
0.254574772056D-07 0.000000000000D+00 0.000000000000D+00 0.356989436288D-06 0.136523907585D-08  6 4 -1 25 24 3 -1 4 0.29135933D-01 0.25937724D-01 0.30898328D+05 0.30898328D+05 0.30898328D+05 0.12135558D+01  1  2 11  9  6  2       21 0.308484073716D-05 0.100000000000D+01
0.254574772056D-07 0.000000000000D+00 0.000000000000D+00 0.356989436288D-06 0.136523907585D-08  6 4 -2 25 24 3 -2 4 0.29135933D-01 0.25937724D-01 0.30898328D+05 0.30898328D+05 0.30898328D+05 0.12135558D+01  1  2 11  9  6  2       21 0.275305247290D-05 0.100000000000D+01
0.275836177850D-06 0.000000000000D+00 0.000000000000D+00 0.355911832688D-06 0.000000000000D+00  6 4 1 25 24 3 1 4 0.28893504D-01 0.26038331D-01 0.30898328D+05 0.30898328D+05 0.30898328D+05 0.12135558D+01  1  2 12 10  6  2       21 0.558856212771D-04 0.100000000000D+01
0.275836177850D-06 0.000000000000D+00 0.000000000000D+00 0.355911832688D-06 0.000000000000D+00  6 4 2 25 24 3 2 4 0.28893504D-01 0.26038331D-01 0.30898328D+05 0.30898328D+05 0.30898328D+05 0.12135558D+01  1  2 12 10  6  2       21 0.718322957985D-04 0.100000000000D+01
-.130587522626D-05 0.000000000000D+00 -.171068945151D-06 0.356989436288D-06 0.000000000000D+00  6 4 1 25 24 3 1 4 0.28893504D-01 0.26123090D-01 0.29677329D+05 0.29677329D+05 0.29677329D+05 0.12153916D+01  1  2  5 10  6  2       21 -.264567738717D-03 0.100000000000D+01
-.130587522626D-05 0.000000000000D+00 -.171068945151D-06 0.356989436288D-06 0.000000000000D+00  6 4 2 25 24 3 2 4 0.28893504D-01 0.26123090D-01 0.29677329D+05 0.29677329D+05 0.29677329D+05 0.12153916D+01  1  2  5 10  6  2       21 -.340207642787D-03 0.100000000000D+01
0.254574772056D-07 0.000000000000D+00 0.000000000000D+00 0.356989436288D-06 0.136523907585D-08  6 4 1 25 24 3 1 4 0.29135933D-01 0.25937724D-01 0.30898328D+05 0.30898328D+05 0.30898328D+05 0.12135558D+01  1  2 11 10  6  2       21 0.510178262947D-05 0.100000000000D+01
0.254574772056D-07 0.000000000000D+00 0.000000000000D+00 0.356989436288D-06 0.136523907585D-08  6 4 2 25 24 3 2 4 0.29135933D-01 0.25937724D-01 0.30898328D+05 0.30898328D+05 0.30898328D+05 0.12135558D+01  1  2 11 10  6  2       21 0.655361639978D-05 0.100000000000D+01
  </mgrwgt>
  </event>
  <event>
  6     66 0.43779995E-03 0.58182582E+03 0.75467711E-02 0.97378483E-01
        4 -1    0    0  502    0 0.00000000E+00 0.00000000E+00 0.11461109E+04 0.11461120E+04 0.15500000E+01 0.0000E+00 0.9000E+01
       21 -1    0    0  501  502 0.00000000E+00 0.00000000E+00 -.46109991E+03 0.46110052E+03 0.75000000E+00 0.0000E+00 0.9000E+01
       25  1    1    2    0    0 -.26953578E+02 0.26447094E+02 -.63746338E+02 0.14530843E+03 0.12500000E+03 0.0000E+00 0.9000E+01
       24  1    1    2    0    0 -.35263094E+02 0.57529079E+03 0.29728609E+03 0.65349002E+03 0.80419002E+02 0.0000E+00 0.9000E+01
        3  1    1    2  503    0 0.82255709E+01 -.60907126E+03 0.44319353E+03 0.75329689E+03 0.50000000E+00 0.0000E+00 0.9000E+01
       21  1    1    2  501  503 0.53991102E+02 0.73333800E+01 0.82777378E+01 0.55117157E+02 0.75000000E+00 0.0000E+00 0.9000E+01
#aMCatNLO 2  0  0  5  1 0.56868451D+02 0.00000000D+00  -5  6  0 0.00000000D+00 0.00000000D+00 0.00000000D+00 0.00000000D+00 0.00000000D+00
  <mgrwgt>
 0.6909081439D-03    2    2    0
 0.726961473275654D+03 0.000000000000000D+00 0.000000000000000D+00 0.726961473275654D+03
 0.726961473275654D+03 -.000000000000000D+00 -.000000000000000D+00 -.726961473275654D+03
 0.193365926759709D+03 -.278336600061310D+02 0.349589378175606D+02 -.140600646047492D+03
 0.608420268555119D+03 -.379919337717914D+02 0.601683165284130D+03 0.155559897230006D+02
 0.652136751236480D+03 0.658255937779224D+02 -.636642103101691D+03 0.125044656324491D+03
 0.000000000000000D+00 0.000000000000000D+00 0.000000000000000D+00 -.000000000000000D+00
 0.726961473275654D+03 0.000000000000000D+00 0.000000000000000D+00 0.726961473275654D+03
 0.726961473275654D+03 -.000000000000000D+00 -.000000000000000D+00 -.726961473275654D+03
 0.190659952851277D+03 -.269527173256959D+02 0.264387685551851D+02 -.138927175769529D+03
 0.582298113643564D+03 -.352604651418124D+02 0.575265356748852D+03 0.207447853949268D+02
 0.623882543660806D+03 0.816573527142040D+01 -.609042777810855D+03 0.135017198343736D+03
 0.570823363956603D+02 0.540474471960878D+02 0.733865250681768D+01 -.168348079691334D+02
-.233549562275D-04 0.000000000000D+00 0.000000000000D+00 0.176322734844D-07 0.000000000000D+00  6 4 21 25 24 3 21 4 0.17632489D+00 0.70938576D-01 0.47679351D+06 0.47679351D+06 0.47679351D+06 0.11059665D+01  1  2  8  3  6  5        3 -.478725359053D-04 0.100000000000D+01
0.359968962519D-03 0.000000000000D+00 0.000000000000D+00 0.176322734844D-07 0.729034664355D-10  6 4 21 25 24 3 21 4 0.17632489D+00 0.70938576D-01 0.47344500D+06 0.47344500D+06 0.47344500D+06 0.11062071D+01  1  2  1  3  6  5        3 0.738780679853D-03 0.100000000000D+01
  </mgrwgt>
  </event>
  <event>
  6     66 0.43779995E-03 0.25710613E+02 0.75467711E-02 0.12174861E+00
        2 -1    0    0  502    0 0.00000000E+00 0.00000000E+00 0.42060732E+04 0.42060732E+04 0.32000000E+00 0.0000E+00 0.9000E+01
       21 -1    0    0  501  502 0.00000000E+00 0.00000000E+00 -.70288305E+01 0.70687311E+01 0.75000000E+00 0.0000E+00 0.9000E+01
       25  1    1    2    0    0 -.22415657E+02 -.11810485E+02 0.23946922E+04 0.23980862E+04 0.12500000E+03 0.0000E+00 0.9000E+01
       24  1    1    2    0    0 0.12670618E+02 0.50796767E+02 0.50116321E+03 0.51026722E+03 0.80419002E+02 0.0000E+00 0.9000E+01
        1  1    1    2  503    0 -.10944838E+02 -.12627955E+02 0.91572924E+03 0.91588176E+03 0.32000000E+00 0.0000E+00 0.9000E+01
       21  1    1    2  501  503 0.20689878E+02 -.26358327E+02 0.38745976E+03 0.38890675E+03 0.75000000E+00 0.0000E+00 0.9000E+01
#aMCatNLO 2  0  0  5  2 0.25185305D+02 0.00000000D+00  -5  6  0 0.00000000D+00 0.00000000D+00 0.00000000D+00 0.00000000D+00 0.00000000D+00
  <mgrwgt>
 0.4323006659D-01    2    2    0
 0.172185523446780D+03 0.000000000000000D+00 0.000000000000000D+00 0.172185523446780D+03
 0.172185523446780D+03 -.000000000000000D+00 -.000000000000000D+00 -.172185523446780D+03
 0.137307095475548D+03 -.239813758043543D+02 -.554662664623319D+01 0.512090520836774D+02
 0.137858157398752D+03 0.111450920928456D+02 0.568998273323195D+02 -.957906685371944D+02
 0.692057940192604D+02 0.128362837115087D+02 -.513532006860863D+02 0.445816164535169D+02
 0.000000000000000D+00 0.000000000000000D+00 0.000000000000000D+00 0.000000000000000D+00
 0.172185523446780D+03 0.000000000000000D+00 0.000000000000000D+00 0.172185523446780D+03
 0.172185523446780D+03 -.000000000000000D+00 -.000000000000000D+00 -.172185523446780D+03
 0.139559834627763D+03 -.224131247409518D+02 -.118206163300909D+02 0.566557350164289D+02
 0.131888307960014D+03 0.126730108695305D+02 0.507871921386310D+02 -.904840634164911D+02
 0.389464531693368D+02 -.110961200738105D+02 -.121691035658082D+02 0.352932748860680D+02
 0.339764511364457D+02 0.208362339452318D+02 -.267974722427319D+02 -.146494648600582D+01
-.673147529826D-05 0.000000000000D+00 0.000000000000D+00 0.120700808832D-06 0.000000000000D+00  6 2 21 25 24 1 21 4 0.64709126D+00 0.10844288D-02 0.18756635D+05 0.18756635D+05 0.18756635D+05 0.12369067D+01  1  2 13  3  6  5        1 -.222917512784D-01 0.100000000000D+01
0.197857267009D-04 0.000000000000D+00 0.000000000000D+00 0.120323727457D-06 0.242016420873D-08  6 2 21 25 24 1 21 4 0.64709126D+00 0.10844288D-02 0.18756635D+05 0.18756635D+05 0.18756635D+05 0.12369067D+01  1  2  1  3  6  5        1 0.655218178686D-01 0.100000000000D+01
  </mgrwgt>
  </event>
  <event>
  5     66 0.43779995E-03 0.74409901E+02 0.75467711E-02 0.11852907E+00
        2 -1    0    0  502    0 0.00000000E+00 0.00000000E+00 0.81196314E+03 0.81196320E+03 0.32000000E+00 0.0000E+00 0.9000E+01
       21 -1    0    0  501  502 0.00000000E+00 0.00000000E+00 -.37993689E+02 0.38001091E+02 0.75000000E+00 0.0000E+00 0.9000E+01
       25  1    1    2    0    0 0.84215546E+02 -.37166859E+02 0.28416474E+03 0.32380277E+03 0.12500000E+03 0.0000E+00 0.9000E+01
       24  1    1    2    0    0 -.11401804E+02 0.52494156E+02 0.38916010E+03 0.40099680E+03 0.80419002E+02 0.0000E+00 0.9000E+01
        1  1    1    2  501    0 -.72813742E+02 -.15327297E+02 0.10064461E+03 0.12516472E+03 0.32000000E+00 0.0000E+00 0.9000E+01
#aMCatNLO 1  0  0  5  2 0.35082762D+01 0.00000000D+00  -5  6  0 0.00000000D+00 0.00000000D+00 0.00000000D+00 0.00000000D+00 0.00000000D+00
  <mgrwgt>
 0.1558740249D-01    8    2    0
 0.175649216365060D+03 0.000000000000000D+00 0.000000000000000D+00 0.175649216365060D+03
 0.175649216365060D+03 -.000000000000000D+00 -.000000000000000D+00 -.175649216365060D+03
 0.157376166137798D+03 0.842157997649182D+02 -.371668056003693D+02 -.258570164491430D+02
 0.112824160538373D+03 -.114016216190651D+02 0.524941943679363D+02 0.581071237365521D+02
 0.810981060539491D+02 -.728141781458532D+02 -.153273887675670D+02 -.322501072874092D+02
 0.000000000000000D+00 0.000000000000000D+00 -.000000000000000D+00 0.000000000000000D+00
 0.175649216365060D+03 0.000000000000000D+00 0.000000000000000D+00 0.175649216365060D+03
 0.175649216365060D+03 -.000000000000000D+00 -.000000000000000D+00 -.175649216365060D+03
 0.157276799503067D+03 0.839745132463236D+02 -.372175964266760D+02 -.259638845936422D+02
 0.112785393541484D+03 -.115746266430436D+02 0.524577768002484D+02 0.580304981297453D+02
 0.689193781953828D+02 -.613113040546074D+02 -.104294819310820D+02 -.296989998587649D+02
 0.123168614901859D+02 -.110885825486726D+02 -.481069844249041D+01 -.236761367733824D+01
0.390127684937D-06 0.000000000000D+00 0.000000000000D+00 0.257161398834D-06 0.000000000000D+00  6 2 21 25 24 1 21 2 0.12491798D+00 0.58457571D-02 0.26627308D+05 0.26627308D+05 0.26627308D+05 0.12203722D+01  1  2  2  3  6  5        1 0.527419708977D-02 0.100000000000D+01
-.180029465580D-07 0.205876035466D-07 -.787555395120D-09 0.257161398834D-06 0.000000000000D+00  6 2 21 25 24 1 21 4 0.12491798D+00 0.58457571D-02 0.26627308D+05 0.26627308D+05 0.26627308D+05 0.12203722D+01  1  2  3  3  6  5        1 -.362474796761D-03 0.100000000000D+01
0.431462424609D-07 0.000000000000D+00 0.000000000000D+00 0.257161398834D-06 0.000000000000D+00  6 2 21 25 24 1 21 4 0.12491798D+00 0.58457571D-02 0.26627308D+05 0.26627308D+05 0.26627308D+05 0.12203722D+01  1  2 15  3  6  5        1 0.868714763808D-03 0.100000000000D+01
0.267199344188D-06 0.000000000000D+00 0.000000000000D+00 0.257191076216D-06 0.000000000000D+00  6 2 21 25 24 1 21 4 0.12491798D+00 0.58457571D-02 0.26586775D+05 0.26586775D+05 0.26586775D+05 0.12204427D+01  1  2 12  3  6  5        1 0.538107898268D-02 0.100000000000D+01
-.642932865906D-05 0.000000000000D+00 0.000000000000D+00 0.257161398834D-06 0.000000000000D+00  6 2 21 25 24 1 21 4 0.12491798D+00 0.58457571D-02 0.26627308D+05 0.26627308D+05 0.26627308D+05 0.12203722D+01  1  2  4  3  6  5        1 -.129449342722D+00 0.100000000000D+01
-.708385692620D-05 0.000000000000D+00 0.000000000000D+00 0.257161398834D-06 0.000000000000D+00  6 2 21 25 24 1 21 4 0.12491798D+00 0.58457571D-02 0.26627308D+05 0.26627308D+05 0.26627308D+05 0.12203722D+01  1  2  5  3  6  5        1 -.142627741039D+00 0.100000000000D+01
0.834029485523D-05 0.000000000000D+00 -.000000000000D+00 0.257161398834D-06 0.000000000000D+00  6 2 21 25 24 1 21 4 0.12491798D+00 0.58457571D-02 0.26627308D+05 0.26627308D+05 0.26627308D+05 0.12203722D+01  1  2  6  3  6  5        1 0.167925104528D+00 0.100000000000D+01
0.539147159843D-05 0.000000000000D+00 0.000000000000D+00 0.257161398834D-06 0.951874352969D-07  6 2 21 25 24 1 21 4 0.12491798D+00 0.58457571D-02 0.26586775D+05 0.26586775D+05 0.26586775D+05 0.12204427D+01  1  2 11  3  6  5        1 0.108577865684D+00 0.100000000000D+01
  </mgrwgt>
  </event>
  <event>
  5     66 -.43779995E-03 0.78744434E+02 0.75467711E-02 0.11757348E+00
        2 -1    0    0  502    0 0.00000000E+00 0.00000000E+00 0.25676818E+04 0.25676818E+04 0.32000000E+00 0.0000E+00 0.9000E+01
       21 -1    0    0  501  502 0.00000000E+00 0.00000000E+00 -.11868302E+02 0.11891976E+02 0.75000000E+00 0.0000E+00 0.9000E+01
       25  1    1    2    0    0 -.30437284E+01 0.15661066E+02 0.79940962E+03 0.80928071E+03 0.12500000E+03 0.0000E+00 0.9000E+01
       24  1    1    2    0    0 0.90169051E+02 -.41869692E+02 0.11529280E+04 0.11599973E+04 0.80419002E+02 0.0000E+00 0.9000E+01
        1  1    1    2  501    0 -.87125323E+02 0.26208626E+02 0.60347592E+03 0.61029584E+03 0.32000000E+00 0.0000E+00 0.9000E+01
#aMCatNLO 1  0  0  5  2 0.49719134D+01 0.00000000D+00  -5  6  0 0.00000000D+00 0.00000000D+00 0.00000000D+00 0.00000000D+00 0.00000000D+00
  <mgrwgt>
 -.7868979669D-01    8    2    0
 0.174655614041024D+03 0.000000000000000D+00 0.000000000000000D+00 0.174655614041024D+03
 0.174655614041024D+03 -.000000000000000D+00 -.000000000000000D+00 -.174655614041024D+03
 0.127271663390751D+03 -.304353384476109D+01 0.156610076833237D+02 -.178478581999966D+02
 0.130627723013624D+03 0.901692510685321D+02 -.418697522206568D+02 0.266986156209316D+02
 0.914118416776729D+02 -.871257172237710D+02 0.262087445373331D+02 -.885075742093499D+01
 0.000000000000000D+00 0.000000000000000D+00 0.000000000000000D+00 -.000000000000000D+00
 0.174655614041024D+03 0.000000000000000D+00 0.000000000000000D+00 0.174655614041024D+03
 0.174655614041024D+03 -.000000000000000D+00 -.000000000000000D+00 -.174655614041024D+03
 0.127294208444347D+03 -.333845610406082D+01 0.157497247969230D+02 -.178778181872228D+02
 0.130383713187170D+03 0.898668614280336D+02 -.417787888049043D+02 0.266678970519494D+02
 0.730867155217901D+02 -.695509045411753D+02 0.223394692088161D+02 -.229951706576789D+01
 0.185465909287400D+02 -.169775007827975D+02 0.368959479916526D+01 -.649056179895879D+01
0.952340768571D-06 0.000000000000D+00 0.000000000000D+00 0.216675138910D-06 0.000000000000D+00  6 2 21 25 24 1 21 2 0.39502979D+00 0.18277152D-02 0.29733235D+05 0.29733235D+05 0.29733235D+05 0.12153057D+01  1  2  2  3  6  5        1 0.970967741566D-02 0.100000000000D+01
-.691970949771D-07 0.502564030742D-07 -.192250163021D-08 0.216675138910D-06 0.000000000000D+00  6 2 21 25 24 1 21 4 0.39502979D+00 0.18277152D-02 0.29733235D+05 0.29733235D+05 0.29733235D+05 0.12153057D+01  1  2  3  3  6  5        1 -.104200878732D-02 0.100000000000D+01
0.103784290655D-06 0.000000000000D+00 0.000000000000D+00 0.216675138910D-06 0.000000000000D+00  6 2 21 25 24 1 21 4 0.39502979D+00 0.18277152D-02 0.29733235D+05 0.29733235D+05 0.29733235D+05 0.12153057D+01  1  2 15  3  6  5        1 0.156284223902D-02 0.100000000000D+01
0.482692159475D-05 0.000000000000D+00 0.000000000000D+00 0.216749068600D-06 0.000000000000D+00  6 2 21 25 24 1 21 4 0.39502979D+00 0.18277152D-02 0.29598482D+05 0.29598482D+05 0.29598482D+05 0.12155130D+01  1  2 12  3  6  5        1 0.727439381235D-01 0.100000000000D+01
-.265241605528D-04 0.000000000000D+00 0.000000000000D+00 0.216675138910D-06 0.000000000000D+00  6 2 21 25 24 1 21 4 0.39502979D+00 0.18277152D-02 0.29733235D+05 0.29733235D+05 0.29733235D+05 0.12153057D+01  1  2  4  3  6  5        1 -.399415732428D+00 0.100000000000D+01
-.123630625432D-04 0.000000000000D+00 0.000000000000D+00 0.216675138910D-06 0.000000000000D+00  6 2 21 25 24 1 21 4 0.39502979D+00 0.18277152D-02 0.29733235D+05 0.29733235D+05 0.29733235D+05 0.12153057D+01  1  2  5  3  6  5        1 -.186169951389D+00 0.100000000000D+01
0.151194648690D-04 0.000000000000D+00 -.000000000000D+00 0.216675138910D-06 0.000000000000D+00  6 2 21 25 24 1 21 4 0.39502979D+00 0.18277152D-02 0.29733235D+05 0.29733235D+05 0.29733235D+05 0.12153057D+01  1  2  6  3  6  5        1 0.227677408397D+00 0.100000000000D+01
0.130217660667D-04 0.000000000000D+00 0.000000000000D+00 0.216675138910D-06 0.766999257868D-07  6 2 21 25 24 1 21 4 0.39502979D+00 0.18277152D-02 0.29598482D+05 0.29598482D+05 0.29598482D+05 0.12155130D+01  1  2 11  3  6  5        1 0.196244029744D+00 0.100000000000D+01
  </mgrwgt>
  </event>
  <event>
  5     66 -.43779995E-03 0.84480949E+02 0.75467711E-02 0.11852228E+00
        2 -1    0    0  502    0 0.00000000E+00 0.00000000E+00 0.32065290E+03 0.32065306E+03 0.32000000E+00 0.0000E+00 0.9000E+01
       21 -1    0    0  501  502 0.00000000E+00 0.00000000E+00 -.11533287E+03 0.11533531E+03 0.75000000E+00 0.0000E+00 0.9000E+01
       25  1    1    2    0    0 -.26144009E+02 0.45991887E+01 0.17341654E+03 0.21541346E+03 0.12500000E+03 0.0000E+00 0.9000E+01
       24  1    1    2    0    0 0.20402475E+02 0.79686215E+02 0.62261417E+02 0.13080464E+03 0.80419002E+02 0.0000E+00 0.9000E+01
        1  1    1    2  501    0 0.57415332E+01 -.84285403E+02 -.30357928E+02 0.89770266E+02 0.32000000E+00 0.0000E+00 0.9000E+01
#aMCatNLO 1  0  0  5  2 0.95507721D+01 0.00000000D+00  -5  6  0 0.00000000D+00 0.00000000D+00 0.00000000D+00 0.00000000D+00 0.00000000D+00
  <mgrwgt>
 -.1132890941D+00    8    2    0
 0.192308047388347D+03 0.000000000000000D+00 0.000000000000000D+00 0.192308047388347D+03
 0.192308047388347D+03 -.000000000000000D+00 -.000000000000000D+00 -.192308047388347D+03
 0.151610658854779D+03 -.261440169049848D+02 0.459931096761201D+01 0.815851003374718D+02
 0.115038892661596D+03 0.204024690709185D+02 0.796863073167227D+02 0.750034979629347D+00
 0.117966543260319D+03 0.574154783406629D+01 -.842856182843347D+02 -.823351353171012D+02
 0.000000000000000D+00 0.000000000000000D+00 0.000000000000000D+00 -.000000000000000D+00
 0.192308047388347D+03 0.000000000000000D+00 0.000000000000000D+00 0.192308047388347D+03
 0.192308047388347D+03 -.000000000000000D+00 -.000000000000000D+00 -.192308047388347D+03
 0.151270468381723D+03 -.261029644324683D+02 0.399666284411703D+01 0.809963983049475D+02
 0.114726182980968D+03 0.204336114023643D+02 0.792291395395685D+02 0.303446681876942D+00
 0.288507057586089D+02 0.516745433976861D+01 -.254258272386760D+02 -.126169706207648D+02
 0.897687376553944D+02 0.501898690335347D+00 -.577999751450096D+02 -.686828743660597D+02
0.278249796465D-05 0.000000000000D+00 0.000000000000D+00 0.449685879585D-06 0.000000000000D+00  6 2 21 25 24 1 21 2 0.49331415D-01 0.17743718D-01 0.26782136D+05 0.26782136D+05 0.26782136D+05 0.12201044D+01  1  2  2  3  6  5        1 0.150971533033D-01 0.100000000000D+01
-.801511445474D-07 0.146836451698D-06 -.561706171743D-08 0.449685879585D-06 0.000000000000D+00  6 2 21 25 24 1 21 4 0.49331415D-01 0.17743718D-01 0.26782136D+05 0.26782136D+05 0.26782136D+05 0.12201044D+01  1  2  3  3  6  5        1 -.647386889167D-03 0.100000000000D+01
0.274251711807D-06 0.000000000000D+00 0.000000000000D+00 0.449685879585D-06 0.000000000000D+00  6 2 21 25 24 1 21 4 0.49331415D-01 0.17743718D-01 0.26782136D+05 0.26782136D+05 0.26782136D+05 0.12201044D+01  1  2 15  3  6  5        1 0.221515193025D-02 0.100000000000D+01
0.371584128349D-05 0.000000000000D+00 0.000000000000D+00 0.449909479994D-06 0.000000000000D+00  6 2 21 25 24 1 21 4 0.49331415D-01 0.17743718D-01 0.26606905D+05 0.26606905D+05 0.26606905D+05 0.12204077D+01  1  2 12  3  6  5        1 0.300436796499D-01 0.100000000000D+01
-.230771550437D-04 0.000000000000D+00 0.000000000000D+00 0.449685879585D-06 0.000000000000D+00  6 2 21 25 24 1 21 4 0.49331415D-01 0.17743718D-01 0.26782136D+05 0.26782136D+05 0.26782136D+05 0.12201044D+01  1  2  4  3  6  5        1 -.186395936065D+00 0.100000000000D+01
-.366435296551D-05 0.000000000000D+00 0.000000000000D+00 0.449685879585D-06 0.000000000000D+00  6 2 21 25 24 1 21 4 0.49331415D-01 0.17743718D-01 0.26782136D+05 0.26782136D+05 0.26782136D+05 0.12201044D+01  1  2  5  3  6  5        1 -.295972575382D-01 0.100000000000D+01
0.693260197167D-05 0.000000000000D+00 -.000000000000D+00 0.449685879585D-06 0.000000000000D+00  6 2 21 25 24 1 21 4 0.49331415D-01 0.17743718D-01 0.26782136D+05 0.26782136D+05 0.26782136D+05 0.12201044D+01  1  2  6  3  6  5        1 0.559951532772D-01 0.100000000000D+01
0.430687088749D-10 0.000000000000D+00 0.000000000000D+00 0.449685879585D-06 0.972008108383D-08  6 2 21 25 24 1 21 4 0.49331415D-01 0.17743718D-01 0.26606905D+05 0.26606905D+05 0.26606905D+05 0.12204077D+01  1  2 11  3  6  5        1 0.348223294176D-06 0.100000000000D+01
  </mgrwgt>
  </event>
  <event>
  5     66 0.43779995E-03 0.45553312E+02 0.75467711E-02 0.11488772E+00
        2 -1    0    0  502    0 0.00000000E+00 0.00000000E+00 0.20759077E+04 0.20759077E+04 0.32000000E+00 0.0000E+00 0.9000E+01
       21 -1    0    0  501  502 0.00000000E+00 0.00000000E+00 -.36028563E+02 0.36036369E+02 0.75000000E+00 0.0000E+00 0.9000E+01
       25  1    1    2    0    0 0.15758727E+03 -.48720109E+02 0.11463942E+04 0.11649258E+04 0.12500000E+03 0.0000E+00 0.9000E+01
       24  1    1    2    0    0 -.11254226E+03 0.33196596E+02 0.88769689E+03 0.89902211E+03 0.80419002E+02 0.0000E+00 0.9000E+01
        1  1    1    2  501    0 -.45045015E+02 0.15523513E+02 0.57880564E+01 0.47996217E+02 0.32000000E+00 0.0000E+00 0.9000E+01
#aMCatNLO 1  0  0  2  1 0.65657666D+01 0.00000000D+00  -5  6  0 0.00000000D+00 0.00000000D+00 0.00000000D+00 0.00000000D+00 0.00000000D+00
  <mgrwgt>
 0.3077901659D+00   41    2    0
 0.273496325996413D+03 0.000000000000000D+00 0.000000000000000D+00 0.273496325996413D+03
 0.273496325996413D+03 0.000000000000000D+00 0.000000000000000D+00 -.273496325996413D+03
 0.222585322757974D+03 0.157587306718791D+03 -.487201211492567D+02 0.819256764609927D+02
 0.160678731391460D+03 -.112542231559388D+03 0.331965873005273D+02 0.747172769473692D+02
 0.163728597843392D+03 -.450450751594022D+02 0.155235338487294D+02 -.156642953408362D+03
 0.000000000000000D+00 -.000000000000000D+00 0.000000000000000D+00 -.000000000000000D+00
 0.273876702077479D+03 0.000000000000000D+00 0.000000000000000D+00 0.273876702077479D+03
 0.303397098414157D+03 0.000000000000000D+00 0.000000000000000D+00 -.303397098414157D+03
 0.224536640081818D+03 0.159925828448345D+03 -.500361436438801D+02 0.819256764609927D+02
 0.159317611733916D+03 -.110868597821909D+03 0.322547360367792D+02 0.747172769473692D+02
 0.163177804489650D+03 -.433353006707350D+02 0.145613440775666D+02 -.156642953408362D+03
 0.302417441862517D+02 -.572192995570067D+01 0.322006352953434D+01 -.295203963366772D+02
0.923444925819D-06 0.000000000000D+00 0.000000000000D+00 0.107868474185D-05 0.000000000000D+00  6 2 21 25 24 1 21 2 0.31937102D+00 0.55434582D-02 0.39373387D+05 0.39373387D+05 0.39373387D+05 0.12026972D+01  1  2  2  2  6  2       21 0.264716595738D-02 0.100000000000D+01
0.122337575523D-06 0.487315275586D-07 -.186416924895D-08 0.107868474185D-05 0.000000000000D+00  6 2 21 25 24 1 21 4 0.31937102D+00 0.55434582D-02 0.39373387D+05 0.39373387D+05 0.39373387D+05 0.12026972D+01  1  2  3  2  6  2       21 0.507274067669D-03 0.100000000000D+01
0.840204356293D-07 0.000000000000D+00 0.000000000000D+00 0.107868474185D-05 0.000000000000D+00  6 2 21 25 24 1 21 4 0.31937102D+00 0.55434582D-02 0.39373387D+05 0.39373387D+05 0.39373387D+05 0.12026972D+01  1  2 15  2  6  2       21 0.348391636557D-03 0.100000000000D+01
0.510932516805D-04 0.000000000000D+00 0.000000000000D+00 0.107662731197D-05 0.000000000000D+00  6 2 21 25 24 1 21 4 0.31937102D+00 0.61531219D-02 0.40410982D+05 0.40410982D+05 0.40410982D+05 0.12015497D+01  1  2 12  2  6  2       21 0.176385506884D+00 0.100000000000D+01
0.333827593202D-04 0.000000000000D+00 0.000000000000D+00 0.107662731197D-05 0.000000000000D+00  6 2 21 25 24 1 21 4 0.31937102D+00 0.64475994D-02 0.40410982D+05 0.40410982D+05 0.40410982D+05 0.12015497D+01  1  2 12  2  6  2       21 0.106348424415D+00 0.100000000000D+01
-.144459561265D-04 0.000000000000D+00 0.000000000000D+00 0.107868474185D-05 0.000000000000D+00  6 2 21 25 24 1 21 4 0.31937102D+00 0.55434582D-02 0.39373387D+05 0.39373387D+05 0.39373387D+05 0.12026972D+01  1  2  4  2  6  2       21 -.599003118568D-01 0.100000000000D+01
-.121373062069D-03 0.000000000000D+00 -.298347442903D-05 0.107868474185D-05 0.000000000000D+00  6 2 21 25 24 1 21 4 0.31937102D+00 0.61556417D-02 0.39373387D+05 0.39373387D+05 0.39373387D+05 0.12026972D+01  1  2  5  2  6  2       21 -.420726927770D+00 0.100000000000D+01
0.120188873329D-03 0.000000000000D+00 0.291900521314D-05 0.107868474185D-05 0.000000000000D+00  6 2 21 25 24 1 21 4 0.31937102D+00 0.55434582D-02 0.39373387D+05 0.39373387D+05 0.39373387D+05 0.12026972D+01  1  2  6  2  6  2       21 0.498364450999D+00 0.100000000000D+01
0.124088766796D-05 0.000000000000D+00 0.000000000000D+00 0.107868474185D-05 0.271127102760D-05  6 2 21 25 24 1 21 4 0.31981520D+00 0.61495127D-02 0.40410982D+05 0.40410982D+05 0.40410982D+05 0.12015497D+01  1  2 11  2  6  2       21 0.427328380063D-02 0.100000000000D+01
0.117581169583D-05 0.000000000000D+00 0.000000000000D+00 0.107662731197D-05 0.000000000000D+00  6 2 -1 25 24 1 -1 4 0.31937102D+00 0.61531219D-02 0.40410982D+05 0.40410982D+05 0.40410982D+05 0.12015497D+01  1  2 12  5  6  2       21 0.245474031910D-03 0.100000000000D+01
0.110599954921D-05 0.000000000000D+00 0.000000000000D+00 0.107662731197D-05 0.000000000000D+00  6 2 -1 25 24 1 -1 4 0.31937102D+00 0.64475994D-02 0.40410982D+05 0.40410982D+05 0.40410982D+05 0.12015497D+01  1  2 12  5  6  2       21 0.215189606712D-03 0.100000000000D+01
-.272016047196D-05 0.000000000000D+00 -.803322732995D-07 0.107868474185D-05 0.000000000000D+00  6 2 -1 25 24 1 -1 4 0.31937102D+00 0.61556417D-02 0.39373387D+05 0.39373387D+05 0.39373387D+05 0.12026972D+01  1  2  5  5  6  2       21 -.569951617546D-03 0.100000000000D+01
0.146164014415D-06 0.000000000000D+00 0.000000000000D+00 0.107868474185D-05 0.319128863912D-06  6 2 -1 25 24 1 -1 4 0.31981520D+00 0.61495127D-02 0.40410982D+05 0.40410982D+05 0.40410982D+05 0.12015497D+01  1  2 11  5  6  2       21 0.304357865393D-04 0.100000000000D+01
0.117581169583D-05 0.000000000000D+00 0.000000000000D+00 0.107662731197D-05 0.000000000000D+00  6 2 1 25 24 1 1 4 0.31937102D+00 0.61531219D-02 0.40410982D+05 0.40410982D+05 0.40410982D+05 0.12015497D+01  1  2 12  6  6  2       21 0.283536326990D-03 0.100000000000D+01
0.110599954921D-05 0.000000000000D+00 0.000000000000D+00 0.107662731197D-05 0.000000000000D+00  6 2 1 25 24 1 1 4 0.31937102D+00 0.64475994D-02 0.40410982D+05 0.40410982D+05 0.40410982D+05 0.12015497D+01  1  2 12  6  6  2       21 0.250156498289D-03 0.100000000000D+01
-.272016047196D-05 0.000000000000D+00 -.803322732995D-07 0.107868474185D-05 0.000000000000D+00  6 2 1 25 24 1 1 4 0.31937102D+00 0.61556417D-02 0.39373387D+05 0.39373387D+05 0.39373387D+05 0.12026972D+01  1  2  5  6  6  2       21 -.658386238212D-03 0.100000000000D+01
0.259938277594D-06 0.000000000000D+00 0.000000000000D+00 0.107868474185D-05 0.558180719780D-08  6 2 1 25 24 1 1 4 0.31981520D+00 0.61495127D-02 0.40410982D+05 0.40410982D+05 0.40410982D+05 0.12015497D+01  1  2 11  6  6  2       21 0.625148473148D-04 0.100000000000D+01
0.117581169583D-05 0.000000000000D+00 0.000000000000D+00 0.107662731197D-05 0.000000000000D+00  6 2 -2 25 24 1 -2 4 0.31937102D+00 0.61531219D-02 0.40410982D+05 0.40410982D+05 0.40410982D+05 0.12015497D+01  1  2 12  7  6  2       21 0.238815825356D-03 0.100000000000D+01
0.110599954921D-05 0.000000000000D+00 0.000000000000D+00 0.107662731197D-05 0.000000000000D+00  6 2 -2 25 24 1 -2 4 0.31937102D+00 0.64475994D-02 0.40410982D+05 0.40410982D+05 0.40410982D+05 0.12015497D+01  1  2 12  7  6  2       21 0.209079650785D-03 0.100000000000D+01
-.272016047196D-05 0.000000000000D+00 -.803322732995D-07 0.107868474185D-05 0.000000000000D+00  6 2 -2 25 24 1 -2 4 0.31937102D+00 0.61556417D-02 0.39373387D+05 0.39373387D+05 0.39373387D+05 0.12026972D+01  1  2  5  7  6  2       21 -.554480725985D-03 0.100000000000D+01
0.215942927487D-06 0.000000000000D+00 0.000000000000D+00 0.107868474185D-05 0.894604711889D-08  6 2 -2 25 24 1 -2 4 0.31981520D+00 0.61495127D-02 0.40410982D+05 0.40410982D+05 0.40410982D+05 0.12015497D+01  1  2 11  7  6  2       21 0.437469264065D-04 0.100000000000D+01
0.117581169583D-05 0.000000000000D+00 0.000000000000D+00 0.107662731197D-05 0.000000000000D+00  6 2 2 25 24 1 2 4 0.31937102D+00 0.61531219D-02 0.40410982D+05 0.40410982D+05 0.40410982D+05 0.12015497D+01  1  2 12  8  6  2       21 0.309164902355D-03 0.100000000000D+01
0.110599954921D-05 0.000000000000D+00 0.000000000000D+00 0.107662731197D-05 0.000000000000D+00  6 2 2 25 24 1 2 4 0.31937102D+00 0.64475994D-02 0.40410982D+05 0.40410982D+05 0.40410982D+05 0.12015497D+01  1  2 12  8  6  2       21 0.273704694322D-03 0.100000000000D+01
-.272016047196D-05 0.000000000000D+00 -.803322732995D-07 0.107868474185D-05 0.000000000000D+00  6 2 2 25 24 1 2 4 0.31937102D+00 0.61556417D-02 0.39373387D+05 0.39373387D+05 0.39373387D+05 0.12026972D+01  1  2  5  8  6  2       21 -.717924461808D-03 0.100000000000D+01
0.213896420824D-06 0.000000000000D+00 0.000000000000D+00 0.107868474185D-05 0.887496597097D-08  6 2 2 25 24 1 2 4 0.31981520D+00 0.61495127D-02 0.40410982D+05 0.40410982D+05 0.40410982D+05 0.12015497D+01  1  2 11  8  6  2       21 0.560892406626D-04 0.100000000000D+01
0.117581169583D-05 0.000000000000D+00 0.000000000000D+00 0.107662731197D-05 0.000000000000D+00  6 2 -3 25 24 1 -3 4 0.31937102D+00 0.61531219D-02 0.40410982D+05 0.40410982D+05 0.40410982D+05 0.12015497D+01  1  2 12  9  6  2       21 0.173528643759D-03 0.100000000000D+01
0.117581169583D-05 0.000000000000D+00 0.000000000000D+00 0.107662731197D-05 0.000000000000D+00  6 2 -4 25 24 1 -4 4 0.31937102D+00 0.61531219D-02 0.40410982D+05 0.40410982D+05 0.40410982D+05 0.12015497D+01  1  2 12  9  6  2       21 0.154823283491D-03 0.100000000000D+01
0.110599954921D-05 0.000000000000D+00 0.000000000000D+00 0.107662731197D-05 0.000000000000D+00  6 2 -3 25 24 1 -3 4 0.31937102D+00 0.64475994D-02 0.40410982D+05 0.40410982D+05 0.40410982D+05 0.12015497D+01  1  2 12  9  6  2       21 0.151349554854D-03 0.100000000000D+01
0.110599954921D-05 0.000000000000D+00 0.000000000000D+00 0.107662731197D-05 0.000000000000D+00  6 2 -4 25 24 1 -4 4 0.31937102D+00 0.64475994D-02 0.40410982D+05 0.40410982D+05 0.40410982D+05 0.12015497D+01  1  2 12  9  6  2       21 0.134861450776D-03 0.100000000000D+01
-.272016047196D-05 0.000000000000D+00 -.803322732995D-07 0.107868474185D-05 0.000000000000D+00  6 2 -3 25 24 1 -3 4 0.31937102D+00 0.61556417D-02 0.39373387D+05 0.39373387D+05 0.39373387D+05 0.12026972D+01  1  2  5  9  6  2       21 -.402680388227D-03 0.100000000000D+01
-.272016047196D-05 0.000000000000D+00 -.803322732995D-07 0.107868474185D-05 0.000000000000D+00  6 2 -4 25 24 1 -4 4 0.31937102D+00 0.61556417D-02 0.39373387D+05 0.39373387D+05 0.39373387D+05 0.12026972D+01  1  2  5  9  6  2       21 -.359189194337D-03 0.100000000000D+01
0.216028803810D-06 0.000000000000D+00 0.000000000000D+00 0.107868474185D-05 0.894960478870D-08  6 2 -3 25 24 1 -3 4 0.31981520D+00 0.61495127D-02 0.40410982D+05 0.40410982D+05 0.40410982D+05 0.12015497D+01  1  2 11  9  6  2       21 0.318015897188D-04 0.100000000000D+01
0.216028803810D-06 0.000000000000D+00 0.000000000000D+00 0.107868474185D-05 0.894960478870D-08  6 2 -4 25 24 1 -4 4 0.31981520D+00 0.61495127D-02 0.40410982D+05 0.40410982D+05 0.40410982D+05 0.12015497D+01  1  2 11  9  6  2       21 0.283740208593D-04 0.100000000000D+01
0.117581169583D-05 0.000000000000D+00 0.000000000000D+00 0.107662731197D-05 0.000000000000D+00  6 2 3 25 24 1 3 4 0.31937102D+00 0.61531219D-02 0.40410982D+05 0.40410982D+05 0.40410982D+05 0.12015497D+01  1  2 12 10  6  2       21 0.173510834619D-03 0.100000000000D+01
0.117581169583D-05 0.000000000000D+00 0.000000000000D+00 0.107662731197D-05 0.000000000000D+00  6 2 4 25 24 1 4 4 0.31937102D+00 0.61531219D-02 0.40410982D+05 0.40410982D+05 0.40410982D+05 0.12015497D+01  1  2 12 10  6  2       21 0.154823283491D-03 0.100000000000D+01
0.110599954921D-05 0.000000000000D+00 0.000000000000D+00 0.107662731197D-05 0.000000000000D+00  6 2 3 25 24 1 3 4 0.31937102D+00 0.64475994D-02 0.40410982D+05 0.40410982D+05 0.40410982D+05 0.12015497D+01  1  2 12 10  6  2       21 0.151333717291D-03 0.100000000000D+01
0.110599954921D-05 0.000000000000D+00 0.000000000000D+00 0.107662731197D-05 0.000000000000D+00  6 2 4 25 24 1 4 4 0.31937102D+00 0.64475994D-02 0.40410982D+05 0.40410982D+05 0.40410982D+05 0.12015497D+01  1  2 12 10  6  2       21 0.134861450776D-03 0.100000000000D+01
-.272016047196D-05 0.000000000000D+00 -.803322732995D-07 0.107868474185D-05 0.000000000000D+00  6 2 3 25 24 1 3 4 0.31937102D+00 0.61556417D-02 0.39373387D+05 0.39373387D+05 0.39373387D+05 0.12026972D+01  1  2  5 10  6  2       21 -.402638969139D-03 0.100000000000D+01
-.272016047196D-05 0.000000000000D+00 -.803322732995D-07 0.107868474185D-05 0.000000000000D+00  6 2 4 25 24 1 4 4 0.31937102D+00 0.61556417D-02 0.39373387D+05 0.39373387D+05 0.39373387D+05 0.12026972D+01  1  2  5 10  6  2       21 -.359189194337D-03 0.100000000000D+01
0.216028803810D-06 0.000000000000D+00 0.000000000000D+00 0.107868474185D-05 0.894960478870D-08  6 2 3 25 24 1 3 4 0.31981520D+00 0.61495127D-02 0.40410982D+05 0.40410982D+05 0.40410982D+05 0.12015497D+01  1  2 11 10  6  2       21 0.317983267552D-04 0.100000000000D+01
0.216028803810D-06 0.000000000000D+00 0.000000000000D+00 0.107868474185D-05 0.894960478870D-08  6 2 4 25 24 1 4 4 0.31981520D+00 0.61495127D-02 0.40410982D+05 0.40410982D+05 0.40410982D+05 0.12015497D+01  1  2 11 10  6  2       21 0.283740208593D-04 0.100000000000D+01
  </mgrwgt>
  </event>
  <event>
  5     66 0.43779995E-03 0.81948610E+02 0.75467711E-02 0.11706535E+00
        2 -1    0    0  502    0 0.00000000E+00 0.00000000E+00 0.11844074E+04 0.11844074E+04 0.32000000E+00 0.0000E+00 0.9000E+01
       21 -1    0    0  501  502 0.00000000E+00 0.00000000E+00 -.24082408E+02 0.24094083E+02 0.75000000E+00 0.0000E+00 0.9000E+01
       25  1    1    2    0    0 0.43043138E+02 -.67969139E+02 0.61954413E+03 0.63712828E+03 0.12500000E+03 0.0000E+00 0.9000E+01
       24  1    1    2    0    0 -.22338796E+02 -.24727810E+02 0.21280636E+03 0.22992227E+03 0.80419002E+02 0.0000E+00 0.9000E+01
        1  1    1    2  501    0 -.20704342E+02 0.92696949E+02 0.32797448E+03 0.34145096E+03 0.32000000E+00 0.0000E+00 0.9000E+01
#aMCatNLO 1  0  0  2  1 0.22613078D+02 0.00000000D+00  -5  6  0 0.00000000D+00 0.00000000D+00 0.00000000D+00 0.00000000D+00 0.00000000D+00
  <mgrwgt>
 0.7956926679D-01   23    2    0
 0.168909628087410D+03 0.000000000000000D+00 0.000000000000000D+00 0.168909628087410D+03
 0.168909628087410D+03 0.000000000000000D+00 0.000000000000000D+00 -.168909628087410D+03
 0.151258401956355D+03 0.430431905071390D+02 -.679693743222977D+02 0.279562527458819D+02
 0.915782124520847D+02 -.223387644833605D+02 -.247279530533265D+02 -.284404813724744D+02
 0.949826417663806D+02 -.207044260237785D+02 0.926973273756243D+02 0.484228626592476D+00
 0.000000000000000D+00 -.000000000000000D+00 0.000000000000000D+00 -.000000000000000D+00
 0.176681760392931D+03 0.000000000000000D+00 0.000000000000000D+00 0.176681760392931D+03
 0.186576712074924D+03 0.000000000000000D+00 0.000000000000000D+00 -.186576712074924D+03
 0.156912962502066D+03 0.498760338930620D+02 -.756802945071000D+02 0.279562527458819D+02
 0.920302914382063D+02 -.182677562843645D+02 -.293221194231873D+02 -.284404813724744D+02
 0.896319978938961D+02 -.166111095608289D+02 0.880779859456761D+02 0.484228626592476D+00
 0.246832206336870D+02 -.149971680478686D+02 0.169244279846112D+02 -.989495168199281D+01
0.792259092391D-06 0.000000000000D+00 0.000000000000D+00 0.254678433543D-06 0.000000000000D+00  6 2 21 25 24 1 21 2 0.18221742D+00 0.37058872D-02 0.27337959D+05 0.27337959D+05 0.27337959D+05 0.12191568D+01  1  2  2  2  6  2       21 0.136715325560D-01 0.100000000000D+01
-.668957613508D-07 0.418086609336D-07 -.159934284757D-08 0.254678433543D-06 0.000000000000D+00  6 2 21 25 24 1 21 4 0.18221742D+00 0.37058872D-02 0.27337959D+05 0.27337959D+05 0.27337959D+05 0.12191568D+01  1  2  3  2  6  2       21 -.171580401190D-02 0.100000000000D+01
0.825005226868D-07 0.000000000000D+00 0.000000000000D+00 0.254678433543D-06 0.000000000000D+00  6 2 21 25 24 1 21 4 0.18221742D+00 0.37058872D-02 0.27337959D+05 0.27337959D+05 0.27337959D+05 0.12191568D+01  1  2 15  2  6  2       21 0.211604928251D-02 0.100000000000D+01
0.174521931075D-05 0.000000000000D+00 0.000000000000D+00 0.252064270660D-06 0.000000000000D+00  6 2 21 25 24 1 21 4 0.18221742D+00 0.41720781D-02 0.31359407D+05 0.31359407D+05 0.31359407D+05 0.12128836D+01  1  2 12  2  6  2       21 0.359599304906D-01 0.100000000000D+01
-.624851686230D-06 0.000000000000D+00 0.000000000000D+00 0.254678433543D-06 0.000000000000D+00  6 2 21 25 24 1 21 4 0.18221742D+00 0.37058872D-02 0.27337959D+05 0.27337959D+05 0.27337959D+05 0.12191568D+01  1  2  4  2  6  2       21 -.160267707314D-01 0.100000000000D+01
-.901148074776D-05 0.000000000000D+00 -.191264358197D-05 0.254678433543D-06 0.000000000000D+00  6 2 21 25 24 1 21 4 0.18221742D+00 0.42897793D-02 0.27337959D+05 0.27337959D+05 0.27337959D+05 0.12191568D+01  1  2  5  2  6  2       21 -.181014820285D+00 0.100000000000D+01
0.890887687987D-05 0.000000000000D+00 0.183317351731D-05 0.254678433543D-06 0.000000000000D+00  6 2 21 25 24 1 21 4 0.18221742D+00 0.37058872D-02 0.27337959D+05 0.27337959D+05 0.27337959D+05 0.12191568D+01  1  2  6  2  6  2       21 0.228503067807D+00 0.100000000000D+01
0.540796432725D-07 0.000000000000D+00 0.000000000000D+00 0.252064270660D-06 0.000000000000D+00  6 2 -1 25 24 1 -1 4 0.18221742D+00 0.41720781D-02 0.31359407D+05 0.31359407D+05 0.31359407D+05 0.12128836D+01  1  2 12  5  6  2       21 0.619643749328D-04 0.100000000000D+01
-.299568861876D-06 0.000000000000D+00 -.756739688227D-07 0.254678433543D-06 0.000000000000D+00  6 2 -1 25 24 1 -1 4 0.18221742D+00 0.42897793D-02 0.27337959D+05 0.27337959D+05 0.27337959D+05 0.12191568D+01  1  2  5  5  6  2       21 -.335626653658D-03 0.100000000000D+01
0.540796432725D-07 0.000000000000D+00 0.000000000000D+00 0.252064270660D-06 0.000000000000D+00  6 2 1 25 24 1 1 4 0.18221742D+00 0.41720781D-02 0.31359407D+05 0.31359407D+05 0.31359407D+05 0.12128836D+01  1  2 12  6  6  2       21 0.684931544839D-04 0.100000000000D+01
-.299568861876D-06 0.000000000000D+00 -.756739688227D-07 0.254678433543D-06 0.000000000000D+00  6 2 1 25 24 1 1 4 0.18221742D+00 0.42897793D-02 0.27337959D+05 0.27337959D+05 0.27337959D+05 0.12191568D+01  1  2  5  6  6  2       21 -.372061451729D-03 0.100000000000D+01
0.540796432725D-07 0.000000000000D+00 0.000000000000D+00 0.252064270660D-06 0.000000000000D+00  6 2 -2 25 24 1 -2 4 0.18221742D+00 0.41720781D-02 0.31359407D+05 0.31359407D+05 0.31359407D+05 0.12128836D+01  1  2 12  7  6  2       21 0.608074898096D-04 0.100000000000D+01
-.299568861876D-06 0.000000000000D+00 -.756739688227D-07 0.254678433543D-06 0.000000000000D+00  6 2 -2 25 24 1 -2 4 0.18221742D+00 0.42897793D-02 0.27337959D+05 0.27337959D+05 0.27337959D+05 0.12191568D+01  1  2  5  7  6  2       21 -.329173686020D-03 0.100000000000D+01
0.540796432725D-07 0.000000000000D+00 0.000000000000D+00 0.252064270660D-06 0.000000000000D+00  6 2 2 25 24 1 2 4 0.18221742D+00 0.41720781D-02 0.31359407D+05 0.31359407D+05 0.31359407D+05 0.12128836D+01  1  2 12  8  6  2       21 0.729009872131D-04 0.100000000000D+01
-.299568861876D-06 0.000000000000D+00 -.756739688227D-07 0.254678433543D-06 0.000000000000D+00  6 2 2 25 24 1 2 4 0.18221742D+00 0.42897793D-02 0.27337959D+05 0.27337959D+05 0.27337959D+05 0.12191568D+01  1  2  5  8  6  2       21 -.396634490286D-03 0.100000000000D+01
0.540796432725D-07 0.000000000000D+00 0.000000000000D+00 0.252064270660D-06 0.000000000000D+00  6 2 -3 25 24 1 -3 4 0.18221742D+00 0.41720781D-02 0.31359407D+05 0.31359407D+05 0.31359407D+05 0.12128836D+01  1  2 12  9  6  2       21 0.453409533721D-04 0.100000000000D+01
0.540796432725D-07 0.000000000000D+00 0.000000000000D+00 0.252064270660D-06 0.000000000000D+00  6 2 -4 25 24 1 -4 4 0.18221742D+00 0.41720781D-02 0.31359407D+05 0.31359407D+05 0.31359407D+05 0.12128836D+01  1  2 12  9  6  2       21 0.407654877750D-04 0.100000000000D+01
-.299568861876D-06 0.000000000000D+00 -.756739688227D-07 0.254678433543D-06 0.000000000000D+00  6 2 -3 25 24 1 -3 4 0.18221742D+00 0.42897793D-02 0.27337959D+05 0.27337959D+05 0.27337959D+05 0.12191568D+01  1  2  5  9  6  2       21 -.244237513395D-03 0.100000000000D+01
-.299568861876D-06 0.000000000000D+00 -.756739688227D-07 0.254678433543D-06 0.000000000000D+00  6 2 -4 25 24 1 -4 4 0.18221742D+00 0.42897793D-02 0.27337959D+05 0.27337959D+05 0.27337959D+05 0.12191568D+01  1  2  5  9  6  2       21 -.219171830218D-03 0.100000000000D+01
0.540796432725D-07 0.000000000000D+00 0.000000000000D+00 0.252064270660D-06 0.000000000000D+00  6 2 3 25 24 1 3 4 0.18221742D+00 0.41720781D-02 0.31359407D+05 0.31359407D+05 0.31359407D+05 0.12128836D+01  1  2 12 10  6  2       21 0.453370304735D-04 0.100000000000D+01
0.540796432725D-07 0.000000000000D+00 0.000000000000D+00 0.252064270660D-06 0.000000000000D+00  6 2 4 25 24 1 4 4 0.18221742D+00 0.41720781D-02 0.31359407D+05 0.31359407D+05 0.31359407D+05 0.12128836D+01  1  2 12 10  6  2       21 0.407654877750D-04 0.100000000000D+01
-.299568861876D-06 0.000000000000D+00 -.756739688227D-07 0.254678433543D-06 0.000000000000D+00  6 2 3 25 24 1 3 4 0.18221742D+00 0.42897793D-02 0.27337959D+05 0.27337959D+05 0.27337959D+05 0.12191568D+01  1  2  5 10  6  2       21 -.244215823894D-03 0.100000000000D+01
-.299568861876D-06 0.000000000000D+00 -.756739688227D-07 0.254678433543D-06 0.000000000000D+00  6 2 4 25 24 1 4 4 0.18221742D+00 0.42897793D-02 0.27337959D+05 0.27337959D+05 0.27337959D+05 0.12191568D+01  1  2  5 10  6  2       21 -.219171830218D-03 0.100000000000D+01
  </mgrwgt>
  </event>
  <event>
  5     66 0.43779995E-03 0.43061698E+02 0.75467711E-02 0.12062585E+00
        2 -1    0    0  502    0 0.00000000E+00 0.00000000E+00 0.22420179E+03 0.22420202E+03 0.32000000E+00 0.0000E+00 0.9000E+01
       21 -1    0    0  501  502 0.00000000E+00 0.00000000E+00 -.20749215E+03 0.20749351E+03 0.75000000E+00 0.0000E+00 0.9000E+01
       25  1    1    2    0    0 0.55554448E+02 0.33211859E+02 0.10553356E+03 0.17593083E+03 0.12500000E+03 0.0000E+00 0.9000E+01
       24  1    1    2    0    0 -.42778059E+02 0.89749145E+01 0.54014495E+02 0.10627932E+03 0.80419002E+02 0.0000E+00 0.9000E+01
        1  1    1    2  501    0 -.12776389E+02 -.42186774E+02 -.14283842E+03 0.14948538E+03 0.32000000E+00 0.0000E+00 0.9000E+01
#aMCatNLO 1  0  0  2  1 0.12838211D+02 0.00000000D+00  -5  6  0 0.00000000D+00 0.00000000D+00 0.00000000D+00 0.00000000D+00 0.00000000D+00
  <mgrwgt>
 0.5881815477D-01   23    2    0
 0.215686006594936D+03 0.000000000000000D+00 0.000000000000000D+00 0.215686006594936D+03
 0.215686006594936D+03 0.000000000000000D+00 0.000000000000000D+00 -.215686006594936D+03
 0.171974905031211D+03 0.555544593042964D+02 0.332118949161052D+02 0.987979759305973D+02
 0.104266750565860D+03 -.427780529174581D+02 0.897493624123026D+01 0.499382421321558D+02
 0.155130357592800D+03 -.127764063868383D+02 -.421868311573355D+02 -.148736218062753D+03
 0.000000000000000D+00 -.000000000000000D+00 0.000000000000000D+00 -.000000000000000D+00
 0.219174620368826D+03 0.000000000000000D+00 0.000000000000000D+00 0.219174620368826D+03
 0.227925191795736D+03 0.000000000000000D+00 0.000000000000000D+00 -.227925191795736D+03
 0.172723249119795D+03 0.595564233001194D+02 0.300052192495380D+02 0.987979759305973D+02
 0.103152364005985D+03 -.403699059095156D+02 0.704534706452966D+01 0.499382421321558D+02
 0.155687398981609D+03 -.916779561798471D+01 -.450783225237428D+02 -.148736218062753D+03
 0.155368000571736D+02 -.100187217726191D+02 0.802775620967514D+01 -.875057142691038D+01
0.236920729951D-05 0.000000000000D+00 0.000000000000D+00 0.342450893200D-05 0.000000000000D+00  6 2 21 25 24 1 21 2 0.34492705D-01 0.31921991D-01 0.19095423D+05 0.19095423D+05 0.19095423D+05 0.12360451D+01  1  2  2  2  6  2       21 0.637734723496D-02 0.100000000000D+01
0.251398643144D-06 0.125026504104D-06 -.478274693883D-08 0.342450893200D-05 0.000000000000D+00  6 2 21 25 24 1 21 4 0.34492705D-01 0.31921991D-01 0.19095423D+05 0.19095423D+05 0.19095423D+05 0.12360451D+01  1  2  3  2  6  2       21 0.103387628951D-02 0.100000000000D+01
0.202041173966D-06 0.000000000000D+00 0.000000000000D+00 0.342450893200D-05 0.000000000000D+00  6 2 21 25 24 1 21 4 0.34492705D-01 0.31921991D-01 0.19095423D+05 0.19095423D+05 0.19095423D+05 0.12360451D+01  1  2 15  2  6  2       21 0.830893821291D-03 0.100000000000D+01
0.112461205100D-04 0.000000000000D+00 0.000000000000D+00 0.339765987733D-05 0.000000000000D+00  6 2 21 25 24 1 21 4 0.34492705D-01 0.33981774D-01 0.21137443D+05 0.21137443D+05 0.21137443D+05 0.12311901D+01  1  2 12  2  6  2       21 0.402567159684D-01 0.100000000000D+01
-.535480199471D-05 0.000000000000D+00 0.000000000000D+00 0.342450893200D-05 0.000000000000D+00  6 2 21 25 24 1 21 4 0.34492705D-01 0.31921991D-01 0.19095423D+05 0.19095423D+05 0.19095423D+05 0.12360451D+01  1  2  4  2  6  2       21 -.220216097754D-01 0.100000000000D+01
-.655915720431D-04 0.000000000000D+00 -.109583124950D-04 0.342450893200D-05 0.000000000000D+00  6 2 21 25 24 1 21 4 0.34492705D-01 0.34206923D-01 0.19095423D+05 0.19095423D+05 0.19095423D+05 0.12360451D+01  1  2  5  2  6  2       21 -.235654298885D+00 0.100000000000D+01
0.656613028566D-04 0.000000000000D+00 0.108542701866D-04 0.342450893200D-05 0.000000000000D+00  6 2 21 25 24 1 21 4 0.34492705D-01 0.31921991D-01 0.19095423D+05 0.19095423D+05 0.19095423D+05 0.12360451D+01  1  2  6  2  6  2       21 0.270031943343D+00 0.100000000000D+01
0.206240561114D-06 0.000000000000D+00 0.000000000000D+00 0.339765987733D-05 0.000000000000D+00  6 2 -1 25 24 1 -1 4 0.34492705D-01 0.33981774D-01 0.21137443D+05 0.21137443D+05 0.21137443D+05 0.12311901D+01  1  2 12  5  6  2       21 0.659834783246D-04 0.100000000000D+01
-.976200561108D-06 0.000000000000D+00 -.185835551939D-06 0.342450893200D-05 0.000000000000D+00  6 2 -1 25 24 1 -1 4 0.34492705D-01 0.34206923D-01 0.19095423D+05 0.19095423D+05 0.19095423D+05 0.12360451D+01  1  2  5  5  6  2       21 -.313345026672D-03 0.100000000000D+01
0.206240561114D-06 0.000000000000D+00 0.000000000000D+00 0.339765987733D-05 0.000000000000D+00  6 2 1 25 24 1 1 4 0.34492705D-01 0.33981774D-01 0.21137443D+05 0.21137443D+05 0.21137443D+05 0.12311901D+01  1  2 12  6  6  2       21 0.122689771794D-03 0.100000000000D+01
-.976200561108D-06 0.000000000000D+00 -.185835551939D-06 0.342450893200D-05 0.000000000000D+00  6 2 1 25 24 1 1 4 0.34492705D-01 0.34206923D-01 0.19095423D+05 0.19095423D+05 0.19095423D+05 0.12360451D+01  1  2  5  6  6  2       21 -.584419437267D-03 0.100000000000D+01
0.206240561114D-06 0.000000000000D+00 0.000000000000D+00 0.339765987733D-05 0.000000000000D+00  6 2 -2 25 24 1 -2 4 0.34492705D-01 0.33981774D-01 0.21137443D+05 0.21137443D+05 0.21137443D+05 0.12311901D+01  1  2 12  7  6  2       21 0.570229861490D-04 0.100000000000D+01
-.976200561108D-06 0.000000000000D+00 -.185835551939D-06 0.342450893200D-05 0.000000000000D+00  6 2 -2 25 24 1 -2 4 0.34492705D-01 0.34206923D-01 0.19095423D+05 0.19095423D+05 0.19095423D+05 0.12360451D+01  1  2  5  7  6  2       21 -.270510300333D-03 0.100000000000D+01
0.206240561114D-06 0.000000000000D+00 0.000000000000D+00 0.339765987733D-05 0.000000000000D+00  6 2 2 25 24 1 2 4 0.34492705D-01 0.33981774D-01 0.21137443D+05 0.21137443D+05 0.21137443D+05 0.12311901D+01  1  2 12  8  6  2       21 0.164473759851D-03 0.100000000000D+01
-.976200561108D-06 0.000000000000D+00 -.185835551939D-06 0.342450893200D-05 0.000000000000D+00  6 2 2 25 24 1 2 4 0.34492705D-01 0.34206923D-01 0.19095423D+05 0.19095423D+05 0.19095423D+05 0.12360451D+01  1  2  5  8  6  2       21 -.784121801225D-03 0.100000000000D+01
0.206240561114D-06 0.000000000000D+00 0.000000000000D+00 0.339765987733D-05 0.000000000000D+00  6 2 -3 25 24 1 -3 4 0.34492705D-01 0.33981774D-01 0.21137443D+05 0.21137443D+05 0.21137443D+05 0.12311901D+01  1  2 12  9  6  2       21 0.361306136756D-04 0.100000000000D+01
0.206240561114D-06 0.000000000000D+00 0.000000000000D+00 0.339765987733D-05 0.000000000000D+00  6 2 -4 25 24 1 -4 4 0.34492705D-01 0.33981774D-01 0.21137443D+05 0.21137443D+05 0.21137443D+05 0.12311901D+01  1  2 12  9  6  2       21 0.301755623891D-04 0.100000000000D+01
-.976200561108D-06 0.000000000000D+00 -.185835551939D-06 0.342450893200D-05 0.000000000000D+00  6 2 -3 25 24 1 -3 4 0.34492705D-01 0.34206923D-01 0.19095423D+05 0.19095423D+05 0.19095423D+05 0.12360451D+01  1  2  5  9  6  2       21 -.170961436211D-03 0.100000000000D+01
-.976200561108D-06 0.000000000000D+00 -.185835551939D-06 0.342450893200D-05 0.000000000000D+00  6 2 -4 25 24 1 -4 4 0.34492705D-01 0.34206923D-01 0.19095423D+05 0.19095423D+05 0.19095423D+05 0.12360451D+01  1  2  5  9  6  2       21 -.142582265564D-03 0.100000000000D+01
0.206240561114D-06 0.000000000000D+00 0.000000000000D+00 0.339765987733D-05 0.000000000000D+00  6 2 3 25 24 1 3 4 0.34492705D-01 0.33981774D-01 0.21137443D+05 0.21137443D+05 0.21137443D+05 0.12311901D+01  1  2 12 10  6  2       21 0.361336441545D-04 0.100000000000D+01
0.206240561114D-06 0.000000000000D+00 0.000000000000D+00 0.339765987733D-05 0.000000000000D+00  6 2 4 25 24 1 4 4 0.34492705D-01 0.33981774D-01 0.21137443D+05 0.21137443D+05 0.21137443D+05 0.12311901D+01  1  2 12 10  6  2       21 0.301755623891D-04 0.100000000000D+01
-.976200561108D-06 0.000000000000D+00 -.185835551939D-06 0.342450893200D-05 0.000000000000D+00  6 2 3 25 24 1 3 4 0.34492705D-01 0.34206923D-01 0.19095423D+05 0.19095423D+05 0.19095423D+05 0.12360451D+01  1  2  5 10  6  2       21 -.170976077496D-03 0.100000000000D+01
-.976200561108D-06 0.000000000000D+00 -.185835551939D-06 0.342450893200D-05 0.000000000000D+00  6 2 4 25 24 1 4 4 0.34492705D-01 0.34206923D-01 0.19095423D+05 0.19095423D+05 0.19095423D+05 0.12360451D+01  1  2  5 10  6  2       21 -.142582265564D-03 0.100000000000D+01
  </mgrwgt>
  </event>
  <event>
  6     66 0.43779995E-03 0.22702410E+02 0.75467711E-02 0.11445681E+00
        2 -1    0    0  502    0 0.00000000E+00 0.00000000E+00 0.12667152E+04 0.12667152E+04 0.32000000E+00 0.0000E+00 0.9000E+01
       -1 -1    0    0    0  502 0.00000000E+00 0.00000000E+00 -.72288053E+02 0.72288761E+02 0.32000000E+00 0.0000E+00 0.9000E+01
       25  1    1    2    0    0 -.16096649E+03 -.37050794E+02 0.84273674E+03 0.86782094E+03 0.12500000E+03 0.0000E+00 0.9000E+01
       24  1    1    2    0    0 0.12311058E+03 0.38029081E+02 0.38056681E+03 0.40975692E+03 0.80419002E+02 0.0000E+00 0.9000E+01
        1  1    1    2  501    0 0.27251066E+02 -.18540784E+02 -.12800606E+02 0.35360135E+02 0.32000000E+00 0.0000E+00 0.9000E+01
       -1  1    1    2    0  501 0.10604847E+02 0.17562497E+02 -.16075781E+02 0.26066016E+02 0.32000000E+00 0.0000E+00 0.9000E+01
#aMCatNLO 2  0  0  2  1 0.20515947D+02 0.00000000D+00  -5  6  0 0.00000000D+00 0.00000000D+00 0.00000000D+00 0.00000000D+00 0.00000000D+00
  <mgrwgt>
 0.1402020488D-02    2    2    0
 0.254001925930052D+03 0.000000000000000D+00 0.000000000000000D+00 0.254001925930052D+03
 0.254001925930052D+03 0.000000000000000D+00 0.000000000000000D+00 -.254001925930052D+03
 0.230120531345224D+03 -.156118180791225D+03 -.290214958675560D+02 0.110069638641436D+03
 0.156065040017043D+03 0.126325333890918D+03 0.433530487115254D+02 0.717662496685654D+01
 0.121818280497837D+03 0.297928469003069D+02 -.143315528439694D+02 -.117246263608292D+03
 0.000000000000000D+00 0.000000000000000D+00 0.000000000000000D+00 -.000000000000000D+00
 0.255215142890053D+03 0.000000000000000D+00 0.000000000000000D+00 0.255215142890053D+03
 0.358790247096156D+03 0.000000000000000D+00 0.000000000000000D+00 -.358790247096156D+03
 0.234570484061551D+03 -.160966539055513D+03 -.370507752510543D+02 0.110069638641436D+03
 0.152056366666838D+03 0.123110546173983D+03 0.380290962866313D+02 0.717662496685654D+01
 0.121791104885599D+03 0.272511459899764D+02 -.185408182500882D+02 -.117246263608292D+03
 0.105587434372222D+03 0.106048468915530D+02 0.175624972145112D+02 -.103575104206104D+03
-.844331619533D-05 0.000000000000D+00 0.000000000000D+00 0.123918438298D-05 0.000000000000D+00  6 2 -1 25 24 1 -1 4 0.19395274D+00 0.11134211D-01 0.42540233D+05 0.42540233D+05 0.42540233D+05 0.11992943D+01  1  2 13  5  6  2       21 -.190222073708D-02 0.100000000000D+01
0.147528661488D-04 0.000000000000D+00 0.000000000000D+00 0.124893082364D-05 0.175960066830D-07  6 2 -1 25 24 1 -1 4 0.19487914D+00 0.11121286D-01 0.42540233D+05 0.42540233D+05 0.42540233D+05 0.11992943D+01  1  2  1  5  6  2       21 0.330424122471D-02 0.100000000000D+01
  </mgrwgt>
  </event>
  <event>
  6     66 0.43779995E-03 0.26187886E+02 0.75467711E-02 0.11910228E+00
        2 -1    0    0  502    0 0.00000000E+00 0.00000000E+00 0.68590137E+03 0.68590145E+03 0.32000000E+00 0.0000E+00 0.9000E+01
       21 -1    0    0  501  502 0.00000000E+00 0.00000000E+00 -.65317410E+02 0.65321716E+02 0.75000000E+00 0.0000E+00 0.9000E+01
       25  1    1    2    0    0 -.43596254E+02 -.89438072E+02 0.41941298E+03 0.44881182E+03 0.12500000E+03 0.0000E+00 0.9000E+01
       24  1    1    2    0    0 0.45940144E+02 0.34526174E+02 0.86436625E+01 0.99219365E+02 0.80419002E+02 0.0000E+00 0.9000E+01
        1  1    1    2  503    0 0.62065477E+01 0.36420536E+02 0.71727624E+02 0.80684144E+02 0.32000000E+00 0.0000E+00 0.9000E+01
       21  1    1    2  501  503 -.85504372E+01 0.18491362E+02 0.12079969E+03 0.12250783E+03 0.75000000E+00 0.0000E+00 0.9000E+01
#aMCatNLO 2  0  0  5  2 0.17277163D+02 0.00000000D+00  -5  6  0 0.00000000D+00 0.00000000D+00 0.00000000D+00 0.00000000D+00 0.00000000D+00
  <mgrwgt>
 0.8545734860D-01    2    2    0
 0.211667065134918D+03 0.000000000000000D+00 0.000000000000000D+00 0.211667065134918D+03
 0.211667065134918D+03 -.000000000000000D+00 -.000000000000000D+00 -.211667065134918D+03
 0.181914239720466D+03 -.434795507937455D+02 -.921721612863009D+02 0.841523140481670D+02
 0.164498494011772D+03 0.460454124867797D+02 0.320599689847675D+02 -.132077692875779D+03
 0.769213965375981D+02 -.256586169303417D+01 0.601121923015334D+02 0.479253788276118D+02
 0.000000000000000D+00 0.000000000000000D+00 0.000000000000000D+00 0.000000000000000D+00
 0.211667065134918D+03 0.000000000000000D+00 0.000000000000000D+00 0.211667065134918D+03
 0.211667065134918D+03 -.000000000000000D+00 -.000000000000000D+00 -.211667065134918D+03
 0.181599287387155D+03 -.435959514319701D+02 -.894451641266429D+02 0.863264548827395D+02
 0.163400346101218D+03 0.459404160247059D+02 0.345197927298645D+02 -.130116560195048D+03
 0.375849244896621D+02 0.621407892154449D+01 0.360283229139419D+02 0.871617577032186D+01
 0.407495722918010D+02 -.855854351428025D+01 0.188970484828364D+02 0.350739295419863D+02
-.372432046966D-05 0.000000000000D+00 0.000000000000D+00 0.733528821231D-07 0.000000000000D+00  6 2 21 25 24 1 21 4 0.10552362D+00 0.10049169D-01 0.24950392D+05 0.24950392D+05 0.24950392D+05 0.12233901D+01  1  2 13  3  6  5        1 -.364645175538D-01 0.100000000000D+01
0.124525465374D-04 0.000000000000D+00 0.000000000000D+00 0.732268814435D-07 0.282822793787D-08  6 2 21 25 24 1 21 4 0.10552362D+00 0.10049169D-01 0.24950392D+05 0.24950392D+05 0.24950392D+05 0.12233901D+01  1  2  1  3  6  5        1 0.121921866151D+00 0.100000000000D+01
  </mgrwgt>
  </event>
  <event>
  5     66 0.43779995E-03 0.45894106E+02 0.75467711E-02 0.11396953E+00
        2 -1    0    0  502    0 0.00000000E+00 0.00000000E+00 0.28697372E+04 0.28697372E+04 0.32000000E+00 0.0000E+00 0.9000E+01
       21 -1    0    0  501  502 0.00000000E+00 0.00000000E+00 -.10806558E+02 0.10832552E+02 0.75000000E+00 0.0000E+00 0.9000E+01
       25  1    1    2    0    0 0.25219706E+02 -.20306258E+02 0.19917640E+04 0.19959452E+04 0.12500000E+03 0.0000E+00 0.9000E+01
       24  1    1    2    0    0 -.36461492E+01 0.60813457E+02 0.77626718E+03 0.78279597E+03 0.80419002E+02 0.0000E+00 0.9000E+01
        1  1    1    2  501    0 -.21573556E+02 -.40507198E+02 0.90899438E+02 0.10182859E+03 0.32000000E+00 0.0000E+00 0.9000E+01
#aMCatNLO 1  0  0  1  2 0.13312648D+03 0.00000000D+00  -5  6  0 0.00000000D+00 0.00000000D+00 0.00000000D+00 0.00000000D+00 0.00000000D+00
  <mgrwgt>
 0.2335680929D+00    3    2    0
 0.176208528479118D+03 0.000000000000000D+00 0.000000000000000D+00 0.176208528479118D+03
 0.176208528479118D+03 0.000000000000000D+00 0.000000000000000D+00 -.176208528479118D+03
 0.156474523327327D+03 0.252197601513360D+02 -.203061560972579D+02 0.883792971966692D+02
 0.101029088634123D+03 -.364611409100769D+01 0.608135225463872D+02 -.529925687302990D+01
 0.949134449967858D+02 -.215736460603283D+02 -.405073664491293D+02 -.830800403236393D+02
 0.000000000000000D+00 -.000000000000000D+00 -.000000000000000D+00 -.000000000000000D+00
 0.220927283181675D+03 0.000000000000000D+00 0.000000000000000D+00 0.220927283181675D+03
 0.324415035893619D+03 0.000000000000000D+00 0.000000000000000D+00 -.324415035893619D+03
 0.172283106410490D+03 0.787276228996315D+02 0.689419857883240D+01 0.883792971966692D+02
 0.117179335659899D+03 0.318690051381882D+02 0.788673895816302D+02 -.529925687302990D+01
 0.872608541748689D+02 0.807663887486130D+01 -.254348476629069D+02 -.830800403236393D+02
 0.168619022830036D+03 -.118673266912681D+03 -.603267404975557D+02 -.103487752711944D+03
0.228844249553D-04 0.000000000000D+00 0.000000000000D+00 0.110554106385D-05 0.000000000000D+00  6 2 21 25 24 1 21 2 0.44150003D+00 0.16645483D-02 0.19031519D+05 0.19031519D+05 0.19031519D+05 0.12362063D+01  1  2  2  1  6  1        2 0.193001742439D+00 0.100000000000D+01
0.872403874643D-06 0.120764428304D-05 -.461970606896D-07 0.110554106385D-05 0.000000000000D+00  6 2 21 25 24 1 21 4 0.44150003D+00 0.16645483D-02 0.19031519D+05 0.19031519D+05 0.19031519D+05 0.12362063D+01  1  2  3  1  6  1        2 0.112439971198D-01 0.100000000000D+01
0.227507481816D-05 0.000000000000D+00 0.000000000000D+00 0.110554106385D-05 0.000000000000D+00  6 2 21 25 24 1 21 4 0.44150003D+00 0.16645483D-02 0.19031519D+05 0.19031519D+05 0.19031519D+05 0.12362063D+01  1  2 15  1  6  1        2 0.293223533803D-01 0.100000000000D+01
  </mgrwgt>
  </event>
  <event>
  5     66 0.43779995E-03 0.25664321E+02 0.75467711E-02 0.11837410E+00
        2 -1    0    0  502    0 0.00000000E+00 0.00000000E+00 0.21037605E+04 0.21037605E+04 0.32000000E+00 0.0000E+00 0.9000E+01
       21 -1    0    0  501  502 0.00000000E+00 0.00000000E+00 -.11192753E+02 0.11217853E+02 0.75000000E+00 0.0000E+00 0.9000E+01
       25  1    1    2    0    0 -.61300988E+02 0.11676379E+02 0.12546219E+04 0.12623769E+04 0.12500000E+03 0.0000E+00 0.9000E+01
       24  1    1    2    0    0 0.68862711E+02 -.36200963E+02 0.79290734E+03 0.80076329E+03 0.80419002E+02 0.0000E+00 0.9000E+01
        1  1    1    2  501    0 -.75617238E+01 0.24524584E+02 0.45038474E+02 0.51838224E+02 0.32000000E+00 0.0000E+00 0.9000E+01
#aMCatNLO 1  0  0  1  5 0.28885843D+02 0.00000000D+00  -5  6  0 0.00000000D+00 0.00000000D+00 0.00000000D+00 0.00000000D+00 0.00000000D+00
  <mgrwgt>
 0.7423020338D-01    7    2    0
 0.153536446721465D+03 0.000000000000000D+00 0.000000000000000D+00 0.153536446721465D+03
 0.153536446721465D+03 0.000000000000000D+00 0.000000000000000D+00 -.153536446721465D+03
 0.144976639590132D+03 -.613009147784360D+02 0.116761427109341D+02 0.387181038477837D+02
 0.111975865032254D+03 0.688627675896480D+02 -.362011450020845D+02 0.433298231973610D+01
 0.501203888205446D+02 -.756185281121202D+01 0.245250022911503D+02 -.430510861675198D+02
 0.000000000000000D+00 0.000000000000000D+00 -.000000000000000D+00 0.000000000000000D+00
 0.221608785929545D+03 0.000000000000000D+00 0.000000000000000D+00 0.221608785929545D+03
 0.163227174515893D+03 0.000000000000000D+00 0.000000000000000D+00 -.163227174515893D+03
 0.155933730691815D+03 -.835110517613510D+02 0.147357061457111D+02 0.387181038477837D+02
 0.102263506076721D+03 0.530498005091001D+02 -.340228254396166D+02 0.433298231973610D+01
 0.523039771922156D+02 -.151217757125070D+02 0.255664215177101D+02 -.430510861675198D+02
 0.743347464846854D+02 0.455830269647579D+02 -.627930222380462D+01 0.583816114136525D+02
0.178874244087D-05 0.000000000000D+00 0.000000000000D+00 0.162738366355D-05 0.000000000000D+00  6 2 21 25 24 1 21 2 0.32365740D+00 0.17238947D-02 0.19219277D+05 0.19219277D+05 0.19219277D+05 0.12357344D+01  1  2  2  1  6  1        2 0.366421923540D-01 0.100000000000D+01
0.168910703444D-06 0.943945319479D-07 -.361095562857D-08 0.162738366355D-05 0.000000000000D+00  6 2 21 25 24 1 21 4 0.32365740D+00 0.17238947D-02 0.19219277D+05 0.19219277D+05 0.19219277D+05 0.12357344D+01  1  2  3  1  6  1        2 0.528373567548D-02 0.100000000000D+01
0.164856231279D-06 0.000000000000D+00 0.000000000000D+00 0.162738366355D-05 0.000000000000D+00  6 2 21 25 24 1 21 4 0.32365740D+00 0.17238947D-02 0.19219277D+05 0.19219277D+05 0.19219277D+05 0.12357344D+01  1  2 15  1  6  1        2 0.515690677246D-02 0.100000000000D+01
-.512179779640D-05 0.000000000000D+00 0.000000000000D+00 0.162738366355D-05 0.000000000000D+00  6 2 21 25 24 1 21 4 0.32365740D+00 0.17238947D-02 0.19219277D+05 0.19219277D+05 0.19219277D+05 0.12357344D+01  1  2  4  1  6  1        2 -.160216168589D+00 0.100000000000D+01
-.820190706024D-05 0.000000000000D+00 -.181954726942D-05 0.162738366355D-05 0.000000000000D+00  6 2 21 25 24 1 21 4 0.47443595D+00 0.17238947D-02 0.19219277D+05 0.19219277D+05 0.19219277D+05 0.12357344D+01  1  2  5  1  6  1        2 -.750748679650D-01 0.100000000000D+01
0.840127227756D-05 0.000000000000D+00 0.169413660798D-05 0.162738366355D-05 0.000000000000D+00  6 2 21 25 24 1 21 4 0.32365740D+00 0.17238947D-02 0.19219277D+05 0.19219277D+05 0.19219277D+05 0.12357344D+01  1  2  6  1  6  1        2 0.262802185695D+00 0.100000000000D+01
-.319418314392D-06 0.000000000000D+00 -.838144364873D-07 0.162738366355D-05 0.000000000000D+00  6 21 21 25 24 1 -2 4 0.47443595D+00 0.17238947D-02 0.19219277D+05 0.19219277D+05 0.19219277D+05 0.12357344D+01  1  2  5  4  6  1        2 -.363780566357D-03 0.100000000000D+01
  </mgrwgt>
  </event>
  <event>
  5     66 0.43779995E-03 0.71727413E+02 0.75467711E-02 0.11239831E+00
        2 -1    0    0  502    0 0.00000000E+00 0.00000000E+00 0.23514389E+03 0.23514411E+03 0.32000000E+00 0.0000E+00 0.9000E+01
       21 -1    0    0  501  502 0.00000000E+00 0.00000000E+00 -.23868463E+03 0.23868581E+03 0.75000000E+00 0.0000E+00 0.9000E+01
       25  1    1    2    0    0 -.37685181E+02 0.58751558E+02 0.10611363E+03 0.17820499E+03 0.12500000E+03 0.0000E+00 0.9000E+01
       24  1    1    2    0    0 0.83262348E+02 -.11413677E+03 0.23974851E+01 0.16258163E+03 0.80419002E+02 0.0000E+00 0.9000E+01
        1  1    1    2  501    0 -.45577167E+02 0.55385213E+02 -.11205185E+03 0.13304330E+03 0.32000000E+00 0.0000E+00 0.9000E+01
#aMCatNLO 1  0  0  2  5 0.12879529D+02 0.00000000D+00  -5  6  0 0.00000000D+00 0.00000000D+00 0.00000000D+00 0.00000000D+00 0.00000000D+00
  <mgrwgt>
 0.5093566805D-01   14    2    0
 0.236908345168022D+03 0.000000000000000D+00 0.000000000000000D+00 0.236908345168022D+03
 0.236908345168022D+03 0.000000000000000D+00 0.000000000000000D+00 -.236908345168022D+03
 0.179002979245158D+03 -.376851307280842D+02 0.587514966045036D+02 0.107448402256064D+03
 0.162604146276273D+03 0.832623939297357D+02 -.114136826991140D+03 0.361260478727195D+01
 0.132209564814613D+03 -.455772632016514D+02 0.553853303866367D+02 -.111061007043335D+03
 0.000000000000000D+00 0.000000000000000D+00 0.000000000000000D+00 -.000000000000000D+00
 0.273113089661499D+03 0.000000000000000D+00 0.000000000000000D+00 0.273113089661499D+03
 0.287054769491577D+03 0.000000000000000D+00 0.000000000000000D+00 -.287054769491577D+03
 0.183411766536511D+03 -.651951391799005D+02 0.471095614920816D+02 0.107448402256064D+03
 0.159484775363504D+03 0.588134192131148D+02 -.124483366059446D+03 0.361260478727195D+01
 0.137402271429093D+03 -.660428319460378D+02 0.467245252190096D+02 -.111061007043335D+03
 0.798690458239685D+02 0.724245519128234D+02 0.306492793483552D+02 -.139416798300782D+02
0.123736945094D-04 0.000000000000D+00 0.000000000000D+00 0.384139200707D-06 0.000000000000D+00  6 2 21 25 24 1 21 2 0.36176091D-01 0.36720820D-01 0.35618793D+05 0.35618793D+05 0.35618793D+05 0.12071503D+01  1  2  2  2  6  2       21 0.227368376524D-01 0.100000000000D+01
0.207703331139D-06 0.652977798815D-06 -.249789241951D-07 0.384139200707D-06 0.000000000000D+00  6 2 21 25 24 1 21 4 0.36176091D-01 0.36720820D-01 0.35618793D+05 0.35618793D+05 0.35618793D+05 0.12071503D+01  1  2  3  2  6  2       21 0.556156239263D-03 0.100000000000D+01
0.119927055040D-05 0.000000000000D+00 0.000000000000D+00 0.384139200707D-06 0.000000000000D+00  6 2 21 25 24 1 21 4 0.36176091D-01 0.36720820D-01 0.35618793D+05 0.35618793D+05 0.35618793D+05 0.12071503D+01  1  2 15  2  6  2       21 0.321122340944D-02 0.100000000000D+01
-.410546075242D-05 0.000000000000D+00 0.000000000000D+00 0.384139200707D-06 0.000000000000D+00  6 2 21 25 24 1 21 4 0.36176091D-01 0.36720820D-01 0.35618793D+05 0.35618793D+05 0.35618793D+05 0.12071503D+01  1  2  4  2  6  2       21 -.109929754135D-01 0.100000000000D+01
-.401465444122D-04 0.000000000000D+00 -.167369365750D-04 0.384139200707D-06 0.000000000000D+00  6 2 21 25 24 1 21 4 0.36176091D-01 0.50591199D-01 0.35618793D+05 0.35618793D+05 0.35618793D+05 0.12071503D+01  1  2  5  2  6  2       21 -.559020091754D-01 0.100000000000D+01
0.359669816638D-04 0.000000000000D+00 0.137430960301D-04 0.384139200707D-06 0.000000000000D+00  6 2 21 25 24 1 21 4 0.36176091D-01 0.36720820D-01 0.35618793D+05 0.35618793D+05 0.35618793D+05 0.12071503D+01  1  2  6  2  6  2       21 0.963068870878D-01 0.100000000000D+01
-.384606214836D-05 0.000000000000D+00 -.170878144006D-05 0.384139200707D-06 0.000000000000D+00  6 2 -1 25 24 1 -1 4 0.36176091D-01 0.50591199D-01 0.35618793D+05 0.35618793D+05 0.35618793D+05 0.12071503D+01  1  2  5  5  6  2       21 -.534937875226D-03 0.100000000000D+01
-.384606214836D-05 0.000000000000D+00 -.170878144006D-05 0.384139200707D-06 0.000000000000D+00  6 2 1 25 24 1 1 4 0.36176091D-01 0.50591199D-01 0.35618793D+05 0.35618793D+05 0.35618793D+05 0.12071503D+01  1  2  5  6  6  2       21 -.122830856835D-02 0.100000000000D+01
-.384606214836D-05 0.000000000000D+00 -.170878144006D-05 0.384139200707D-06 0.000000000000D+00  6 2 -2 25 24 1 -2 4 0.36176091D-01 0.50591199D-01 0.35618793D+05 0.35618793D+05 0.35618793D+05 0.12071503D+01  1  2  5  7  6  2       21 -.437771539255D-03 0.100000000000D+01
-.384606214836D-05 0.000000000000D+00 -.170878144006D-05 0.384139200707D-06 0.000000000000D+00  6 2 2 25 24 1 2 4 0.36176091D-01 0.50591199D-01 0.35618793D+05 0.35618793D+05 0.35618793D+05 0.12071503D+01  1  2  5  8  6  2       21 -.176806786425D-02 0.100000000000D+01
-.384606214836D-05 0.000000000000D+00 -.170878144006D-05 0.384139200707D-06 0.000000000000D+00  6 2 -3 25 24 1 -3 4 0.36176091D-01 0.50591199D-01 0.35618793D+05 0.35618793D+05 0.35618793D+05 0.12071503D+01  1  2  5  9  6  2       21 -.276872357516D-03 0.100000000000D+01
-.384606214836D-05 0.000000000000D+00 -.170878144006D-05 0.384139200707D-06 0.000000000000D+00  6 2 -4 25 24 1 -4 4 0.36176091D-01 0.50591199D-01 0.35618793D+05 0.35618793D+05 0.35618793D+05 0.12071503D+01  1  2  5  9  6  2       21 -.228749830626D-03 0.100000000000D+01
-.384606214836D-05 0.000000000000D+00 -.170878144006D-05 0.384139200707D-06 0.000000000000D+00  6 2 3 25 24 1 3 4 0.36176091D-01 0.50591199D-01 0.35618793D+05 0.35618793D+05 0.35618793D+05 0.12071503D+01  1  2  5 10  6  2       21 -.276993887971D-03 0.100000000000D+01
-.384606214836D-05 0.000000000000D+00 -.170878144006D-05 0.384139200707D-06 0.000000000000D+00  6 2 4 25 24 1 4 4 0.36176091D-01 0.50591199D-01 0.35618793D+05 0.35618793D+05 0.35618793D+05 0.12071503D+01  1  2  5 10  6  2       21 -.228749830626D-03 0.100000000000D+01
  </mgrwgt>
  </event>
  <event>
  6     66 -.43779995E-03 0.13512633E+03 0.75467711E-02 0.10471584E+00
        2 -1    0    0  502    0 0.00000000E+00 0.00000000E+00 0.10784416E+04 0.10784417E+04 0.32000000E+00 0.0000E+00 0.9000E+01
       21 -1    0    0  503  502 0.00000000E+00 0.00000000E+00 -.22534205E+03 0.22534330E+03 0.75000000E+00 0.0000E+00 0.9000E+01
       25  1    1    2    0    0 0.23534601E+03 -.19113462E+02 0.44238009E+03 0.51679611E+03 0.12500000E+03 0.0000E+00 0.9000E+01
       24  1    1    2    0    0 -.32949292E+03 -.96533770E+02 0.49113699E+03 0.60462146E+03 0.80419002E+02 0.0000E+00 0.9000E+01
        1  1    1    2  501    0 0.77734244E+02 0.12091272E+03 -.60341306E+02 0.15589636E+03 0.32000000E+00 0.0000E+00 0.9000E+01
       21  1    1    2  503  501 0.16412661E+02 -.52654905E+01 -.20076190E+02 0.26471054E+02 0.75000000E+00 0.0000E+00 0.9000E+01
#aMCatNLO 2  0  0  2  1 0.17236613D+02 0.00000000D+00  -5  6  0 0.00000000D+00 0.00000000D+00 0.00000000D+00 0.00000000D+00 0.00000000D+00
  <mgrwgt>
 -.9522783350D-01    3    2    0
 0.466046624845612D+03 0.000000000000000D+00 0.000000000000000D+00 0.466046624845612D+03
 0.466046624845612D+03 0.000000000000000D+00 0.000000000000000D+00 -.466046624845612D+03
 0.298037333372878D+03 0.240555628219839D+03 -.207848369638281D+02 0.122074699951143D+03
 0.363207194336970D+03 -.323052272766233D+03 -.986000892493519D+02 0.106618485847221D+03
 0.270848721981378D+03 0.824966445463939D+02 0.119384926213180D+03 -.228693185798364D+03
 0.000000000000000D+00 0.000000000000000D+00 -.000000000000000D+00 -.000000000000000D+00
 0.467509867813962D+03 0.000000000000000D+00 0.000000000000000D+00 0.467509867813962D+03
 0.519810300090949D+03 0.000000000000000D+00 0.000000000000000D+00 -.519810300090949D+03
 0.293735075726766D+03 0.235345994037783D+03 -.191134882848521D+02 0.122074699951143D+03
 0.368400719806111D+03 -.329492940730427D+03 -.965338017678321D+02 0.106618485847221D+03
 0.270116813446880D+03 0.777342857386068D+02 0.120912780535393D+03 -.228693185798364D+03
 0.550675589251545D+02 0.164126609540371D+02 -.526549048270923D+01 -.523004322769868D+02
-.536818522554D-03 0.000000000000D+00 0.000000000000D+00 0.824461299223D-07 0.000000000000D+00  6 2 21 25 24 1 21 4 0.16539401D+00 0.34713376D-01 0.15240560D+06 0.15240560D+06 0.15240560D+06 0.11471260D+01  1  2 13  2  6  2       21 -.208923328365D+00 0.100000000000D+01
-.411543337909D-03 0.000000000000D+00 0.000000000000D+00 0.824461299223D-07 0.000000000000D+00  6 2 21 25 24 1 21 4 0.16539401D+00 0.35764726D-01 0.15240560D+06 0.15240560D+06 0.15240560D+06 0.11471260D+01  1  2 13  2  6  2       21 -.150802733053D+00 0.100000000000D+01
0.681008091298D-03 0.000000000000D+00 0.000000000000D+00 0.826823169253D-07 0.429283865067D-08  6 2 21 25 24 1 21 4 0.16591329D+00 0.34667918D-01 0.15240560D+06 0.15240560D+06 0.15240560D+06 0.11471260D+01  1  2  1  2  6  2       21 0.264498227915D+00 0.100000000000D+01
  </mgrwgt>
  </event>
  <event>
  5     66 0.43779995E-03 0.23674130E+02 0.75467711E-02 0.11717945E+00
        2 -1    0    0  502    0 0.00000000E+00 0.00000000E+00 0.12366186E+04 0.12366186E+04 0.32000000E+00 0.0000E+00 0.9000E+01
       21 -1    0    0  501  502 0.00000000E+00 0.00000000E+00 -.40792556E+02 0.40799450E+02 0.75000000E+00 0.0000E+00 0.9000E+01
       25  1    1    2    0    0 0.25436469E+02 -.67899608E+02 0.63153268E+03 0.64785484E+03 0.12500000E+03 0.0000E+00 0.9000E+01
       24  1    1    2    0    0 -.30407902E+02 0.91045825E+02 0.58491254E+03 0.59816710E+03 0.80419002E+02 0.0000E+00 0.9000E+01
        1  1    1    2  501    0 0.49714324E+01 -.23146218E+02 -.20619204E+02 0.31396122E+02 0.32000000E+00 0.0000E+00 0.9000E+01
#aMCatNLO 1  0  0  5  2 0.23623503D+01 0.00000000D+00  -5  6  0 0.00000000D+00 0.00000000D+00 0.00000000D+00 0.00000000D+00 0.00000000D+00
  <mgrwgt>
 0.1533659346D+00    4    2    0
 0.224609131590659D+03 0.000000000000000D+00 0.000000000000000D+00 0.224609131590659D+03
 0.224609131590659D+03 -.000000000000000D+00 -.000000000000000D+00 -.224609131590659D+03
 0.161120541646928D+03 0.254364646990475D+02 -.678995870552596D+02 0.712563069625330D+02
 0.143929711537453D+03 -.304079054609739D+02 0.910458435338194D+02 0.709546303603617D+02
 0.144168009996937D+03 0.497144076192647D+01 -.231462564785597D+02 -.142210937322895D+03
 0.000000000000000D+00 0.000000000000000D+00 0.000000000000000D+00 0.000000000000000D+00
 0.224609131590659D+03 0.000000000000000D+00 0.000000000000000D+00 0.224609131590659D+03
 0.224609131590659D+03 -.000000000000000D+00 -.000000000000000D+00 -.224609131590659D+03
 0.155619888165764D+03 0.260402063621606D+02 -.707105145208409D+02 0.539859276250679D+02
 0.135313358641618D+03 -.298756378382318D+02 0.885676881054019D+02 0.557288072717119D+02
 0.112592788266710D+03 0.327105884979405D+02 0.173919975856887D+02 -.106323430107244D+03
 0.456922281072252D+02 -.288751570218694D+02 -.352491711702496D+02 -.339130478953579D+01
0.273053847702D-04 0.000000000000D+00 0.000000000000D+00 0.659619384443D-05 0.000000000000D+00  6 2 21 25 24 1 21 2 0.19024955D+00 0.62763113D-02 0.21521780D+05 0.21521780D+05 0.21521780D+05 0.12303352D+01  1  2  2  3  6  5        1 0.184996951724D+00 0.100000000000D+01
0.727157189564D-05 0.144094474204D-05 -.551217048209D-07 0.659619384443D-05 0.000000000000D+00  6 2 21 25 24 1 21 4 0.19024955D+00 0.62763113D-02 0.21521780D+05 0.21521780D+05 0.21521780D+05 0.12303352D+01  1  2  3  3  6  5        1 0.745746893578D-01 0.100000000000D+01
0.255386753218D-05 0.000000000000D+00 0.000000000000D+00 0.659619384443D-05 0.000000000000D+00  6 2 21 25 24 1 21 4 0.19024955D+00 0.62763113D-02 0.21521780D+05 0.21521780D+05 0.21521780D+05 0.12303352D+01  1  2 15  3  6  5        1 0.261915691141D-01 0.100000000000D+01
-.129096925010D-04 0.000000000000D+00 0.000000000000D+00 0.659619384443D-05 0.000000000000D+00  6 2 21 25 24 1 21 4 0.19024955D+00 0.62763113D-02 0.21521780D+05 0.21521780D+05 0.21521780D+05 0.12303352D+01  1  2  4  3  6  5        1 -.132397275552D+00 0.100000000000D+01
  </mgrwgt>
  </event>
  <event>
  5     66 -.43779995E-03 0.21361200E+03 0.75467711E-02 0.99274926E-01
        2 -1    0    0  502    0 0.00000000E+00 0.00000000E+00 0.13692524E+04 0.13692524E+04 0.32000000E+00 0.0000E+00 0.9000E+01
       21 -1    0    0  501  502 0.00000000E+00 0.00000000E+00 -.13610875E+03 0.13611082E+03 0.75000000E+00 0.0000E+00 0.9000E+01
       25  1    1    2    0    0 0.28825884E+03 -.17307276E+01 0.52787218E+03 0.61430464E+03 0.12500000E+03 0.0000E+00 0.9000E+01
       24  1    1    2    0    0 0.51295207E+02 0.14396143E+03 0.27570703E+03 0.32532703E+03 0.80419002E+02 0.0000E+00 0.9000E+01
        1  1    1    2  501    0 -.33955404E+03 -.14223071E+03 0.42956444E+03 0.56573159E+03 0.32000000E+00 0.0000E+00 0.9000E+01
#aMCatNLO 1  0  0  2  5 0.27960853D+03 0.00000000D+00  -5  6  0 0.00000000D+00 0.00000000D+00 0.00000000D+00 0.00000000D+00 0.00000000D+00
  <mgrwgt>
 -.3766955028D-01   30    2    0
 0.431704552007565D+03 0.000000000000000D+00 0.000000000000000D+00 0.431704552007565D+03
 0.431704552007565D+03 0.000000000000000D+00 0.000000000000000D+00 -.431704552007565D+03
 0.317125965605915D+03 0.288258883462638D+03 -.173070832517121D+01 0.429848672796636D+02
 0.173439213492651D+03 0.512952316531579D+02 0.143961444556952D+03 0.160575998612230D+02
 0.372843924916564D+03 -.339554115115796D+03 -.142230736231781D+03 -.590424671408866D+02
 0.000000000000000D+00 0.000000000000000D+00 -.000000000000000D+00 -.000000000000000D+00
 0.471880338251149D+03 0.000000000000000D+00 0.000000000000000D+00 0.471880338251149D+03
 0.153345759245220D+04 0.000000000000000D+00 0.000000000000000D+00 -.153345759245220D+04
 0.302627728354492D+03 0.256621688171712D+03 0.908633716843631D+02 0.429848672796636D+02
 0.221052952432883D+03 0.311571900154040D+02 0.202900406165105D+03 0.160575998612230D+02
 0.383874393807983D+03 -.378183082499150D+03 -.291735052197185D+02 -.590424671408866D+02
 0.109778285610799D+04 0.904042043120335D+02 -.264590272629750D+03 -.106157725420105D+04
0.185221741093D-04 0.000000000000D+00 0.000000000000D+00 0.773947142640D-07 0.000000000000D+00  6 2 21 25 24 1 21 2 0.21065438D+00 0.20939970D-01 0.18277031D+06 0.18277031D+06 0.18277031D+06 0.11402527D+01  1  2  2  2  6  2       21 0.977559118859D-02 0.100000000000D+01
-.175800011819D-05 0.977441981452D-06 -.373909330519D-07 0.773947142640D-07 0.000000000000D+00  6 2 21 25 24 1 21 4 0.21065438D+00 0.20939970D-01 0.18277031D+06 0.18277031D+06 0.18277031D+06 0.11402527D+01  1  2  3  2  6  2       21 -.120634683624D-02 0.100000000000D+01
0.197130618636D-05 0.000000000000D+00 0.000000000000D+00 0.773947142640D-07 0.000000000000D+00  6 2 21 25 24 1 21 4 0.21065438D+00 0.20939970D-01 0.18277031D+06 0.18277031D+06 0.18277031D+06 0.11402527D+01  1  2 15  2  6  2       21 0.135271832838D-02 0.100000000000D+01
0.800625945145D-04 0.000000000000D+00 0.000000000000D+00 0.742606104142D-07 0.000000000000D+00  6 2 21 25 24 1 21 4 0.21065438D+00 0.72289355D-01 0.34747698D+06 0.34747698D+06 0.34747698D+06 0.11169268D+01  1  2 12  2  6  2       21 0.375139513502D-02 0.100000000000D+01
0.800139664390D-04 0.000000000000D+00 0.000000000000D+00 0.742606104142D-07 0.000000000000D+00  6 2 21 25 24 1 21 4 0.21065438D+00 0.74820971D-01 0.34747698D+06 0.34747698D+06 0.34747698D+06 0.11169268D+01  1  2 12  2  6  2       21 0.346530883431D-02 0.100000000000D+01
-.851202513523D-03 0.000000000000D+00 -.705081363741D-04 0.773947142640D-07 0.000000000000D+00  6 2 21 25 24 1 21 4 0.21065438D+00 0.78166653D-01 0.18277031D+06 0.18277031D+06 0.18277031D+06 0.11402527D+01  1  2  5  2  6  2       21 -.379831782879D-01 0.100000000000D+01
0.301430996831D-04 0.000000000000D+00 0.000000000000D+00 0.742606104142D-07 0.000000000000D+00  6 2 -1 25 24 1 -1 4 0.21065438D+00 0.72289355D-01 0.34747698D+06 0.34747698D+06 0.34747698D+06 0.11169268D+01  1  2 12  5  6  2       21 0.163147091611D-03 0.100000000000D+01
0.305001436024D-04 0.000000000000D+00 0.000000000000D+00 0.742606104142D-07 0.000000000000D+00  6 2 -1 25 24 1 -1 4 0.21065438D+00 0.74820971D-01 0.34747698D+06 0.34747698D+06 0.34747698D+06 0.11169268D+01  1  2 12  5  6  2       21 0.153758916398D-03 0.100000000000D+01
-.343365995084D-03 0.000000000000D+00 -.272655060023D-04 0.773947142640D-07 0.000000000000D+00  6 2 -1 25 24 1 -1 4 0.21065438D+00 0.78166653D-01 0.18277031D+06 0.18277031D+06 0.18277031D+06 0.11402527D+01  1  2  5  5  6  2       21 -.176954047423D-02 0.100000000000D+01
0.301430996831D-04 0.000000000000D+00 0.000000000000D+00 0.742606104142D-07 0.000000000000D+00  6 2 1 25 24 1 1 4 0.21065438D+00 0.72289355D-01 0.34747698D+06 0.34747698D+06 0.34747698D+06 0.11169268D+01  1  2 12  6  6  2       21 0.474392086169D-03 0.100000000000D+01
0.305001436024D-04 0.000000000000D+00 0.000000000000D+00 0.742606104142D-07 0.000000000000D+00  6 2 1 25 24 1 1 4 0.21065438D+00 0.74820971D-01 0.34747698D+06 0.34747698D+06 0.34747698D+06 0.11169268D+01  1  2 12  6  6  2       21 0.458154941201D-03 0.100000000000D+01
-.343365995084D-03 0.000000000000D+00 -.272655060023D-04 0.773947142640D-07 0.000000000000D+00  6 2 1 25 24 1 1 4 0.21065438D+00 0.78166653D-01 0.18277031D+06 0.18277031D+06 0.18277031D+06 0.11402527D+01  1  2  5  6  6  2       21 -.543194949902D-02 0.100000000000D+01
0.301430996831D-04 0.000000000000D+00 0.000000000000D+00 0.742606104142D-07 0.000000000000D+00  6 2 -2 25 24 1 -2 4 0.21065438D+00 0.72289355D-01 0.34747698D+06 0.34747698D+06 0.34747698D+06 0.11169268D+01  1  2 12  7  6  2       21 0.127655516462D-03 0.100000000000D+01
0.305001436024D-04 0.000000000000D+00 0.000000000000D+00 0.742606104142D-07 0.000000000000D+00  6 2 -2 25 24 1 -2 4 0.21065438D+00 0.74820971D-01 0.34747698D+06 0.34747698D+06 0.34747698D+06 0.11169268D+01  1  2 12  7  6  2       21 0.119750445258D-03 0.100000000000D+01
-.343365995084D-03 0.000000000000D+00 -.272655060023D-04 0.773947142640D-07 0.000000000000D+00  6 2 -2 25 24 1 -2 4 0.21065438D+00 0.78166653D-01 0.18277031D+06 0.18277031D+06 0.18277031D+06 0.11402527D+01  1  2  5  7  6  2       21 -.136684126541D-02 0.100000000000D+01
0.301430996831D-04 0.000000000000D+00 0.000000000000D+00 0.742606104142D-07 0.000000000000D+00  6 2 2 25 24 1 2 4 0.21065438D+00 0.72289355D-01 0.34747698D+06 0.34747698D+06 0.34747698D+06 0.11169268D+01  1  2 12  8  6  2       21 0.737941371889D-03 0.100000000000D+01
0.305001436024D-04 0.000000000000D+00 0.000000000000D+00 0.742606104142D-07 0.000000000000D+00  6 2 2 25 24 1 2 4 0.21065438D+00 0.74820971D-01 0.34747698D+06 0.34747698D+06 0.34747698D+06 0.11169268D+01  1  2 12  8  6  2       21 0.717833374829D-03 0.100000000000D+01
-.343365995084D-03 0.000000000000D+00 -.272655060023D-04 0.773947142640D-07 0.000000000000D+00  6 2 2 25 24 1 2 4 0.21065438D+00 0.78166653D-01 0.18277031D+06 0.18277031D+06 0.18277031D+06 0.11402527D+01  1  2  5  8  6  2       21 -.856886567366D-02 0.100000000000D+01
0.301430996831D-04 0.000000000000D+00 0.000000000000D+00 0.742606104142D-07 0.000000000000D+00  6 2 -3 25 24 1 -3 4 0.21065438D+00 0.72289355D-01 0.34747698D+06 0.34747698D+06 0.34747698D+06 0.11169268D+01  1  2 12  9  6  2       21 0.834905298451D-04 0.100000000000D+01
0.301430996831D-04 0.000000000000D+00 0.000000000000D+00 0.742606104142D-07 0.000000000000D+00  6 2 -4 25 24 1 -4 4 0.21065438D+00 0.72289355D-01 0.34747698D+06 0.34747698D+06 0.34747698D+06 0.11169268D+01  1  2 12  9  6  2       21 0.692494347549D-04 0.100000000000D+01
0.305001436024D-04 0.000000000000D+00 0.000000000000D+00 0.742606104142D-07 0.000000000000D+00  6 2 -3 25 24 1 -3 4 0.21065438D+00 0.74820971D-01 0.34747698D+06 0.34747698D+06 0.34747698D+06 0.11169268D+01  1  2 12  9  6  2       21 0.783226626326D-04 0.100000000000D+01
0.305001436024D-04 0.000000000000D+00 0.000000000000D+00 0.742606104142D-07 0.000000000000D+00  6 2 -4 25 24 1 -4 4 0.21065438D+00 0.74820971D-01 0.34747698D+06 0.34747698D+06 0.34747698D+06 0.11169268D+01  1  2 12  9  6  2       21 0.648689446798D-04 0.100000000000D+01
-.343365995084D-03 0.000000000000D+00 -.272655060023D-04 0.773947142640D-07 0.000000000000D+00  6 2 -3 25 24 1 -3 4 0.21065438D+00 0.78166653D-01 0.18277031D+06 0.18277031D+06 0.18277031D+06 0.11402527D+01  1  2  5  9  6  2       21 -.886281026571D-03 0.100000000000D+01
-.343365995084D-03 0.000000000000D+00 -.272655060023D-04 0.773947142640D-07 0.000000000000D+00  6 2 -4 25 24 1 -4 4 0.21065438D+00 0.78166653D-01 0.18277031D+06 0.18277031D+06 0.18277031D+06 0.11402527D+01  1  2  5  9  6  2       21 -.729425059327D-03 0.100000000000D+01
0.301430996831D-04 0.000000000000D+00 0.000000000000D+00 0.742606104142D-07 0.000000000000D+00  6 2 3 25 24 1 3 4 0.21065438D+00 0.72289355D-01 0.34747698D+06 0.34747698D+06 0.34747698D+06 0.11169268D+01  1  2 12 10  6  2       21 0.835803328275D-04 0.100000000000D+01
0.301430996831D-04 0.000000000000D+00 0.000000000000D+00 0.742606104142D-07 0.000000000000D+00  6 2 4 25 24 1 4 4 0.21065438D+00 0.72289355D-01 0.34747698D+06 0.34747698D+06 0.34747698D+06 0.11169268D+01  1  2 12 10  6  2       21 0.692494347549D-04 0.100000000000D+01
0.305001436024D-04 0.000000000000D+00 0.000000000000D+00 0.742606104142D-07 0.000000000000D+00  6 2 3 25 24 1 3 4 0.21065438D+00 0.74820971D-01 0.34747698D+06 0.34747698D+06 0.34747698D+06 0.11169268D+01  1  2 12 10  6  2       21 0.784130111707D-04 0.100000000000D+01
0.305001436024D-04 0.000000000000D+00 0.000000000000D+00 0.742606104142D-07 0.000000000000D+00  6 2 4 25 24 1 4 4 0.21065438D+00 0.74820971D-01 0.34747698D+06 0.34747698D+06 0.34747698D+06 0.11169268D+01  1  2 12 10  6  2       21 0.648689446798D-04 0.100000000000D+01
-.343365995084D-03 0.000000000000D+00 -.272655060023D-04 0.773947142640D-07 0.000000000000D+00  6 2 3 25 24 1 3 4 0.21065438D+00 0.78166653D-01 0.18277031D+06 0.18277031D+06 0.18277031D+06 0.11402527D+01  1  2  5 10  6  2       21 -.887387622582D-03 0.100000000000D+01
-.343365995084D-03 0.000000000000D+00 -.272655060023D-04 0.773947142640D-07 0.000000000000D+00  6 2 4 25 24 1 4 4 0.21065438D+00 0.78166653D-01 0.18277031D+06 0.18277031D+06 0.18277031D+06 0.11402527D+01  1  2  5 10  6  2       21 -.729425059327D-03 0.100000000000D+01
  </mgrwgt>
  </event>
  <event>
  6     66 0.43779995E-03 0.56196775E+02 0.75467711E-02 0.12044196E+00
        2 -1    0    0  502    0 0.00000000E+00 0.00000000E+00 0.12481723E+03 0.12481764E+03 0.32000000E+00 0.0000E+00 0.9000E+01
       21 -1    0    0  501  502 -.00000000E+00 -.00000000E+00 -.31048568E+03 0.31048659E+03 0.75000000E+00 0.0000E+00 0.9000E+01
       25  1    1    2    0    0 -.11898150E+02 0.55647755E+02 -.14208753E+03 0.19761605E+03 0.12500000E+03 0.0000E+00 0.9000E+01
       24  1    1    2    0    0 -.28009756E+02 -.22212905E+02 -.11022562E+03 0.14104915E+03 0.80419002E+02 0.0000E+00 0.9000E+01
        1  1    1    2  503    0 -.59908116E+01 0.61421546E+01 0.39972201E+01 0.94708001E+01 0.32000000E+00 0.0000E+00 0.9000E+01
       21  1    1    2  501  503 0.45898718E+02 -.39577005E+02 0.62647470E+02 0.87168226E+02 0.75000000E+00 0.0000E+00 0.9000E+01
#aMCatNLO 2  0  0  5  2 0.10706060D+02 0.00000000D+00  -5  6  0 0.00000000D+00 0.00000000D+00 0.00000000D+00 0.00000000D+00 0.00000000D+00
  <mgrwgt>
 0.4022893316D-01    2    2    0
 0.196860988357627D+03 0.000000000000000D+00 0.000000000000000D+00 0.196860988357627D+03
 0.196860988357627D+03 -.000000000000000D+00 -.000000000000000D+00 -.196860988357627D+03
 0.153115750048513D+03 -.128749502115473D+02 0.564661178024536D+02 -.668224970372122D+02
 0.105110449761518D+03 -.286802337664578D+02 -.216511783143972D+02 -.573555695935231D+02
 0.135495776905224D+03 0.415551839780051D+02 -.348149394880565D+02 0.124178066630735D+03
 0.000000000000000D+00 0.000000000000000D+00 -.000000000000000D+00 0.000000000000000D+00
 0.196860988357627D+03 0.000000000000000D+00 0.000000000000000D+00 0.196860988357627D+03
 0.196860988357627D+03 -.000000000000000D+00 -.000000000000000D+00 -.196860988357627D+03
 0.151587431496384D+03 -.119618888989404D+02 0.557011548951995D+02 -.640940242532904D+02
 0.104040059768142D+03 -.280535017520584D+02 -.221762544918506D+02 -.554827257653041D+02
 0.115807231035359D+02 -.562689583735956D+01 0.576786478487374D+01 0.831762746579153D+01
 0.126513762347192D+03 0.456422864883583D+02 -.392927651882226D+02 0.111259122552803D+03
-.295909190023D-05 0.000000000000D+00 0.000000000000D+00 0.202662445457D-06 0.000000000000D+00  6 2 21 25 24 1 21 4 0.19202752D-01 0.47767130D-01 0.21559889D+05 0.21559889D+05 0.21559889D+05 0.12302513D+01  1  2 13  3  6  5        1 -.101679957932D-01 0.100000000000D+01
0.146665230086D-04 0.000000000000D+00 0.000000000000D+00 0.204154863857D-06 0.290372626365D-08  6 2 21 25 24 1 21 4 0.19202752D-01 0.47767130D-01 0.21559889D+05 0.21559889D+05 0.21559889D+05 0.12302513D+01  1  2  1  3  6  5        1 0.503969289501D-01 0.100000000000D+01
  </mgrwgt>
  </event>
  <event>
  6     66 0.43779995E-03 0.17243113E+02 0.75467711E-02 0.12322675E+00
        2 -1    0    0  502    0 0.00000000E+00 0.00000000E+00 0.16063363E+04 0.16063363E+04 0.32000000E+00 0.0000E+00 0.9000E+01
       21 -1    0    0  501  502 0.00000000E+00 0.00000000E+00 -.11122485E+02 0.11147743E+02 0.75000000E+00 0.0000E+00 0.9000E+01
       25  1    1    2    0    0 0.47154167E+01 -.52604833E+02 0.10178063E+04 0.10268126E+04 0.12500000E+03 0.0000E+00 0.9000E+01
       24  1    1    2    0    0 0.12221894E+02 0.24116615E+02 0.39477805E+03 0.40379192E+03 0.80419002E+02 0.0000E+00 0.9000E+01
        1  1    1    2  503    0 -.11577046E+02 0.19733319E+02 0.67128867E+02 0.70921218E+02 0.32000000E+00 0.0000E+00 0.9000E+01
       21  1    1    2  501  503 -.53602650E+01 0.87548987E+01 0.11550059E+03 0.11595831E+03 0.75000000E+00 0.0000E+00 0.9000E+01
#aMCatNLO 2  0  0  5  2 0.97433238D+01 0.00000000D+00  -5  6  0 0.00000000D+00 0.00000000D+00 0.00000000D+00 0.00000000D+00 0.00000000D+00
  <mgrwgt>
 0.7669705887D+00    3    2    0
 0.133741931114457D+03 0.000000000000000D+00 0.000000000000000D+00 0.133741931114457D+03
 0.133741931114457D+03 -.000000000000000D+00 -.000000000000000D+00 -.133741931114457D+03
 0.140531993280989D+03 0.633032132451527D+01 -.553210702042119D+02 0.319960522395647D+02
 0.869284024445839D+02 0.132281504449620D+02 0.224241119362896D+02 -.202856214317237D+02
 0.400234665033414D+02 -.195584717694772D+02 0.328969582679222D+02 -.117104308078410D+02
 0.000000000000000D+00 -.000000000000000D+00 0.000000000000000D+00 0.000000000000000D+00
 0.133741931114457D+03 0.000000000000000D+00 0.000000000000000D+00 0.133741931114457D+03
 0.133741931114457D+03 -.000000000000000D+00 -.000000000000000D+00 -.133741931114457D+03
 0.139187807558593D+03 0.469722351851475D+01 -.525742323630634D+02 0.310182519755660D+02
 0.873810525667625D+02 0.122104735136552D+02 0.241358241771035D+02 -.208949448711655D+02
 0.282677349021784D+02 -.113940417166912D+02 0.194296951828296D+02 -.170800349812424D+02
 0.126472672013800D+02 -.551365531547865D+01 0.900871300313024D+01 0.695672787684190D+01
-.776189827411D-05 0.000000000000D+00 0.000000000000D+00 0.618574058089D-06 0.000000000000D+00  6 2 21 25 24 1 21 4 0.24713060D+00 0.17130969D-02 0.16080752D+05 0.16080752D+05 0.16080752D+05 0.12443926D+01  1  2 13  3  6  5        1 -.453003648791D+00 0.100000000000D+01
-.521689236429D-07 0.000000000000D+00 0.000000000000D+00 0.616292295351D-06 0.000000000000D+00  6 2 21 25 24 1 21 4 0.24713060D+00 0.17130969D-02 0.16853419D+05 0.16853419D+05 0.16853419D+05 0.12420954D+01  1  2  8  3  6  5        1 -.302339962615D-02 0.100000000000D+01
0.209552026211D-04 0.000000000000D+00 0.000000000000D+00 0.616292295351D-06 0.102843158971D-06  6 2 21 25 24 1 21 4 0.24713060D+00 0.17130969D-02 0.16080752D+05 0.16080752D+05 0.16080752D+05 0.12443926D+01  1  2  1  3  6  5        1 0.122299763708D+01 0.100000000000D+01
  </mgrwgt>
  </event>
  <event>
  5     66 -.43779995E-03 0.51990096E+02 0.75467711E-02 0.11845216E+00
        2 -1    0    0  502    0 0.00000000E+00 0.00000000E+00 0.71737828E+03 0.71737835E+03 0.32000000E+00 0.0000E+00 0.9000E+01
       21 -1    0    0  501  502 0.00000000E+00 0.00000000E+00 -.12120046E+03 0.12120278E+03 0.75000000E+00 0.0000E+00 0.9000E+01
       25  1    1    2    0    0 -.18650895E+02 0.46914123E+02 0.39929107E+03 0.42143463E+03 0.12500000E+03 0.0000E+00 0.9000E+01
       24  1    1    2    0    0 0.38351028E+02 -.95027239E+02 0.28583528E+03 0.31411782E+03 0.80419002E+02 0.0000E+00 0.9000E+01
        1  1    1    2  501    0 -.19700133E+02 0.48113116E+02 -.88948526E+02 0.10302868E+03 0.32000000E+00 0.0000E+00 0.9000E+01
#aMCatNLO 1  0  0  5  5 0.13676136D+02 0.00000000D+00  -5  6  0 0.00000000D+00 0.00000000D+00 0.00000000D+00 0.00000000D+00 0.00000000D+00
  <mgrwgt>
 -.1014619297D+00    6    2    0
 0.294868748074152D+03 0.000000000000000D+00 0.000000000000000D+00 0.294868748074152D+03
 0.294868748074152D+03 -.000000000000000D+00 -.000000000000000D+00 -.294868748074152D+03
 0.195610211245345D+03 -.186508887928750D+02 0.469141085211297D+02 0.141737664409824D+03
 0.157705149293009D+03 0.383510326739669D+02 -.950272505069551D+02 0.888972334388890D+02
 0.236422135609951D+03 -.197001438810918D+02 0.481131419858252D+02 -.230634897848713D+03
 0.000000000000000D+00 -.000000000000000D+00 0.000000000000000D+00 0.000000000000000D+00
 0.294868748074152D+03 0.000000000000000D+00 0.000000000000000D+00 0.294868748074152D+03
 0.294868748074152D+03 -.000000000000000D+00 -.000000000000000D+00 -.294868748074152D+03
 0.194598766251016D+03 -.187809930565537D+02 0.472318587339768D+02 0.140214498703810D+03
 0.156835834627437D+03 0.382461577852027D+02 -.947711173312626D+02 0.876694348297502D+02
 0.214237855347312D+03 -.476357433960159D+01 0.475865853050925D+02 -.208831711965228D+03
 0.240650399225393D+02 -.147015903890473D+02 -.473267078067945D-01 -.190522215683319D+02
0.903680679232D-05 0.000000000000D+00 0.000000000000D+00 0.393102029846D-05 0.000000000000D+00  6 2 21 25 24 1 21 2 0.11036607D+00 0.18646408D-01 0.25132129D+05 0.25132129D+05 0.25132129D+05 0.12230523D+01  1  2  2  3  6  5        1 0.184040101874D-01 0.100000000000D+01
0.121999272187D-05 0.476885396117D-06 -.182427092943D-07 0.393102029846D-05 0.000000000000D+00  6 2 21 25 24 1 21 4 0.11036607D+00 0.18646408D-01 0.25132129D+05 0.25132129D+05 0.25132129D+05 0.12230523D+01  1  2  3  3  6  5        1 0.371659083367D-02 0.100000000000D+01
0.845929631947D-06 0.000000000000D+00 0.000000000000D+00 0.393102029846D-05 0.000000000000D+00  6 2 21 25 24 1 21 4 0.11036607D+00 0.18646408D-01 0.25132129D+05 0.25132129D+05 0.25132129D+05 0.12230523D+01  1  2 15  3  6  5        1 0.257704350170D-02 0.100000000000D+01
-.487415519114D-04 0.000000000000D+00 0.000000000000D+00 0.393102029846D-05 0.000000000000D+00  6 2 21 25 24 1 21 4 0.11036607D+00 0.18646408D-01 0.25132129D+05 0.25132129D+05 0.25132129D+05 0.12230523D+01  1  2  4  3  6  5        1 -.148486463735D+00 0.100000000000D+01
-.685336537311D-04 0.000000000000D+00 0.000000000000D+00 0.393102029846D-05 0.000000000000D+00  6 2 21 25 24 1 21 4 0.11036607D+00 0.18646408D-01 0.25132129D+05 0.25132129D+05 0.25132129D+05 0.12230523D+01  1  2  5  3  6  5        1 -.208781203927D+00 0.100000000000D+01
0.758625860715D-04 0.000000000000D+00 -.000000000000D+00 0.393102029846D-05 0.000000000000D+00  6 2 21 25 24 1 21 4 0.11036607D+00 0.18646408D-01 0.25132129D+05 0.25132129D+05 0.25132129D+05 0.12230523D+01  1  2  6  3  6  5        1 0.231108093481D+00 0.100000000000D+01
  </mgrwgt>
  </event>
  <event>
  5     66 0.43779995E-03 0.20512547E+03 0.75467711E-02 0.10756053E+00
        2 -1    0    0  502    0 0.00000000E+00 0.00000000E+00 0.14109674E+04 0.14109674E+04 0.32000000E+00 0.0000E+00 0.9000E+01
       21 -1    0    0  501  502 0.00000000E+00 0.00000000E+00 -.53038897E+02 0.53044200E+02 0.75000000E+00 0.0000E+00 0.9000E+01
       25  1    1    2    0    0 0.14982272E+03 0.58053792E+02 0.78474627E+03 0.81072116E+03 0.12500000E+03 0.0000E+00 0.9000E+01
       24  1    1    2    0    0 0.40008042E+02 0.19668099E+02 0.28568354E+03 0.30011628E+03 0.80419002E+02 0.0000E+00 0.9000E+01
        1  1    1    2  501    0 -.18983077E+03 -.77721891E+02 0.28749867E+03 0.35317417E+03 0.32000000E+00 0.0000E+00 0.9000E+01
#aMCatNLO 1  0  0  2  1 0.12375717D+03 0.00000000D+00  -5  6  0 0.00000000D+00 0.00000000D+00 0.00000000D+00 0.00000000D+00 0.00000000D+00
  <mgrwgt>
 0.1012823276D+00    3    2    0
 0.273569117357576D+03 0.000000000000000D+00 0.000000000000000D+00 0.273569117357576D+03
 0.273569117357576D+03 0.000000000000000D+00 0.000000000000000D+00 -.273569117357576D+03
 0.221654999069311D+03 0.149822797437523D+03 0.580538218741943D+02 0.876859267283554D+02
 0.940089805884795D+02 0.400080733837840D+02 0.196681122094279D+02 0.195701789248257D+02
 0.231474255057363D+03 -.189830870821307D+03 -.777219340836222D+02 -.107256105653181D+03
 0.000000000000000D+00 0.000000000000000D+00 -.000000000000000D+00 0.000000000000000D+00
 0.582685637816800D+03 0.000000000000000D+00 0.000000000000000D+00 0.582685637816800D+03
 0.293150027922015D+03 0.000000000000000D+00 0.000000000000000D+00 -.293150027922015D+03
 0.196641011874220D+03 0.104032546855803D+03 0.673134087637959D+02 0.876859267283554D+02
 0.883956978079861D+02 0.200405008692572D+02 0.237059034493494D+02 0.195701789248257D+02
 0.275923257072134D+03 -.245374932005499D+03 -.664899566604260D+02 -.107256105653181D+03
 0.314875698984475D+03 0.121301884280439D+03 -.245293555527194D+02 0.289535609894785D+03
0.310486522011D-04 0.000000000000D+00 0.000000000000D+00 0.336069614204D-06 0.000000000000D+00  6 2 21 25 24 1 21 2 0.21707231D+00 0.81602410D-02 0.62662171D+05 0.62662171D+05 0.62662171D+05 0.11826931D+01  1  2  2  2  6  2       21 0.971572383514D-01 0.100000000000D+01
-.226514968497D-05 0.163848239142D-05 -.626782832809D-07 0.336069614204D-06 0.000000000000D+00  6 2 21 25 24 1 21 4 0.21707231D+00 0.81602410D-02 0.62662171D+05 0.62662171D+05 0.62662171D+05 0.11826931D+01  1  2  3  2  6  2       21 -.991455926234D-02 0.100000000000D+01
0.320759648308D-05 0.000000000000D+00 0.000000000000D+00 0.336069614204D-06 0.000000000000D+00  6 2 21 25 24 1 21 4 0.21707231D+00 0.81602410D-02 0.62662171D+05 0.62662171D+05 0.62662171D+05 0.11826931D+01  1  2 15  2  6  2       21 0.140396485196D-01 0.100000000000D+01
  </mgrwgt>
  </event>
  <event>
  5     66 0.43779995E-03 0.34207579E+03 0.75467711E-02 0.95605332E-01
        2 -1    0    0  502    0 0.00000000E+00 0.00000000E+00 0.41595765E+04 0.41595765E+04 0.32000000E+00 0.0000E+00 0.9000E+01
       21 -1    0    0  501  502 0.00000000E+00 0.00000000E+00 -.42159649E+02 0.42166320E+02 0.75000000E+00 0.0000E+00 0.9000E+01
       25  1    1    2    0    0 0.16596930E+02 -.63686986E+02 0.41562119E+03 0.43897319E+03 0.12500000E+03 0.0000E+00 0.9000E+01
       24  1    1    2    0    0 -.10760436E+03 -.26606056E+03 0.11434770E+04 0.11816827E+04 0.80419002E+02 0.0000E+00 0.9000E+01
        1  1    1    2  501    0 0.91007432E+02 0.32974754E+03 0.25583186E+04 0.25810870E+04 0.32000000E+00 0.0000E+00 0.9000E+01
#aMCatNLO 1  0  0  1  2 0.62638624D+03 0.00000000D+00  -5  6  0 0.00000000D+00 0.00000000D+00 0.00000000D+00 0.00000000D+00 0.00000000D+00
  <mgrwgt>
 0.2026458566D-01    3    2    0
 0.418784341460404D+03 0.000000000000000D+00 0.000000000000000D+00 0.418784341460404D+03
 0.418784341460404D+03 0.000000000000000D+00 0.000000000000000D+00 -.418784341460404D+03
 0.158992077834924D+03 0.165969231204233D+02 -.636870088856302D+02 -.729519558093056D+02
 0.306786774778450D+03 -.107604373386707D+03 -.266060603852481D+03 -.726908737758717D+02
 0.371789830307434D+03 0.910074502662839D+02 0.329747612738112D+03 0.145642829585177D+03
 0.000000000000000D+00 0.000000000000000D+00 0.000000000000000D+00 -.000000000000000D+00
 0.634186070908002D+03 0.000000000000000D+00 0.000000000000000D+00 0.634186070908002D+03
 0.140471260717533D+04 0.000000000000000D+00 0.000000000000000D+00 -.140471260717533D+04
 0.245201022448075D+03 0.736857294513630D+01 -.197793472303639D+03 -.729519558093056D+02
 0.587122287653879D+03 -.128013692217761D+03 -.562648999092711D+03 -.726908737758717D+02
 0.213564359759300D+03 0.776429137644853D+02 0.135534054362670D+03 0.145642829585177D+03
 0.993011008222075D+03 0.430022055081399D+02 0.624908417033680D+03 -.770526536267323D+03
0.229921191167D-03 0.000000000000D+00 0.000000000000D+00 0.709575856569D-07 0.000000000000D+00  6 2 21 25 24 1 21 2 0.63993536D+00 0.64866139D-02 0.15264408D+06 0.15264408D+06 0.15264408D+06 0.11470663D+01  1  2  2  1  6  1        2 0.207336658691D-01 0.100000000000D+01
-.290218190524D-04 0.121332746008D-04 -.464144641735D-06 0.709575856569D-07 0.000000000000D+00  6 2 21 25 24 1 21 4 0.63993536D+00 0.64866139D-02 0.15264408D+06 0.15264408D+06 0.15264408D+06 0.11470663D+01  1  2  3  1  6  1        2 -.344348962950D-02 0.100000000000D+01
0.250683989881D-04 0.000000000000D+00 0.000000000000D+00 0.709575856569D-07 0.000000000000D+00  6 2 21 25 24 1 21 4 0.63993536D+00 0.64866139D-02 0.15264408D+06 0.15264408D+06 0.15264408D+06 0.11470663D+01  1  2 15  1  6  1        2 0.297440941893D-02 0.100000000000D+01
  </mgrwgt>
  </event>
  <event>
  5     66 0.43779995E-03 0.98617445E+02 0.75467711E-02 0.10385698E+00
        2 -1    0    0  502    0 0.00000000E+00 0.00000000E+00 0.14999840E+03 0.14999874E+03 0.32000000E+00 0.0000E+00 0.9000E+01
       21 -1    0    0  501  502 0.00000000E+00 0.00000000E+00 -.25253471E+03 0.25253583E+03 0.75000000E+00 0.0000E+00 0.9000E+01
       25  1    1    2    0    0 -.55560548E+02 -.72844618E+02 -.76903944E+02 0.17301020E+03 0.12500000E+03 0.0000E+00 0.9000E+01
       24  1    1    2    0    0 -.42903074E+02 0.78345168E+02 -.46235957E+02 0.12877740E+03 0.80419002E+02 0.0000E+00 0.9000E+01
        1  1    1    2  501    0 0.98463622E+02 -.55005497E+01 0.20603588E+02 0.10074697E+03 0.32000000E+00 0.0000E+00 0.9000E+01
#aMCatNLO 1  0  0  1  1 0.14222658D+01 0.00000000D+00  -5  6  0 0.00000000D+00 0.00000000D+00 0.00000000D+00 0.00000000D+00 0.00000000D+00
  <mgrwgt>
 0.5641432877D-01    3    2    0
 0.194628094821585D+03 0.000000000000000D+00 0.000000000000000D+00 0.194628094821585D+03
 0.194628094821585D+03 0.000000000000000D+00 0.000000000000000D+00 -.194628094821585D+03
 0.158654298093992D+03 -.555607191989366D+02 -.728446082338612D+02 -.339537308266648D+02
 0.120991044057219D+03 -.429032039693741D+02 0.783451748040336D+02 -.138912008758412D+02
 0.109610847491958D+03 0.984639231683107D+02 -.550056657017235D+01 0.478449317025060D+02
 0.000000000000000D+00 -.000000000000000D+00 -.000000000000000D+00 -.000000000000000D+00
 0.321513628198333D+03 0.000000000000000D+00 0.000000000000000D+00 0.321513628198333D+03
 0.669658076784140D+03 0.000000000000000D+00 0.000000000000000D+00 -.669658076784140D+03
 0.130630302786609D+03 0.158431828560880D+02 0.595094329161235D+01 -.339537308266648D+02
 0.183653245372238D+03 0.322919185425972D+02 0.161324409549362D+03 -.138912008758412D+02
 0.196595226810912D+03 0.174044539874556D+03 0.779040682831817D+02 0.478449317025060D+02
 0.480292930012714D+03 -.222179641273241D+03 -.245179421124156D+03 -.348144448585807D+03
0.209339505117D-04 0.000000000000D+00 0.000000000000D+00 0.147375830544D-06 0.000000000000D+00  6 2 21 25 24 1 21 2 0.23076789D-01 0.38851606D-01 0.34929160D+05 0.34929160D+05 0.34929160D+05 0.12080250D+01  1  2  2  1  6  1        2 0.564005814081D-01 0.100000000000D+01
-.221652587697D-05 0.110471491883D-05 -.422596147447D-07 0.147375830544D-06 0.000000000000D+00  6 2 21 25 24 1 21 4 0.23076789D-01 0.38851606D-01 0.34929160D+05 0.34929160D+05 0.34929160D+05 0.12080250D+01  1  2  3  1  6  1        2 -.871479201757D-02 0.100000000000D+01
0.222002238882D-05 0.000000000000D+00 0.000000000000D+00 0.147375830544D-06 0.000000000000D+00  6 2 21 25 24 1 21 4 0.23076789D-01 0.38851606D-01 0.34929160D+05 0.34929160D+05 0.34929160D+05 0.12080250D+01  1  2 15  1  6  1        2 0.872853937507D-02 0.100000000000D+01
  </mgrwgt>
  </event>
  <event>
  5     66 0.43779995E-03 0.35490651E+02 0.75467711E-02 0.12160849E+00
        2 -1    0    0  502    0 0.00000000E+00 0.00000000E+00 0.14354766E+04 0.14354766E+04 0.32000000E+00 0.0000E+00 0.9000E+01
       21 -1    0    0  501  502 0.00000000E+00 0.00000000E+00 -.12789685E+02 0.12811656E+02 0.75000000E+00 0.0000E+00 0.9000E+01
       25  1    1    2    0    0 -.31864449E+02 -.71951001E+01 0.68286463E+03 0.69497929E+03 0.12500000E+03 0.0000E+00 0.9000E+01
       24  1    1    2    0    0 0.46369101E+02 -.25195370E+02 0.64363665E+03 0.65078434E+03 0.80419002E+02 0.0000E+00 0.9000E+01
        1  1    1    2  501    0 -.14504652E+02 0.32390470E+02 0.96185603E+02 0.10252463E+03 0.32000000E+00 0.0000E+00 0.9000E+01
#aMCatNLO 1  0  0  1  2 0.14972275D+02 0.00000000D+00  -5  6  0 0.00000000D+00 0.00000000D+00 0.00000000D+00 0.00000000D+00 0.00000000D+00
  <mgrwgt>
 0.4778980252D-01    9    2    0
 0.135555263062058D+03 0.000000000000000D+00 0.000000000000000D+00 0.135555263062058D+03
 0.135555263062058D+03 0.000000000000000D+00 0.000000000000000D+00 -.135555263062058D+03
 0.129201147532449D+03 -.318642574839394D+02 -.719552857322575D+01 0.911036360860017D+00
 0.989631544231498D+02 0.463692479127078D+02 -.251956982303626D+02 0.232714335120122D+02
 0.429462241685173D+02 -.145049904287685D+02 0.323912268035884D+02 -.241824698728722D+02
 0.000000000000000D+00 -.000000000000000D+00 0.000000000000000D+00 0.000000000000000D+00
 0.167621959183693D+03 0.000000000000000D+00 0.000000000000000D+00 0.167621959183693D+03
 0.137520827794295D+03 0.000000000000000D+00 0.000000000000000D+00 -.137520827794295D+03
 0.128512295728073D+03 -.270943001545348D+02 -.124691244754695D+02 0.911036360860017D+00
 0.101863681031971D+03 0.500863044371977D+02 -.293052222160636D+02 0.232714335120122D+02
 0.411476619766979D+02 -.129485165269744D+02 0.306704117472669D+02 -.241824698728722D+02
 0.336191482412470D+02 -.100434877556884D+02 0.111039349442662D+02 0.301011313893977D+02
0.184749564399D-06 0.000000000000D+00 0.000000000000D+00 0.863098301548D-06 0.000000000000D+00  6 2 21 25 24 1 21 2 0.22084424D+00 0.19693367D-02 0.17014159D+05 0.17014159D+05 0.17014159D+05 0.12416323D+01  1  2  2  1  6  1        2 0.679718552328D-02 0.100000000000D+01
0.258592734260D-08 0.974950236580D-08 -.372956141813D-09 0.863098301548D-06 0.000000000000D+00  6 2 21 25 24 1 21 4 0.22084424D+00 0.19693367D-02 0.17014159D+05 0.17014159D+05 0.17014159D+05 0.12416323D+01  1  2  3  1  6  1        2 0.146672279422D-03 0.100000000000D+01
0.187920618546D-07 0.000000000000D+00 0.000000000000D+00 0.863098301548D-06 0.000000000000D+00  6 2 21 25 24 1 21 4 0.22084424D+00 0.19693367D-02 0.17014159D+05 0.17014159D+05 0.17014159D+05 0.12416323D+01  1  2 15  1  6  1        2 0.106587470647D-02 0.100000000000D+01
0.272877877419D-05 0.000000000000D+00 0.000000000000D+00 0.855555117777D-06 0.000000000000D+00  6 2 21 25 24 1 21 4 0.27443171D+00 0.19693367D-02 0.19036115D+05 0.19036115D+05 0.19036115D+05 0.12361947D+01  1  2 12  1  6  1        2 0.100600626162D+00 0.100000000000D+01
-.222478497056D-05 0.000000000000D+00 0.000000000000D+00 0.863098301548D-06 0.000000000000D+00  6 2 21 25 24 1 21 4 0.22084424D+00 0.19693367D-02 0.17014159D+05 0.17014159D+05 0.17014159D+05 0.12416323D+01  1  2  4  1  6  1        2 -.126188496281D+00 0.100000000000D+01
-.341802763527D-05 0.000000000000D+00 -.335609566718D-06 0.863098301548D-06 0.000000000000D+00  6 2 21 25 24 1 21 4 0.27448171D+00 0.19693367D-02 0.17014159D+05 0.17014159D+05 0.17014159D+05 0.12416323D+01  1  2  5  1  6  1        2 -.128197326264D+00 0.100000000000D+01
0.341767461504D-05 0.000000000000D+00 0.327829993332D-06 0.863098301548D-06 0.000000000000D+00  6 2 21 25 24 1 21 4 0.22084424D+00 0.19693367D-02 0.17014159D+05 0.17014159D+05 0.17014159D+05 0.12416323D+01  1  2  6  1  6  1        2 0.193848495993D+00 0.100000000000D+01
0.831625155364D-07 0.000000000000D+00 0.000000000000D+00 0.855555117777D-06 0.000000000000D+00  6 21 21 25 24 1 -2 4 0.27443171D+00 0.19693367D-02 0.19036115D+05 0.19036115D+05 0.19036115D+05 0.12361947D+01  1  2 12  4  6  1        2 0.123336262120D-02 0.100000000000D+01
-.997768367603D-07 0.000000000000D+00 -.102345459797D-07 0.863098301548D-06 0.000000000000D+00  6 21 21 25 24 1 -2 4 0.27448171D+00 0.19693367D-02 0.17014159D+05 0.17014159D+05 0.17014159D+05 0.12416323D+01  1  2  5  4  6  1        2 -.151659222178D-02 0.100000000000D+01
  </mgrwgt>
  </event>
  <event>
  6     66 0.43779995E-03 0.43098788E+02 0.75467711E-02 0.12148088E+00
        2 -1    0    0  502    0 0.00000000E+00 0.00000000E+00 0.20537997E+03 0.20538022E+03 0.32000000E+00 0.0000E+00 0.9000E+01
       21 -1    0    0  501  502 -.00000000E+00 -.00000000E+00 -.48769737E+03 0.48769795E+03 0.75000000E+00 0.0000E+00 0.9000E+01
       25  1    1    2    0    0 0.47975440E+02 0.84095652E+01 -.39137121E+02 0.13974648E+03 0.12500000E+03 0.0000E+00 0.9000E+01
       24  1    1    2    0    0 -.31361120E+02 0.37220340E+02 0.13840973E+03 0.16731212E+03 0.80419002E+02 0.0000E+00 0.9000E+01
        1  1    1    2  503    0 -.12852813E+02 -.43460425E+02 -.23315570E+03 0.23751987E+03 0.32000000E+00 0.0000E+00 0.9000E+01
       21  1    1    2  501  503 -.37615067E+01 -.21694802E+01 -.14843432E+03 0.14849971E+03 0.75000000E+00 0.0000E+00 0.9000E+01
#aMCatNLO 2  0  0  5  2 0.15677151D+02 0.00000000D+00  -5  6  0 0.00000000D+00 0.00000000D+00 0.00000000D+00 0.00000000D+00 0.00000000D+00
  <mgrwgt>
 0.1076398957D+00    1    2    0
 0.316486267851506D+03 0.000000000000000D+00 0.000000000000000D+00 0.316486267851506D+03
 0.316486267851506D+03 -.000000000000000D+00 -.000000000000000D+00 -.316486267851506D+03
 0.135639449887596D+03 0.480049414696584D+02 0.849058826887463D+01 0.199122040757146D+02
 0.245677279742030D+03 -.313077512282613D+02 0.373669132129382D+02 0.226966183245520D+03
 0.251655806073386D+03 -.166971902413972D+02 -.458575014818128D+02 -.246878387321235D+03
 0.000000000000000D+00 0.000000000000000D+00 0.000000000000000D+00 -.000000000000000D+00
 0.316486267851506D+03 0.000000000000000D+00 0.000000000000000D+00 0.316486267851506D+03
 0.316486267851506D+03 -.000000000000000D+00 -.000000000000000D+00 -.316486267851506D+03
 0.135560669623760D+03 0.479754632549692D+02 0.840962870296858D+01 0.194763502584926D+02
 0.244933564397213D+03 -.313610783868867D+02 0.372204544243437D+02 0.226177707895384D+03
 0.155825323950082D+03 -.128379232356834D+02 -.434269989790770D+02 -.149100017004740D+03
 0.966529777319578D+02 -.377646163239907D+01 -.220308414823523D+01 -.965540411491365D+02
0.139572227991D-03 0.000000000000D+00 0.000000000000D+00 0.274938040165D-05 0.217644953094D-05  6 2 21 25 24 1 21 4 0.31596982D-01 0.75030429D-01 0.19294836D+05 0.19294836D+05 0.19294836D+05 0.12355459D+01  1  2  1  3  6  5        1 0.107639895740D+00 0.100000000000D+01
  </mgrwgt>
  </event>
  <event>
  6     66 -.43779995E-03 0.71508973E+02 0.75467711E-02 0.99149728E-01
        2 -1    0    0  503    0 0.00000000E+00 0.00000000E+00 0.26114845E+04 0.26114846E+04 0.32000000E+00 0.0000E+00 0.9000E+01
       21 -1    0    0  501  502 0.00000000E+00 0.00000000E+00 -.29661169E+03 0.29661264E+03 0.75000000E+00 0.0000E+00 0.9000E+01
       25  1    1    2    0    0 -.26828214E+03 -.44238360E+03 0.35973281E+03 0.64242607E+03 0.12500000E+03 0.0000E+00 0.9000E+01
       24  1    1    2    0    0 0.33332841E+03 0.46404653E+03 0.15502219E+04 0.16541167E+04 0.80419002E+02 0.0000E+00 0.9000E+01
        1  1    1    2  501    0 -.71748459E+02 -.21369669E+02 -.89730554E+02 0.11685965E+03 0.32000000E+00 0.0000E+00 0.9000E+01
       21  1    1    2  503  502 0.67021922E+01 -.29326117E+00 0.49464868E+03 0.49469474E+03 0.75000000E+00 0.0000E+00 0.9000E+01
#aMCatNLO 2  0  0  1  2 0.67086051D+01 0.00000000D+00  -5  6  0 0.00000000D+00 0.00000000D+00 0.00000000D+00 0.00000000D+00 0.00000000D+00
  <mgrwgt>
 -.1165110446D+00    2    2    0
 0.792346269590061D+03 0.000000000000000D+00 0.000000000000000D+00 0.792346269590061D+03
 0.792346269590061D+03 0.000000000000000D+00 0.000000000000000D+00 -.792346269590061D+03
 0.564128299206919D+03 -.265894030308471D+03 -.442488091598336D+03 -.190053654019256D+03
 0.739825588311614D+03 0.336454567400486D+03 0.463909752362376D+03 0.460934649277624D+03
 0.280738651661589D+03 -.705605370920153D+02 -.214216607640402D+02 -.270880995258368D+03
 0.000000000000000D+00 0.000000000000000D+00 -.000000000000000D+00 0.000000000000000D+00
 0.977515098364877D+03 0.000000000000000D+00 0.000000000000000D+00 0.977515098364877D+03
 0.792414134538404D+03 0.000000000000000D+00 0.000000000000000D+00 -.792414134538404D+03
 0.565176022265701D+03 -.268282121520952D+03 -.442383598260860D+03 -.190053654019256D+03
 0.738495089877290D+03 0.333328426329663D+03 0.464046539815135D+03 0.460934649277624D+03
 0.281035627009385D+03 -.717484969649954D+02 -.213696803826935D+02 -.270880995258368D+03
 0.185222493750905D+03 0.670219215628431D+01 -.293261171581769D+00 0.185100963826474D+03
-.144158610333D+00 0.000000000000D+00 0.000000000000D+00 0.972953922853D-07 0.000000000000D+00  6 2 21 25 24 1 21 4 0.40177835D+00 0.45628691D-01 0.35451412D+06 0.35451412D+06 0.35451412D+06 0.11162223D+01  1  2 13  1  6  1        2 -.382477521343D+01 0.100000000000D+01
0.139778400609D+00 0.000000000000D+00 0.000000000000D+00 0.973701113015D-07 0.142604252946D-07  6 2 21 25 24 1 21 4 0.40176654D+00 0.45632599D-01 0.35451412D+06 0.35451412D+06 0.35451412D+06 0.11162223D+01  1  2  1  1  6  1        2 0.370826416881D+01 0.100000000000D+01
  </mgrwgt>
  </event>
  <event>
  5     66 -.43779995E-03 0.23258515E+03 0.75467711E-02 0.10370315E+00
        2 -1    0    0  502    0 0.00000000E+00 0.00000000E+00 0.29292835E+03 0.29292852E+03 0.32000000E+00 0.0000E+00 0.9000E+01
       21 -1    0    0  501  502 -.00000000E+00 -.00000000E+00 -.62085984E+03 0.62086029E+03 0.75000000E+00 0.0000E+00 0.9000E+01
       25  1    1    2    0    0 0.21204362E+03 0.80155018E+02 -.43444549E+02 0.26248763E+03 0.12500000E+03 0.0000E+00 0.9000E+01
       24  1    1    2    0    0 -.11452482E+03 0.22529221E+03 -.12545314E+03 0.29339090E+03 0.80419002E+02 0.0000E+00 0.9000E+01
        1  1    1    2  501    0 -.97518801E+02 -.30544723E+03 -.15903380E+03 0.35791029E+03 0.32000000E+00 0.0000E+00 0.9000E+01
#aMCatNLO 1  0  0  5  2 0.13435766D+02 0.00000000D+00  -5  6  0 0.00000000D+00 0.00000000D+00 0.00000000D+00 0.00000000D+00 0.00000000D+00
  <mgrwgt>
 -.2970416428D-01    7    2    0
 0.426459535019052D+03 0.000000000000000D+00 0.000000000000000D+00 0.426459535019052D+03
 0.426459535019052D+03 -.000000000000000D+00 -.000000000000000D+00 -.426459535019052D+03
 0.264516824781270D+03 0.212043636989947D+03 0.801550648590303D+02 0.543765775116946D+02
 0.266094784835223D+03 -.114524806260798D+03 0.225292255289124D+03 -.216029400730587D+02
 0.322307460421611D+03 -.975188307291491D+02 -.305447320148154D+03 -.327736374386359D+02
 0.000000000000000D+00 0.000000000000000D+00 0.000000000000000D+00 -.000000000000000D+00
 0.426459535019052D+03 0.000000000000000D+00 0.000000000000000D+00 0.426459535019052D+03
 0.426459535019052D+03 -.000000000000000D+00 -.000000000000000D+00 -.426459535019052D+03
 0.263549851569214D+03 0.211510027600360D+03 0.784836998843200D+02 0.541972447557804D+02
 0.264920705472640D+03 -.115061395415794D+03 0.223611557128689D+03 -.217832742535228D+02
 0.304986952733279D+03 -.977389705768469D+02 -.288292174342089D+03 -.187551907806860D+02
 0.194615602629710D+02 0.129033839228175D+01 -.138030826709197D+02 -.136587797215715D+02
0.247195569651D-04 0.000000000000D+00 0.000000000000D+00 0.411883501063D-07 0.000000000000D+00  6 2 21 25 24 1 21 2 0.45065948D-01 0.95516947D-01 0.17838826D+06 0.17838826D+06 0.17838826D+06 0.11411634D+01  1  2  2  3  6  5        1 0.379146839343D-02 0.100000000000D+01
-.230658835050D-05 0.130448685980D-05 -.499016634925D-07 0.411883501063D-07 0.000000000000D+00  6 2 21 25 24 1 21 4 0.45065948D-01 0.95516947D-01 0.17838826D+06 0.17838826D+06 0.17838826D+06 0.11411634D+01  1  2  3  3  6  5        1 -.460715213867D-03 0.100000000000D+01
0.236462598642D-05 0.000000000000D+00 0.000000000000D+00 0.411883501063D-07 0.000000000000D+00  6 2 21 25 24 1 21 4 0.45065948D-01 0.95516947D-01 0.17838826D+06 0.17838826D+06 0.17838826D+06 0.11411634D+01  1  2 15  3  6  5        1 0.472307582241D-03 0.100000000000D+01
0.981753631543D-04 0.000000000000D+00 0.000000000000D+00 0.412173928911D-07 0.000000000000D+00  6 2 21 25 24 1 21 4 0.45065948D-01 0.95516947D-01 0.17648973D+06 0.17648973D+06 0.17648973D+06 0.11415657D+01  1  2 12  3  6  5        1 0.196472319018D-01 0.100000000000D+01
-.280444043549D-03 0.000000000000D+00 0.000000000000D+00 0.411883501063D-07 0.000000000000D+00  6 2 21 25 24 1 21 4 0.45065948D-01 0.95516947D-01 0.17838826D+06 0.17838826D+06 0.17838826D+06 0.11411634D+01  1  2  4  3  6  5        1 -.560155597219D-01 0.100000000000D+01
-.230287625932D-03 0.000000000000D+00 0.000000000000D+00 0.411883501063D-07 0.000000000000D+00  6 2 21 25 24 1 21 4 0.45065948D-01 0.95516947D-01 0.17838826D+06 0.17838826D+06 0.17838826D+06 0.11411634D+01  1  2  5  3  6  5        1 -.459973765189D-01 0.100000000000D+01
0.244611846488D-03 0.000000000000D+00 -.000000000000D+00 0.411883501063D-07 0.000000000000D+00  6 2 21 25 24 1 21 4 0.45065948D-01 0.95516947D-01 0.17838826D+06 0.17838826D+06 0.17838826D+06 0.11411634D+01  1  2  6  3  6  5        1 0.488584792968D-01 0.100000000000D+01
  </mgrwgt>
  </event>
  <event>
  5     66 -.43779995E-03 0.29886540E+02 0.75467711E-02 0.12305208E+00
        2 -1    0    0  502    0 0.00000000E+00 0.00000000E+00 0.19321620E+04 0.19321620E+04 0.32000000E+00 0.0000E+00 0.9000E+01
       21 -1    0    0  501  502 0.00000000E+00 0.00000000E+00 -.11561765E+02 0.11586066E+02 0.75000000E+00 0.0000E+00 0.9000E+01
       25  1    1    2    0    0 -.29959101E+02 0.37009426E+02 0.14669114E+04 0.14729974E+04 0.12500000E+03 0.0000E+00 0.9000E+01
       24  1    1    2    0    0 0.44716848E+02 -.11021453E+02 0.38201349E+03 0.39309362E+03 0.80419002E+02 0.0000E+00 0.9000E+01
        1  1    1    2  501    0 -.14757747E+02 -.25987973E+02 0.71675332E+02 0.77657076E+02 0.32000000E+00 0.0000E+00 0.9000E+01
#aMCatNLO 1  0  0  5  2 0.36745164D+01 0.00000000D+00  -5  6  0 0.00000000D+00 0.00000000D+00 0.00000000D+00 0.00000000D+00 0.00000000D+00
  <mgrwgt>
 -.2400752705D+01    8    2    0
 0.149542119289894D+03 0.000000000000000D+00 0.000000000000000D+00 0.149542119289894D+03
 0.149542119289894D+03 -.000000000000000D+00 -.000000000000000D+00 -.149542119289894D+03
 0.153085823088995D+03 -.299589052522847D+02 0.370097711973147D+02 0.744513939617117D+02
 0.101575872858305D+03 0.447169784183847D+02 -.110212242147293D+02 -.415856519787098D+02
 0.444225426324886D+02 -.147580731661000D+02 -.259885469825855D+02 -.328657419830019D+02
 0.000000000000000D+00 0.000000000000000D+00 0.000000000000000D+00 -.000000000000000D+00
 0.149542119289894D+03 0.000000000000000D+00 0.000000000000000D+00 0.149542119289894D+03
 0.149542119289894D+03 -.000000000000000D+00 -.000000000000000D+00 -.149542119289894D+03
 0.152881798713715D+03 -.301147265277586D+02 0.367353743642755D+02 0.741043851227157D+02
 0.101644899629590D+03 0.446134834152687D+02 -.112034759708135D+02 -.418161319357242D+02
 0.972121697564725D+01 -.291406930492620D+01 -.816344482135855D+01 -.440095764832310D+01
 0.348363232608354D+02 -.115846875825840D+02 -.173684535721034D+02 -.278872955386684D+02
0.726208433141D-05 0.000000000000D+00 0.000000000000D+00 0.921016182580D-06 0.000000000000D+00  6 2 21 25 24 1 21 2 0.29725756D+00 0.17806044D-02 0.16425181D+05 0.16425181D+05 0.16425181D+05 0.12433536D+01  1  2  2  3  6  5        1 0.175137136354D+00 0.100000000000D+01
0.271098878330D-06 0.383230718838D-06 -.146600559659D-07 0.921016182580D-06 0.000000000000D+00  6 2 21 25 24 1 21 4 0.29725756D+00 0.17806044D-02 0.16425181D+05 0.16425181D+05 0.16425181D+05 0.12433536D+01  1  2  3  3  6  5        1 0.101072732528D-01 0.100000000000D+01
0.697582016746D-06 0.000000000000D+00 0.000000000000D+00 0.921016182580D-06 0.000000000000D+00  6 2 21 25 24 1 21 4 0.29725756D+00 0.17806044D-02 0.16425181D+05 0.16425181D+05 0.16425181D+05 0.12433536D+01  1  2 15  3  6  5        1 0.260076769881D-01 0.100000000000D+01
0.451679670169D-06 0.000000000000D+00 0.000000000000D+00 0.921248379454D-06 0.000000000000D+00  6 2 21 25 24 1 21 4 0.29725756D+00 0.17806044D-02 0.16372702D+05 0.16372702D+05 0.16372702D+05 0.12435103D+01  1  2 12  3  6  5        1 0.168483776018D-01 0.100000000000D+01
-.999434986357D-04 0.000000000000D+00 0.000000000000D+00 0.921016182580D-06 0.000000000000D+00  6 2 21 25 24 1 21 4 0.29725756D+00 0.17806044D-02 0.16425181D+05 0.16425181D+05 0.16425181D+05 0.12433536D+01  1  2  4  3  6  5        1 -.372615429753D+01 0.100000000000D+01
-.747177113256D-05 0.000000000000D+00 0.000000000000D+00 0.921016182580D-06 0.000000000000D+00  6 2 21 25 24 1 21 4 0.29725756D+00 0.17806044D-02 0.16425181D+05 0.16425181D+05 0.16425181D+05 0.12433536D+01  1  2  5  3  6  5        1 -.278567115379D+00 0.100000000000D+01
0.201088909926D-04 0.000000000000D+00 -.000000000000D+00 0.921016182580D-06 0.000000000000D+00  6 2 21 25 24 1 21 4 0.29725756D+00 0.17806044D-02 0.16425181D+05 0.16425181D+05 0.16425181D+05 0.12433536D+01  1  2  6  3  6  5        1 0.749711903361D+00 0.100000000000D+01
0.167863099994D-04 0.000000000000D+00 0.000000000000D+00 0.921016182580D-06 0.150777403756D-06  6 2 21 25 24 1 21 4 0.29725756D+00 0.17806044D-02 0.16372702D+05 0.16372702D+05 0.16372702D+05 0.12435103D+01  1  2 11  3  6  5        1 0.626156340631D+00 0.100000000000D+01
  </mgrwgt>
  </event>
  <event>
  5     66 -.43779995E-03 0.20400243E+02 0.75467711E-02 0.11481640E+00
        2 -1    0    0  502    0 0.00000000E+00 0.00000000E+00 0.23904976E+04 0.23904977E+04 0.32000000E+00 0.0000E+00 0.9000E+01
       21 -1    0    0  501  502 0.00000000E+00 0.00000000E+00 -.35382514E+02 0.35390462E+02 0.75000000E+00 0.0000E+00 0.9000E+01
       25  1    1    2    0    0 -.14768849E+03 0.57215678E+02 0.72929610E+03 0.75669236E+03 0.12500000E+03 0.0000E+00 0.9000E+01
       24  1    1    2    0    0 0.14140181E+03 -.76623044E+02 0.16363745E+04 0.16462243E+04 0.80419002E+02 0.0000E+00 0.9000E+01
        1  1    1    2  501    0 0.62866811E+01 0.19407366E+02 -.10555501E+02 0.22971487E+02 0.32000000E+00 0.0000E+00 0.9000E+01
#aMCatNLO 1  0  0  5  2 0.95776679D+00 0.00000000D+00  -5  6  0 0.00000000D+00 0.00000000D+00 0.00000000D+00 0.00000000D+00 0.00000000D+00
  <mgrwgt>
 -.4072088477D+00    5    2    0
 0.290846148231507D+03 0.000000000000000D+00 0.000000000000000D+00 0.290846148231507D+03
 0.290846148231507D+03 -.000000000000000D+00 -.000000000000000D+00 -.290846148231507D+03
 0.202984843386919D+03 -.147688495252319D+03 0.572156600030690D+02 -.221883587795674D+02
 0.240170931863276D+03 0.141401801337918D+03 -.766230651450564D+02 0.159214625659429D+03
 0.138536521212819D+03 0.628669391440099D+01 0.194074051419874D+02 -.137026266879862D+03
 0.000000000000000D+00 -.000000000000000D+00 0.000000000000000D+00 0.000000000000000D+00
 0.290846148231507D+03 0.000000000000000D+00 0.000000000000000D+00 0.290846148231507D+03
 0.290846148231507D+03 -.000000000000000D+00 -.000000000000000D+00 -.290846148231507D+03
 0.203028613260687D+03 -.147671299717015D+03 0.572687436627535D+02 -.225631567324968D+02
 0.239869343901324D+03 0.141422132066801D+03 -.765603029527785D+02 0.158771492286053D+03
 0.137829501256459D+03 0.674942455412523D+01 0.201162876726659D+02 -.136186459147240D+03
 0.964838044543077D+00 -.500256903911150D+00 -.824728382640987D+00 -.218764063164245D-01
0.399284630583D-04 0.000000000000D+00 0.000000000000D+00 0.279084988458D-05 0.000000000000D+00  6 2 21 25 24 1 21 2 0.36776948D+00 0.54440767D-02 0.40397364D+05 0.40397364D+05 0.40397364D+05 0.12015645D+01  1  2  2  3  6  5        1 0.803090770172D-01 0.100000000000D+01
0.132728174896D-04 0.210708288442D-05 -.806040630146D-07 0.279084988458D-05 0.000000000000D+00  6 2 21 25 24 1 21 4 0.36776948D+00 0.54440767D-02 0.40397364D+05 0.40397364D+05 0.40397364D+05 0.12015645D+01  1  2  3  3  6  5        1 0.385424551868D-01 0.100000000000D+01
0.392195314521D-05 0.000000000000D+00 0.000000000000D+00 0.279084988458D-05 0.000000000000D+00  6 2 21 25 24 1 21 4 0.36776948D+00 0.54440767D-02 0.40397364D+05 0.40397364D+05 0.40397364D+05 0.12015645D+01  1  2 15  3  6  5        1 0.113888180458D-01 0.100000000000D+01
-.120570930246D-02 0.000000000000D+00 0.000000000000D+00 0.279084988458D-05 0.000000000000D+00  6 2 21 25 24 1 21 4 0.36776948D+00 0.54440767D-02 0.40397364D+05 0.40397364D+05 0.40397364D+05 0.12015645D+01  1  2  4  3  6  5        1 -.350121568345D+01 0.100000000000D+01
0.102233225825D-02 0.000000000000D+00 0.000000000000D+00 0.279084988458D-05 0.219644998544D-04  6 2 21 25 24 1 21 4 0.36776948D+00 0.54440767D-02 0.40754802D+05 0.40754802D+05 0.40754802D+05 0.12011767D+01  1  2 11  3  6  5        1 0.296376648554D+01 0.100000000000D+01
  </mgrwgt>
  </event>
  <event>
  5     66 0.43779995E-03 0.21510359E+02 0.75467711E-02 0.10831115E+00
        2 -1    0    0  502    0 0.00000000E+00 0.00000000E+00 0.40003260E+03 0.40003272E+03 0.32000000E+00 0.0000E+00 0.9000E+01
       21 -1    0    0  501  502 0.00000000E+00 0.00000000E+00 -.26658020E+03 0.26658126E+03 0.75000000E+00 0.0000E+00 0.9000E+01
       25  1    1    2    0    0 -.16905370E+03 0.10117249E+03 0.24905505E+03 0.34127473E+03 0.12500000E+03 0.0000E+00 0.9000E+01
       24  1    1    2    0    0 0.16117311E+03 -.12118723E+03 -.97407738E+01 0.21731363E+03 0.80419002E+02 0.0000E+00 0.9000E+01
        1  1    1    2  501    0 0.78805918E+01 0.20014736E+02 -.10586188E+03 0.10802562E+03 0.32000000E+00 0.0000E+00 0.9000E+01
#aMCatNLO 1  0  0  2  1 0.47659980D+02 0.00000000D+00  -5  6  0 0.00000000D+00 0.00000000D+00 0.00000000D+00 0.00000000D+00 0.00000000D+00
  <mgrwgt>
 0.3667038034D+00    4    2    0
 0.326559587077580D+03 0.000000000000000D+00 0.000000000000000D+00 0.326559587077580D+03
 0.326559587077580D+03 0.000000000000000D+00 0.000000000000000D+00 -.326559587077580D+03
 0.297436657726890D+03 -.169053708320465D+03 0.101172463168254D+03 0.184468267621589D+03
 0.223794093822164D+03 0.161173097971094D+03 -.121187246069984D+03 -.543457850774682D+02
 0.131888422606107D+03 0.788061034937129D+01 0.200147829017294D+02 -.130122482544121D+03
 0.000000000000000D+00 -.000000000000000D+00 -.000000000000000D+00 0.000000000000000D+00
 0.425506815818094D+03 0.000000000000000D+00 0.000000000000000D+00 0.425506815818094D+03
 0.369806664583297D+03 0.000000000000000D+00 0.000000000000000D+00 -.369806664583297D+03
 0.273402430732712D+03 -.117684662193233D+03 0.106045592344564D+03 0.184468267621589D+03
 0.254641719138552D+03 0.204226896916815D+03 -.117102943564663D+03 -.543457850774682D+02
 0.135836009922308D+03 0.319727739765165D+02 0.223002881688719D+02 -.130122482544121D+03
 0.131433320607819D+03 -.118515008700099D+03 -.112429369487728D+02 0.557001512347970D+02
0.329023482861D-03 0.000000000000D+00 0.000000000000D+00 0.177943526959D-05 0.000000000000D+00  6 2 21 25 24 1 21 2 0.61543567D-01 0.41012430D-01 0.55679348D+05 0.55679348D+05 0.55679348D+05 0.11876819D+01  1  2  2  2  6  2       21 0.261238769379D+00 0.100000000000D+01
0.106281556903D-03 0.173630462133D-04 -.664203616029D-06 0.177943526959D-05 0.000000000000D+00  6 2 21 25 24 1 21 4 0.61543567D-01 0.41012430D-01 0.55679348D+05 0.55679348D+05 0.55679348D+05 0.11876819D+01  1  2  3  2  6  2       21 0.119033427335D+00 0.100000000000D+01
0.304519256322D-04 0.000000000000D+00 0.000000000000D+00 0.177943526959D-05 0.000000000000D+00  6 2 21 25 24 1 21 4 0.61543567D-01 0.41012430D-01 0.55679348D+05 0.55679348D+05 0.55679348D+05 0.11876819D+01  1  2 15  2  6  2       21 0.341056076196D-01 0.100000000000D+01
-.425667575716D-04 0.000000000000D+00 0.000000000000D+00 0.177943526959D-05 0.000000000000D+00  6 2 21 25 24 1 21 4 0.61543567D-01 0.41012430D-01 0.55679348D+05 0.55679348D+05 0.55679348D+05 0.11876819D+01  1  2  4  2  6  2       21 -.476740009454D-01 0.100000000000D+01
  </mgrwgt>
  </event>
  <event>
  5     66 0.43779995E-03 0.59697381E+02 0.75467711E-02 0.10914536E+00
        2 -1    0    0  502    0 0.00000000E+00 0.00000000E+00 0.20124668E+04 0.20124669E+04 0.32000000E+00 0.0000E+00 0.9000E+01
       21 -1    0    0  501  502 0.00000000E+00 0.00000000E+00 -.11990047E+02 0.12013482E+02 0.75000000E+00 0.0000E+00 0.9000E+01
       25  1    1    2    0    0 -.74506220E+02 0.27091740E+02 0.10789362E+04 0.10890425E+04 0.12500000E+03 0.0000E+00 0.9000E+01
       24  1    1    2    0    0 0.19034646E+02 -.50319990E+01 0.73326832E+03 0.73792769E+03 0.80419002E+02 0.0000E+00 0.9000E+01
        1  1    1    2  501    0 0.55471573E+02 -.22059741E+02 0.18827226E+03 0.19751019E+03 0.32000000E+00 0.0000E+00 0.9000E+01
#aMCatNLO 1  0  0  2  1 0.47659980D+02 0.00000000D+00  -5  6  0 0.00000000D+00 0.00000000D+00 0.00000000D+00 0.00000000D+00 0.00000000D+00
  <mgrwgt>
 0.9329790281D-01    3    2    0
 0.155413382467291D+03 0.000000000000000D+00 0.000000000000000D+00 0.155413382467291D+03
 0.155413382467291D+03 0.000000000000000D+00 0.000000000000000D+00 -.155413382467291D+03
 0.149145019335962D+03 -.745064636939028D+02 0.270918371837996D+02 0.182771994178559D+02
 0.869740431241199D+02 0.190345036622054D+02 -.503194237504187D+01 0.266389836377718D+02
 0.747077024744995D+02 0.554719600316974D+02 -.220598948087577D+02 -.449161830556277D+02
 0.000000000000000D+00 -.000000000000000D+00 0.000000000000000D+00 0.000000000000000D+00
 0.423032861204230D+03 0.000000000000000D+00 0.000000000000000D+00 0.423032861204230D+03
 0.236044781267128D+03 0.000000000000000D+00 0.000000000000000D+00 -.236044781267128D+03
 0.134417286345199D+03 -.199503141600491D+02 -.413634598983495D+02 0.182771994178559D+02
 0.116077881237703D+03 0.581008073516536D+02 -.540510804156244D+02 0.266389836377718D+02
 0.125812601488701D+03 0.940511910099177D+02 -.704678697186463D+02 -.449161830556277D+02
 0.282769873399755D+03 -.132201684201522D+03 0.165882410032620D+03 0.186988079937103D+03
0.413539305180D-05 0.000000000000D+00 0.000000000000D+00 0.546376487306D-06 0.000000000000D+00  6 2 21 25 24 1 21 2 0.30961209D+00 0.18464273D-02 0.21099345D+05 0.21099345D+05 0.21099345D+05 0.12312758D+01  1  2  2  2  6  2       21 0.838477236178D-01 0.100000000000D+01
-.855648873497D-07 0.218230686893D-06 -.834816711204D-08 0.546376487306D-06 0.000000000000D+00  6 2 21 25 24 1 21 4 0.30961209D+00 0.18464273D-02 0.21099345D+05 0.21099345D+05 0.21099345D+05 0.12312758D+01  1  2  3  2  6  2       21 -.263015147587D-02 0.100000000000D+01
0.393000989695D-06 0.000000000000D+00 0.000000000000D+00 0.546376487306D-06 0.000000000000D+00  6 2 21 25 24 1 21 4 0.30961209D+00 0.18464273D-02 0.21099345D+05 0.21099345D+05 0.21099345D+05 0.12312758D+01  1  2 15  2  6  2       21 0.120803306716D-01 0.100000000000D+01
  </mgrwgt>
  </event>
  <event>
  5     66 0.43779995E-03 0.63556278E+02 0.75467711E-02 0.10927619E+00
        2 -1    0    0  502    0 0.00000000E+00 0.00000000E+00 0.85063364E+02 0.85063966E+02 0.32000000E+00 0.0000E+00 0.9000E+01
       21 -1    0    0  501  502 0.00000000E+00 0.00000000E+00 -.23835006E+03 0.23835124E+03 0.75000000E+00 0.0000E+00 0.9000E+01
       25  1    1    2    0    0 -.12192016E+01 0.15427952E+02 -.62686540E+02 0.14069154E+03 0.12500000E+03 0.0000E+00 0.9000E+01
       24  1    1    2    0    0 -.12523124E+02 0.46624211E+02 -.65436733E+02 0.11436707E+03 0.80419002E+02 0.0000E+00 0.9000E+01
        1  1    1    2  501    0 0.13742325E+02 -.62052163E+02 -.25163419E+02 0.68356583E+02 0.32000000E+00 0.0000E+00 0.9000E+01
#aMCatNLO 1  0  0  2  5 0.12670398D+02 0.00000000D+00  -5  6  0 0.00000000D+00 0.00000000D+00 0.00000000D+00 0.00000000D+00 0.00000000D+00
  <mgrwgt>
 0.6856810048D-01    3    2    0
 0.142390819821070D+03 0.000000000000000D+00 0.000000000000000D+00 0.142390819821070D+03
 0.142390819821070D+03 0.000000000000000D+00 0.000000000000000D+00 -.142390819821070D+03
 0.126036156149119D+03 -.121927741547336D+01 0.154282947588876D+02 0.453803264223772D+01
 0.946602787713565D+02 -.125231806063305D+02 0.466244676747101D+02 -.127546612754526D+02
 0.640852047216651D+02 0.137424580218039D+02 -.620527624335977D+02 0.821662863321484D+01
 0.000000000000000D+00 -.000000000000000D+00 0.000000000000000D+00 0.000000000000000D+00
 0.753376513644891D+03 0.000000000000000D+00 0.000000000000000D+00 0.753376513644891D+03
 0.198590436089225D+03 0.000000000000000D+00 0.000000000000000D+00 -.198590436089225D+03
 0.152850682027626D+03 0.858366435869431D+02 -.187031514397067D+02 0.453803264223772D+01
 0.969728537831854D+02 0.472960599077774D+02 0.231715288540252D+02 -.127546612754526D+02
 0.107097502258598D+03 0.671779959384737D+02 -.830028846825500D+02 0.821662863321484D+01
 0.595045911664706D+03 -.200310699433194D+03 0.785345072682315D+02 0.554786077555666D+03
0.107421201355D-04 0.000000000000D+00 0.000000000000D+00 0.350561812399D-06 0.000000000000D+00  6 2 21 25 24 1 21 2 0.13086808D-01 0.36669376D-01 0.20065822D+05 0.20065822D+05 0.20065822D+05 0.12336690D+01  1  2  2  2  6  2       21 0.653646185640D-01 0.100000000000D+01
-.788458024222D-06 0.566877253625D-06 -.216852456116D-07 0.350561812399D-06 0.000000000000D+00  6 2 21 25 24 1 21 4 0.13086808D-01 0.36669376D-01 0.20065822D+05 0.20065822D+05 0.20065822D+05 0.12336690D+01  1  2  3  2  6  2       21 -.730177747559D-02 0.100000000000D+01
0.113437530686D-05 0.000000000000D+00 0.000000000000D+00 0.350561812399D-06 0.000000000000D+00  6 2 21 25 24 1 21 4 0.13086808D-01 0.36669376D-01 0.20065822D+05 0.20065822D+05 0.20065822D+05 0.12336690D+01  1  2 15  2  6  2       21 0.105052593924D-01 0.100000000000D+01
  </mgrwgt>
  </event>
  <event>
  5     66 0.43779995E-03 0.26924446E+02 0.75467711E-02 0.11473394E+00
        2 -1    0    0  502    0 0.00000000E+00 0.00000000E+00 0.15498426E+04 0.15498427E+04 0.32000000E+00 0.0000E+00 0.9000E+01
       21 -1    0    0  501  502 0.00000000E+00 0.00000000E+00 -.35210035E+02 0.35218022E+02 0.75000000E+00 0.0000E+00 0.9000E+01
       25  1    1    2    0    0 -.13495004E+03 -.91552042E+02 0.38082348E+03 0.43271794E+03 0.12500000E+03 0.0000E+00 0.9000E+01
       24  1    1    2    0    0 0.12877319E+03 0.65346068E+02 0.77009231E+03 0.78763064E+03 0.80419002E+02 0.0000E+00 0.9000E+01
        1  1    1    2  501    0 0.61768539E+01 0.26205974E+02 0.36371679E+03 0.36471210E+03 0.32000000E+00 0.0000E+00 0.9000E+01
#aMCatNLO 1  0  0  2  1 0.83721621D+01 0.00000000D+00  -5  6  0 0.00000000D+00 0.00000000D+00 0.00000000D+00 0.00000000D+00 0.00000000D+00
  <mgrwgt>
 0.2623064737D+00   32    2    0
 0.233615859469453D+03 0.000000000000000D+00 0.000000000000000D+00 0.233615859469453D+03
 0.233615859469453D+03 0.000000000000000D+00 0.000000000000000D+00 -.233615859469453D+03
 0.233453047075774D+03 -.134950087619203D+03 -.915522396758068D+02 -.110824123957181D+03
 0.175577470780629D+03 0.128773151944530D+03 0.653459191573476D+02 0.592251507309573D+02
 0.582012010825018D+02 0.617693567467302D+01 0.262063205184591D+02 0.515989732262236D+02
 0.000000000000000D+00 -.000000000000000D+00 0.000000000000000D+00 -.000000000000000D+00
 0.237129401442218D+03 0.000000000000000D+00 0.000000000000000D+00 0.237129401442218D+03
 0.238694520431422D+03 0.000000000000000D+00 0.000000000000000D+00 -.238694520431422D+03
 0.234337254167638D+03 -.133703210127871D+03 -.955531990121422D+02 -.110824123957181D+03
 0.175174307929602D+03 0.129708067646621D+03 0.623459775167519D+02 0.592251507309573D+02
 0.577951597477194D+02 0.648611962100790D+01 0.252142163178996D+02 0.515989732262236D+02
 0.851720002868069D+01 -.249097713975795D+01 0.799300517749069D+01 -.156511898920454D+01
0.612486841995D-05 0.000000000000D+00 0.000000000000D+00 0.675338235366D-07 0.000000000000D+00  6 2 21 25 24 1 21 2 0.23843794D+00 0.54175455D-02 0.39537858D+05 0.39537858D+05 0.39537858D+05 0.12025131D+01  1  2  2  2  6  2       21 0.342954213800D-01 0.100000000000D+01
-.390833648821D-06 0.323218186439D-06 -.123643446871D-07 0.675338235366D-07 0.000000000000D+00  6 2 21 25 24 1 21 4 0.23843794D+00 0.54175455D-02 0.39537858D+05 0.39537858D+05 0.39537858D+05 0.12025131D+01  1  2  3  2  6  2       21 -.316454271908D-02 0.100000000000D+01
0.694633542637D-06 0.000000000000D+00 0.000000000000D+00 0.675338235366D-07 0.000000000000D+00  6 2 21 25 24 1 21 4 0.23843794D+00 0.54175455D-02 0.39537858D+05 0.39537858D+05 0.39537858D+05 0.12025131D+01  1  2 15  2  6  2       21 0.562438143802D-02 0.100000000000D+01
0.934755534736D-05 0.000000000000D+00 0.000000000000D+00 0.673354072567D-07 0.000000000000D+00  6 2 21 25 24 1 21 4 0.23843794D+00 0.55753099D-02 0.41156468D+05 0.41156468D+05 0.41156468D+05 0.12007453D+01  1  2 12  2  6  2       21 0.715824625626D-01 0.100000000000D+01
-.299298627719D-05 0.000000000000D+00 0.000000000000D+00 0.675338235366D-07 0.000000000000D+00  6 2 21 25 24 1 21 4 0.23843794D+00 0.54175455D-02 0.39537858D+05 0.39537858D+05 0.39537858D+05 0.12025131D+01  1  2  4  2  6  2       21 -.242339239734D-01 0.100000000000D+01
-.351720696725D-03 0.000000000000D+00 -.520653950927D-04 0.675338235366D-07 0.000000000000D+00  6 2 21 25 24 1 21 4 0.23843794D+00 0.56262310D-02 0.39537858D+05 0.39537858D+05 0.39537858D+05 0.12025131D+01  1  2  5  2  6  2       21 -.267008881116D+01 0.100000000000D+01
0.352703810783D-03 0.000000000000D+00 0.519169335503D-04 0.675338235366D-07 0.000000000000D+00  6 2 21 25 24 1 21 4 0.23843794D+00 0.54175455D-02 0.39537858D+05 0.39537858D+05 0.39537858D+05 0.12025131D+01  1  2  6  2  6  2       21 0.285580906294D+01 0.100000000000D+01
0.220419922291D-07 0.000000000000D+00 0.000000000000D+00 0.675338235366D-07 0.195468855296D-07  6 2 21 25 24 1 21 4 0.24202401D+00 0.55353195D-02 0.41156468D+05 0.41156468D+05 0.41156468D+05 0.12007453D+01  1  2 11  2  6  2       21 0.166120425915D-03 0.100000000000D+01
0.262603754772D-06 0.000000000000D+00 0.000000000000D+00 0.673354072567D-07 0.000000000000D+00  6 2 -1 25 24 1 -1 4 0.23843794D+00 0.55753099D-02 0.41156468D+05 0.41156468D+05 0.41156468D+05 0.12007453D+01  1  2 12  5  6  2       21 0.119185419691D-03 0.100000000000D+01
-.268381109798D-05 0.000000000000D+00 -.462166539039D-06 0.675338235366D-07 0.000000000000D+00  6 2 -1 25 24 1 -1 4 0.23843794D+00 0.56262310D-02 0.39537858D+05 0.39537858D+05 0.39537858D+05 0.12025131D+01  1  2  5  5  6  2       21 -.120876358593D-02 0.100000000000D+01
0.492182796031D-08 0.000000000000D+00 0.000000000000D+00 0.675338235366D-07 0.411651630472D-08  6 2 -1 25 24 1 -1 4 0.24202401D+00 0.55353195D-02 0.41156468D+05 0.41156468D+05 0.41156468D+05 0.12007453D+01  1  2 11  5  6  2       21 0.219516067584D-05 0.100000000000D+01
0.262603754772D-06 0.000000000000D+00 0.000000000000D+00 0.673354072567D-07 0.000000000000D+00  6 2 1 25 24 1 1 4 0.23843794D+00 0.55753099D-02 0.41156468D+05 0.41156468D+05 0.41156468D+05 0.12007453D+01  1  2 12  6  6  2       21 0.135923651565D-03 0.100000000000D+01
-.268381109798D-05 0.000000000000D+00 -.462166539039D-06 0.675338235366D-07 0.000000000000D+00  6 2 1 25 24 1 1 4 0.23843794D+00 0.56262310D-02 0.39537858D+05 0.39537858D+05 0.39537858D+05 0.12025131D+01  1  2  5  6  6  2       21 -.138015155132D-02 0.100000000000D+01
0.837497056219D-09 0.000000000000D+00 0.000000000000D+00 0.675338235366D-07 0.360989849054D-10  6 2 1 25 24 1 1 4 0.24202401D+00 0.55353195D-02 0.41156468D+05 0.41156468D+05 0.41156468D+05 0.12007453D+01  1  2 11  6  6  2       21 0.425608422510D-06 0.100000000000D+01
0.262603754772D-06 0.000000000000D+00 0.000000000000D+00 0.673354072567D-07 0.000000000000D+00  6 2 -2 25 24 1 -2 4 0.23843794D+00 0.55753099D-02 0.41156468D+05 0.41156468D+05 0.41156468D+05 0.12007453D+01  1  2 12  7  6  2       21 0.116249248039D-03 0.100000000000D+01
-.268381109798D-05 0.000000000000D+00 -.462166539039D-06 0.675338235366D-07 0.000000000000D+00  6 2 -2 25 24 1 -2 4 0.23843794D+00 0.56262310D-02 0.39537858D+05 0.39537858D+05 0.39537858D+05 0.12025131D+01  1  2  5  7  6  2       21 -.117870375570D-02 0.100000000000D+01
0.844990156646D-09 0.000000000000D+00 0.000000000000D+00 0.675338235366D-07 0.716953178772D-10  6 2 -2 25 24 1 -2 4 0.24202401D+00 0.55353195D-02 0.41156468D+05 0.41156468D+05 0.41156468D+05 0.12007453D+01  1  2 11  7  6  2       21 0.367650437392D-06 0.100000000000D+01
0.262603754772D-06 0.000000000000D+00 0.000000000000D+00 0.673354072567D-07 0.000000000000D+00  6 2 2 25 24 1 2 4 0.23843794D+00 0.55753099D-02 0.41156468D+05 0.41156468D+05 0.41156468D+05 0.12007453D+01  1  2 12  8  6  2       21 0.147196149917D-03 0.100000000000D+01
-.268381109798D-05 0.000000000000D+00 -.462166539039D-06 0.675338235366D-07 0.000000000000D+00  6 2 2 25 24 1 2 4 0.23843794D+00 0.56262310D-02 0.39537858D+05 0.39537858D+05 0.39537858D+05 0.12025131D+01  1  2  5  8  6  2       21 -.149554858872D-02 0.100000000000D+01
0.135158873157D-08 0.000000000000D+00 0.000000000000D+00 0.675338235366D-07 0.180992283288D-09  6 2 2 25 24 1 2 4 0.24202401D+00 0.55353195D-02 0.41156468D+05 0.41156468D+05 0.41156468D+05 0.12007453D+01  1  2 11  8  6  2       21 0.743470772428D-06 0.100000000000D+01
0.262603754772D-06 0.000000000000D+00 0.000000000000D+00 0.673354072567D-07 0.000000000000D+00  6 2 -3 25 24 1 -3 4 0.23843794D+00 0.55753099D-02 0.41156468D+05 0.41156468D+05 0.41156468D+05 0.12007453D+01  1  2 12  9  6  2       21 0.851703570005D-04 0.100000000000D+01
0.262603754772D-06 0.000000000000D+00 0.000000000000D+00 0.673354072567D-07 0.000000000000D+00  6 2 -4 25 24 1 -4 4 0.23843794D+00 0.55753099D-02 0.41156468D+05 0.41156468D+05 0.41156468D+05 0.12007453D+01  1  2 12  9  6  2       21 0.762027944534D-04 0.100000000000D+01
-.268381109798D-05 0.000000000000D+00 -.462166539039D-06 0.675338235366D-07 0.000000000000D+00  6 2 -3 25 24 1 -3 4 0.23843794D+00 0.56262310D-02 0.39537858D+05 0.39537858D+05 0.39537858D+05 0.12025131D+01  1  2  5  9  6  2       21 -.862284540013D-03 0.100000000000D+01
-.268381109798D-05 0.000000000000D+00 -.462166539039D-06 0.675338235366D-07 0.000000000000D+00  6 2 -4 25 24 1 -4 4 0.23843794D+00 0.56262310D-02 0.39537858D+05 0.39537858D+05 0.39537858D+05 0.12025131D+01  1  2  5  9  6  2       21 -.771044644299D-03 0.100000000000D+01
0.843140312131D-09 0.000000000000D+00 0.000000000000D+00 0.675338235366D-07 0.715383631606D-10  6 2 -3 25 24 1 -3 4 0.24202401D+00 0.55353195D-02 0.41156468D+05 0.41156468D+05 0.41156468D+05 0.12007453D+01  1  2 11  9  6  2       21 0.268925193659D-06 0.100000000000D+01
0.843140312131D-09 0.000000000000D+00 0.000000000000D+00 0.675338235366D-07 0.715383631606D-10  6 2 -4 25 24 1 -4 4 0.24202401D+00 0.55353195D-02 0.41156468D+05 0.41156468D+05 0.41156468D+05 0.12007453D+01  1  2 11  9  6  2       21 0.240655749968D-06 0.100000000000D+01
0.262603754772D-06 0.000000000000D+00 0.000000000000D+00 0.673354072567D-07 0.000000000000D+00  6 2 3 25 24 1 3 4 0.23843794D+00 0.55753099D-02 0.41156468D+05 0.41156468D+05 0.41156468D+05 0.12007453D+01  1  2 12 10  6  2       21 0.851620014487D-04 0.100000000000D+01
0.262603754772D-06 0.000000000000D+00 0.000000000000D+00 0.673354072567D-07 0.000000000000D+00  6 2 4 25 24 1 4 4 0.23843794D+00 0.55753099D-02 0.41156468D+05 0.41156468D+05 0.41156468D+05 0.12007453D+01  1  2 12 10  6  2       21 0.762027944534D-04 0.100000000000D+01
-.268381109798D-05 0.000000000000D+00 -.462166539039D-06 0.675338235366D-07 0.000000000000D+00  6 2 3 25 24 1 3 4 0.23843794D+00 0.56262310D-02 0.39537858D+05 0.39537858D+05 0.39537858D+05 0.12025131D+01  1  2  5 10  6  2       21 -.862199326340D-03 0.100000000000D+01
-.268381109798D-05 0.000000000000D+00 -.462166539039D-06 0.675338235366D-07 0.000000000000D+00  6 2 4 25 24 1 4 4 0.23843794D+00 0.56262310D-02 0.39537858D+05 0.39537858D+05 0.39537858D+05 0.12025131D+01  1  2  5 10  6  2       21 -.771044644299D-03 0.100000000000D+01
0.843140312131D-09 0.000000000000D+00 0.000000000000D+00 0.675338235366D-07 0.715383631606D-10  6 2 3 25 24 1 3 4 0.24202401D+00 0.55353195D-02 0.41156468D+05 0.41156468D+05 0.41156468D+05 0.12007453D+01  1  2 11 10  6  2       21 0.268898898661D-06 0.100000000000D+01
0.843140312131D-09 0.000000000000D+00 0.000000000000D+00 0.675338235366D-07 0.715383631606D-10  6 2 4 25 24 1 4 4 0.24202401D+00 0.55353195D-02 0.41156468D+05 0.41156468D+05 0.41156468D+05 0.12007453D+01  1  2 11 10  6  2       21 0.240655749968D-06 0.100000000000D+01
  </mgrwgt>
  </event>
  <event>
  6     66 -.43779995E-03 0.21633880E+02 0.75467711E-02 0.11676619E+00
        2 -1    0    0  502    0 0.00000000E+00 0.00000000E+00 0.68985856E+03 0.68985864E+03 0.32000000E+00 0.0000E+00 0.9000E+01
        2 -1    0    0  501    0 0.00000000E+00 0.00000000E+00 -.74957817E+03 0.74957824E+03 0.32000000E+00 0.0000E+00 0.9000E+01
       25  1    1    2    0    0 -.11266560E+02 -.85677427E+02 0.29109577E+03 0.32837373E+03 0.12500000E+03 0.0000E+00 0.9000E+01
       24  1    1    2    0    0 0.65617631E+00 0.13415012E+03 0.35389298E+03 0.38691619E+03 0.80419002E+02 0.0000E+00 0.9000E+01
        1  1    1    2  501    0 -.66282888E+00 -.31722153E+02 -.16727564E+02 0.35869878E+02 0.32000000E+00 0.0000E+00 0.9000E+01
        2  1    1    2  502    0 0.11273213E+02 -.16750537E+02 -.68798079E+03 0.68827708E+03 0.32000000E+00 0.0000E+00 0.9000E+01
#aMCatNLO 2  0  0  2  5 0.20190736D+02 0.00000000D+00  -5  6  0 0.00000000D+00 0.00000000D+00 0.00000000D+00 0.00000000D+00 0.00000000D+00
  <mgrwgt>
 -.1351770069D+00    3    2    0
 0.205621776875840D+03 0.000000000000000D+00 0.000000000000000D+00 0.205621776875840D+03
 0.205621776875840D+03 0.000000000000000D+00 0.000000000000000D+00 -.205621776875840D+03
 0.158264115183657D+03 -.697688865207602D+01 -.920512485978065D+02 0.300070127001548D+02
 0.160632387724873D+03 0.512871698038632D+01 0.127504576620253D+03 0.552433456159967D+02
 0.923470508431506D+02 0.184817167168970D+01 -.354533280224464D+02 -.852503583161515D+02
 0.000000000000000D+00 0.000000000000000D+00 -.000000000000000D+00 -.000000000000000D+00
 0.205913660620410D+03 0.000000000000000D+00 0.000000000000000D+00 0.205913660620410D+03
 0.251126110879370D+04 0.000000000000000D+00 0.000000000000000D+00 -.251126110879370D+04
 0.154896622953895D+03 -.112665639808074D+02 -.856773454735855D+02 0.300070127001548D+02
 0.165878725330359D+03 0.656168235739939D+00 0.134150206005254D+03 0.552433456159967D+02
 0.909635572198449D+02 -.662816766960563D+00 -.317223237324949D+02 -.852503583161515D+02
 0.230543586391001D+04 0.112732125120280D+02 -.167505367991738D+02 -.230534744817329D+04
-.293888765892D-02 0.000000000000D+00 0.000000000000D+00 0.108980402929D-05 0.000000000000D+00  6 2 2 25 24 1 2 4 0.10598165D+00 0.11519338D+00 0.32452539D+05 0.32452539D+05 0.32452539D+05 0.12113328D+01  1  2 13  8  6  2       21 -.166983050665D+00 0.100000000000D+01
-.294034750877D-02 0.000000000000D+00 0.000000000000D+00 0.108980402929D-05 0.000000000000D+00  6 2 2 25 24 1 2 4 0.10598165D+00 0.11589493D+00 0.32452539D+05 0.32452539D+05 0.32452539D+05 0.12113328D+01  1  2 13  8  6  2       21 -.165823685667D+00 0.100000000000D+01
0.348886269444D-02 0.000000000000D+00 0.000000000000D+00 0.109847213119D-05 0.879116804463D-06  6 2 2 25 24 1 2 4 0.10613209D+00 0.11531972D+00 0.32452539D+05 0.32452539D+05 0.32452539D+05 0.12113328D+01  1  2  1  8  6  2       21 0.197629729404D+00 0.100000000000D+01
  </mgrwgt>
  </event>
  <event>
  5     66 0.43779995E-03 0.74271022E+02 0.75467711E-02 0.11615320E+00
        2 -1    0    0  502    0 0.00000000E+00 0.00000000E+00 0.13323422E+04 0.13323422E+04 0.32000000E+00 0.0000E+00 0.9000E+01
       21 -1    0    0  501  502 0.00000000E+00 0.00000000E+00 -.21081031E+02 0.21094368E+02 0.75000000E+00 0.0000E+00 0.9000E+01
       25  1    1    2    0    0 0.65645079E+02 0.17507226E+02 0.58398049E+03 0.60106072E+03 0.12500000E+03 0.0000E+00 0.9000E+01
       24  1    1    2    0    0 0.74179318E+01 -.30846418E+02 0.58992542E+03 0.59622625E+03 0.80419002E+02 0.0000E+00 0.9000E+01
        1  1    1    2  501    0 -.73063011E+02 0.13339193E+02 0.13735526E+03 0.15614963E+03 0.32000000E+00 0.0000E+00 0.9000E+01
#aMCatNLO 1  0  0  2  1 0.66100806D+02 0.00000000D+00  -5  6  0 0.00000000D+00 0.00000000D+00 0.00000000D+00 0.00000000D+00 0.00000000D+00
  <mgrwgt>
 0.7764394036D-01    4    2    0
 0.167619205950685D+03 0.000000000000000D+00 0.000000000000000D+00 0.167619205950685D+03
 0.167619205950685D+03 0.000000000000000D+00 0.000000000000000D+00 -.167619205950685D+03
 0.142426021527975D+03 0.656452625118239D+02 0.175071921019645D+02 0.666103165776798D+01
 0.996549345250901D+02 0.741805994311785D+01 -.308464418154689D+02 0.495717604572872D+02
 0.931574558483057D+02 -.730633224549418D+02 0.133392497135043D+02 -.562327921150552D+02
 0.000000000000000D+00 -.000000000000000D+00 -.000000000000000D+00 0.000000000000000D+00
 0.237833673726063D+03 0.000000000000000D+00 0.000000000000000D+00 0.237833673726063D+03
 0.187153044207049D+03 0.000000000000000D+00 0.000000000000000D+00 -.187153044207049D+03
 0.157272343317821D+03 0.879635692789142D+02 0.364366725929567D+02 0.666103165776798D+01
 0.987549907072272D+02 0.221934945012902D+02 -.183145188907748D+02 0.495717604572872D+02
 0.856656704501865D+02 -.597465017514542D+02 0.246340356638623D+02 -.562327921150552D+02
 0.832937134578774D+02 -.504105620287502D+02 -.427561893660442D+02 0.506806295190133D+02
0.433291049535D-05 0.000000000000D+00 0.000000000000D+00 0.484356344210D-06 0.000000000000D+00  6 2 21 25 24 1 21 2 0.20497675D+00 0.32442644D-02 0.22951042D+05 0.22951042D+05 0.22951042D+05 0.12272994D+01  1  2  2  2  6  2       21 0.783625555871D-01 0.100000000000D+01
-.150451186246D-06 0.228653968753D-06 -.874689792326D-08 0.484356344210D-06 0.000000000000D+00  6 2 21 25 24 1 21 4 0.20497675D+00 0.32442644D-02 0.22951042D+05 0.22951042D+05 0.22951042D+05 0.12272994D+01  1  2  3  2  6  2       21 -.409850558677D-02 0.100000000000D+01
0.482227795355D-06 0.000000000000D+00 0.000000000000D+00 0.484356344210D-06 0.000000000000D+00  6 2 21 25 24 1 21 4 0.20497675D+00 0.32442644D-02 0.22951042D+05 0.22951042D+05 0.22951042D+05 0.12272994D+01  1  2 15  2  6  2       21 0.131365751422D-01 0.100000000000D+01
-.358156105577D-06 0.000000000000D+00 0.000000000000D+00 0.484356344210D-06 0.000000000000D+00  6 2 21 25 24 1 21 4 0.20497675D+00 0.32442644D-02 0.22951042D+05 0.22951042D+05 0.22951042D+05 0.12272994D+01  1  2  4  2  6  2       21 -.975668478440D-02 0.100000000000D+01
  </mgrwgt>
  </event>
  <event>
  5     66 0.43779995E-03 0.23774246E+02 0.75467711E-02 0.11502509E+00
        2 -1    0    0  502    0 0.00000000E+00 0.00000000E+00 0.57971557E+03 0.57971566E+03 0.32000000E+00 0.0000E+00 0.9000E+01
       21 -1    0    0  501  502 0.00000000E+00 0.00000000E+00 -.86792922E+02 0.86796163E+02 0.75000000E+00 0.0000E+00 0.9000E+01
       25  1    1    2    0    0 0.53659039E+01 -.14436907E+03 0.28162655E+03 0.34030830E+03 0.12500000E+03 0.0000E+00 0.9000E+01
       24  1    1    2    0    0 0.18408027E+02 0.14445897E+03 0.23804612E+03 0.29041423E+03 0.80419002E+02 0.0000E+00 0.9000E+01
        1  1    1    2  501    0 -.23773931E+02 -.89896002E-01 -.26750025E+02 0.35789301E+02 0.32000000E+00 0.0000E+00 0.9000E+01
#aMCatNLO 1  0  0  2  1 0.18560794D+02 0.00000000D+00  -5  6  0 0.00000000D+00 0.00000000D+00 0.00000000D+00 0.00000000D+00 0.00000000D+00
  <mgrwgt>
 0.2761927209D+00   23    2    0
 0.224312990766037D+03 0.000000000000000D+00 0.000000000000000D+00 0.224312990766037D+03
 0.224312990766037D+03 0.000000000000000D+00 0.000000000000000D+00 -.224312990766037D+03
 0.196153205537706D+03 0.536598197402118D+01 -.144369073057652D+03 0.444955843275049D+02
 0.169910383382768D+03 0.184080945032769D+02 0.144458969610125D+03 0.345697929245737D+02
 0.825623926116006D+02 -.237740764772981D+02 -.898965524726504D-01 -.790653772520786D+02
 0.000000000000000D+00 -.000000000000000D+00 -.000000000000000D+00 -.000000000000000D+00
 0.227773746964519D+03 0.000000000000000D+00 0.000000000000000D+00 0.227773746964519D+03
 0.250852213233210D+03 0.000000000000000D+00 0.000000000000000D+00 -.250852213233210D+03
 0.191595406923657D+03 0.100363428992754D+02 -.137852148154477D+03 0.444955843275049D+02
 0.175357317954773D+03 0.225667806449066D+02 0.150261914117974D+03 0.345697929245737D+02
 0.820570460269501D+02 -.217912655295700D+02 0.267687677625797D+01 -.790653772520786D+02
 0.296161892923497D+02 -.108118580146121D+02 -.150866427397559D+02 -.230784662686914D+02
0.477745414395D-05 0.000000000000D+00 0.000000000000D+00 0.179164619100D-05 0.000000000000D+00  6 2 21 25 24 1 21 2 0.89187267D-01 0.13353013D-01 0.36322745D+05 0.36322745D+05 0.36322745D+05 0.12062767D+01  1  2  2  2  6  2       21 0.222206460897D-01 0.100000000000D+01
0.999727316966D-06 0.252113181595D-06 -.964430347108D-08 0.179164619100D-05 0.000000000000D+00  6 2 21 25 24 1 21 4 0.89187267D-01 0.13353013D-01 0.36322745D+05 0.36322745D+05 0.36322745D+05 0.12062767D+01  1  2  3  2  6  2       21 0.676605573736D-02 0.100000000000D+01
0.438880168897D-06 0.000000000000D+00 0.000000000000D+00 0.179164619100D-05 0.000000000000D+00  6 2 21 25 24 1 21 4 0.89187267D-01 0.13353013D-01 0.36322745D+05 0.36322745D+05 0.36322745D+05 0.12062767D+01  1  2 15  2  6  2       21 0.297029763455D-02 0.100000000000D+01
0.285200690461D-04 0.000000000000D+00 0.000000000000D+00 0.177975752331D-05 0.000000000000D+00  6 2 21 25 24 1 21 4 0.89187267D-01 0.15028114D-01 0.39758149D+05 0.39758149D+05 0.39758149D+05 0.12022678D+01  1  2 12  2  6  2       21 0.153555824199D+00 0.100000000000D+01
-.351402562710D-05 0.000000000000D+00 0.000000000000D+00 0.179164619100D-05 0.000000000000D+00  6 2 21 25 24 1 21 4 0.89187267D-01 0.13353013D-01 0.36322745D+05 0.36322745D+05 0.36322745D+05 0.12062767D+01  1  2  4  2  6  2       21 -.237825783611D-01 0.100000000000D+01
-.952785450178D-04 0.000000000000D+00 -.130355892671D-04 0.179164619100D-05 0.000000000000D+00  6 2 21 25 24 1 21 4 0.89187267D-01 0.15138458D-01 0.36322745D+05 0.36322745D+05 0.36322745D+05 0.12062767D+01  1  2  5  2  6  2       21 -.513631243951D+00 0.100000000000D+01
0.936858305474D-04 0.000000000000D+00 0.126339715727D-04 0.179164619100D-05 0.000000000000D+00  6 2 21 25 24 1 21 4 0.89187267D-01 0.13353013D-01 0.36322745D+05 0.36322745D+05 0.36322745D+05 0.12062767D+01  1  2  6  2  6  2       21 0.634056447720D+00 0.100000000000D+01
0.881101821296D-06 0.000000000000D+00 0.000000000000D+00 0.177975752331D-05 0.000000000000D+00  6 2 -1 25 24 1 -1 4 0.89187267D-01 0.15028114D-01 0.39758149D+05 0.39758149D+05 0.39758149D+05 0.12022678D+01  1  2 12  5  6  2       21 0.350784482871D-03 0.100000000000D+01
-.292590166366D-05 0.000000000000D+00 -.431515449390D-06 0.179164619100D-05 0.000000000000D+00  6 2 -1 25 24 1 -1 4 0.89187267D-01 0.15138458D-01 0.36322745D+05 0.36322745D+05 0.36322745D+05 0.12062767D+01  1  2  5  5  6  2       21 -.116601841923D-02 0.100000000000D+01
0.881101821296D-06 0.000000000000D+00 0.000000000000D+00 0.177975752331D-05 0.000000000000D+00  6 2 1 25 24 1 1 4 0.89187267D-01 0.15028114D-01 0.39758149D+05 0.39758149D+05 0.39758149D+05 0.12022678D+01  1  2 12  6  6  2       21 0.483484414421D-03 0.100000000000D+01
-.292590166366D-05 0.000000000000D+00 -.431515449390D-06 0.179164619100D-05 0.000000000000D+00  6 2 1 25 24 1 1 4 0.89187267D-01 0.15138458D-01 0.36322745D+05 0.36322745D+05 0.36322745D+05 0.12062767D+01  1  2  5  6  6  2       21 -.161048874244D-02 0.100000000000D+01
0.881101821296D-06 0.000000000000D+00 0.000000000000D+00 0.177975752331D-05 0.000000000000D+00  6 2 -2 25 24 1 -2 4 0.89187267D-01 0.15028114D-01 0.39758149D+05 0.39758149D+05 0.39758149D+05 0.12022678D+01  1  2 12  7  6  2       21 0.328042293358D-03 0.100000000000D+01
-.292590166366D-05 0.000000000000D+00 -.431515449390D-06 0.179164619100D-05 0.000000000000D+00  6 2 -2 25 24 1 -2 4 0.89187267D-01 0.15138458D-01 0.36322745D+05 0.36322745D+05 0.36322745D+05 0.12062767D+01  1  2  5  7  6  2       21 -.108982271867D-02 0.100000000000D+01
0.881101821296D-06 0.000000000000D+00 0.000000000000D+00 0.177975752331D-05 0.000000000000D+00  6 2 2 25 24 1 2 4 0.89187267D-01 0.15028114D-01 0.39758149D+05 0.39758149D+05 0.39758149D+05 0.12022678D+01  1  2 12  8  6  2       21 0.575362308683D-03 0.100000000000D+01
-.292590166366D-05 0.000000000000D+00 -.431515449390D-06 0.179164619100D-05 0.000000000000D+00  6 2 2 25 24 1 2 4 0.89187267D-01 0.15138458D-01 0.36322745D+05 0.36322745D+05 0.36322745D+05 0.12062767D+01  1  2  5  8  6  2       21 -.191816163399D-02 0.100000000000D+01
0.881101821296D-06 0.000000000000D+00 0.000000000000D+00 0.177975752331D-05 0.000000000000D+00  6 2 -3 25 24 1 -3 4 0.89187267D-01 0.15028114D-01 0.39758149D+05 0.39758149D+05 0.39758149D+05 0.12022678D+01  1  2 12  9  6  2       21 0.221832425777D-03 0.100000000000D+01
0.881101821296D-06 0.000000000000D+00 0.000000000000D+00 0.177975752331D-05 0.000000000000D+00  6 2 -4 25 24 1 -4 4 0.89187267D-01 0.15028114D-01 0.39758149D+05 0.39758149D+05 0.39758149D+05 0.12022678D+01  1  2 12  9  6  2       21 0.192424195249D-03 0.100000000000D+01
-.292590166366D-05 0.000000000000D+00 -.431515449390D-06 0.179164619100D-05 0.000000000000D+00  6 2 -3 25 24 1 -3 4 0.89187267D-01 0.15138458D-01 0.36322745D+05 0.36322745D+05 0.36322745D+05 0.12062767D+01  1  2  5  9  6  2       21 -.735204802857D-03 0.100000000000D+01
-.292590166366D-05 0.000000000000D+00 -.431515449390D-06 0.179164619100D-05 0.000000000000D+00  6 2 -4 25 24 1 -4 4 0.89187267D-01 0.15138458D-01 0.36322745D+05 0.36322745D+05 0.36322745D+05 0.12062767D+01  1  2  5  9  6  2       21 -.637035972044D-03 0.100000000000D+01
0.881101821296D-06 0.000000000000D+00 0.000000000000D+00 0.177975752331D-05 0.000000000000D+00  6 2 3 25 24 1 3 4 0.89187267D-01 0.15028114D-01 0.39758149D+05 0.39758149D+05 0.39758149D+05 0.12022678D+01  1  2 12 10  6  2       21 0.221807554348D-03 0.100000000000D+01
0.881101821296D-06 0.000000000000D+00 0.000000000000D+00 0.177975752331D-05 0.000000000000D+00  6 2 4 25 24 1 4 4 0.89187267D-01 0.15028114D-01 0.39758149D+05 0.39758149D+05 0.39758149D+05 0.12022678D+01  1  2 12 10  6  2       21 0.192424195249D-03 0.100000000000D+01
-.292590166366D-05 0.000000000000D+00 -.431515449390D-06 0.179164619100D-05 0.000000000000D+00  6 2 3 25 24 1 3 4 0.89187267D-01 0.15138458D-01 0.36322745D+05 0.36322745D+05 0.36322745D+05 0.12062767D+01  1  2  5 10  6  2       21 -.735121790088D-03 0.100000000000D+01
-.292590166366D-05 0.000000000000D+00 -.431515449390D-06 0.179164619100D-05 0.000000000000D+00  6 2 4 25 24 1 4 4 0.89187267D-01 0.15138458D-01 0.36322745D+05 0.36322745D+05 0.36322745D+05 0.12062767D+01  1  2  5 10  6  2       21 -.637035972044D-03 0.100000000000D+01
  </mgrwgt>
  </event>
  <event>
  5     66 -.43779995E-03 0.51709247E+02 0.75467711E-02 0.11402170E+00
        2 -1    0    0  502    0 0.00000000E+00 0.00000000E+00 0.40940326E+03 0.40940338E+03 0.32000000E+00 0.0000E+00 0.9000E+01
       21 -1    0    0  501  502 0.00000000E+00 0.00000000E+00 -.78227873E+02 0.78231468E+02 0.75000000E+00 0.0000E+00 0.9000E+01
       25  1    1    2    0    0 0.77024527E+02 0.52242466E+02 0.12733366E+03 0.20124839E+03 0.12500000E+03 0.0000E+00 0.9000E+01
       24  1    1    2    0    0 -.50321562E+02 -.96522742E+02 0.93396440E+02 0.16443543E+03 0.80419002E+02 0.0000E+00 0.9000E+01
        1  1    1    2  501    0 -.26702965E+02 0.44280277E+02 0.11044528E+03 0.12195103E+03 0.32000000E+00 0.0000E+00 0.9000E+01
#aMCatNLO 1  0  0  2  1 0.40313196D+02 0.00000000D+00  -5  6  0 0.00000000D+00 0.00000000D+00 0.00000000D+00 0.00000000D+00 0.00000000D+00
  <mgrwgt>
 -.1237766646D+00   12    2    0
 0.178962714439022D+03 0.000000000000000D+00 0.000000000000000D+00 0.178962714439022D+03
 0.178962714439022D+03 0.000000000000000D+00 0.000000000000000D+00 -.178962714439022D+03
 0.156362058969442D+03 0.770246731693363D+02 0.522422235214566D+02 -.127296225338523D+02
 0.137609369280832D+03 -.503214336503677D+02 -.965229554777598D+02 -.249037133919393D+02
 0.639540006277705D+02 -.267032395189686D+02 0.442807319563032D+02 0.376333359257917D+02
 0.000000000000000D+00 0.000000000000000D+00 -.000000000000000D+00 -.000000000000000D+00
 0.183698722313475D+03 0.000000000000000D+00 0.000000000000000D+00 0.183698722313475D+03
 0.123936519156607D+04 0.000000000000000D+00 0.000000000000000D+00 -.123936519156607D+04
 0.161265357647180D+03 0.620374440097369D+02 0.798174656823764D+02 -.127296225338523D+02
 0.128193828772411D+03 -.628633404007746D+02 -.734469010504056D+02 -.249037133919393D+02
 0.755243576039237D+02 -.332845168529281D+02 0.563897291751699D+02 0.376333359257917D+02
 0.105808036985603D+04 0.341104132439659D+02 -.627602938071408D+02 -.105566646925260D+04
0.507987667938D-06 0.000000000000D+00 0.000000000000D+00 0.151984494201D-06 0.000000000000D+00  6 2 21 25 24 1 21 2 0.62985403D-01 0.12035344D-01 0.29393290D+05 0.29393290D+05 0.29393290D+05 0.12158308D+01  1  2  2  2  6  2       21 0.425429141555D-02 0.100000000000D+01
-.389688781650D-07 0.268072457246D-07 -.102548074383D-08 0.151984494201D-06 0.000000000000D+00  6 2 21 25 24 1 21 4 0.62985403D-01 0.12035344D-01 0.29393290D+05 0.29393290D+05 0.29393290D+05 0.12158308D+01  1  2  3  2  6  2       21 -.482434352368D-03 0.100000000000D+01
0.544681709656D-07 0.000000000000D+00 0.000000000000D+00 0.151984494201D-06 0.000000000000D+00  6 2 21 25 24 1 21 4 0.62985403D-01 0.12035344D-01 0.29393290D+05 0.29393290D+05 0.29393290D+05 0.12158308D+01  1  2 15  2  6  2       21 0.674315454327D-03 0.100000000000D+01
-.311188453421D-03 0.000000000000D+00 -.692051967059D-05 0.151984494201D-06 0.000000000000D+00  6 2 21 25 24 1 21 4 0.62985403D-01 0.83873578D-01 0.29393290D+05 0.29393290D+05 0.29393290D+05 0.12158308D+01  1  2  5  2  6  2       21 -.824705849610D-01 0.100000000000D+01
-.131502314430D-03 0.000000000000D+00 -.296832454317D-05 0.151984494201D-06 0.000000000000D+00  6 2 -1 25 24 1 -1 4 0.62985403D-01 0.83873578D-01 0.29393290D+05 0.29393290D+05 0.29393290D+05 0.12158308D+01  1  2  5  5  6  2       21 -.387104935853D-02 0.100000000000D+01
-.131502314430D-03 0.000000000000D+00 -.296832454317D-05 0.151984494201D-06 0.000000000000D+00  6 2 1 25 24 1 1 4 0.62985403D-01 0.83873578D-01 0.29393290D+05 0.29393290D+05 0.29393290D+05 0.12158308D+01  1  2  5  6  6  2       21 -.124563207920D-01 0.100000000000D+01
-.131502314430D-03 0.000000000000D+00 -.296832454317D-05 0.151984494201D-06 0.000000000000D+00  6 2 -2 25 24 1 -2 4 0.62985403D-01 0.83873578D-01 0.29393290D+05 0.29393290D+05 0.29393290D+05 0.12158308D+01  1  2  5  7  6  2       21 -.293730148702D-02 0.100000000000D+01
-.131502314430D-03 0.000000000000D+00 -.296832454317D-05 0.151984494201D-06 0.000000000000D+00  6 2 2 25 24 1 2 4 0.62985403D-01 0.83873578D-01 0.29393290D+05 0.29393290D+05 0.29393290D+05 0.12158308D+01  1  2  5  8  6  2       21 -.197955917228D-01 0.100000000000D+01
-.131502314430D-03 0.000000000000D+00 -.296832454317D-05 0.151984494201D-06 0.000000000000D+00  6 2 -3 25 24 1 -3 4 0.62985403D-01 0.83873578D-01 0.29393290D+05 0.29393290D+05 0.29393290D+05 0.12158308D+01  1  2  5  9  6  2       21 -.185023071490D-02 0.100000000000D+01
-.131502314430D-03 0.000000000000D+00 -.296832454317D-05 0.151984494201D-06 0.000000000000D+00  6 2 -4 25 24 1 -4 4 0.62985403D-01 0.83873578D-01 0.29393290D+05 0.29393290D+05 0.29393290D+05 0.12158308D+01  1  2  5  9  6  2       21 -.149446193718D-02 0.100000000000D+01
-.131502314430D-03 0.000000000000D+00 -.296832454317D-05 0.151984494201D-06 0.000000000000D+00  6 2 3 25 24 1 3 4 0.62985403D-01 0.83873578D-01 0.29393290D+05 0.29393290D+05 0.29393290D+05 0.12158308D+01  1  2  5 10  6  2       21 -.185283424127D-02 0.100000000000D+01
-.131502314430D-03 0.000000000000D+00 -.296832454317D-05 0.151984494201D-06 0.000000000000D+00  6 2 4 25 24 1 4 4 0.62985403D-01 0.83873578D-01 0.29393290D+05 0.29393290D+05 0.29393290D+05 0.12158308D+01  1  2  5 10  6  2       21 -.149446193718D-02 0.100000000000D+01
  </mgrwgt>
  </event>
  <event>
  5     66 0.43779995E-03 0.90433645E+02 0.75467711E-02 0.11568328E+00
        2 -1    0    0  502    0 0.00000000E+00 0.00000000E+00 0.29919295E+03 0.29919312E+03 0.32000000E+00 0.0000E+00 0.9000E+01
       21 -1    0    0  501  502 0.00000000E+00 0.00000000E+00 -.10394361E+03 0.10394631E+03 0.75000000E+00 0.0000E+00 0.9000E+01
       25  1    1    2    0    0 -.97090701E+02 -.28555774E+02 0.63557906E+02 0.17293537E+03 0.12500000E+03 0.0000E+00 0.9000E+01
       24  1    1    2    0    0 -.59914545E+01 0.83082880E+00 0.42841823E+02 0.91319360E+02 0.80419002E+02 0.0000E+00 0.9000E+01
        1  1    1    2  501    0 0.10308216E+03 0.27724946E+02 0.88849616E+02 0.13888470E+03 0.32000000E+00 0.0000E+00 0.9000E+01
#aMCatNLO 1  0  0  2  1 0.33940766D+02 0.00000000D+00  -5  6  0 0.00000000D+00 0.00000000D+00 0.00000000D+00 0.00000000D+00 0.00000000D+00
  <mgrwgt>
 0.4071180032D-01   13    2    0
 0.176351281208536D+03 0.000000000000000D+00 0.000000000000000D+00 0.176351281208536D+03
 0.176351281208536D+03 0.000000000000000D+00 0.000000000000000D+00 -.176351281208536D+03
 0.162481037477784D+03 -.970909031417961D+02 -.285558289454351D+02 -.230869811843451D+02
 0.806617336374804D+02 -.599155504295350D+01 0.830801758471313D+00 -.158441018637357D+01
 0.109559791301808D+03 0.103082458184750D+03 0.277250271869638D+02 0.246713913707187D+02
 0.000000000000000D+00 0.000000000000000D+00 -.000000000000000D+00 0.000000000000000D+00
 0.194486766528629D+03 0.000000000000000D+00 0.000000000000000D+00 0.194486766528629D+03
 0.193792958806399D+03 0.000000000000000D+00 0.000000000000000D+00 -.193792958806399D+03
 0.171943295615670D+03 -.112892877370413D+03 -.257232666277097D+02 -.230869811843451D+02
 0.816159809808272D+02 -.136593830402686D+02 0.220528828336772D+01 -.158441018637357D+01
 0.100772592052111D+03 0.931439860931464D+02 0.295065350628252D+02 0.246713913707187D+02
 0.339478566864189D+02 0.334082743175357D+02 -.598855671848326D+01 0.693807722230016D+00
0.287022953646D-05 0.000000000000D+00 0.000000000000D+00 0.229224024518D-06 0.000000000000D+00  6 2 21 25 24 1 21 2 0.46029906D-01 0.15991545D-01 0.30315067D+05 0.30315067D+05 0.30315067D+05 0.12144225D+01  1  2  2  2  6  2       21 0.200943171263D-01 0.100000000000D+01
-.290387932628D-06 0.151466173937D-06 -.579416648433D-08 0.229224024518D-06 0.000000000000D+00  6 2 21 25 24 1 21 4 0.46029906D-01 0.15991545D-01 0.30315067D+05 0.30315067D+05 0.30315067D+05 0.12144225D+01  1  2  3  2  6  2       21 -.299829793735D-02 0.100000000000D+01
0.298681588267D-06 0.000000000000D+00 0.000000000000D+00 0.229224024518D-06 0.000000000000D+00  6 2 21 25 24 1 21 4 0.46029906D-01 0.15991545D-01 0.30315067D+05 0.30315067D+05 0.30315067D+05 0.12144225D+01  1  2 15  2  6  2       21 0.308393114660D-02 0.100000000000D+01
0.327305001737D-05 0.000000000000D+00 0.000000000000D+00 0.225944102372D-06 0.000000000000D+00  6 2 21 25 24 1 21 4 0.46029906D-01 0.18316519D-01 0.36793672D+05 0.36793672D+05 0.36793672D+05 0.12057027D+01  1  2 12  2  6  2       21 0.255749910315D-01 0.100000000000D+01
-.540236481809D-06 0.000000000000D+00 0.000000000000D+00 0.229224024518D-06 0.000000000000D+00  6 2 21 25 24 1 21 4 0.46029906D-01 0.15991545D-01 0.30315067D+05 0.30315067D+05 0.30315067D+05 0.12144225D+01  1  2  4  2  6  2       21 -.557802080283D-02 0.100000000000D+01
0.118652953307D-06 0.000000000000D+00 0.000000000000D+00 0.225944102372D-06 0.000000000000D+00  6 2 -1 25 24 1 -1 4 0.46029906D-01 0.18316519D-01 0.36793672D+05 0.36793672D+05 0.36793672D+05 0.12057027D+01  1  2 12  5  6  2       21 0.718043161251D-04 0.100000000000D+01
0.118652953307D-06 0.000000000000D+00 0.000000000000D+00 0.225944102372D-06 0.000000000000D+00  6 2 1 25 24 1 1 4 0.46029906D-01 0.18316519D-01 0.36793672D+05 0.36793672D+05 0.36793672D+05 0.12057027D+01  1  2 12  6  6  2       21 0.104908537390D-03 0.100000000000D+01
0.118652953307D-06 0.000000000000D+00 0.000000000000D+00 0.225944102372D-06 0.000000000000D+00  6 2 -2 25 24 1 -2 4 0.46029906D-01 0.18316519D-01 0.36793672D+05 0.36793672D+05 0.36793672D+05 0.12057027D+01  1  2 12  7  6  2       21 0.661861079242D-04 0.100000000000D+01
0.118652953307D-06 0.000000000000D+00 0.000000000000D+00 0.225944102372D-06 0.000000000000D+00  6 2 2 25 24 1 2 4 0.46029906D-01 0.18316519D-01 0.36793672D+05 0.36793672D+05 0.36793672D+05 0.12057027D+01  1  2 12  8  6  2       21 0.128113048132D-03 0.100000000000D+01
0.118652953307D-06 0.000000000000D+00 0.000000000000D+00 0.225944102372D-06 0.000000000000D+00  6 2 -3 25 24 1 -3 4 0.46029906D-01 0.18316519D-01 0.36793672D+05 0.36793672D+05 0.36793672D+05 0.12057027D+01  1  2 12  9  6  2       21 0.440368488356D-04 0.100000000000D+01
0.118652953307D-06 0.000000000000D+00 0.000000000000D+00 0.225944102372D-06 0.000000000000D+00  6 2 -4 25 24 1 -4 4 0.46029906D-01 0.18316519D-01 0.36793672D+05 0.36793672D+05 0.36793672D+05 0.12057027D+01  1  2 12  9  6  2       21 0.378991364055D-04 0.100000000000D+01
0.118652953307D-06 0.000000000000D+00 0.000000000000D+00 0.225944102372D-06 0.000000000000D+00  6 2 3 25 24 1 3 4 0.46029906D-01 0.18316519D-01 0.36793672D+05 0.36793672D+05 0.36793672D+05 0.12057027D+01  1  2 12 10  6  2       21 0.440326260519D-04 0.100000000000D+01
0.118652953307D-06 0.000000000000D+00 0.000000000000D+00 0.225944102372D-06 0.000000000000D+00  6 2 4 25 24 1 4 4 0.46029906D-01 0.18316519D-01 0.36793672D+05 0.36793672D+05 0.36793672D+05 0.12057027D+01  1  2 12 10  6  2       21 0.378991364055D-04 0.100000000000D+01
  </mgrwgt>
  </event>
  <event>
  6     66 0.43779995E-03 0.39299274E+02 0.75467711E-02 0.11562979E+00
        2 -1    0    0  502    0 0.00000000E+00 0.00000000E+00 0.22856324E+04 0.22856324E+04 0.32000000E+00 0.0000E+00 0.9000E+01
       21 -1    0    0  501  503 0.00000000E+00 0.00000000E+00 -.64048673E+02 0.64053064E+02 0.75000000E+00 0.0000E+00 0.9000E+01
       25  1    1    2    0    0 0.91548738E+02 0.27683858E+02 0.76654546E+03 0.78253722E+03 0.12500000E+03 0.0000E+00 0.9000E+01
       24  1    1    2    0    0 -.67776337E+02 -.43104077E+02 0.14071822E+04 0.14117651E+04 0.80419002E+02 0.0000E+00 0.9000E+01
        1  1    1    2  501    0 0.38269459E+02 0.31640635E+02 0.71482895E+02 0.87037854E+02 0.32000000E+00 0.0000E+00 0.9000E+01
       21  1    1    2  502  503 -.62041860E+02 -.16220416E+02 -.23626851E+02 0.68345335E+02 0.75000000E+00 0.0000E+00 0.9000E+01
#aMCatNLO 2  0  0  2  5 0.25920930D+02 0.00000000D+00  -5  6  0 0.00000000D+00 0.00000000D+00 0.00000000D+00 0.00000000D+00 0.00000000D+00
  <mgrwgt>
 0.3645250339D+00    1    2    0
 0.199643465037449D+03 0.000000000000000D+00 0.000000000000000D+00 0.199643465037449D+03
 0.199643465037449D+03 0.000000000000000D+00 0.000000000000000D+00 -.199643465037449D+03
 0.145380903151419D+03 0.680750235842624D+02 0.215467654181297D+02 -.203011099484856D+02
 0.165795918740296D+03 -.922759191030836D+02 -.495093828091658D+02 0.100274854695008D+03
 0.881101081831831D+02 0.242008955188213D+02 0.279626173910361D+02 -.799737447465220D+02
 0.000000000000000D+00 -.000000000000000D+00 -.000000000000000D+00 -.000000000000000D+00
 0.204199159747483D+03 0.000000000000000D+00 0.000000000000000D+00 0.204199159747483D+03
 0.716930087375442D+03 0.000000000000000D+00 0.000000000000000D+00 -.716930087375442D+03
 0.158696836559079D+03 0.915486687507945D+02 0.276837880116809D+02 -.203011099484856D+02
 0.151571325794572D+03 -.677763747011021D+02 -.431041459377727D+02 0.100274854695008D+03
 0.941355305128253D+02 0.382695657870594D+02 0.316407741785681D+02 -.799737447465220D+02
 0.516725554256449D+03 -.620418598367518D+02 -.162204162524763D+02 -.512730927627959D+03
0.303537592051D-03 0.000000000000D+00 0.000000000000D+00 0.865263934495D-06 0.357493968626D-07  6 2 21 25 24 1 21 4 0.35163563D+00 0.98539685D-02 0.37024868D+05 0.37024868D+05 0.37024868D+05 0.12054239D+01  1  2  1  2  6  2       21 0.364525033876D+00 0.100000000000D+01
  </mgrwgt>
  </event>
  <event>
  6     66 0.43779995E-03 0.85452327E+02 0.75467711E-02 0.11508916E+00
        2 -1    0    0  502    0 0.00000000E+00 0.00000000E+00 0.12698705E+04 0.12698706E+04 0.32000000E+00 0.0000E+00 0.9000E+01
       21 -1    0    0  501  502 0.00000000E+00 0.00000000E+00 -.57420294E+02 0.57425192E+02 0.75000000E+00 0.0000E+00 0.9000E+01
       25  1    1    2    0    0 0.44652232E+02 -.39543938E+02 0.20231199E+03 0.24517888E+03 0.12500000E+03 0.0000E+00 0.9000E+01
       24  1    1    2    0    0 -.13007924E+03 0.68937497E+02 0.96120706E+03 0.97573522E+03 0.80419002E+02 0.0000E+00 0.9000E+01
        1  1    1    2  503    0 0.11010998E+02 -.35320120E-01 -.24719230E+01 0.11289647E+02 0.32000000E+00 0.0000E+00 0.9000E+01
       21  1    1    2  501  503 0.74416015E+02 -.29358239E+02 0.51403123E+02 0.95092023E+02 0.75000000E+00 0.0000E+00 0.9000E+01
#aMCatNLO 2  0  0  5  2 0.11158819D+02 0.00000000D+00  -5  6  0 0.00000000D+00 0.00000000D+00 0.00000000D+00 0.00000000D+00 0.00000000D+00
  <mgrwgt>
 0.2595956497D-01    2    2    0
 0.270036324980958D+03 0.000000000000000D+00 0.000000000000000D+00 0.270036324980958D+03
 0.270036324980958D+03 -.000000000000000D+00 -.000000000000000D+00 -.270036324980958D+03
 0.148017976879823D+03 0.442532559380884D+02 -.394066593286249D+02 -.526600989272869D+02
 0.241162426795569D+03 -.130727086942733D+03 0.691604054994238D+02 0.172682851476862D+03
 0.150892246286523D+03 0.864738310046449D+02 -.297537461707990D+02 -.120022752549575D+03
 0.000000000000000D+00 0.000000000000000D+00 -.000000000000000D+00 0.000000000000000D+00
 0.270036324980958D+03 0.000000000000000D+00 0.000000000000000D+00 0.270036324980958D+03
 0.270036324980958D+03 -.000000000000000D+00 -.000000000000000D+00 -.270036324980958D+03
 0.148364962360827D+03 0.446442907616763D+02 -.395412058237877D+02 -.532028420360920D+02
 0.240124792577284D+03 -.130092097413968D+03 0.689419195477723D+02 0.171801507488777D+03
 0.328137893208719D+02 0.108523725278796D+02 -.348516875242453D-01 -.309672337393988D+02
 0.118769105702932D+03 0.745954341244121D+02 -.293658620364604D+02 -.876314317132866D+02
-.639372862263D-05 0.000000000000D+00 0.000000000000D+00 0.145649312258D-06 0.000000000000D+00  6 2 21 25 24 1 21 4 0.19536508D+00 0.88342712D-02 0.39457827D+05 0.39457827D+05 0.39457827D+05 0.12026026D+01  1  2 13  3  6  5        1 -.314670171403D-01 0.100000000000D+01
0.116684075924D-04 0.000000000000D+00 0.000000000000D+00 0.145603694251D-06 0.298033961262D-08  6 2 21 25 24 1 21 4 0.19536508D+00 0.88342712D-02 0.39457827D+05 0.39457827D+05 0.39457827D+05 0.12026026D+01  1  2  1  3  6  5        1 0.574265821059D-01 0.100000000000D+01
  </mgrwgt>
  </event>
  <event>
  6     66 -.43779995E-03 0.64836687E+02 0.75467711E-02 0.11224068E+00
        2 -1    0    0  502    0 0.00000000E+00 0.00000000E+00 0.19711668E+03 0.19711694E+03 0.32000000E+00 0.0000E+00 0.9000E+01
       21 -1    0    0  501  503 0.00000000E+00 0.00000000E+00 -.51194511E+03 0.51194566E+03 0.75000000E+00 0.0000E+00 0.9000E+01
       25  1    1    2    0    0 0.49757114E+02 0.66390759E+02 0.93782784E+02 0.17692856E+03 0.12500000E+03 0.0000E+00 0.9000E+01
       24  1    1    2    0    0 -.62599248E+02 -.17857678E+03 -.31272361E+03 0.37426141E+03 0.80419002E+02 0.0000E+00 0.9000E+01
        1  1    1    2  501    0 0.22301267E+02 0.79001829E+02 -.37958385E+02 0.90441013E+02 0.32000000E+00 0.0000E+00 0.9000E+01
       21  1    1    2  502  503 -.94591333E+01 0.33184196E+02 -.57929218E+02 0.67431616E+02 0.75000000E+00 0.0000E+00 0.9000E+01
#aMCatNLO 2  0  0  2  1 0.34506030D+02 0.00000000D+00  -5  6  0 0.00000000D+00 0.00000000D+00 0.00000000D+00 0.00000000D+00 0.00000000D+00
  <mgrwgt>
 -.2458145096D-01    2    2    0
 0.293471653130003D+03 0.000000000000000D+00 0.000000000000000D+00 0.293471653130003D+03
 0.293471653130003D+03 0.000000000000000D+00 0.000000000000000D+00 -.293471653130003D+03
 0.237413015184900D+03 0.459612418825708D+02 0.797068645778379D+02 0.179650549019388D+03
 0.263169501909453D+03 -.669062551296502D+02 -.163467576219847D+03 -.177743847517245D+03
 0.863607891656531D+02 0.209450132470794D+02 0.837607116420090D+02 -.190670150214289D+01
 0.000000000000000D+00 -.000000000000000D+00 0.000000000000000D+00 -.000000000000000D+00
 0.301236399370480D+03 0.000000000000000D+00 0.000000000000000D+00 0.301236399370480D+03
 0.334990351841785D+03 0.000000000000000D+00 0.000000000000000D+00 -.334990351841785D+03
 0.234057229652436D+03 0.497570541070114D+02 0.663905306214479D+02 0.179650549019388D+03
 0.271787652757050D+03 -.625993090827461D+02 -.178577051742225D+03 -.177743847517245D+03
 0.821118429157122D+02 0.223013882958563D+02 0.790023247536031D+02 -.190670150214289D+01
 0.482700258870671D+02 -.945913332012155D+01 0.331841963671739D+02 -.337539524713053D+02
-.741810116605D-04 0.000000000000D+00 0.000000000000D+00 0.276556272259D-07 0.000000000000D+00  6 2 21 25 24 1 21 4 0.29543741D-01 0.79586505D-01 0.55751330D+05 0.55751330D+05 0.55751330D+05 0.11876270D+01  1  2 13  2  6  2       21 -.444212976238D-01 0.100000000000D+01
0.332998282704D-04 0.000000000000D+00 0.000000000000D+00 0.279788252333D-07 0.580607427132D-09  6 2 21 25 24 1 21 4 0.30325417D-01 0.78760099D-01 0.55751330D+05 0.55751330D+05 0.55751330D+05 0.11876270D+01  1  2  1  2  6  2       21 0.198398466612D-01 0.100000000000D+01
  </mgrwgt>
  </event>
  <event>
  6     66 0.43779995E-03 0.15183445E+02 0.75467711E-02 0.12144885E+00
        2 -1    0    0  502    0 0.00000000E+00 0.00000000E+00 0.10137828E+04 0.10137829E+04 0.32000000E+00 0.0000E+00 0.9000E+01
       21 -1    0    0  501  503 0.00000000E+00 0.00000000E+00 -.12246073E+03 0.12246303E+03 0.75000000E+00 0.0000E+00 0.9000E+01
       25  1    1    2    0    0 -.34642123E+02 0.34520424E+02 0.80967481E+03 0.82072531E+03 0.12500000E+03 0.0000E+00 0.9000E+01
       24  1    1    2    0    0 0.29970329E+02 -.24648022E+02 0.17550186E+03 0.19691080E+03 0.80419002E+02 0.0000E+00 0.9000E+01
        1  1    1    2  501    0 -.19379048E+02 -.20729909E+02 -.90436225E+01 0.29785334E+02 0.32000000E+00 0.0000E+00 0.9000E+01
       21  1    1    2  502  503 0.24050842E+02 0.10857507E+02 -.84810943E+02 0.88824473E+02 0.75000000E+00 0.0000E+00 0.9000E+01
#aMCatNLO 2  0  0  2  1 0.23177175D+02 0.00000000D+00  -5  6  0 0.00000000D+00 0.00000000D+00 0.00000000D+00 0.00000000D+00 0.00000000D+00
  <mgrwgt>
 0.4338414051D+00    1    2    0
 0.189446320644365D+03 0.000000000000000D+00 0.000000000000000D+00 0.189446320644365D+03
 0.189446320644365D+03 0.000000000000000D+00 0.000000000000000D+00 -.189446320644365D+03
 0.181678501549690D+03 -.230993693560937D+02 0.397313094706955D+02 0.123571518192645D+03
 0.934001203273342D+02 0.358469226593694D+02 -.219950793918069D+02 -.220812395755148D+02
 0.103814019411705D+03 -.127475533032757D+02 -.177362300788887D+02 -.101490278617131D+03
 0.000000000000000D+00 0.000000000000000D+00 0.000000000000000D+00 -.000000000000000D+00
 0.190281570496348D+03 0.000000000000000D+00 0.000000000000000D+00 0.190281570496348D+03
 0.652451673178282D+03 0.000000000000000D+00 0.000000000000000D+00 -.652451673178282D+03
 0.182446314358296D+03 -.346421040548805D+02 0.345204597469635D+02 0.123571518192645D+03
 0.919812079997143D+02 0.299703457343610D+02 -.246480000423515D+02 -.220812395755148D+02
 0.105382906748095D+03 -.193790832429282D+02 -.207299665595158D+02 -.101490278617131D+03
 0.462922814568524D+03 0.240508415634478D+02 0.108575068549038D+02 -.462170102681934D+03
0.216332659539D-03 0.000000000000D+00 0.000000000000D+00 0.425357311911D-05 0.861350339770D-06  6 2 21 25 24 1 21 4 0.15596652D+00 0.18840263D-01 0.19360410D+05 0.19360410D+05 0.19360410D+05 0.12353831D+01  1  2  1  2  6  2       21 0.433841405119D+00 0.100000000000D+01
  </mgrwgt>
  </event>
  <event>
  5     66 -.43779995E-03 0.38098786E+02 0.75467711E-02 0.10918940E+00
        2 -1    0    0  502    0 0.00000000E+00 0.00000000E+00 0.10939920E+04 0.10939921E+04 0.32000000E+00 0.0000E+00 0.9000E+01
       21 -1    0    0  501  502 0.00000000E+00 0.00000000E+00 -.84188289E+02 0.84191630E+02 0.75000000E+00 0.0000E+00 0.9000E+01
       25  1    1    2    0    0 0.11816951E+02 0.26183617E+03 0.69428782E+03 0.75256787E+03 0.12500000E+03 0.0000E+00 0.9000E+01
       24  1    1    2    0    0 0.11631408E+02 -.23180907E+03 0.28851987E+03 0.37892172E+03 0.80419002E+02 0.0000E+00 0.9000E+01
        1  1    1    2  501    0 -.23448358E+02 -.30027092E+02 0.26996049E+02 0.46694120E+02 0.32000000E+00 0.0000E+00 0.9000E+01
#aMCatNLO 1  0  0  5  2 0.17459097D+02 0.00000000D+00  -5  6  0 0.00000000D+00 0.00000000D+00 0.00000000D+00 0.00000000D+00 0.00000000D+00
  <mgrwgt>
 -.7475474478D-01    5    2    0
 0.303485275778016D+03 0.000000000000000D+00 0.000000000000000D+00 0.303485275778016D+03
 0.303485275778016D+03 -.000000000000000D+00 -.000000000000000D+00 -.303485275778016D+03
 0.305729857247358D+03 0.118172397763409D+02 0.261836536740419D+03 0.956437477535350D+02
 0.255516089105593D+03 0.116316493877834D+02 -.231808764396578D+03 -.703609076042834D+02
 0.457246052030803D+02 -.234488891641243D+02 -.300277723438413D+02 -.252828401492516D+02
 0.000000000000000D+00 0.000000000000000D+00 0.000000000000000D+00 0.000000000000000D+00
 0.303485275778016D+03 0.000000000000000D+00 0.000000000000000D+00 0.303485275778016D+03
 0.303485275778016D+03 -.000000000000000D+00 -.000000000000000D+00 -.303485275778016D+03
 0.298554605274879D+03 0.690004471831075D+01 0.255539760260334D+03 0.903419760676903D+02
 0.261522604548870D+03 0.742439226481129D+01 -.237196420852130D+03 -.748972167045732D+02
 0.286837157934819D+02 0.688576270513412D+00 -.142319514745156D+02 -.248944365605644D+02
 0.182096259388014D+02 -.150130132536355D+02 -.411138793368846D+01 0.944967719744725D+01
0.971115133211D-04 0.000000000000D+00 0.000000000000D+00 0.196507276256D-06 0.000000000000D+00  6 2 21 25 24 1 21 2 0.16830673D+00 0.12952305D-01 0.82403620D+05 0.82403620D+05 0.82403620D+05 0.11713729D+01  1  2  2  3  6  5        1 0.195750845938D+00 0.100000000000D+01
0.100109640408D-04 0.512471535156D-05 -.196040166328D-06 0.196507276256D-06 0.000000000000D+00  6 2 21 25 24 1 21 4 0.16830673D+00 0.12952305D-01 0.82403620D+05 0.82403620D+05 0.82403620D+05 0.11713729D+01  1  2  3  3  6  5        1 0.276884842406D-01 0.100000000000D+01
0.916754516203D-05 0.000000000000D+00 0.000000000000D+00 0.196507276256D-06 0.000000000000D+00  6 2 21 25 24 1 21 4 0.16830673D+00 0.12952305D-01 0.82403620D+05 0.82403620D+05 0.82403620D+05 0.11713729D+01  1  2 15  3  6  5        1 0.253557428344D-01 0.100000000000D+01
0.293204145983D-04 0.000000000000D+00 0.000000000000D+00 0.196948790348D-06 0.000000000000D+00  6 2 21 25 24 1 21 4 0.16830673D+00 0.12952305D-01 0.79789464D+05 0.79789464D+05 0.79789464D+05 0.11726881D+01  1  2 12  3  6  5        1 0.815352362634D-01 0.100000000000D+01
-.146461318518D-03 0.000000000000D+00 0.000000000000D+00 0.196507276256D-06 0.000000000000D+00  6 2 21 25 24 1 21 4 0.16830673D+00 0.12952305D-01 0.82403620D+05 0.82403620D+05 0.82403620D+05 0.11713729D+01  1  2  4  3  6  5        1 -.405085054056D+00 0.100000000000D+01
  </mgrwgt>
  </event>
  <event>
  5     66 0.43779995E-03 0.10321435E+03 0.75467711E-02 0.11419415E+00
        2 -1    0    0  502    0 0.00000000E+00 0.00000000E+00 0.77489278E+03 0.77489285E+03 0.32000000E+00 0.0000E+00 0.9000E+01
       21 -1    0    0  501  502 0.00000000E+00 0.00000000E+00 -.63975532E+02 0.63979928E+02 0.75000000E+00 0.0000E+00 0.9000E+01
       25  1    1    2    0    0 -.61392343E+02 0.21938601E+01 0.37764855E+03 0.40251368E+03 0.12500000E+03 0.0000E+00 0.9000E+01
       24  1    1    2    0    0 0.14715836E+03 0.55228485E+02 0.23417247E+03 0.29327415E+03 0.80419002E+02 0.0000E+00 0.9000E+01
        1  1    1    2  501    0 -.85766019E+02 -.57422345E+02 0.99096230E+02 0.14308494E+03 0.32000000E+00 0.0000E+00 0.9000E+01
#aMCatNLO 1  0  0  5  2 0.17459097D+02 0.00000000D+00  -5  6  0 0.00000000D+00 0.00000000D+00 0.00000000D+00 0.00000000D+00 0.00000000D+00
  <mgrwgt>
 0.1264557984D-02    1    2    0
 0.222656797307106D+03 0.000000000000000D+00 0.000000000000000D+00 0.222656797307106D+03
 0.222656797307106D+03 -.000000000000000D+00 -.000000000000000D+00 -.222656797307106D+03
 0.155353190129961D+03 -.613922191226867D+02 0.219394284227548D+01 0.688171179980141D+02
 0.178621354496860D+03 0.147158503530280D+03 0.552285797758773D+02 -.270656820085949D+02
 0.111339049987392D+03 -.857662844075931D+02 -.574225226181528D+02 -.417514359894192D+02
 0.000000000000000D+00 0.000000000000000D+00 0.000000000000000D+00 -.000000000000000D+00
 0.222656797307106D+03 0.000000000000000D+00 0.000000000000000D+00 0.222656797307106D+03
 0.222656797307106D+03 -.000000000000000D+00 -.000000000000000D+00 -.222656797307106D+03
 0.155571042030910D+03 -.626254770591426D+02 0.136824796416222D+01 0.682167621571609D+02
 0.177274593066843D+03 0.145746868615770D+03 0.542834573613189D+02 -.277528726124631D+02
 0.737493410591050D+02 -.651605892408487D+02 -.285611961656156D+02 -.194247519939588D+02
 0.387186184573539D+02 -.179608023157788D+02 -.270905091598654D+02 -.210391375507389D+02
0.157891696867D-06 0.000000000000D+00 0.000000000000D+00 0.114915774806D-06 0.000000000000D+00  6 2 21 25 24 1 21 4 0.11921462D+00 0.98427328D-02 0.43901326D+05 0.43901326D+05 0.43901326D+05 0.11979174D+01  1  2 14  3  6  5        1 0.126455798419D-02 0.100000000000D+01
  </mgrwgt>
  </event>
  <event>
  6     66 -.43779995E-03 0.28981565E+02 0.75467711E-02 0.11910574E+00
        2 -1    0    0  503    0 0.00000000E+00 0.00000000E+00 0.25914100E+04 0.25914101E+04 0.32000000E+00 0.0000E+00 0.9000E+01
       21 -1    0    0  501  502 0.00000000E+00 0.00000000E+00 -.11584722E+02 0.11608974E+02 0.75000000E+00 0.0000E+00 0.9000E+01
       25  1    1    2    0    0 -.60469316E+02 -.62313061E+02 0.81772138E+03 0.83176482E+03 0.12500000E+03 0.0000E+00 0.9000E+01
       24  1    1    2    0    0 0.80272564E+02 0.41758271E+02 0.90568809E+03 0.91374262E+03 0.80419002E+02 0.0000E+00 0.9000E+01
        1  1    1    2  501    0 -.16676368E+02 0.29077218E+02 0.60181608E+03 0.60274894E+03 0.32000000E+00 0.0000E+00 0.9000E+01
       21  1    1    2  503  502 -.31268804E+01 -.85224285E+01 0.25459976E+03 0.25476265E+03 0.75000000E+00 0.0000E+00 0.9000E+01
#aMCatNLO 2  0  0  1  2 0.90779496D+01 0.00000000D+00  -5  6  0 0.00000000D+00 0.00000000D+00 0.00000000D+00 0.00000000D+00 0.00000000D+00
  <mgrwgt>
 -.5574186390D-01    2    2    0
 0.163975396458128D+03 0.000000000000000D+00 0.000000000000000D+00 0.163975396458128D+03
 0.163975396458128D+03 0.000000000000000D+00 0.000000000000000D+00 -.163975396458128D+03
 0.160178224251848D+03 -.619853196902833D+02 -.664457829071418D+02 -.421288689763391D+02
 0.119426307832793D+03 0.791256377251024D+02 0.386316858727965D+02 0.649256108357598D+01
 0.483462608316148D+02 -.171403180348191D+02 0.278140970343453D+02 0.356363078927631D+02
 0.000000000000000D+00 -.000000000000000D+00 -.000000000000000D+00 0.000000000000000D+00
 0.181908629063855D+03 0.000000000000000D+00 0.000000000000000D+00 0.181908629063855D+03
 0.165191076673811D+03 0.000000000000000D+00 0.000000000000000D+00 -.165191076673811D+03
 0.157921852941347D+03 -.604691312125665D+02 -.623133549538156D+02 -.421288689763391D+02
 0.121230402693063D+03 0.802727010480796D+02 0.417580495207015D+02 0.649256108357598D+01
 0.489241558042568D+02 -.166766894616124D+02 0.290777339132941D+02 0.356363078927631D+02
 0.190232942989997D+02 -.312688037390069D+01 -.852242848017993D+01 0.167175523900447D+02
-.139061660046D-04 0.000000000000D+00 0.000000000000D+00 0.192168817861D-06 0.000000000000D+00  6 2 21 25 24 1 21 4 0.39990652D+00 0.17709234D-02 0.24940889D+05 0.24940889D+05 0.24940889D+05 0.12234079D+01  1  2 13  1  6  1        2 -.218371845523D+00 0.100000000000D+01
0.103750469474D-04 0.000000000000D+00 0.000000000000D+00 0.193056528120D-06 0.232085013016D-07  6 2 21 25 24 1 21 4 0.39866261D+00 0.17840526D-02 0.24940889D+05 0.24940889D+05 0.24940889D+05 0.12234079D+01  1  2  1  1  6  1        2 0.162629981624D+00 0.100000000000D+01
  </mgrwgt>
  </event>
  <event>
  5     66 0.43779995E-03 0.19006126E+03 0.75467711E-02 0.11280037E+00
        2 -1    0    0  502    0 0.00000000E+00 0.00000000E+00 0.81670054E+03 0.81670060E+03 0.32000000E+00 0.0000E+00 0.9000E+01
       21 -1    0    0  501  502 0.00000000E+00 0.00000000E+00 -.80710671E+02 0.80714156E+02 0.75000000E+00 0.0000E+00 0.9000E+01
       25  1    1    2    0    0 -.75702262E+02 -.28009872E+01 0.33218087E+03 0.36291570E+03 0.12500000E+03 0.0000E+00 0.9000E+01
       24  1    1    2    0    0 -.96709575E+02 0.82784660E+02 0.24133348E+03 0.28445580E+03 0.80419002E+02 0.0000E+00 0.9000E+01
        1  1    1    2  501    0 0.17241184E+03 -.79983673E+02 0.16247553E+03 0.25004325E+03 0.32000000E+00 0.0000E+00 0.9000E+01
#aMCatNLO 1  0  0  5  1 0.29501829D+02 0.00000000D+00  -5  6  0 0.00000000D+00 0.00000000D+00 0.00000000D+00 0.00000000D+00 0.00000000D+00
  <mgrwgt>
 0.2472584803D-01    4    2    0
 0.256745088655626D+03 0.000000000000000D+00 0.000000000000000D+00 0.256745088655626D+03
 0.256745088655626D+03 -.000000000000000D+00 -.000000000000000D+00 -.256745088655626D+03
 0.158141633088709D+03 -.757023268435120D+02 -.280095693396648D+01 0.603745680456266D+02
 0.151231468320693D+03 -.967096376744321D+02 0.827846894033914D+02 0.140599515406809D+02
 0.204117075901850D+03 0.172411964517944D+03 -.799837324694249D+02 -.744345195863076D+02
 0.000000000000000D+00 0.000000000000000D+00 0.000000000000000D+00 0.000000000000000D+00
 0.256745088655626D+03 0.000000000000000D+00 0.000000000000000D+00 0.256745088655626D+03
 0.256745088655626D+03 -.000000000000000D+00 -.000000000000000D+00 -.256745088655626D+03
 0.143867282885477D+03 -.494350983652505D+02 -.149866018292769D+02 0.490343542843033D+02
 0.129650528848112D+03 -.722799231699303D+02 0.714514866602074D+02 0.351303811818477D+01
 0.188544374196388D+03 0.148561433690902D+03 -.663181186135352D+02 -.952910730570947D+02
 0.514279913812749D+02 -.268464121557208D+02 0.985323378260466D+01 0.427436806546066D+02
0.102711080740D-04 0.000000000000D+00 0.000000000000D+00 0.233640527282D-06 0.000000000000D+00  6 2 21 25 24 1 21 2 0.12564651D+00 0.12417299D-01 0.59243793D+05 0.59243793D+05 0.59243793D+05 0.11850537D+01  1  2  2  3  6  5        1 0.344978066209D-01 0.100000000000D+01
-.802936178219D-06 0.542021264259D-06 -.207344079640D-07 0.233640527282D-06 0.000000000000D+00  6 2 21 25 24 1 21 4 0.12564651D+00 0.12417299D-01 0.59243793D+05 0.59243793D+05 0.59243793D+05 0.11850537D+01  1  2  3  3  6  5        1 -.378731360670D-02 0.100000000000D+01
0.105360198398D-05 0.000000000000D+00 0.000000000000D+00 0.233640527282D-06 0.000000000000D+00  6 2 21 25 24 1 21 4 0.12564651D+00 0.12417299D-01 0.59243793D+05 0.59243793D+05 0.59243793D+05 0.11850537D+01  1  2 15  3  6  5        1 0.496966164713D-02 0.100000000000D+01
-.232238732129D-05 0.000000000000D+00 0.000000000000D+00 0.233640527282D-06 0.000000000000D+00  6 2 21 25 24 1 21 4 0.12564651D+00 0.12417299D-01 0.59243793D+05 0.59243793D+05 0.59243793D+05 0.11850537D+01  1  2  4  3  6  5        1 -.109543066318D-01 0.100000000000D+01
  </mgrwgt>
  </event>
  <event>
  6     66 0.43779995E-03 0.17898538E+02 0.75467711E-02 0.12135274E+00
        2 -1    0    0  502    0 0.00000000E+00 0.00000000E+00 0.23720329E+04 0.23720329E+04 0.32000000E+00 0.0000E+00 0.9000E+01
       21 -1    0    0  501  502 0.00000000E+00 0.00000000E+00 -.88714629E+01 0.89031093E+01 0.75000000E+00 0.0000E+00 0.9000E+01
       25  1    1    2    0    0 -.26679983E+02 -.65227956E+02 0.14973875E+04 0.15042476E+04 0.12500000E+03 0.0000E+00 0.9000E+01
       24  1    1    2    0    0 0.40670508E+02 0.57049563E+02 0.72162204E+03 0.72946167E+03 0.80419002E+02 0.0000E+00 0.9000E+01
        1  1    1    2  503    0 0.72112060E+01 0.41296395E+01 0.42428890E+02 0.43236195E+02 0.32000000E+00 0.0000E+00 0.9000E+01
       21  1    1    2  501  503 -.21201731E+02 0.40487537E+01 0.10172298E+03 0.10399054E+03 0.75000000E+00 0.0000E+00 0.9000E+01
#aMCatNLO 2  0  0  5  1 0.84510870D+01 0.00000000D+00  -5  6  0 0.00000000D+00 0.00000000D+00 0.00000000D+00 0.00000000D+00 0.00000000D+00
  <mgrwgt>
 0.2740098375D+00    1    2    0
 0.145193323457693D+03 0.000000000000000D+00 0.000000000000000D+00 0.145193323457693D+03
 0.145193323457693D+03 -.000000000000000D+00 -.000000000000000D+00 -.145193323457693D+03
 0.149277700522197D+03 -.231376635429314D+02 -.672986777918698D+02 0.399295425272416D+02
 0.108164462174951D+03 0.432524931744737D+02 0.555402209850095D+02 -.166385278902425D+02
 0.329444842182372D+02 -.201148296315422D+02 0.117584568068603D+02 -.232910146369991D+02
 0.000000000000000D+00 0.000000000000000D+00 0.000000000000000D+00 0.000000000000000D+00
 0.145193323457693D+03 0.000000000000000D+00 0.000000000000000D+00 0.145193323457693D+03
 0.145193323457693D+03 -.000000000000000D+00 -.000000000000000D+00 -.145193323457693D+03
 0.147992492291702D+03 -.264300052841111D+02 -.653740848986554D+02 0.361173312836736D+02
 0.108423568807820D+03 0.408537265564868D+02 0.569424597403956D+02 -.194160661261452D+02
 0.846272801370360D+01 0.682051519061364D+01 0.367040014004780D+01 -.340976550226981D+01
 0.255078578021595D+02 -.212442364629893D+02 0.476122501821199D+01 -.132914996552586D+02
0.835837996889D-05 0.000000000000D+00 0.000000000000D+00 0.126713277040D-05 0.616739716999D-07  6 2 21 25 24 1 21 4 0.36493057D+00 0.13672764D-02 0.19558752D+05 0.19558752D+05 0.19558752D+05 0.12348941D+01  1  2  1  3  6  5        1 0.274009837465D+00 0.100000000000D+01
  </mgrwgt>
  </event>
  <event>
  5     66 0.43779995E-03 0.24895964E+02 0.75467711E-02 0.12288752E+00
        2 -1    0    0  502    0 0.00000000E+00 0.00000000E+00 0.39457467E+03 0.39457480E+03 0.32000000E+00 0.0000E+00 0.9000E+01
       21 -1    0    0  501  502 0.00000000E+00 0.00000000E+00 -.38521427E+02 0.38528727E+02 0.75000000E+00 0.0000E+00 0.9000E+01
       25  1    1    2    0    0 0.78336235E+00 0.15494160E+02 0.24981715E+03 0.27977543E+03 0.12500000E+03 0.0000E+00 0.9000E+01
       24  1    1    2    0    0 -.97576405E+01 0.77270130E+01 0.97373940E+02 0.12690082E+03 0.80419002E+02 0.0000E+00 0.9000E+01
        1  1    1    2  501    0 0.89742782E+01 -.23221173E+02 0.88621471E+01 0.26427270E+02 0.32000000E+00 0.0000E+00 0.9000E+01
#aMCatNLO 1  0  0  2  1 0.24226248D+02 0.00000000D+00  -5  6  0 0.00000000D+00 0.00000000D+00 0.00000000D+00 0.00000000D+00 0.00000000D+00
  <mgrwgt>
 0.1458344215D+00   23    2    0
 0.123293098145598D+03 0.000000000000000D+00 0.000000000000000D+00 0.123293098145598D+03
 0.123293098145598D+03 0.000000000000000D+00 0.000000000000000D+00 -.123293098145598D+03
 0.130678727595828D+03 0.783146912705118D+00 0.154947173319152D+02 0.348027335389302D+02
 0.822871914739273D+02 -.975777617668511D+01 0.772736407391125D+01 -.122081765571756D+02
 0.336202772214399D+02 0.897462926397999D+01 -.232220814058264D+02 -.225945569817546D+02
 0.000000000000000D+00 -.000000000000000D+00 0.000000000000000D+00 -.000000000000000D+00
 0.130412804048356D+03 0.000000000000000D+00 0.000000000000000D+00 0.130412804048356D+03
 0.146369934957403D+03 0.000000000000000D+00 0.000000000000000D+00 -.146369934957403D+03
 0.131186983975998D+03 0.135078271120131D+02 0.138323211952663D+02 0.348027335389302D+02
 0.816344344773762D+02 -.179243296523227D+01 0.668674414677770D+01 -.122081765571756D+02
 0.349519927042983D+02 0.123067195942037D+02 -.236573971862757D+02 -.225945569817546D+02
 0.290093278480868D+02 -.240221137409845D+02 0.313833184423170D+01 -.159571309090472D+02
0.919896774731D-06 0.000000000000D+00 0.000000000000D+00 0.162961302710D-05 0.000000000000D+00  6 2 21 25 24 1 21 2 0.60704366D-01 0.59269449D-02 0.13482882D+05 0.13482882D+05 0.13482882D+05 0.12531366D+01  1  2  2  2  6  2       21 0.287941477310D-01 0.100000000000D+01
0.435610259178D-07 0.485442864815D-07 -.185700655417D-08 0.162961302710D-05 0.000000000000D+00  6 2 21 25 24 1 21 4 0.60704366D-01 0.59269449D-02 0.13482882D+05 0.13482882D+05 0.13482882D+05 0.12531366D+01  1  2  3  2  6  2       21 0.214121381920D-02 0.100000000000D+01
0.913968528966D-07 0.000000000000D+00 0.000000000000D+00 0.162961302710D-05 0.000000000000D+00  6 2 21 25 24 1 21 4 0.60704366D-01 0.59269449D-02 0.13482882D+05 0.13482882D+05 0.13482882D+05 0.12531366D+01  1  2 15  2  6  2       21 0.449255269659D-02 0.100000000000D+01
0.169483854756D-05 0.000000000000D+00 0.000000000000D+00 0.160252687058D-05 0.000000000000D+00  6 2 21 25 24 1 21 4 0.60704366D-01 0.71840957D-02 0.16653385D+05 0.16653385D+05 0.16653385D+05 0.12426786D+01  1  2 12  2  6  2       21 0.583416487827D-01 0.100000000000D+01
-.621161802292D-06 0.000000000000D+00 0.000000000000D+00 0.162961302710D-05 0.000000000000D+00  6 2 21 25 24 1 21 4 0.60704366D-01 0.59269449D-02 0.13482882D+05 0.13482882D+05 0.13482882D+05 0.12531366D+01  1  2  4  2  6  2       21 -.305328032801D-01 0.100000000000D+01
-.665259455176D-05 0.000000000000D+00 -.157696391016D-05 0.162961302710D-05 0.000000000000D+00  6 2 21 25 24 1 21 4 0.60704366D-01 0.74336255D-02 0.13482882D+05 0.13482882D+05 0.13482882D+05 0.12531366D+01  1  2  5  2  6  2       21 -.222447113587D+00 0.100000000000D+01
0.629511661395D-05 0.000000000000D+00 0.142620926057D-05 0.162961302710D-05 0.000000000000D+00  6 2 21 25 24 1 21 4 0.60704366D-01 0.59269449D-02 0.13482882D+05 0.13482882D+05 0.13482882D+05 0.12531366D+01  1  2  6  2  6  2       21 0.309432351586D+00 0.100000000000D+01
0.927806547072D-07 0.000000000000D+00 0.000000000000D+00 0.160252687058D-05 0.000000000000D+00  6 2 -1 25 24 1 -1 4 0.60704366D-01 0.71840957D-02 0.16653385D+05 0.16653385D+05 0.16653385D+05 0.12426786D+01  1  2 12  5  6  2       21 0.196582026034D-03 0.100000000000D+01
-.398164669429D-06 0.000000000000D+00 -.105199907544D-06 0.162961302710D-05 0.000000000000D+00  6 2 -1 25 24 1 -1 4 0.60704366D-01 0.74336255D-02 0.13482882D+05 0.13482882D+05 0.13482882D+05 0.12531366D+01  1  2  5  5  6  2       21 -.822844830654D-03 0.100000000000D+01
0.927806547072D-07 0.000000000000D+00 0.000000000000D+00 0.160252687058D-05 0.000000000000D+00  6 2 1 25 24 1 1 4 0.60704366D-01 0.71840957D-02 0.16653385D+05 0.16653385D+05 0.16653385D+05 0.12426786D+01  1  2 12  6  6  2       21 0.232496099557D-03 0.100000000000D+01
-.398164669429D-06 0.000000000000D+00 -.105199907544D-06 0.162961302710D-05 0.000000000000D+00  6 2 1 25 24 1 1 4 0.60704366D-01 0.74336255D-02 0.13482882D+05 0.13482882D+05 0.13482882D+05 0.12531366D+01  1  2  5  6  6  2       21 -.978709774071D-03 0.100000000000D+01
0.927806547072D-07 0.000000000000D+00 0.000000000000D+00 0.160252687058D-05 0.000000000000D+00  6 2 -2 25 24 1 -2 4 0.60704366D-01 0.71840957D-02 0.16653385D+05 0.16653385D+05 0.16653385D+05 0.12426786D+01  1  2 12  7  6  2       21 0.190303077245D-03 0.100000000000D+01
-.398164669429D-06 0.000000000000D+00 -.105199907544D-06 0.162961302710D-05 0.000000000000D+00  6 2 -2 25 24 1 -2 4 0.60704366D-01 0.74336255D-02 0.13482882D+05 0.13482882D+05 0.13482882D+05 0.12531366D+01  1  2  5  7  6  2       21 -.795592843589D-03 0.100000000000D+01
0.927806547072D-07 0.000000000000D+00 0.000000000000D+00 0.160252687058D-05 0.000000000000D+00  6 2 2 25 24 1 2 4 0.60704366D-01 0.71840957D-02 0.16653385D+05 0.16653385D+05 0.16653385D+05 0.12426786D+01  1  2 12  8  6  2       21 0.256584605562D-03 0.100000000000D+01
-.398164669429D-06 0.000000000000D+00 -.105199907544D-06 0.162961302710D-05 0.000000000000D+00  6 2 2 25 24 1 2 4 0.60704366D-01 0.74336255D-02 0.13482882D+05 0.13482882D+05 0.13482882D+05 0.12531366D+01  1  2  5  8  6  2       21 -.108315926242D-02 0.100000000000D+01
0.927806547072D-07 0.000000000000D+00 0.000000000000D+00 0.160252687058D-05 0.000000000000D+00  6 2 -3 25 24 1 -3 4 0.60704366D-01 0.71840957D-02 0.16653385D+05 0.16653385D+05 0.16653385D+05 0.12426786D+01  1  2 12  9  6  2       21 0.133984650271D-03 0.100000000000D+01
0.927806547072D-07 0.000000000000D+00 0.000000000000D+00 0.160252687058D-05 0.000000000000D+00  6 2 -4 25 24 1 -4 4 0.60704366D-01 0.71840957D-02 0.16653385D+05 0.16653385D+05 0.16653385D+05 0.12426786D+01  1  2 12  9  6  2       21 0.118005038009D-03 0.100000000000D+01
-.398164669429D-06 0.000000000000D+00 -.105199907544D-06 0.162961302710D-05 0.000000000000D+00  6 2 -3 25 24 1 -3 4 0.60704366D-01 0.74336255D-02 0.13482882D+05 0.13482882D+05 0.13482882D+05 0.12531366D+01  1  2  5  9  6  2       21 -.555772482372D-03 0.100000000000D+01
-.398164669429D-06 0.000000000000D+00 -.105199907544D-06 0.162961302710D-05 0.000000000000D+00  6 2 -4 25 24 1 -4 4 0.60704366D-01 0.74336255D-02 0.13482882D+05 0.13482882D+05 0.13482882D+05 0.12531366D+01  1  2  5  9  6  2       21 -.487860766795D-03 0.100000000000D+01
0.927806547072D-07 0.000000000000D+00 0.000000000000D+00 0.160252687058D-05 0.000000000000D+00  6 2 3 25 24 1 3 4 0.60704366D-01 0.71840957D-02 0.16653385D+05 0.16653385D+05 0.16653385D+05 0.12426786D+01  1  2 12 10  6  2       21 0.133968883849D-03 0.100000000000D+01
0.927806547072D-07 0.000000000000D+00 0.000000000000D+00 0.160252687058D-05 0.000000000000D+00  6 2 4 25 24 1 4 4 0.60704366D-01 0.71840957D-02 0.16653385D+05 0.16653385D+05 0.16653385D+05 0.12426786D+01  1  2 12 10  6  2       21 0.118005038009D-03 0.100000000000D+01
-.398164669429D-06 0.000000000000D+00 -.105199907544D-06 0.162961302710D-05 0.000000000000D+00  6 2 3 25 24 1 3 4 0.60704366D-01 0.74336255D-02 0.13482882D+05 0.13482882D+05 0.13482882D+05 0.12531366D+01  1  2  5 10  6  2       21 -.555704971656D-03 0.100000000000D+01
-.398164669429D-06 0.000000000000D+00 -.105199907544D-06 0.162961302710D-05 0.000000000000D+00  6 2 4 25 24 1 4 4 0.60704366D-01 0.74336255D-02 0.13482882D+05 0.13482882D+05 0.13482882D+05 0.12531366D+01  1  2  5 10  6  2       21 -.487860766795D-03 0.100000000000D+01
  </mgrwgt>
  </event>
  <event>
  6     66 -.43779995E-03 0.64672496E+02 0.75467711E-02 0.11952861E+00
        2 -1    0    0  503    0 0.00000000E+00 0.00000000E+00 0.90641241E+03 0.90641247E+03 0.32000000E+00 0.0000E+00 0.9000E+01
       21 -1    0    0  501  502 0.00000000E+00 0.00000000E+00 -.42865920E+02 0.42872480E+02 0.75000000E+00 0.0000E+00 0.9000E+01
       25  1    1    2    0    0 0.43854504E+02 -.41575413E+02 0.52829601E+03 0.54623567E+03 0.12500000E+03 0.0000E+00 0.9000E+01
       24  1    1    2    0    0 0.10655547E+02 0.18655999E+02 0.27371596E+03 0.28609304E+03 0.80419002E+02 0.0000E+00 0.9000E+01
        1  1    1    2  501    0 -.68908098E+02 0.20717376E+02 0.22665718E+02 0.75441188E+02 0.32000000E+00 0.0000E+00 0.9000E+01
       21  1    1    2  503  502 0.14398047E+02 0.22020379E+01 0.38868807E+02 0.41515050E+02 0.75000000E+00 0.0000E+00 0.9000E+01
#aMCatNLO 2  0  0  1  2 0.14565464D+02 0.00000000D+00  -5  6  0 0.00000000D+00 0.00000000D+00 0.00000000D+00 0.00000000D+00 0.00000000D+00
  <mgrwgt>
 -.4422817435D-01    3    2    0
 0.189565787871606D+03 0.000000000000000D+00 0.000000000000000D+00 0.189565787871606D+03
 0.189565787871606D+03 0.000000000000000D+00 0.000000000000000D+00 -.189565787871606D+03
 0.160161481082017D+03 0.499054457116756D+02 -.406500224037022D+02 0.767054247708904D+02
 0.901368395548659D+02 0.140664101247028D+02 0.191776332670728D+02 0.330422211578825D+02
 0.128833255106329D+03 -.639718558363785D+02 0.214723891366294D+02 -.109747645928773D+03
 0.000000000000000D+00 0.000000000000000D+00 0.000000000000000D+00 0.000000000000000D+00
 0.198498225427036D+03 0.000000000000000D+00 0.000000000000000D+00 0.198498225427036D+03
 0.195737772128125D+03 0.000000000000000D+00 0.000000000000000D+00 -.195737772128125D+03
 0.158620503196915D+03 0.438545837004568D+02 -.415754414723334D+02 0.767054247708904D+02
 0.895577560889769D+02 0.106555925251384D+02 0.186559826922609D+02 0.330422211578825D+02
 0.131233001033596D+03 -.689082233454660D+02 0.207174209000028D+02 -.109747645928773D+03
 0.148247372356730D+02 0.143980471198708D+02 0.220203788006966D+01 0.276045329891085D+01
-.591232337827D-05 0.000000000000D+00 0.000000000000D+00 0.118073310851D-05 0.000000000000D+00  6 2 21 25 24 1 21 4 0.14152340D+00 0.63869971D-02 0.23808618D+05 0.23808618D+05 0.23808618D+05 0.12255777D+01  1  2 13  1  6  1        2 -.885836803179D-01 0.100000000000D+01
-.432590777113D-06 0.000000000000D+00 0.000000000000D+00 0.119083673406D-05 0.000000000000D+00  6 2 21 25 24 1 21 4 0.13316696D+00 0.63869971D-02 0.21307262D+05 0.21307262D+05 0.21307262D+05 0.12308102D+01  1  2  8  1  6  1        2 -.713796233301D-02 0.100000000000D+01
0.356000948180D-05 0.000000000000D+00 0.000000000000D+00 0.119083673406D-05 0.468714813872D-07  6 2 21 25 24 1 21 4 0.13944186D+00 0.65949483D-02 0.23808618D+05 0.23808618D+05 0.23808618D+05 0.12255777D+01  1  2  1  1  6  1        2 0.514934682986D-01 0.100000000000D+01
  </mgrwgt>
  </event>
  <event>
  5     66 -.43779995E-03 0.21457895E+02 0.75467711E-02 0.10868811E+00
        2 -1    0    0  502    0 0.00000000E+00 0.00000000E+00 0.23239837E+03 0.23239859E+03 0.32000000E+00 0.0000E+00 0.9000E+01
       21 -1    0    0  501  502 -.00000000E+00 -.00000000E+00 -.73353204E+03 0.73353242E+03 0.75000000E+00 0.0000E+00 0.9000E+01
       25  1    1    2    0    0 -.17584617E+03 0.21057034E+03 0.61023799E+02 0.30758844E+03 0.12500000E+03 0.0000E+00 0.9000E+01
       24  1    1    2    0    0 0.16531375E+03 -.19187523E+03 -.32315757E+03 0.41838113E+03 0.80419002E+02 0.0000E+00 0.9000E+01
        1  1    1    2  501    0 0.10532423E+02 -.18695111E+02 -.23899990E+03 0.23996144E+03 0.32000000E+00 0.0000E+00 0.9000E+01
#aMCatNLO 1  0  0  5  2 0.47360647D+01 0.00000000D+00  -5  6  0 0.00000000D+00 0.00000000D+00 0.00000000D+00 0.00000000D+00 0.00000000D+00
  <mgrwgt>
 -.2909774523D-01    7    2    0
 0.412882476767689D+03 0.000000000000000D+00 0.000000000000000D+00 0.412882476767689D+03
 0.412882476767689D+03 -.000000000000000D+00 -.000000000000000D+00 -.412882476767689D+03
 0.396832539130217D+03 -.175846185760532D+03 0.210570361672859D+03 0.258049037686578D+03
 0.293282131338631D+03 0.165313738038090D+03 -.191875207524052D+03 -.124106669287493D+03
 0.135650283066530D+03 0.105324477224423D+02 -.186951541488069D+02 -.133942368399085D+03
 0.000000000000000D+00 0.000000000000000D+00 0.000000000000000D+00 -.000000000000000D+00
 0.412882476767689D+03 0.000000000000000D+00 0.000000000000000D+00 0.412882476767689D+03
 0.412882476767689D+03 -.000000000000000D+00 -.000000000000000D+00 -.412882476767689D+03
 0.395709081923394D+03 -.175729691431992D+03 0.210363583582247D+03 0.256567565698213D+03
 0.293896933498123D+03 0.165400046478018D+03 -.192028405492018D+03 -.125204263803164D+03
 0.130946116370967D+03 0.623703163821884D+01 -.206869210134386D+02 -.129151214194704D+03
 0.521282174289400D+01 0.409261331575571D+01 0.235174292321009D+01 -.221208770034524D+01
0.316383545537D-03 0.000000000000D+00 0.000000000000D+00 0.112909977099D-05 0.000000000000D+00  6 2 21 25 24 1 21 2 0.35753641D-01 0.11285113D+00 0.86630526D+05 0.86630526D+05 0.86630526D+05 0.11693411D+01  1  2  2  3  6  5        1 0.453436365324D-01 0.100000000000D+01
0.108690917246D-03 0.166960183952D-04 -.638687224298D-06 0.112909977099D-05 0.000000000000D+00  6 2 21 25 24 1 21 4 0.35753641D-01 0.11285113D+00 0.86630526D+05 0.86630526D+05 0.86630526D+05 0.11693411D+01  1  2  3  3  6  5        1 0.212999297848D-01 0.100000000000D+01
0.299873928041D-04 0.000000000000D+00 0.000000000000D+00 0.112909977099D-05 0.000000000000D+00  6 2 21 25 24 1 21 4 0.35753641D-01 0.11285113D+00 0.86630526D+05 0.86630526D+05 0.86630526D+05 0.11693411D+01  1  2 15  3  6  5        1 0.587656611374D-02 0.100000000000D+01
-.212200793034D-02 0.000000000000D+00 0.000000000000D+00 0.112909977099D-05 0.000000000000D+00  6 2 21 25 24 1 21 4 0.35753641D-01 0.11285113D+00 0.86630526D+05 0.86630526D+05 0.86630526D+05 0.11693411D+01  1  2  4  3  6  5        1 -.415845418039D+00 0.100000000000D+01
-.236691543512D-02 0.000000000000D+00 0.000000000000D+00 0.112909977099D-05 0.000000000000D+00  6 2 21 25 24 1 21 4 0.35753641D-01 0.11285113D+00 0.86630526D+05 0.86630526D+05 0.86630526D+05 0.11693411D+01  1  2  5  3  6  5        1 -.463839425154D+00 0.100000000000D+01
0.249931047446D-02 0.000000000000D+00 -.000000000000D+00 0.112909977099D-05 0.000000000000D+00  6 2 21 25 24 1 21 4 0.35753641D-01 0.11285113D+00 0.86630526D+05 0.86630526D+05 0.86630526D+05 0.11693411D+01  1  2  6  3  6  5        1 0.489784601745D+00 0.100000000000D+01
0.147562947529D-02 0.000000000000D+00 0.000000000000D+00 0.112909977099D-05 0.361537724571D-06  6 2 21 25 24 1 21 4 0.35753641D-01 0.11285113D+00 0.88055290D+05 0.88055290D+05 0.88055290D+05 0.11686809D+01  1  2 11  3  6  5        1 0.288282363790D+00 0.100000000000D+01
  </mgrwgt>
  </event>
  <event>
  5     66 0.43779995E-03 0.71524010E+02 0.75467711E-02 0.10510738E+00
        2 -1    0    0  502    0 0.00000000E+00 0.00000000E+00 0.14629537E+04 0.14629537E+04 0.32000000E+00 0.0000E+00 0.9000E+01
       21 -1    0    0  501  502 0.00000000E+00 0.00000000E+00 -.28338109E+03 0.28338208E+03 0.75000000E+00 0.0000E+00 0.9000E+01
       25  1    1    2    0    0 0.22424955E+03 -.11147024E+03 0.58550362E+03 0.64896299E+03 0.12500000E+03 0.0000E+00 0.9000E+01
       24  1    1    2    0    0 -.23166462E+03 0.40331645E+02 0.82186187E+03 0.85861475E+03 0.80419002E+02 0.0000E+00 0.9000E+01
        1  1    1    2  501    0 0.74150763E+01 0.71138594E+02 -.22779292E+03 0.23875804E+03 0.32000000E+00 0.0000E+00 0.9000E+01
#aMCatNLO 1  0  0  5  2 0.49378078D+01 0.00000000D+00  -5  6  0 0.00000000D+00 0.00000000D+00 0.00000000D+00 0.00000000D+00 0.00000000D+00
  <mgrwgt>
 0.6181841182D-01    6    2    0
 0.643874445503890D+03 0.000000000000000D+00 0.000000000000000D+00 0.643874445503890D+03
 0.643874445503890D+03 -.000000000000000D+00 -.000000000000000D+00 -.643874445503890D+03
 0.343749702835170D+03 0.224249545671078D+03 -.111470242334768D+03 0.199562983890829D+03
 0.411558476729485D+03 -.231664622792898D+03 0.403316405236167D+02 0.328051863479574D+03
 0.532440711443126D+03 0.741507712182053D+01 0.711386018111507D+02 -.527614847370403D+03
 0.000000000000000D+00 0.000000000000000D+00 0.000000000000000D+00 -.000000000000000D+00
 0.643874445503890D+03 0.000000000000000D+00 0.000000000000000D+00 0.643874445503890D+03
 0.643874445503890D+03 -.000000000000000D+00 -.000000000000000D+00 -.643874445503890D+03
 0.335671487186333D+03 0.224438037550049D+03 -.109661893142650D+03 0.186150970459295D+03
 0.399014580263502D+03 -.231439745440235D+03 0.424890638632088D+02 0.312050866031606D+03
 0.285302316925516D+03 -.668093631965808D+01 0.148563358519364D+03 -.243478347370782D+03
 0.267760506632430D+03 0.136826442098441D+02 -.813905292399231D+02 -.254723489120120D+03
0.548655597516D-03 0.000000000000D+00 0.000000000000D+00 0.179358826677D-05 0.000000000000D+00  6 2 21 25 24 1 21 2 0.22506987D+00 0.43597170D-01 0.89980336D+05 0.89980336D+05 0.89980336D+05 0.11678074D+01  1  2  2  3  6  5        1 0.655849274297D-01 0.100000000000D+01
0.132715251623D-03 0.289533513293D-04 -.110757757670D-05 0.179358826677D-05 0.000000000000D+00  6 2 21 25 24 1 21 4 0.22506987D+00 0.43597170D-01 0.89980336D+05 0.89980336D+05 0.89980336D+05 0.11678074D+01  1  2  3  3  6  5        1 0.216355287529D-01 0.100000000000D+01
0.491764231039D-04 0.000000000000D+00 0.000000000000D+00 0.179358826677D-05 0.000000000000D+00  6 2 21 25 24 1 21 4 0.22506987D+00 0.43597170D-01 0.89980336D+05 0.89980336D+05 0.89980336D+05 0.11678074D+01  1  2 15  3  6  5        1 0.801684737073D-02 0.100000000000D+01
-.422181376363D-03 0.000000000000D+00 0.000000000000D+00 0.179358826677D-05 0.000000000000D+00  6 2 21 25 24 1 21 4 0.22506987D+00 0.43597170D-01 0.89980336D+05 0.89980336D+05 0.89980336D+05 0.11678074D+01  1  2  4  3  6  5        1 -.688249255118D-01 0.100000000000D+01
-.359756911652D-03 0.000000000000D+00 0.000000000000D+00 0.179358826677D-05 0.000000000000D+00  6 2 21 25 24 1 21 4 0.22506987D+00 0.43597170D-01 0.89980336D+05 0.89980336D+05 0.89980336D+05 0.11678074D+01  1  2  5  3  6  5        1 -.586483536059D-01 0.100000000000D+01
0.576942298519D-03 0.000000000000D+00 -.000000000000D+00 0.179358826677D-05 0.000000000000D+00  6 2 21 25 24 1 21 4 0.22506987D+00 0.43597170D-01 0.89980336D+05 0.89980336D+05 0.89980336D+05 0.11678074D+01  1  2  6  3  6  5        1 0.940543873874D-01 0.100000000000D+01
  </mgrwgt>
  </event>
  <event>
  6     66 0.43779995E-03 0.59705452E+02 0.75467711E-02 0.11214598E+00
        2 -1    0    0  502    0 0.00000000E+00 0.00000000E+00 0.10261979E+04 0.10261980E+04 0.32000000E+00 0.0000E+00 0.9000E+01
       21 -1    0    0  501  502 0.00000000E+00 0.00000000E+00 -.99018161E+03 0.99018190E+03 0.75000000E+00 0.0000E+00 0.9000E+01
       25  1    1    2    0    0 -.74555948E+02 0.99763191E+02 0.81093365E+03 0.82990944E+03 0.12500000E+03 0.0000E+00 0.9000E+01
       24  1    1    2    0    0 0.98412952E+02 -.17009702E+03 0.14821449E+03 0.25894566E+03 0.80419002E+02 0.0000E+00 0.9000E+01
        1  1    1    2  503    0 -.36526646E+02 0.57998103E+02 -.82227457E+03 0.82512638E+03 0.32000000E+00 0.0000E+00 0.9000E+01
       21  1    1    2  501  503 0.12669642E+02 0.12335721E+02 -.10085724E+03 0.10239841E+03 0.75000000E+00 0.0000E+00 0.9000E+01
#aMCatNLO 2  0  0  5  1 0.15979700D+02 0.00000000D+00  -5  6  0 0.00000000D+00 0.00000000D+00 0.00000000D+00 0.00000000D+00 0.00000000D+00
  <mgrwgt>
 0.9202585243D+00    1    2    0
 0.100802910442155D+04 0.000000000000000D+00 0.000000000000000D+00 0.100802910442155D+04
 0.100802910442155D+04 -.000000000000000D+00 -.000000000000000D+00 -.100802910442155D+04
 0.816094119833831D+03 -.745417585372275D+02 0.997213575264891D+02 0.796795952245371D+03
 0.256448066754222D+03 0.984174116621114D+02 -.170110163436900D+03 0.143787831073458D+03
 0.943516022255052D+03 -.238756531248834D+02 0.703888059104091D+02 -.940583783318829D+03
 0.000000000000000D+00 0.000000000000000D+00 0.000000000000000D+00 -.000000000000000D+00
 0.100802910442155D+04 0.000000000000000D+00 0.000000000000000D+00 0.100802910442155D+04
 0.100802910442155D+04 -.000000000000000D+00 -.000000000000000D+00 -.100802910442155D+04
 0.815554727802108D+03 -.745559489838051D+02 0.997631929721924D+02 0.796236918159092D+03
 0.256339163291070D+03 0.984129519526560D+02 -.170097015581985D+03 0.143612140365853D+03
 0.840024854700277D+03 -.365392198001244D+02 0.580006082994392D+02 -.837223131170845D+03
 0.104139463049651D+03 0.126822168312739D+02 0.123332143103523D+02 -.102625927354100D+03
0.521973423517D-01 0.000000000000D+00 0.000000000000D+00 0.474738369073D-05 0.136825767374D-06  6 2 21 25 24 1 21 4 0.15787663D+00 0.15233566D+00 0.56413069D+05 0.56413069D+05 0.56413069D+05 0.11871259D+01  1  2  1  3  6  5        1 0.920258524289D+00 0.100000000000D+01
  </mgrwgt>
  </event>
  <event>
  5     66 -.43779995E-03 0.20151025E+02 0.75467711E-02 0.11697265E+00
        2 -1    0    0  502    0 0.00000000E+00 0.00000000E+00 0.68911203E+03 0.68911211E+03 0.32000000E+00 0.0000E+00 0.9000E+01
       21 -1    0    0  501  502 0.00000000E+00 0.00000000E+00 -.16942187E+03 0.16942353E+03 0.75000000E+00 0.0000E+00 0.9000E+01
       25  1    1    2    0    0 0.20925575E+02 0.68866893E+02 0.25459321E+03 0.29261448E+03 0.12500000E+03 0.0000E+00 0.9000E+01
       24  1    1    2    0    0 -.41071410E+02 -.69323903E+02 0.40698601E+03 0.42260797E+03 0.80419002E+02 0.0000E+00 0.9000E+01
        1  1    1    2  501    0 0.20145835E+02 0.45701020E+00 -.14188906E+03 0.14331319E+03 0.32000000E+00 0.0000E+00 0.9000E+01
#aMCatNLO 1  0  0  2  1 0.23645752D+03 0.00000000D+00  -5  6  0 0.00000000D+00 0.00000000D+00 0.00000000D+00 0.00000000D+00 0.00000000D+00
  <mgrwgt>
 -.1325598172D+01   12    2    0
 0.341689031023707D+03 0.000000000000000D+00 0.000000000000000D+00 0.341689031023707D+03
 0.341689031023707D+03 0.000000000000000D+00 0.000000000000000D+00 -.341689031023707D+03
 0.174003809307365D+03 0.209255720206863D+02 0.688668925641374D+02 0.973231585884910D+02
 0.221425615178730D+03 -.410714141028557D+02 -.693239029286385D+02 0.189919515925144D+03
 0.287948637561318D+03 0.201458420821694D+02 0.457010364501088D+00 -.287242674513635D+03
 0.000000000000000D+00 0.000000000000000D+00 -.000000000000000D+00 -.000000000000000D+00
 0.346245550724682D+03 0.000000000000000D+00 0.000000000000000D+00 0.346245550724682D+03
 0.760020806558686D+03 0.000000000000000D+00 0.000000000000000D+00 -.760020806558686D+03
 0.180605590093070D+03 0.146033034057792D+02 0.854887449016791D+02 0.973231585884910D+02
 0.217495080437163D+03 -.488968539897212D+02 -.487500687247122D+02 0.189919515925144D+03
 0.288723463910541D+03 0.986445660735566D+01 0.274877617604082D+02 -.287242674513635D+03
 0.419442222842594D+03 0.244290939765863D+02 -.642264379373751D+02 -.413775255834005D+03
0.529948231957D-04 0.000000000000D+00 0.000000000000D+00 0.339460264134D-04 0.000000000000D+00  6 2 21 25 24 1 21 2 0.10601737D+00 0.26065036D-01 0.19353500D+05 0.19353500D+05 0.19353500D+05 0.12354002D+01  1  2  2  2  6  2       21 0.620089498197D-01 0.100000000000D+01
0.227332806490D-04 0.279661365266D-05 -.106981279547D-06 0.339460264134D-04 0.000000000000D+00  6 2 21 25 24 1 21 4 0.10601737D+00 0.26065036D-01 0.19353500D+05 0.19353500D+05 0.19353500D+05 0.12354002D+01  1  2  3  2  6  2       21 0.405974146445D-01 0.100000000000D+01
0.548895767374D-05 0.000000000000D+00 0.000000000000D+00 0.339460264134D-04 0.000000000000D+00  6 2 21 25 24 1 21 4 0.10601737D+00 0.26065036D-01 0.19353500D+05 0.19353500D+05 0.19353500D+05 0.12354002D+01  1  2 15  2  6  2       21 0.980225837564D-02 0.100000000000D+01
-.309011082247D-02 0.000000000000D+00 -.836091083619D-04 0.339460264134D-04 0.000000000000D+00  6 2 21 25 24 1 21 4 0.10601737D+00 0.58271737D-01 0.19353500D+05 0.19353500D+05 0.19353500D+05 0.12354002D+01  1  2  5  2  6  2       21 -.110354374799D+01 0.100000000000D+01
-.939267360729D-03 0.000000000000D+00 -.236573054435D-04 0.339460264134D-04 0.000000000000D+00  6 2 -1 25 24 1 -1 4 0.10601737D+00 0.58271737D-01 0.19353500D+05 0.19353500D+05 0.19353500D+05 0.12354002D+01  1  2  5  5  6  2       21 -.341422015318D-01 0.100000000000D+01
-.939267360729D-03 0.000000000000D+00 -.236573054435D-04 0.339460264134D-04 0.000000000000D+00  6 2 1 25 24 1 1 4 0.10601737D+00 0.58271737D-01 0.19353500D+05 0.19353500D+05 0.19353500D+05 0.12354002D+01  1  2  5  6  6  2       21 -.853608750908D-01 0.100000000000D+01
-.939267360729D-03 0.000000000000D+00 -.236573054435D-04 0.339460264134D-04 0.000000000000D+00  6 2 -2 25 24 1 -2 4 0.10601737D+00 0.58271737D-01 0.19353500D+05 0.19353500D+05 0.19353500D+05 0.12354002D+01  1  2  5  7  6  2       21 -.272852872723D-01 0.100000000000D+01
-.939267360729D-03 0.000000000000D+00 -.236573054435D-04 0.339460264134D-04 0.000000000000D+00  6 2 2 25 24 1 2 4 0.10601737D+00 0.58271737D-01 0.19353500D+05 0.19353500D+05 0.19353500D+05 0.12354002D+01  1  2  5  8  6  2       21 -.125882291244D+00 0.100000000000D+01
-.939267360729D-03 0.000000000000D+00 -.236573054435D-04 0.339460264134D-04 0.000000000000D+00  6 2 -3 25 24 1 -3 4 0.10601737D+00 0.58271737D-01 0.19353500D+05 0.19353500D+05 0.19353500D+05 0.12354002D+01  1  2  5  9  6  2       21 -.170104030644D-01 0.100000000000D+01
-.939267360729D-03 0.000000000000D+00 -.236573054435D-04 0.339460264134D-04 0.000000000000D+00  6 2 -4 25 24 1 -4 4 0.10601737D+00 0.58271737D-01 0.19353500D+05 0.19353500D+05 0.19353500D+05 0.12354002D+01  1  2  5  9  6  2       21 -.138804862209D-01 0.100000000000D+01
-.939267360729D-03 0.000000000000D+00 -.236573054435D-04 0.339460264134D-04 0.000000000000D+00  6 2 3 25 24 1 3 4 0.10601737D+00 0.58271737D-01 0.19353500D+05 0.19353500D+05 0.19353500D+05 0.12354002D+01  1  2  5 10  6  2       21 -.170210165756D-01 0.100000000000D+01
-.939267360729D-03 0.000000000000D+00 -.236573054435D-04 0.339460264134D-04 0.000000000000D+00  6 2 4 25 24 1 4 4 0.10601737D+00 0.58271737D-01 0.19353500D+05 0.19353500D+05 0.19353500D+05 0.12354002D+01  1  2  5 10  6  2       21 -.138804862209D-01 0.100000000000D+01
  </mgrwgt>
  </event>
  <event>
  6     66 0.43779995E-03 0.92694543E+02 0.75467711E-02 0.11189404E+00
        2 -1    0    0  502    0 0.00000000E+00 0.00000000E+00 0.30734403E+04 0.30734403E+04 0.32000000E+00 0.0000E+00 0.9000E+01
       21 -1    0    0  501  502 0.00000000E+00 0.00000000E+00 -.34956359E+02 0.34964404E+02 0.75000000E+00 0.0000E+00 0.9000E+01
       25  1    1    2    0    0 0.29955058E+01 -.72087293E+02 0.10823664E+04 0.10919467E+04 0.12500000E+03 0.0000E+00 0.9000E+01
       24  1    1    2    0    0 -.57625551E+02 0.76443123E+02 0.81762475E+03 0.82712859E+03 0.80419002E+02 0.0000E+00 0.9000E+01
        1  1    1    2  503    0 -.72058345E+02 0.35835028E+02 0.97640001E+03 0.97971100E+03 0.32000000E+00 0.0000E+00 0.9000E+01
       21  1    1    2  501  503 0.12668839E+03 -.40190858E+02 0.16209270E+03 0.20961837E+03 0.75000000E+00 0.0000E+00 0.9000E+01
#aMCatNLO 2  0  0  5  2 0.41547874D+02 0.00000000D+00  -5  6  0 0.00000000D+00 0.00000000D+00 0.00000000D+00 0.00000000D+00 0.00000000D+00
  <mgrwgt>
 0.2658656017D-01    1    2    0
 0.327793853550894D+03 0.000000000000000D+00 0.000000000000000D+00 0.327793853550894D+03
 0.327793853550894D+03 -.000000000000000D+00 -.000000000000000D+00 -.327793853550894D+03
 0.204879080301307D+03 -.315943414716497D+02 -.693293329825910D+02 0.143337638882017D+03
 0.176210573864798D+03 -.867994276134312D+02 0.787692501418587D+02 0.104135560619133D+03
 0.274498052935683D+03 0.118393769085081D+03 -.943991715926772D+01 -.247473199501149D+03
 0.000000000000000D+00 0.000000000000000D+00 0.000000000000000D+00 0.000000000000000D+00
 0.327793853550894D+03 0.000000000000000D+00 0.000000000000000D+00 0.327793853550894D+03
 0.327793853550894D+03 -.000000000000000D+00 -.000000000000000D+00 -.327793853550894D+03
 0.160905023707879D+03 0.294632367170973D+01 -.720833716461038D+02 0.711388316138551D+02
 0.132311218500890D+03 -.576659912428210D+02 0.764463472726569D+02 0.432392417772437D+02
 0.119681623453137D+03 -.719432434221302D+02 0.357465869060555D+02 0.887132585516413D+02
 0.242689841439883D+03 0.126662910993241D+03 -.401095625326086D+02 -.203091331942740D+03
0.233725101804D-04 0.000000000000D+00 0.000000000000D+00 0.932939750914D-06 0.103672792713D-08  6 2 21 25 24 1 21 4 0.47283758D+00 0.53785215D-02 0.58217946D+05 0.58217946D+05 0.58217946D+05 0.11857917D+01  1  2  1  3  6  5        1 0.265865601657D-01 0.100000000000D+01
  </mgrwgt>
  </event>
  <event>
  5     66 0.43779995E-03 0.43255684E+02 0.75467711E-02 0.12091006E+00
        2 -1    0    0  502    0 0.00000000E+00 0.00000000E+00 0.11796542E+04 0.11796543E+04 0.32000000E+00 0.0000E+00 0.9000E+01
       21 -1    0    0  501  502 0.00000000E+00 0.00000000E+00 -.16799695E+02 0.16816428E+02 0.75000000E+00 0.0000E+00 0.9000E+01
       25  1    1    2    0    0 -.21324599E+02 -.81205305E+01 0.71477090E+03 0.72597736E+03 0.12500000E+03 0.0000E+00 0.9000E+01
       24  1    1    2    0    0 0.57738205E+02 -.15225163E+02 0.30686535E+03 0.32279879E+03 0.80419002E+02 0.0000E+00 0.9000E+01
        1  1    1    2  501    0 -.36413607E+02 0.23345694E+02 0.14121827E+03 0.14769453E+03 0.32000000E+00 0.0000E+00 0.9000E+01
#aMCatNLO 1  0  0  1  2 0.15461754D+02 0.00000000D+00  -5  6  0 0.00000000D+00 0.00000000D+00 0.00000000D+00 0.00000000D+00 0.00000000D+00
  <mgrwgt>
 0.5669666460D-01    9    2    0
 0.140811458406304D+03 0.000000000000000D+00 0.000000000000000D+00 0.140811458406304D+03
 0.140811458406304D+03 0.000000000000000D+00 0.000000000000000D+00 -.140811458406304D+03
 0.132929692111396D+03 -.213241515398701D+02 -.812081706266753D+01 0.390465867416079D+02
 0.104322469693059D+03 0.577385560778430D+02 -.152253882478864D+02 -.291617630337310D+02
 0.443707550081525D+02 -.364144045379730D+02 0.233462053105539D+02 -.988482370787685D+01
 0.000000000000000D+00 -.000000000000000D+00 -.000000000000000D+00 0.000000000000000D+00
 0.188001927320062D+03 0.000000000000000D+00 0.000000000000000D+00 0.188001927320062D+03
 0.142295731577554D+03 0.000000000000000D+00 0.000000000000000D+00 -.142295731577554D+03
 0.132226447385327D+03 -.182156496724397D+02 -.154517280126619D+01 0.390465867416079D+02
 0.105078648375129D+03 0.601934257549791D+02 -.100324205761983D+02 -.291617630337310D+02
 0.447419448390481D+02 -.353697106666089D+02 0.255561236419960D+02 -.988482370787685D+01
 0.482506182981117D+02 -.660806541593037D+01 -.139785302645315D+02 0.457061957425078D+02
0.517350675526D-06 0.000000000000D+00 0.000000000000D+00 0.447084487653D-06 0.000000000000D+00  6 2 21 25 24 1 21 2 0.18148655D+00 0.25858589D-02 0.18290533D+05 0.18290533D+05 0.18290533D+05 0.12381210D+01  1  2  2  1  6  1        2 0.167227245397D-01 0.100000000000D+01
-.120603703433D-07 0.273013452096D-07 -.104438195855D-08 0.447084487653D-06 0.000000000000D+00  6 2 21 25 24 1 21 4 0.18148655D+00 0.25858589D-02 0.18290533D+05 0.18290533D+05 0.18290533D+05 0.12381210D+01  1  2  3  1  6  1        2 -.597597587551D-03 0.100000000000D+01
0.539967281736D-07 0.000000000000D+00 0.000000000000D+00 0.447084487653D-06 0.000000000000D+00  6 2 21 25 24 1 21 4 0.18148655D+00 0.25858589D-02 0.18290533D+05 0.18290533D+05 0.18290533D+05 0.12381210D+01  1  2 15  1  6  1        2 0.267556580551D-02 0.100000000000D+01
0.113547578742D-04 0.000000000000D+00 0.000000000000D+00 0.443134674866D-06 0.000000000000D+00  6 2 21 25 24 1 21 4 0.24303390D+00 0.25858589D-02 0.20503215D+05 0.20503215D+05 0.20503215D+05 0.12326397D+01  1  2 12  1  6  1        2 0.338467085511D+00 0.100000000000D+01
-.106346900464D-04 0.000000000000D+00 0.000000000000D+00 0.447084487653D-06 0.000000000000D+00  6 2 21 25 24 1 21 4 0.18148655D+00 0.25858589D-02 0.18290533D+05 0.18290533D+05 0.18290533D+05 0.12381210D+01  1  2  4  1  6  1        2 -.526954391550D+00 0.100000000000D+01
-.124820999515D-04 0.000000000000D+00 -.774813473331D-06 0.447084487653D-06 0.000000000000D+00  6 2 21 25 24 1 21 4 0.24318685D+00 0.25858589D-02 0.18290533D+05 0.18290533D+05 0.18290533D+05 0.12381210D+01  1  2  5  1  6  1        2 -.378304486885D+00 0.100000000000D+01
0.122141115943D-04 0.000000000000D+00 0.742778859593D-06 0.447084487653D-06 0.000000000000D+00  6 2 21 25 24 1 21 4 0.18148655D+00 0.25858589D-02 0.18290533D+05 0.18290533D+05 0.18290533D+05 0.12381210D+01  1  2  6  1  6  1        2 0.605215546048D+00 0.100000000000D+01
0.430444749709D-06 0.000000000000D+00 0.000000000000D+00 0.443134674866D-06 0.000000000000D+00  6 21 21 25 24 1 -2 4 0.24303390D+00 0.25858589D-02 0.20503215D+05 0.20503215D+05 0.20503215D+05 0.12326397D+01  1  2 12  4  6  1        2 0.610643487865D-02 0.100000000000D+01
-.457204786251D-06 0.000000000000D+00 -.294180142231D-07 0.447084487653D-06 0.000000000000D+00  6 21 21 25 24 1 -2 4 0.24318685D+00 0.25858589D-02 0.18290533D+05 0.18290533D+05 0.18290533D+05 0.12381210D+01  1  2  5  4  6  1        2 -.663421616429D-02 0.100000000000D+01
  </mgrwgt>
  </event>
  <event>
  5     66 0.43779995E-03 0.10884144E+03 0.75467711E-02 0.10743441E+00
        2 -1    0    0  502    0 0.00000000E+00 0.00000000E+00 0.11401989E+04 0.11401989E+04 0.32000000E+00 0.0000E+00 0.9000E+01
       21 -1    0    0  501  502 0.00000000E+00 0.00000000E+00 -.52603704E+02 0.52609050E+02 0.75000000E+00 0.0000E+00 0.9000E+01
       25  1    1    2    0    0 0.41964427E+02 -.95303853E+02 0.59465651E+03 0.61651050E+03 0.12500000E+03 0.0000E+00 0.9000E+01
       24  1    1    2    0    0 0.64110553E+02 0.70920834E+02 0.43583295E+03 0.45338450E+03 0.80419002E+02 0.0000E+00 0.9000E+01
        1  1    1    2  501    0 -.10607498E+03 0.24383019E+02 0.57105714E+02 0.12291297E+03 0.32000000E+00 0.0000E+00 0.9000E+01
#aMCatNLO 1  0  0  2  2 0.20784421D+03 0.00000000D+00  -5  6  0 0.00000000D+00 0.00000000D+00 0.00000000D+00 0.00000000D+00 0.00000000D+00
  <mgrwgt>
 0.7394956753D-01    3    2    0
 0.244912023453545D+03 0.000000000000000D+00 0.000000000000000D+00 0.244912023453545D+03
 0.244912023453545D+03 0.000000000000000D+00 0.000000000000000D+00 -.244912023453545D+03
 0.180948904254914D+03 0.419644942106128D+02 -.953038686446380D+02 0.792064378574561D+02
 0.136356828076855D+03 0.641106040402889D+02 0.709208222642195D+02 0.546446340253702D+02
 0.172518314575322D+03 -.106075098250902D+03 0.243830463804185D+02 -.133851071882826D+03
 0.000000000000000D+00 -.000000000000000D+00 -.000000000000000D+00 0.000000000000000D+00
 0.380160993579606D+03 0.000000000000000D+00 0.000000000000000D+00 0.380160993579606D+03
 0.356893504049891D+03 0.000000000000000D+00 0.000000000000000D+00 -.356893504049891D+03
 0.169169785777403D+03 0.749225612179792D+02 -.332620871630673D+02 0.792064378574561D+02
 0.186562770373024D+03 0.945083122081123D+02 0.128142866483838D+03 0.546446340253702D+02
 0.175188533031169D+03 -.733440675787684D+02 0.859974442203526D+02 -.133851071882826D+03
 0.206133408447901D+03 -.960868058473231D+02 -.180878223541123D+03 0.232674895297154D+02
0.140565817599D-04 0.000000000000D+00 0.000000000000D+00 0.424044142688D-06 0.000000000000D+00  6 2 21 25 24 1 21 2 0.17541563D+00 0.80932922D-02 0.39295629D+05 0.39295629D+05 0.39295629D+05 0.12027846D+01  1  2  2  2  6  2       21 0.659641926361D-01 0.100000000000D+01
-.265707219386D-06 0.741786198897D-06 -.283761886926D-07 0.424044142688D-06 0.000000000000D+00  6 2 21 25 24 1 21 4 0.17541563D+00 0.80932922D-02 0.39295629D+05 0.39295629D+05 0.39295629D+05 0.12027846D+01  1  2  3  2  6  2       21 -.180387976200D-02 0.100000000000D+01
0.144193404085D-05 0.000000000000D+00 0.000000000000D+00 0.424044142688D-06 0.000000000000D+00  6 2 21 25 24 1 21 4 0.17541563D+00 0.80932922D-02 0.39295629D+05 0.39295629D+05 0.39295629D+05 0.12027846D+01  1  2 15  2  6  2       21 0.978925465568D-02 0.100000000000D+01
  </mgrwgt>
  </event>
  <event>
  5     66 0.43779995E-03 0.47598268E+02 0.75467711E-02 0.10185322E+00
        2 -1    0    0  502    0 0.00000000E+00 0.00000000E+00 0.18587052E+04 0.18587052E+04 0.32000000E+00 0.0000E+00 0.9000E+01
       21 -1    0    0  501  502 0.00000000E+00 0.00000000E+00 -.15427357E+02 0.15445576E+02 0.75000000E+00 0.0000E+00 0.9000E+01
       25  1    1    2    0    0 -.24020878E+02 -.71824900E+02 0.78244308E+03 0.79597612E+03 0.12500000E+03 0.0000E+00 0.9000E+01
       24  1    1    2    0    0 0.15888797E+02 0.11872243E+03 0.83587416E+03 0.84823363E+03 0.80419002E+02 0.0000E+00 0.9000E+01
        1  1    1    2  501    0 0.81320813E+01 -.46897528E+02 0.22496060E+03 0.22994104E+03 0.32000000E+00 0.0000E+00 0.9000E+01
#aMCatNLO 1  0  0  2  2 0.63516616D+02 0.00000000D+00  -5  6  0 0.00000000D+00 0.00000000D+00 0.00000000D+00 0.00000000D+00 0.00000000D+00
  <mgrwgt>
 0.1183469652D+00   12    2    0
 0.169387150826897D+03 0.000000000000000D+00 0.000000000000000D+00 0.169387150826897D+03
 0.169387150826897D+03 0.000000000000000D+00 0.000000000000000D+00 -.169387150826897D+03
 0.146171746966086D+03 -.240209558646651D+02 -.718244510835816D+02 -.232841512781824D+01
 0.144549181182024D+03 0.158887198188176D+02 0.118722871583867D+03 0.892626301555993D+01
 0.480533735056836D+02 0.813223604584748D+01 -.468984205002853D+02 -.659784788774170D+01
 0.000000000000000D+00 0.000000000000000D+00 0.000000000000000D+00 -.000000000000000D+00
 0.456805126782235D+03 0.000000000000000D+00 0.000000000000000D+00 0.456805126782235D+03
 0.511658211256567D+03 0.000000000000000D+00 0.000000000000000D+00 -.511658211256567D+03
 0.306256706670548D+03 -.209298405172038D+03 -.185356215045851D+03 -.232841512781824D+01
 0.136867139337749D+03 -.993562380088036D+02 0.481046533450076D+02 0.892626301555993D+01
 0.988070472331519D+02 -.520097022871306D+02 -.837513692675444D+02 -.659784788774170D+01
 0.426532444797353D+03 0.360664345467972D+03 0.221002930968388D+03 -.548530844743325D+02
0.211878012474D-05 0.000000000000D+00 0.000000000000D+00 0.272959692672D-06 0.000000000000D+00  6 2 21 25 24 1 21 2 0.28595605D+00 0.23748431D-02 0.28565188D+05 0.28565188D+05 0.28565188D+05 0.12171386D+01  1  2  2  2  6  2       21 0.333884410898D-01 0.100000000000D+01
-.271201832983D-07 0.111811099019D-06 -.427720662424D-08 0.272959692672D-06 0.000000000000D+00  6 2 21 25 24 1 21 4 0.28595605D+00 0.23748431D-02 0.28565188D+05 0.28565188D+05 0.28565188D+05 0.12171386D+01  1  2  3  2  6  2       21 -.633115512611D-03 0.100000000000D+01
0.224696211708D-06 0.000000000000D+00 0.000000000000D+00 0.272959692672D-06 0.000000000000D+00  6 2 21 25 24 1 21 4 0.28595605D+00 0.23748431D-02 0.28565188D+05 0.28565188D+05 0.28565188D+05 0.12171386D+01  1  2 15  2  6  2       21 0.524549025693D-02 0.100000000000D+01
0.418497935742D-03 0.000000000000D+00 -.196522376893D-03 0.272959692672D-06 0.000000000000D+00  6 2 21 25 24 1 21 4 0.28595605D+00 0.41793649D-01 0.28565188D+05 0.28565188D+05 0.28565188D+05 0.12171386D+01  1  2  5  2  6  2       21 0.588435440182D-01 0.100000000000D+01
0.185089317296D-03 0.000000000000D+00 -.868968022880D-04 0.272959692672D-06 0.000000000000D+00  6 2 -1 25 24 1 -1 4 0.28595605D+00 0.41793649D-01 0.28565188D+05 0.28565188D+05 0.28565188D+05 0.12171386D+01  1  2  5  5  6  2       21 0.246623823180D-02 0.100000000000D+01
0.185089317296D-03 0.000000000000D+00 -.868968022880D-04 0.272959692672D-06 0.000000000000D+00  6 2 1 25 24 1 1 4 0.28595605D+00 0.41793649D-01 0.28565188D+05 0.28565188D+05 0.28565188D+05 0.12171386D+01  1  2  5  6  6  2       21 0.508671181826D-02 0.100000000000D+01
0.185089317296D-03 0.000000000000D+00 -.868968022880D-04 0.272959692672D-06 0.000000000000D+00  6 2 -2 25 24 1 -2 4 0.28595605D+00 0.41793649D-01 0.28565188D+05 0.28565188D+05 0.28565188D+05 0.12171386D+01  1  2  5  7  6  2       21 0.207406778433D-02 0.100000000000D+01
0.185089317296D-03 0.000000000000D+00 -.868968022880D-04 0.272959692672D-06 0.000000000000D+00  6 2 2 25 24 1 2 4 0.28595605D+00 0.41793649D-01 0.28565188D+05 0.28565188D+05 0.28565188D+05 0.12171386D+01  1  2  5  8  6  2       21 0.707017578506D-02 0.100000000000D+01
0.185089317296D-03 0.000000000000D+00 -.868968022880D-04 0.272959692672D-06 0.000000000000D+00  6 2 -3 25 24 1 -3 4 0.28595605D+00 0.41793649D-01 0.28565188D+05 0.28565188D+05 0.28565188D+05 0.12171386D+01  1  2  5  9  6  2       21 0.131228257038D-02 0.100000000000D+01
0.185089317296D-03 0.000000000000D+00 -.868968022880D-04 0.272959692672D-06 0.000000000000D+00  6 2 -4 25 24 1 -4 4 0.28595605D+00 0.41793649D-01 0.28565188D+05 0.28565188D+05 0.28565188D+05 0.12171386D+01  1  2  5  9  6  2       21 0.109026808917D-02 0.100000000000D+01
0.185089317296D-03 0.000000000000D+00 -.868968022880D-04 0.272959692672D-06 0.000000000000D+00  6 2 3 25 24 1 3 4 0.28595605D+00 0.41793649D-01 0.28565188D+05 0.28565188D+05 0.28565188D+05 0.12171386D+01  1  2  5 10  6  2       21 0.131259293045D-02 0.100000000000D+01
0.185089317296D-03 0.000000000000D+00 -.868968022880D-04 0.272959692672D-06 0.000000000000D+00  6 2 4 25 24 1 4 4 0.28595605D+00 0.41793649D-01 0.28565188D+05 0.28565188D+05 0.28565188D+05 0.12171386D+01  1  2  5 10  6  2       21 0.109026808917D-02 0.100000000000D+01
  </mgrwgt>
  </event>
  <event>
  6     66 0.43779995E-03 0.14573371E+03 0.75467711E-02 0.11313593E+00
        4 -1    0    0  502    0 0.00000000E+00 0.00000000E+00 0.41310700E+03 0.41310991E+03 0.15500000E+01 0.0000E+00 0.9000E+01
       21 -1    0    0  503  502 0.00000000E+00 0.00000000E+00 -.78903113E+03 0.78903148E+03 0.75000000E+00 0.0000E+00 0.9000E+01
       25  1    1    2    0    0 0.19059719E+02 -.13936103E+02 -.10951108E+03 0.16785459E+03 0.12500000E+03 0.0000E+00 0.9000E+01
       24  1    1    2    0    0 -.93677920E+02 -.10789105E+03 0.20680856E+03 0.26391860E+03 0.80419002E+02 0.0000E+00 0.9000E+01
        3  1    1    2  501    0 0.75768212E+02 0.12834846E+03 0.11116999E+03 0.18593861E+03 0.50000000E+00 0.0000E+00 0.9000E+01
       21  1    1    2  503  501 -.11500108E+01 -.65213076E+01 -.58439159E+03 0.58442959E+03 0.75000000E+00 0.0000E+00 0.9000E+01
#aMCatNLO 2  0  0  2  1 0.66219315D+01 0.00000000D+00  -5  6  0 0.00000000D+00 0.00000000D+00 0.00000000D+00 0.00000000D+00 0.00000000D+00
  <mgrwgt>
 0.2252733357D-02    3    2    0
 0.290716929880074D+03 0.000000000000000D+00 0.000000000000000D+00 0.290716929880074D+03
 0.290716929880074D+03 0.000000000000000D+00 0.000000000000000D+00 -.290716929880074D+03
 0.217710526347444D+03 0.186291126973614D+02 -.163773427250163D+02 -.176515189396997D+03
 0.207631826484475D+03 -.940873239048825D+02 -.110212087008067D+03 0.125078498442589D+03
 0.156091506928229D+03 0.754582112075211D+02 0.126589429733083D+03 0.514366909544079D+02
 0.000000000000000D+00 -.000000000000000D+00 -.000000000000000D+00 -.000000000000000D+00
 0.290748985695750D+03 0.000000000000000D+00 0.000000000000000D+00 0.290748985695750D+03
 0.112109029073398D+04 0.000000000000000D+00 0.000000000000000D+00 -.112109029073398D+04
 0.217577804903071D+03 0.190595744158625D+02 -.139363453483068D+02 -.176515189396997D+03
 0.206223069299802D+03 -.936780579612318D+02 -.107891283433926D+03 0.125078498442589D+03
 0.157670692817362D+03 0.757684943141580D+02 0.128348936366972D+03 0.514366909544079D+02
 0.830367709409497D+03 -.115001076878875D+01 -.652130758473853D+01 -.830341305038230D+03
-.815738446703D-02 0.000000000000D+00 0.000000000000D+00 0.404056366083D-07 0.000000000000D+00  6 4 21 25 24 3 21 4 0.63548130D-01 0.12138447D+00 0.49916131D+05 0.49916131D+05 0.49916131D+05 0.11923540D+01  1  2 13  2  6  2       21 -.826084934557D-01 0.100000000000D+01
-.815739075480D-02 0.000000000000D+00 0.000000000000D+00 0.404056366083D-07 0.000000000000D+00  6 4 21 25 24 3 21 4 0.63548130D-01 0.12138943D+00 0.49916131D+05 0.49916131D+05 0.49916131D+05 0.11923540D+01  1  2 13  2  6  2       21 -.826001119926D-01 0.100000000000D+01
0.165420429154D-01 0.000000000000D+00 0.000000000000D+00 0.404885861214D-07 0.183753954735D-06  6 4 21 25 24 3 21 4 0.63555137D-01 0.12138958D+00 0.49916131D+05 0.49916131D+05 0.49916131D+05 0.11923540D+01  1  2  1  2  6  2       21 0.167461338805D+00 0.100000000000D+01
  </mgrwgt>
  </event>
  <event>
  5     66 0.43779995E-03 0.68472244E+02 0.75467711E-02 0.11961381E+00
        2 -1    0    0  502    0 0.00000000E+00 0.00000000E+00 0.67428580E+03 0.67428587E+03 0.32000000E+00 0.0000E+00 0.9000E+01
       21 -1    0    0  501  502 0.00000000E+00 0.00000000E+00 -.38122077E+02 0.38129454E+02 0.75000000E+00 0.0000E+00 0.9000E+01
       25  1    1    2    0    0 -.32761291E+02 -.22915529E+02 0.23626982E+03 0.27027181E+03 0.12500000E+03 0.0000E+00 0.9000E+01
       24  1    1    2    0    0 0.66759233E+02 -.36697049E+02 0.17591096E+03 0.20788302E+03 0.80419002E+02 0.0000E+00 0.9000E+01
        1  1    1    2  501    0 -.33997942E+02 0.59612579E+02 0.22398295E+03 0.23426050E+03 0.32000000E+00 0.0000E+00 0.9000E+01
#aMCatNLO 1  0  0  5  2 0.26555761D+02 0.00000000D+00  -5  6  0 0.00000000D+00 0.00000000D+00 0.00000000D+00 0.00000000D+00 0.00000000D+00
  <mgrwgt>
 0.4679202614D-01    7    2    0
 0.160336614245382D+03 0.000000000000000D+00 0.000000000000000D+00 0.160336614245382D+03
 0.160336614245382D+03 -.000000000000000D+00 -.000000000000000D+00 -.160336614245382D+03
 0.131721311278781D+03 -.327611675994876D+02 -.229157457408139D+02 -.112729028942008D+02
 0.112859204667292D+03 0.667593388118521D+02 -.366972349538572D+02 -.215983275257349D+02
 0.760927125446911D+02 -.339981712123646D+02 0.596129806946711D+02 0.328712304199357D+02
 0.000000000000000D+00 0.000000000000000D+00 0.000000000000000D+00 0.000000000000000D+00
 0.160336614245382D+03 0.000000000000000D+00 0.000000000000000D+00 0.160336614245382D+03
 0.160336614245382D+03 -.000000000000000D+00 -.000000000000000D+00 -.160336614245382D+03
 0.131473171932433D+03 -.369978874759544D+02 -.154870079235077D+02 -.717661799657628D+01
 0.108253042633104D+03 0.632000292030862D+02 -.304562800016523D+02 -.181569987096989D+02
 0.494604984918860D+02 -.387453743480409D+02 0.307330981232513D+02 0.783299076115316D+00
 0.314865154333417D+02 0.125432326209090D+02 0.152101898019087D+02 0.245503176301599D+02
0.349953236596D-05 0.000000000000D+00 0.000000000000D+00 0.220785079880D-06 0.000000000000D+00  6 2 21 25 24 1 21 2 0.10373685D+00 0.58655082D-02 0.24123945D+05 0.24123945D+05 0.24123945D+05 0.12249620D+01  1  2  2  3  6  5        1 0.593970163801D-01 0.100000000000D+01
-.326710715891D-06 0.184675396622D-06 -.706454758690D-08 0.220785079880D-06 0.000000000000D+00  6 2 21 25 24 1 21 4 0.10373685D+00 0.58655082D-02 0.24123945D+05 0.24123945D+05 0.24123945D+05 0.12249620D+01  1  2  3  3  6  5        1 -.832076494525D-02 0.100000000000D+01
0.373526637706D-06 0.000000000000D+00 0.000000000000D+00 0.220785079880D-06 0.000000000000D+00  6 2 21 25 24 1 21 4 0.10373685D+00 0.58655082D-02 0.24123945D+05 0.24123945D+05 0.24123945D+05 0.12249620D+01  1  2 15  3  6  5        1 0.951308666036D-02 0.100000000000D+01
0.162502131604D-05 0.000000000000D+00 0.000000000000D+00 0.221164619485D-06 0.000000000000D+00  6 2 21 25 24 1 21 4 0.10373685D+00 0.58655082D-02 0.23587730D+05 0.23587730D+05 0.23587730D+05 0.12260145D+01  1  2 12  3  6  5        1 0.415194215871D-01 0.100000000000D+01
-.271601636447D-05 0.000000000000D+00 0.000000000000D+00 0.220785079880D-06 0.000000000000D+00  6 2 21 25 24 1 21 4 0.10373685D+00 0.58655082D-02 0.24123945D+05 0.24123945D+05 0.24123945D+05 0.12249620D+01  1  2  4  3  6  5        1 -.691723064379D-01 0.100000000000D+01
-.104495007321D-05 0.000000000000D+00 0.000000000000D+00 0.220785079880D-06 0.000000000000D+00  6 2 21 25 24 1 21 4 0.10373685D+00 0.58655082D-02 0.24123945D+05 0.24123945D+05 0.24123945D+05 0.12249620D+01  1  2  5  3  6  5        1 -.266130968951D-01 0.100000000000D+01
0.158898228290D-05 0.000000000000D+00 -.000000000000D+00 0.220785079880D-06 0.000000000000D+00  6 2 21 25 24 1 21 4 0.10373685D+00 0.58655082D-02 0.24123945D+05 0.24123945D+05 0.24123945D+05 0.12249620D+01  1  2  6  3  6  5        1 0.404686697897D-01 0.100000000000D+01
  </mgrwgt>
  </event>
  <event>
  6     66 0.43779995E-03 0.28572868E+02 0.75467711E-02 0.12254957E+00
        2 -1    0    0  502    0 0.00000000E+00 0.00000000E+00 0.38466276E+03 0.38466289E+03 0.32000000E+00 0.0000E+00 0.9000E+01
       21 -1    0    0  501  502 0.00000000E+00 0.00000000E+00 -.45582218E+02 0.45588388E+02 0.75000000E+00 0.0000E+00 0.9000E+01
       25  1    1    2    0    0 -.17961175E+02 0.44468027E+02 0.15078257E+03 0.20164422E+03 0.12500000E+03 0.0000E+00 0.9000E+01
       24  1    1    2    0    0 0.39278500E+02 -.17428759E+02 0.14189593E+03 0.16866604E+03 0.80419002E+02 0.0000E+00 0.9000E+01
        1  1    1    2  503    0 -.20534024E+02 -.14797561E+02 0.34864840E+02 0.43084492E+02 0.32000000E+00 0.0000E+00 0.9000E+01
       21  1    1    2  501  503 -.78330083E+00 -.12241707E+02 0.11537199E+02 0.16856524E+02 0.75000000E+00 0.0000E+00 0.9000E+01
#aMCatNLO 2  0  0  5  2 0.74829827D+01 0.00000000D+00  -5  6  0 0.00000000D+00 0.00000000D+00 0.00000000D+00 0.00000000D+00 0.00000000D+00
  <mgrwgt>
 0.4252967164D+00    3    2    0
 0.132420307349115D+03 0.000000000000000D+00 0.000000000000000D+00 0.132420307349115D+03
 0.132420307349115D+03 -.000000000000000D+00 -.000000000000000D+00 -.132420307349115D+03
 0.134857016977868D+03 -.168494234336600D+02 0.458781916690998D+02 -.131416698823060D+02
 0.924947953138288D+02 0.400412820423357D+02 -.164612331713988D+02 0.146217215354253D+02
 0.374888024065343D+02 -.231918586086758D+02 -.294169584977010D+02 -.148005165311932D+01
 0.000000000000000D+00 0.000000000000000D+00 0.000000000000000D+00 -.000000000000000D+00
 0.132420307349115D+03 0.000000000000000D+00 0.000000000000000D+00 0.132420307349115D+03
 0.132420307349115D+03 -.000000000000000D+00 -.000000000000000D+00 -.132420307349115D+03
 0.134532561103367D+03 -.179687902086782D+02 0.444583673022808D+02 -.132131053232410D+02
 0.923361390480322D+02 0.392732730926433D+02 -.174353891362214D+02 0.145727089515362D+02
 0.250669615810284D+02 -.204069773358578D+02 -.144768462666237D+02 0.152602788017756D+01
 0.129049529658039D+02 -.897505548107226D+00 -.125461318994357D+02 -.288563150847276D+01
-.980642391923D-05 0.000000000000D+00 0.000000000000D+00 0.530911122239D-06 0.000000000000D+00  6 2 21 25 24 1 21 4 0.59179371D-01 0.70131338D-02 0.17247533D+05 0.17247533D+05 0.17247533D+05 0.12409687D+01  1  2 13  3  6  5        1 -.359713385103D+00 0.100000000000D+01
-.178420707437D-07 0.000000000000D+00 0.000000000000D+00 0.530801245380D-06 0.000000000000D+00  6 2 21 25 24 1 21 4 0.59179371D-01 0.70131338D-02 0.17293107D+05 0.17293107D+05 0.17293107D+05 0.12408403D+01  1  2  8  3  6  5        1 -.654237034299D-03 0.100000000000D+01
0.214186012562D-04 0.000000000000D+00 0.000000000000D+00 0.530801245380D-06 0.916053289843D-07  6 2 21 25 24 1 21 4 0.59179371D-01 0.70131338D-02 0.17247533D+05 0.17247533D+05 0.17247533D+05 0.12409687D+01  1  2  1  3  6  5        1 0.785664338547D+00 0.100000000000D+01
  </mgrwgt>
  </event>
  <event>
  5     66 0.43779995E-03 0.36463787E+02 0.75467711E-02 0.11807993E+00
        4 -1    0    0  502    0 0.00000000E+00 0.00000000E+00 0.15964171E+04 0.15964178E+04 0.15500000E+01 0.0000E+00 0.9000E+01
       21 -1    0    0  501  502 0.00000000E+00 0.00000000E+00 -.26700295E+02 0.26710826E+02 0.75000000E+00 0.0000E+00 0.9000E+01
       25  1    1    2    0    0 -.80350581E+02 -.23750436E+02 0.95916922E+03 0.97090210E+03 0.12500000E+03 0.0000E+00 0.9000E+01
       24  1    1    2    0    0 0.98462763E+02 -.78966414E+01 0.60124834E+03 0.61459260E+03 0.80419002E+02 0.0000E+00 0.9000E+01
        3  1    1    2  501    0 -.18112182E+02 0.31647078E+02 0.92992074E+01 0.37633946E+02 0.50000000E+00 0.0000E+00 0.9000E+01
#aMCatNLO 1  0  0  1  2 0.23487904D+02 0.00000000D+00  -5  6  0 0.00000000D+00 0.00000000D+00 0.00000000D+00 0.00000000D+00 0.00000000D+00
  <mgrwgt>
 0.3114701344D-02    9    2    0
 0.206479936065519D+03 0.000000000000000D+00 0.000000000000000D+00 0.206479936065519D+03
 0.206479936065519D+03 0.000000000000000D+00 0.000000000000000D+00 -.206479936065519D+03
 0.170174109972906D+03 -.803505077039850D+02 -.237505647989826D+02 0.794602686159056D+02
 0.130214317073450D+03 0.984628197436424D+02 -.789673985965836D+01 0.270419497125163D+02
 0.112571445084682D+03 -.181123120396574D+02 0.316473046586410D+02 -.106502218328422D+03
 0.000000000000000D+00 -.000000000000000D+00 0.000000000000000D+00 0.000000000000000D+00
 0.229634534290589D+03 0.000000000000000D+00 0.000000000000000D+00 0.229634534290589D+03
 0.212857250398842D+03 0.000000000000000D+00 0.000000000000000D+00 -.212857250398842D+03
 0.170792183160066D+03 -.782800537720568D+02 -.332154891807076D+02 0.794602686159056D+02
 0.132060295699667D+03 0.100055433190184D+03 -.151772524121869D+02 0.270419497125163D+02
 0.110774814255162D+03 -.167560837257599D+02 0.254474089558469D+02 -.106502218328422D+03
 0.288644915745356D+02 -.501929569236733D+01 0.229453326370477D+02 0.167772838917465D+02
0.283485759727D-05 0.000000000000D+00 0.000000000000D+00 0.168338185762D-05 0.000000000000D+00  6 4 21 25 24 3 21 2 0.24560349D+00 0.41086057D-02 0.24699698D+05 0.24699698D+05 0.24699698D+05 0.12238607D+01  1  2  2  1  6  1        4 0.514877748521D-03 0.100000000000D+01
0.343697171177D-06 0.149599545423D-06 -.572276073020D-08 0.168338185762D-05 0.000000000000D+00  6 4 21 25 24 3 21 4 0.24560349D+00 0.41086057D-02 0.24699698D+05 0.24699698D+05 0.24699698D+05 0.12238607D+01  1  2  3  1  6  1        4 0.935002634080D-04 0.100000000000D+01
0.266160944692D-06 0.000000000000D+00 0.000000000000D+00 0.168338185762D-05 0.000000000000D+00  6 4 21 25 24 3 21 4 0.24560349D+00 0.41086057D-02 0.24699698D+05 0.24699698D+05 0.24699698D+05 0.12238607D+01  1  2 15  1  6  1        4 0.724071087128D-04 0.100000000000D+01
0.210845680506D-04 0.000000000000D+00 0.000000000000D+00 0.166764879303D-05 0.000000000000D+00  6 4 21 25 24 3 21 4 0.27664516D+00 0.41086057D-02 0.27955943D+05 0.27955943D+05 0.27955943D+05 0.12181281D+01  1  2 12  1  6  1        4 0.371965562256D-02 0.100000000000D+01
-.144350742570D-04 0.000000000000D+00 0.000000000000D+00 0.168338185762D-05 0.000000000000D+00  6 4 21 25 24 3 21 4 0.24560349D+00 0.41086057D-02 0.24699698D+05 0.24699698D+05 0.24699698D+05 0.12238607D+01  1  2  4  1  6  1        4 -.392695476870D-02 0.100000000000D+01
-.445890288076D-04 0.000000000000D+00 -.849625714713D-05 0.168338185762D-05 0.000000000000D+00  6 4 21 25 24 3 21 4 0.27683757D+00 0.41086057D-02 0.24699698D+05 0.24699698D+05 0.24699698D+05 0.12238607D+01  1  2  5  1  6  1        4 -.800037581233D-02 0.100000000000D+01
0.453413723131D-04 0.000000000000D+00 0.843573825820D-05 0.168338185762D-05 0.000000000000D+00  6 4 21 25 24 3 21 4 0.24560349D+00 0.41086057D-02 0.24699698D+05 0.24699698D+05 0.24699698D+05 0.12238607D+01  1  2  6  1  6  1        4 0.123347836703D-01 0.100000000000D+01
0.397295248957D-06 0.000000000000D+00 0.000000000000D+00 0.166764879303D-05 0.000000000000D+00  6 21 21 25 24 3 -4 4 0.27664516D+00 0.41086057D-02 0.27955943D+05 0.27955943D+05 0.27955943D+05 0.12181281D+01  1  2 12  4  6  1        4 0.156439666959D-02 0.100000000000D+01
-.805194800503D-06 0.000000000000D+00 -.160881151928D-06 0.168338185762D-05 0.000000000000D+00  6 21 21 25 24 3 -4 4 0.27683757D+00 0.41086057D-02 0.24699698D+05 0.24699698D+05 0.24699698D+05 0.12238607D+01  1  2  5  4  6  1        4 -.325758915832D-02 0.100000000000D+01
  </mgrwgt>
  </event>
  <event>
  5     66 0.43779995E-03 0.51398993E+02 0.75467711E-02 0.12141448E+00
        2 -1    0    0  502    0 0.00000000E+00 0.00000000E+00 0.82838388E+03 0.82838394E+03 0.32000000E+00 0.0000E+00 0.9000E+01
       21 -1    0    0  501  502 0.00000000E+00 0.00000000E+00 -.37241645E+02 0.37249196E+02 0.75000000E+00 0.0000E+00 0.9000E+01
       25  1    1    2    0    0 0.10637186E+02 -.88169709E+01 0.62940242E+03 0.64184367E+03 0.12500000E+03 0.0000E+00 0.9000E+01
       24  1    1    2    0    0 0.83402823E+01 0.56583410E+02 0.79113943E+02 0.12648112E+03 0.80419002E+02 0.0000E+00 0.9000E+01
        1  1    1    2  501    0 -.18977468E+02 -.47766439E+02 0.82625868E+02 0.97308342E+02 0.32000000E+00 0.0000E+00 0.9000E+01
#aMCatNLO 1  0  0  1  2 0.30396942D+01 0.00000000D+00  -5  6  0 0.00000000D+00 0.00000000D+00 0.00000000D+00 0.00000000D+00 0.00000000D+00
  <mgrwgt>
 0.1247524242D+00   11    2    0
 0.175652136765740D+03 0.000000000000000D+00 0.000000000000000D+00 0.175652136765740D+03
 0.175652136765740D+03 0.000000000000000D+00 0.000000000000000D+00 -.175652136765740D+03
 0.164115102102174D+03 0.106373434903238D+02 -.881657463905519D+01 0.105441366043455D+03
 0.133490819917628D+03 0.834041033668383D+01 0.565837319964328D+02 -.898960615193001D+02
 0.536983515116777D+02 -.189777538270076D+02 -.477671573573776D+02 -.155453045241553D+02
 0.000000000000000D+00 0.000000000000000D+00 0.000000000000000D+00 0.000000000000000D+00
 0.177382994496343D+03 0.000000000000000D+00 0.000000000000000D+00 0.177382994496343D+03
 0.176998362014888D+03 0.000000000000000D+00 0.000000000000000D+00 -.176998362014888D+03
 0.164084613940493D+03 0.943988465925026D+01 -.957953216554387D+01 0.105441366043455D+03
 0.133171872194342D+03 0.736747349372262D+01 0.559638280232249D+02 -.898960615193001D+02
 0.540609377745470D+02 -.193709208721894D+02 -.480176626344733D+02 -.155453045241553D+02
 0.306393260184946D+01 0.256356271921652D+01 0.163336677679228D+01 0.384632481455222D+00
0.148695575950D-05 0.000000000000D+00 0.000000000000D+00 0.183628316529D-06 0.000000000000D+00  6 2 21 25 24 1 21 2 0.12744426D+00 0.57300694D-02 0.19022483D+05 0.19022483D+05 0.19022483D+05 0.12362292D+01  1  2  2  1  6  1        2 0.207735006139D-01 0.100000000000D+01
-.574791886930D-07 0.784688112376D-07 -.300173526748D-08 0.183628316529D-06 0.000000000000D+00  6 2 21 25 24 1 21 4 0.12744426D+00 0.57300694D-02 0.19022483D+05 0.19022483D+05 0.19022483D+05 0.12362292D+01  1  2  3  1  6  1        2 -.122721380697D-02 0.100000000000D+01
0.153872722983D-06 0.000000000000D+00 0.000000000000D+00 0.183628316529D-06 0.000000000000D+00  6 2 21 25 24 1 21 4 0.12744426D+00 0.57300694D-02 0.19022483D+05 0.19022483D+05 0.19022483D+05 0.12362292D+01  1  2 15  1  6  1        2 0.328527132088D-02 0.100000000000D+01
0.397773419924D-07 0.000000000000D+00 0.000000000000D+00 0.183325148726D-06 0.000000000000D+00  6 2 21 25 24 1 21 4 0.12918419D+00 0.57300694D-02 0.19431072D+05 0.19431072D+05 0.19431072D+05 0.12352082D+01  1  2 12  1  6  1        2 0.832160726880D-03 0.100000000000D+01
-.257843794533D-04 0.000000000000D+00 0.000000000000D+00 0.183628316529D-06 0.000000000000D+00  6 2 21 25 24 1 21 4 0.12744426D+00 0.57300694D-02 0.19022483D+05 0.19022483D+05 0.19022483D+05 0.12362292D+01  1  2  4  1  6  1        2 -.550511362264D+00 0.100000000000D+01
-.311009502946D-03 0.000000000000D+00 -.374891372055D-04 0.183628316529D-06 0.000000000000D+00  6 2 21 25 24 1 21 4 0.12943813D+00 0.57300694D-02 0.19022483D+05 0.19022483D+05 0.19022483D+05 0.12362292D+01  1  2  5  1  6  1        2 -.651102306538D+01 0.100000000000D+01
0.311558454862D-03 0.000000000000D+00 0.374846203833D-04 0.183628316529D-06 0.000000000000D+00  6 2 21 25 24 1 21 4 0.12744426D+00 0.57300694D-02 0.19022483D+05 0.19022483D+05 0.19022483D+05 0.12362292D+01  1  2  6  1  6  1        2 0.665195257934D+01 0.100000000000D+01
0.254258725525D-04 0.000000000000D+00 0.000000000000D+00 0.183628316529D-06 0.203124034252D-06  6 2 21 25 24 1 21 4 0.12870008D+00 0.57739856D-02 0.19431072D+05 0.19431072D+05 0.19431072D+05 0.12352082D+01  1  2 11  1  6  1        2 0.527589065058D+00 0.100000000000D+01
0.236726920978D-08 0.000000000000D+00 0.000000000000D+00 0.183325148726D-06 0.000000000000D+00  6 21 21 25 24 1 -2 4 0.12918419D+00 0.57300694D-02 0.19431072D+05 0.19431072D+05 0.19431072D+05 0.12352082D+01  1  2 12  4  6  1        2 0.529202686598D-04 0.100000000000D+01
-.881224419166D-06 0.000000000000D+00 -.106623443268D-06 0.183628316529D-06 0.000000000000D+00  6 21 21 25 24 1 -2 4 0.12943813D+00 0.57300694D-02 0.19022483D+05 0.19022483D+05 0.19022483D+05 0.12362292D+01  1  2  5  4  6  1        2 -.196824945816D-01 0.100000000000D+01
0.121709821661D-06 0.000000000000D+00 0.000000000000D+00 0.183628316529D-06 0.449876960893D-09  6 21 21 25 24 1 -2 4 0.12870008D+00 0.57739856D-02 0.19431072D+05 0.19431072D+05 0.19431072D+05 0.12352082D+01  1  2 11  4  6  1        2 0.271106286063D-02 0.100000000000D+01
  </mgrwgt>
  </event>
  <event>
  5     66 0.43779995E-03 0.28663574E+02 0.75467711E-02 0.11347875E+00
        2 -1    0    0  502    0 0.00000000E+00 0.00000000E+00 0.76267776E+03 0.76267782E+03 0.32000000E+00 0.0000E+00 0.9000E+01
       21 -1    0    0  501  502 0.00000000E+00 0.00000000E+00 -.61192103E+02 0.61196699E+02 0.75000000E+00 0.0000E+00 0.9000E+01
       25  1    1    2    0    0 -.11620270E+02 0.10795652E+03 0.41819539E+03 0.44977998E+03 0.12500000E+03 0.0000E+00 0.9000E+01
       24  1    1    2    0    0 0.39745913E+02 -.11348308E+03 0.30537781E+03 0.33790674E+03 0.80419002E+02 0.0000E+00 0.9000E+01
        1  1    1    2  501    0 -.28125643E+02 0.55265622E+01 -.22087548E+02 0.36187800E+02 0.32000000E+00 0.0000E+00 0.9000E+01
#aMCatNLO 1  0  0  1  1 0.27436016D+03 0.00000000D+00  -5  6  0 0.00000000D+00 0.00000000D+00 0.00000000D+00 0.00000000D+00 0.00000000D+00
  <mgrwgt>
 0.1603218084D+00    7    2    0
 0.216036516423180D+03 0.000000000000000D+00 0.000000000000000D+00 0.216036516423180D+03
 0.216036516423180D+03 0.000000000000000D+00 0.000000000000000D+00 -.216036516423180D+03
 0.178683268412721D+03 -.116202158306763D+02 0.107956506767624D+03 0.671794138202551D+02
 0.148527276713396D+03 0.397459578100886D+02 -.113483088473781D+03 0.336895153087417D+02
 0.104862487720242D+03 -.281257419794123D+02 0.552658170615712D+01 -.100868929128997D+03
 0.000000000000000D+00 0.000000000000000D+00 0.000000000000000D+00 0.000000000000000D+00
 0.265182324718637D+03 0.000000000000000D+00 0.000000000000000D+00 0.265182324718637D+03
 0.259030337576760D+03 0.000000000000000D+00 0.000000000000000D+00 -.259030337576760D+03
 0.164580042193956D+03 -.271206834484962D+02 0.788224915656542D+02 0.671794138202551D+02
 0.167118570043455D+03 0.254925899866917D+02 -.140273108303164D+03 0.336895153087417D+02
 0.108435904980771D+03 -.377574874262289D+02 -.125768346028101D+02 -.100868929128997D+03
 0.840781450772145D+02 0.393855808880334D+02 0.740274513403203D+02 0.615198714187717D+01
0.103509261332D-04 0.000000000000D+00 0.000000000000D+00 0.200505783097D-05 0.000000000000D+00  6 2 21 25 24 1 21 2 0.11733540D+00 0.94145283D-02 0.28712162D+05 0.28712162D+05 0.28712162D+05 0.12169034D+01  1  2  2  1  6  1        2 0.660289634280D-01 0.100000000000D+01
0.186172223598D-05 0.546233378962D-06 -.208955376288D-07 0.200505783097D-05 0.000000000000D+00  6 2 21 25 24 1 21 4 0.11733540D+00 0.94145283D-02 0.28712162D+05 0.28712162D+05 0.28712162D+05 0.12169034D+01  1  2  3  1  6  1        2 0.175866202123D-01 0.100000000000D+01
0.105720068052D-05 0.000000000000D+00 0.000000000000D+00 0.200505783097D-05 0.000000000000D+00  6 2 21 25 24 1 21 4 0.11733540D+00 0.94145283D-02 0.28712162D+05 0.28712162D+05 0.28712162D+05 0.12169034D+01  1  2 15  1  6  1        2 0.998676735826D-02 0.100000000000D+01
-.722124658679D-05 0.000000000000D+00 0.000000000000D+00 0.200505783097D-05 0.000000000000D+00  6 2 21 25 24 1 21 4 0.11733540D+00 0.94145283D-02 0.28712162D+05 0.28712162D+05 0.28712162D+05 0.12169034D+01  1  2  4  1  6  1        2 -.682149671561D-01 0.100000000000D+01
-.297372765417D-04 0.000000000000D+00 -.149678405211D-04 0.200505783097D-05 0.000000000000D+00  6 2 21 25 24 1 21 4 0.16465682D+00 0.94145283D-02 0.28712162D+05 0.28712162D+05 0.28712162D+05 0.12169034D+01  1  2  5  1  6  1        2 -.179204185345D+00 0.100000000000D+01
0.336770125755D-04 0.000000000000D+00 0.141479242666D-04 0.200505783097D-05 0.000000000000D+00  6 2 21 25 24 1 21 4 0.11733540D+00 0.94145283D-02 0.28712162D+05 0.28712162D+05 0.28712162D+05 0.12169034D+01  1  2  6  1  6  1        2 0.318127386892D+00 0.100000000000D+01
-.851303516968D-06 0.000000000000D+00 -.631641777444D-06 0.200505783097D-05 0.000000000000D+00  6 21 21 25 24 1 -2 4 0.16465682D+00 0.94145283D-02 0.28712162D+05 0.28712162D+05 0.28712162D+05 0.12169034D+01  1  2  5  4  6  1        2 -.398877703631D-02 0.100000000000D+01
  </mgrwgt>
  </event>
  <event>
  5     66 0.43779995E-03 0.42872594E+02 0.75467711E-02 0.11752998E+00
        2 -1    0    0  502    0 0.00000000E+00 0.00000000E+00 0.44204471E+03 0.44204482E+03 0.32000000E+00 0.0000E+00 0.9000E+01
       21 -1    0    0  501  502 0.00000000E+00 0.00000000E+00 -.13245563E+03 0.13245776E+03 0.75000000E+00 0.0000E+00 0.9000E+01
       25  1    1    2    0    0 -.38123731E+01 -.63960859E+02 0.30195819E+03 0.33303044E+03 0.12500000E+03 0.0000E+00 0.9000E+01
       24  1    1    2    0    0 -.30519970E+02 0.38283125E+02 0.10139780E+03 0.13836834E+03 0.80419002E+02 0.0000E+00 0.9000E+01
        1  1    1    2  501    0 0.34332343E+02 0.25677734E+02 -.93766922E+02 0.10310380E+03 0.32000000E+00 0.0000E+00 0.9000E+01
#aMCatNLO 1  0  0  2  5 0.12405438D+02 0.00000000D+00  -5  6  0 0.00000000D+00 0.00000000D+00 0.00000000D+00 0.00000000D+00 0.00000000D+00
  <mgrwgt>
 0.7652656665D-01   14    2    0
 0.241975112953721D+03 0.000000000000000D+00 0.000000000000000D+00 0.241975112953721D+03
 0.241975112953721D+03 0.000000000000000D+00 0.000000000000000D+00 -.241975112953721D+03
 0.202177680270862D+03 -.381239516250822D+01 -.639608756272711D+02 0.145414189238274D+03
 0.993931215941962D+02 -.305199809593326D+02 0.382831168860136D+02 0.318545191393928D+02
 0.182379424042385D+03 0.343323761218408D+02 0.256777587412576D+02 -.177268708377667D+03
 0.000000000000000D+00 0.000000000000000D+00 -.000000000000000D+00 -.000000000000000D+00
 0.255777217571254D+03 0.000000000000000D+00 0.000000000000000D+00 0.255777217571254D+03
 0.309425945301357D+03 0.000000000000000D+00 0.000000000000000D+00 -.309425945301357D+03
 0.196189239722553D+03 -.665523752015570D+01 -.409345717534606D+02 0.145414189238274D+03
 0.104947496350736D+03 -.319782048602813D+02 0.500943615612492D+02 0.318545191393928D+02
 0.186107751104279D+03 0.317027628251993D+02 0.469769611666732D+02 -.177268708377667D+03
 0.779586756950427D+02 0.693067955523766D+01 -.561367509744618D+02 -.536487277301029D+02
0.116891496830D-04 0.000000000000D+00 0.000000000000D+00 0.408626675130D-05 0.000000000000D+00  6 2 21 25 24 1 21 2 0.68007050D-01 0.20377962D-01 0.19249940D+05 0.19249940D+05 0.19249940D+05 0.12356578D+01  1  2  2  2  6  2       21 0.357683132163D-01 0.100000000000D+01
0.152461448173D-05 0.616853375863D-06 -.235970254167D-07 0.408626675130D-05 0.000000000000D+00  6 2 21 25 24 1 21 4 0.68007050D-01 0.20377962D-01 0.19249940D+05 0.19249940D+05 0.19249940D+05 0.12356578D+01  1  2  3  2  6  2       21 0.712314896703D-02 0.100000000000D+01
0.114407354860D-05 0.000000000000D+00 0.000000000000D+00 0.408626675130D-05 0.000000000000D+00  6 2 21 25 24 1 21 4 0.68007050D-01 0.20377962D-01 0.19249940D+05 0.19249940D+05 0.19249940D+05 0.12356578D+01  1  2 15  2  6  2       21 0.534522426067D-02 0.100000000000D+01
-.106815607464D-04 0.000000000000D+00 0.000000000000D+00 0.408626675130D-05 0.000000000000D+00  6 2 21 25 24 1 21 4 0.68007050D-01 0.20377962D-01 0.19249940D+05 0.19249940D+05 0.19249940D+05 0.12356578D+01  1  2  4  2  6  2       21 -.499053034777D-01 0.100000000000D+01
-.579343075216D-04 0.000000000000D+00 -.167670270384D-04 0.408626675130D-05 0.000000000000D+00  6 2 21 25 24 1 21 4 0.68007050D-01 0.27365985D-01 0.19249940D+05 0.19249940D+05 0.19249940D+05 0.12356578D+01  1  2  5  2  6  2       21 -.155362969955D+00 0.100000000000D+01
0.519142019265D-04 0.000000000000D+00 0.141757033555D-04 0.408626675130D-05 0.000000000000D+00  6 2 21 25 24 1 21 4 0.68007050D-01 0.20377962D-01 0.19249940D+05 0.19249940D+05 0.19249940D+05 0.12356578D+01  1  2  6  2  6  2       21 0.242548262697D+00 0.100000000000D+01
-.505417460436D-05 0.000000000000D+00 -.154528832966D-05 0.408626675130D-05 0.000000000000D+00  6 2 -1 25 24 1 -1 4 0.68007050D-01 0.27365985D-01 0.19249940D+05 0.19249940D+05 0.19249940D+05 0.12356578D+01  1  2  5  5  6  2       21 -.114496080225D-02 0.100000000000D+01
-.505417460436D-05 0.000000000000D+00 -.154528832966D-05 0.408626675130D-05 0.000000000000D+00  6 2 1 25 24 1 1 4 0.68007050D-01 0.27365985D-01 0.19249940D+05 0.19249940D+05 0.19249940D+05 0.12356578D+01  1  2  5  6  6  2       21 -.193513477541D-02 0.100000000000D+01
-.505417460436D-05 0.000000000000D+00 -.154528832966D-05 0.408626675130D-05 0.000000000000D+00  6 2 -2 25 24 1 -2 4 0.68007050D-01 0.27365985D-01 0.19249940D+05 0.19249940D+05 0.19249940D+05 0.12356578D+01  1  2  5  7  6  2       21 -.101523730358D-02 0.100000000000D+01
-.505417460436D-05 0.000000000000D+00 -.154528832966D-05 0.408626675130D-05 0.000000000000D+00  6 2 2 25 24 1 2 4 0.68007050D-01 0.27365985D-01 0.19249940D+05 0.19249940D+05 0.19249940D+05 0.12356578D+01  1  2  5  8  6  2       21 -.250446431344D-02 0.100000000000D+01
-.505417460436D-05 0.000000000000D+00 -.154528832966D-05 0.408626675130D-05 0.000000000000D+00  6 2 -3 25 24 1 -3 4 0.68007050D-01 0.27365985D-01 0.19249940D+05 0.19249940D+05 0.19249940D+05 0.12356578D+01  1  2  5  9  6  2       21 -.648956538645D-03 0.100000000000D+01
-.505417460436D-05 0.000000000000D+00 -.154528832966D-05 0.408626675130D-05 0.000000000000D+00  6 2 -4 25 24 1 -4 4 0.68007050D-01 0.27365985D-01 0.19249940D+05 0.19249940D+05 0.19249940D+05 0.12356578D+01  1  2  5  9  6  2       21 -.546204955089D-03 0.100000000000D+01
-.505417460436D-05 0.000000000000D+00 -.154528832966D-05 0.408626675130D-05 0.000000000000D+00  6 2 3 25 24 1 3 4 0.68007050D-01 0.27365985D-01 0.19249940D+05 0.19249940D+05 0.19249940D+05 0.12356578D+01  1  2  5 10  6  2       21 -.648945419941D-03 0.100000000000D+01
-.505417460436D-05 0.000000000000D+00 -.154528832966D-05 0.408626675130D-05 0.000000000000D+00  6 2 4 25 24 1 4 4 0.68007050D-01 0.27365985D-01 0.19249940D+05 0.19249940D+05 0.19249940D+05 0.12356578D+01  1  2  5 10  6  2       21 -.546204955089D-03 0.100000000000D+01
  </mgrwgt>
  </event>
  <event>
  6     66 -.43779995E-03 0.30476069E+02 0.75467711E-02 0.11982083E+00
        2 -1    0    0  503    0 0.00000000E+00 0.00000000E+00 0.22249315E+04 0.22249315E+04 0.32000000E+00 0.0000E+00 0.9000E+01
       21 -1    0    0  501  502 0.00000000E+00 0.00000000E+00 -.34574978E+02 0.34583112E+02 0.75000000E+00 0.0000E+00 0.9000E+01
       25  1    1    2    0    0 -.50987587E+02 0.15217033E+02 0.83268975E+03 0.84369931E+03 0.12500000E+03 0.0000E+00 0.9000E+01
       24  1    1    2    0    0 0.75012799E+02 -.89778757E-01 0.12154968E+04 0.12204616E+04 0.80419002E+02 0.0000E+00 0.9000E+01
        1  1    1    2  501    0 -.39287141E+02 -.50748878E+01 -.10985587E+02 0.41109846E+02 0.32000000E+00 0.0000E+00 0.9000E+01
       21  1    1    2  503  502 0.15261929E+02 -.10052366E+02 0.15315558E+03 0.15424387E+03 0.75000000E+00 0.0000E+00 0.9000E+01
#aMCatNLO 2  0  0  1  2 0.18275025D+02 0.00000000D+00  -5  6  0 0.00000000D+00 0.00000000D+00 0.00000000D+00 0.00000000D+00 0.00000000D+00
  <mgrwgt>
 -.3047013111D+00    3    2    0
 0.265350404846924D+03 0.000000000000000D+00 0.000000000000000D+00 0.265350404846924D+03
 0.265350404846924D+03 0.000000000000000D+00 0.000000000000000D+00 -.265350404846924D+03
 0.148724121156835D+03 -.466878856120368D+02 0.123850178216228D+02 0.645036191582168D+02
 0.177758850504704D+03 0.800907679413959D+02 -.343440220424103D+01 0.136765005576866D+03
 0.204217838032310D+03 -.334028823293591D+02 -.895061561738178D+01 -.201268624735083D+03
 0.000000000000000D+00 0.000000000000000D+00 -.000000000000000D+00 0.000000000000000D+00
 0.285204006628286D+03 0.000000000000000D+00 0.000000000000000D+00 0.285204006628286D+03
 0.269746759101872D+03 0.000000000000000D+00 0.000000000000000D+00 -.269746759101872D+03
 0.150389520959664D+03 -.509875762912697D+02 0.152170363051102D+02 0.645036191582168D+02
 0.175495904757389D+03 0.750128110556864D+02 -.897737573297830D-01 0.136765005576866D+03
 0.205129946896815D+03 -.392871637782770D+02 -.507489639277217D+01 -.201268624735083D+03
 0.239353931162894D+02 0.152619290138602D+02 -.100523661550083D+02 0.154572475264145D+02
-.868062571389D-04 0.000000000000D+00 0.000000000000D+00 0.638875350656D-05 0.000000000000D+00  6 2 21 25 24 1 21 4 0.34480024D+00 0.52330386D-02 0.23060841D+05 0.23060841D+05 0.23060841D+05 0.12270750D+01  1  2 13  1  6  1        2 -.359055553249D+00 0.100000000000D+01
-.251557828044D-05 0.000000000000D+00 0.000000000000D+00 0.646174050138D-05 0.000000000000D+00  6 2 21 25 24 1 21 4 0.31846291D+00 0.52330386D-02 0.19900610D+05 0.19900610D+05 0.19900610D+05 0.12340643D+01  1  2  8  1  6  1        2 -.131111700165D-01 0.100000000000D+01
0.164447686723D-04 0.000000000000D+00 0.000000000000D+00 0.646174050138D-05 0.120567360344D-06  6 2 21 25 24 1 21 4 0.34229040D+00 0.53197402D-02 0.23060841D+05 0.23060841D+05 0.23060841D+05 0.12270750D+01  1  2  1  1  6  1        2 0.674654121479D-01 0.100000000000D+01
  </mgrwgt>
  </event>
  <event>
  5     66 0.43779995E-03 0.85608443E+02 0.75467711E-02 0.11420914E+00
        2 -1    0    0  502    0 0.00000000E+00 0.00000000E+00 0.68507894E+03 0.68507901E+03 0.32000000E+00 0.0000E+00 0.9000E+01
       21 -1    0    0  501  502 0.00000000E+00 0.00000000E+00 -.54186488E+02 0.54191679E+02 0.75000000E+00 0.0000E+00 0.9000E+01
       25  1    1    2    0    0 -.41868954E+01 -.11717557E+03 0.38471851E+03 0.42116621E+03 0.12500000E+03 0.0000E+00 0.9000E+01
       24  1    1    2    0    0 0.47972334E+02 0.23204833E+02 0.10053588E+03 0.13933588E+03 0.80419002E+02 0.0000E+00 0.9000E+01
        1  1    1    2  501    0 -.43785438E+02 0.93970741E+02 0.14563807E+03 0.17876861E+03 0.32000000E+00 0.0000E+00 0.9000E+01
#aMCatNLO 1  0  0  1  2 0.44166817D+02 0.00000000D+00  -5  6  0 0.00000000D+00 0.00000000D+00 0.00000000D+00 0.00000000D+00 0.00000000D+00
  <mgrwgt>
 0.1099028338D+00    9    2    0
 0.192675810798501D+03 0.000000000000000D+00 0.000000000000000D+00 0.192675810798501D+03
 0.192675810798501D+03 0.000000000000000D+00 0.000000000000000D+00 -.192675810798501D+03
 0.178122739178131D+03 -.418680053329077D+01 -.117175778016745D+03 0.485285272781421D+02
 0.102710361778098D+03 0.479723882660525D+02 0.232047157544559D+02 -.352476040749347D+02
 0.104518520640774D+03 -.437855877327617D+02 0.939710622622888D+02 -.132809232032074D+02
 0.000000000000000D+00 -.000000000000000D+00 0.000000000000000D+00 0.000000000000000D+00
 0.248288789597152D+03 0.000000000000000D+00 0.000000000000000D+00 0.248288789597152D+03
 0.202909856567884D+03 0.000000000000000D+00 0.000000000000000D+00 -.202909856567884D+03
 0.186336021071001D+03 0.131380252914138D+02 -.128718635326162D+03 0.485285272781421D+02
 0.106483867601546D+03 0.579165959044098D+02 0.165792771505600D+02 -.352476040749347D+02
 0.950545497601643D+02 -.342987292425603D+02 0.876503375995985D+02 -.132809232032074D+02
 0.633242077323248D+02 -.367558919532633D+02 0.244890205760030D+02 0.453789330292676D+02
0.205792537532D-05 0.000000000000D+00 0.000000000000D+00 0.173637613432D-06 0.000000000000D+00  6 2 21 25 24 1 21 2 0.10539716D+00 0.83367878D-02 0.34508422D+05 0.34508422D+05 0.34508422D+05 0.12085681D+01  1  2  2  1  6  1        2 0.182259146645D-01 0.100000000000D+01
-.155175855965D-06 0.108599705664D-06 -.415435841819D-08 0.173637613432D-06 0.000000000000D+00  6 2 21 25 24 1 21 4 0.10539716D+00 0.83367878D-02 0.34508422D+05 0.34508422D+05 0.34508422D+05 0.12085681D+01  1  2  3  1  6  1        2 -.200736404481D-02 0.100000000000D+01
0.216784841288D-06 0.000000000000D+00 0.000000000000D+00 0.173637613432D-06 0.000000000000D+00  6 2 21 25 24 1 21 4 0.10539716D+00 0.83367878D-02 0.34508422D+05 0.34508422D+05 0.34508422D+05 0.12085681D+01  1  2 15  1  6  1        2 0.280434152049D-02 0.100000000000D+01
0.105618347261D-04 0.000000000000D+00 0.000000000000D+00 0.170613049121D-06 0.000000000000D+00  6 2 21 25 24 1 21 4 0.13802668D+00 0.83367878D-02 0.43822343D+05 0.43822343D+05 0.43822343D+05 0.11979960D+01  1  2 12  1  6  1        2 0.938148939301D-01 0.100000000000D+01
-.541435421303D-05 0.000000000000D+00 0.000000000000D+00 0.173637613432D-06 0.000000000000D+00  6 2 21 25 24 1 21 4 0.10539716D+00 0.83367878D-02 0.34508422D+05 0.34508422D+05 0.34508422D+05 0.12085681D+01  1  2  4  1  6  1        2 -.700404061283D-01 0.100000000000D+01
-.162039972901D-04 0.000000000000D+00 -.345698441766D-05 0.173637613432D-06 0.000000000000D+00  6 2 21 25 24 1 21 4 0.13988935D+00 0.83367878D-02 0.34508422D+05 0.34508422D+05 0.34508422D+05 0.12085681D+01  1  2  5  1  6  1        2 -.146870051279D+00 0.100000000000D+01
0.166452264038D-04 0.000000000000D+00 0.332291877707D-05 0.173637613432D-06 0.000000000000D+00  6 2 21 25 24 1 21 4 0.10539716D+00 0.83367878D-02 0.34508422D+05 0.34508422D+05 0.34508422D+05 0.12085681D+01  1  2  6  1  6  1        2 0.215323632616D+00 0.100000000000D+01
0.377915250754D-06 0.000000000000D+00 0.000000000000D+00 0.170613049121D-06 0.000000000000D+00  6 21 21 25 24 1 -2 4 0.13802668D+00 0.83367878D-02 0.43822343D+05 0.43822343D+05 0.43822343D+05 0.11979960D+01  1  2 12  4  6  1        2 0.319629349241D-02 0.100000000000D+01
-.529849721899D-06 0.000000000000D+00 -.128140843428D-06 0.173637613432D-06 0.000000000000D+00  6 21 21 25 24 1 -2 4 0.13988935D+00 0.83367878D-02 0.34508422D+05 0.34508422D+05 0.34508422D+05 0.12085681D+01  1  2  5  4  6  1        2 -.454442098347D-02 0.100000000000D+01
  </mgrwgt>
  </event>
  <event>
  5     66 0.43779995E-03 0.79555190E+02 0.75467711E-02 0.11632410E+00
        2 -1    0    0  502    0 0.00000000E+00 0.00000000E+00 0.17655345E+04 0.17655345E+04 0.32000000E+00 0.0000E+00 0.9000E+01
       21 -1    0    0  501  502 0.00000000E+00 0.00000000E+00 -.35881706E+02 0.35889544E+02 0.75000000E+00 0.0000E+00 0.9000E+01
       25  1    1    2    0    0 0.60672801E+02 0.12502220E+03 0.33718055E+03 0.38552232E+03 0.12500000E+03 0.0000E+00 0.9000E+01
       24  1    1    2    0    0 -.21953849E+02 -.55525381E+02 0.12389394E+04 0.12429815E+04 0.80419002E+02 0.0000E+00 0.9000E+01
        1  1    1    2  501    0 -.38718952E+02 -.69496816E+02 0.15353285E+03 0.17292022E+03 0.32000000E+00 0.0000E+00 0.9000E+01
#aMCatNLO 1  0  0  5  2 0.99712659D+01 0.00000000D+00  -5  6  0 0.00000000D+00 0.00000000D+00 0.00000000D+00 0.00000000D+00 0.00000000D+00
  <mgrwgt>
 0.3447567866D-01    8    2    0
 0.251709108102228D+03 0.000000000000000D+00 0.000000000000000D+00 0.251709108102228D+03
 0.251709108102228D+03 -.000000000000000D+00 -.000000000000000D+00 -.251709108102228D+03
 0.221056658283508D+03 0.606729051202959D+02 0.125022384126099D+03 -.118022236138624D+03
 0.191097328568791D+03 -.219537587477637D+02 -.555252186968102D+02 0.162745063204001D+03
 0.912642293521569D+02 -.387191463725322D+02 -.694971654292888D+02 -.447228270653767D+02
 0.000000000000000D+00 0.000000000000000D+00 -.000000000000000D+00 0.000000000000000D+00
 0.251709108102228D+03 0.000000000000000D+00 0.000000000000000D+00 0.251709108102228D+03
 0.251709108102228D+03 -.000000000000000D+00 -.000000000000000D+00 -.251709108102228D+03
 0.219946005109937D+03 0.589725648812882D+02 0.121970435982939D+03 -.119986226298164D+03
 0.190617108826521D+03 -.234255059084705D+02 -.581668641223996D+02 0.161045111115209D+03
 0.101053204227087D+02 -.778922647564162D+01 0.488421327940572D+01 -.419403295147480D+01
 0.827497818452889D+02 -.277578324971761D+02 -.686877851399449D+02 -.368648518655694D+02
0.956318387105D-05 0.000000000000D+00 0.000000000000D+00 0.736321502949D-07 0.000000000000D+00  6 2 21 25 24 1 21 2 0.27162130D+00 0.55208676D-02 0.33604409D+05 0.33604409D+05 0.33604409D+05 0.12097606D+01  1  2  2  3  6  5        1 0.406585012080D-01 0.100000000000D+01
-.423038911770D-06 0.504663077710D-06 -.193053129602D-07 0.736321502949D-07 0.000000000000D+00  6 2 21 25 24 1 21 4 0.27162130D+00 0.55208676D-02 0.33604409D+05 0.33604409D+05 0.33604409D+05 0.12097606D+01  1  2  3  3  6  5        1 -.263225541954D-02 0.100000000000D+01
0.107190849642D-05 0.000000000000D+00 0.000000000000D+00 0.736321502949D-07 0.000000000000D+00  6 2 21 25 24 1 21 4 0.27162130D+00 0.55208676D-02 0.33604409D+05 0.33604409D+05 0.33604409D+05 0.12097606D+01  1  2 15  3  6  5        1 0.666968657127D-02 0.100000000000D+01
0.123264674410D-05 0.000000000000D+00 0.000000000000D+00 0.735441586813D-07 0.000000000000D+00  6 2 21 25 24 1 21 4 0.27162130D+00 0.55208676D-02 0.34149380D+05 0.34149380D+05 0.34149380D+05 0.12090375D+01  1  2 12  3  6  5        1 0.764845222730D-02 0.100000000000D+01
-.446506074088D-05 0.000000000000D+00 0.000000000000D+00 0.736321502949D-07 0.000000000000D+00  6 2 21 25 24 1 21 4 0.27162130D+00 0.55208676D-02 0.33604409D+05 0.33604409D+05 0.33604409D+05 0.12097606D+01  1  2  4  3  6  5        1 -.277827405630D-01 0.100000000000D+01
-.102104009748D-05 0.000000000000D+00 0.000000000000D+00 0.736321502949D-07 0.000000000000D+00  6 2 21 25 24 1 21 4 0.27162130D+00 0.55208676D-02 0.33604409D+05 0.33604409D+05 0.33604409D+05 0.12097606D+01  1  2  5  3  6  5        1 -.635317048947D-02 0.100000000000D+01
0.261435904037D-05 0.000000000000D+00 -.000000000000D+00 0.736321502949D-07 0.000000000000D+00  6 2 21 25 24 1 21 4 0.27162130D+00 0.55208676D-02 0.33604409D+05 0.33604409D+05 0.33604409D+05 0.12097606D+01  1  2  6  3  6  5        1 0.162672051227D-01 0.100000000000D+01
0.402806633591D-15 0.000000000000D+00 0.000000000000D+00 0.736321502949D-07 0.110743829252D-08  6 2 21 25 24 1 21 4 0.27162130D+00 0.55208676D-02 0.34149380D+05 0.34149380D+05 0.34149380D+05 0.12090375D+01  1  2 11  3  6  5        1 0.249937567970D-11 0.100000000000D+01
  </mgrwgt>
  </event>
  <event>
  6     66 -.43779995E-03 0.40148851E+02 0.75467711E-02 0.11712272E+00
        2 -1    0    0  503    0 0.00000000E+00 0.00000000E+00 0.55517882E+03 0.55517891E+03 0.32000000E+00 0.0000E+00 0.9000E+01
       21 -1    0    0  501  502 0.00000000E+00 0.00000000E+00 -.25806608E+03 0.25806717E+03 0.75000000E+00 0.0000E+00 0.9000E+01
       25  1    1    2    0    0 0.66292040E+01 0.94122962E+02 0.35095540E+03 0.38431468E+03 0.12500000E+03 0.0000E+00 0.9000E+01
       24  1    1    2    0    0 0.29598166E+02 -.34867435E+02 0.14963694E+02 0.93717222E+02 0.80419002E+02 0.0000E+00 0.9000E+01
        1  1    1    2  501    0 -.57200028E+02 -.22301902E+02 -.19374812E+03 0.20324285E+03 0.32000000E+00 0.0000E+00 0.9000E+01
       21  1    1    2  503  502 0.20972658E+02 -.36953625E+02 0.12494176E+03 0.13197132E+03 0.75000000E+00 0.0000E+00 0.9000E+01
#aMCatNLO 2  0  0  1  2 0.42490267D+02 0.00000000D+00  -5  6  0 0.00000000D+00 0.00000000D+00 0.00000000D+00 0.00000000D+00 0.00000000D+00
  <mgrwgt>
 -.1504579279D+00    2    2    0
 0.328894747103464D+03 0.000000000000000D+00 0.000000000000000D+00 0.328894747103464D+03
 0.328894747103464D+03 0.000000000000000D+00 0.000000000000000D+00 -.328894747103464D+03
 0.301100057313198D+03 0.162900612059168D+02 0.771006657110960D+02 0.262347795429701D+03
 0.960491041414939D+02 0.326080616571866D+02 -.401708289071554D+02 -.901295023209254D+01
 0.260640332752237D+03 -.488981228631034D+02 -.369298368039405D+02 -.253334845197608D+03
 0.000000000000000D+00 0.000000000000000D+00 -.000000000000000D+00 0.000000000000000D+00
 0.428792137264002D+03 0.000000000000000D+00 0.000000000000000D+00 0.428792137264002D+03
 0.334129612543233D+03 0.000000000000000D+00 0.000000000000000D+00 -.334129612543233D+03
 0.305539600650825D+03 0.662921831344340D+01 0.941229794661958D+02 0.262347795429701D+03
 0.929528847673605D+02 0.295981718531776D+02 -.348674315553535D+02 -.901295023209254D+01
 0.260667921062267D+03 -.572000481865387D+02 -.223019229459250D+02 -.253334845197608D+03
 0.103761343326782D+03 0.209726580199177D+02 -.369536249649172D+02 0.946625247207688D+02
-.248588883159D-03 0.000000000000D+00 0.000000000000D+00 0.154155213824D-05 0.000000000000D+00  6 2 21 25 24 1 21 4 0.85820924D-01 0.39080381D-01 0.31154647D+05 0.31154647D+05 0.31154647D+05 0.12131808D+01  1  2 13  1  6  1        2 -.235711861064D+00 0.100000000000D+01
0.923127313850D-04 0.000000000000D+00 0.000000000000D+00 0.157630803606D-05 0.713716404265D-08  6 2 21 25 24 1 21 4 0.85411874D-01 0.39702405D-01 0.31154647D+05 0.31154647D+05 0.31154647D+05 0.12131808D+01  1  2  1  1  6  1        2 0.852539331615D-01 0.100000000000D+01
  </mgrwgt>
  </event>
  <event>
  5     66 0.43779995E-03 0.48961734E+02 0.75467711E-02 0.10150148E+00
        4 -1    0    0  502    0 0.00000000E+00 0.00000000E+00 0.21351435E+03 0.21351998E+03 0.15500000E+01 0.0000E+00 0.9000E+01
       21 -1    0    0  501  502 0.00000000E+00 0.00000000E+00 -.11417998E+03 0.11418245E+03 0.75000000E+00 0.0000E+00 0.9000E+01
       25  1    1    2    0    0 0.77416280E+02 0.27010951E+02 0.20689669E+01 0.14950636E+03 0.12500000E+03 0.0000E+00 0.9000E+01
       24  1    1    2    0    0 -.53623296E+02 0.15778475E+02 0.79389681E+02 0.12607282E+03 0.80419002E+02 0.0000E+00 0.9000E+01
        3  1    1    2  501    0 -.23792984E+02 -.42789425E+02 0.17875717E+02 0.52123241E+02 0.50000000E+00 0.0000E+00 0.9000E+01
#aMCatNLO 1  0  0  2  5 0.57353515D+02 0.00000000D+00  -5  6  0 0.00000000D+00 0.00000000D+00 0.00000000D+00 0.00000000D+00 0.00000000D+00
  <mgrwgt>
 0.1765270482D-01   12    2    0
 0.156142211927837D+03 0.000000000000000D+00 0.000000000000000D+00 0.156142211927837D+03
 0.156142211927837D+03 0.000000000000000D+00 0.000000000000000D+00 -.156142211927837D+03
 0.156230138490070D+03 0.774168992648614D+02 0.270120646855390D+02 -.453853306946735D+02
 0.107044109933962D+03 -.536228712879316D+02 0.157792381283925D+02 0.432068146952429D+02
 0.490101754316414D+02 -.237940279769297D+02 -.427913028139315D+02 0.217851599943060D+01
 0.000000000000000D+00 0.000000000000000D+00 0.000000000000000D+00 -.000000000000000D+00
 0.398405774559083D+03 0.000000000000000D+00 0.000000000000000D+00 0.398405774559083D+03
 0.686194090280967D+03 0.000000000000000D+00 0.000000000000000D+00 -.686194090280967D+03
 0.205959228418182D+03 0.244658899105688D+02 -.155356994561661D+03 -.453853306946735D+02
 0.187919721613437D+03 -.967457071038178D+02 -.132740518071063D+03 0.432068146952429D+02
 0.155197420037603D+03 -.536485717207516D+02 -.145613612024054D+03 0.217851599943060D+01
 0.535523494770829D+03 0.125928388914001D+03 0.433711124656778D+03 -.287788315721883D+03
0.481233923345D-05 0.000000000000D+00 0.000000000000D+00 0.261519623869D-06 0.000000000000D+00  6 4 21 25 24 3 21 2 0.32848984D-01 0.17566774D-01 0.21961918D+05 0.21961918D+05 0.21961918D+05 0.12293768D+01  1  2  2  2  6  2       21 0.787771763267D-02 0.100000000000D+01
-.197048321699D-06 0.253954118344D-06 -.971472641594D-08 0.261519623869D-06 0.000000000000D+00  6 4 21 25 24 3 21 4 0.32848984D-01 0.17566774D-01 0.21961918D+05 0.21961918D+05 0.21961918D+05 0.12293768D+01  1  2  3  2  6  2       21 -.487513863322D-03 0.100000000000D+01
0.547393234806D-06 0.000000000000D+00 0.000000000000D+00 0.261519623869D-06 0.000000000000D+00  6 4 21 25 24 3 21 4 0.32848984D-01 0.17566774D-01 0.21961918D+05 0.21961918D+05 0.21961918D+05 0.12293768D+01  1  2 15  2  6  2       21 0.135429618662D-02 0.100000000000D+01
0.224897578086D-03 0.000000000000D+00 -.125198867232D-03 0.261519623869D-06 0.000000000000D+00  6 4 21 25 24 3 21 4 0.32848984D-01 0.16786599D+00 0.21961918D+05 0.21961918D+05 0.21961918D+05 0.12293768D+01  1  2  5  2  6  2       21 0.434562692583D-02 0.100000000000D+01
0.989115410537D-04 0.000000000000D+00 -.546394610005D-04 0.261519623869D-06 0.000000000000D+00  6 4 -3 25 24 3 -3 4 0.32848984D-01 0.16786599D+00 0.21961918D+05 0.21961918D+05 0.21961918D+05 0.12293768D+01  1  2  5  5  6  2       21 0.106406539924D-03 0.100000000000D+01
0.989115410537D-04 0.000000000000D+00 -.546394610005D-04 0.261519623869D-06 0.000000000000D+00  6 4 3 25 24 3 3 4 0.32848984D-01 0.16786599D+00 0.21961918D+05 0.21961918D+05 0.21961918D+05 0.12293768D+01  1  2  5  6  6  2       21 0.106905894937D-03 0.100000000000D+01
0.989115410537D-04 0.000000000000D+00 -.546394610005D-04 0.261519623869D-06 0.000000000000D+00  6 4 -4 25 24 3 -4 4 0.32848984D-01 0.16786599D+00 0.21961918D+05 0.21961918D+05 0.21961918D+05 0.12293768D+01  1  2  5  7  6  2       21 0.828780545174D-04 0.100000000000D+01
0.989115410537D-04 0.000000000000D+00 -.546394610005D-04 0.261519623869D-06 0.000000000000D+00  6 4 4 25 24 3 4 4 0.32848984D-01 0.16786599D+00 0.21961918D+05 0.21961918D+05 0.21961918D+05 0.12293768D+01  1  2  5  8  6  2       21 0.828780545174D-04 0.100000000000D+01
0.989115410537D-04 0.000000000000D+00 -.546394610005D-04 0.261519623869D-06 0.000000000000D+00  6 4 -1 25 24 3 -1 4 0.32848984D-01 0.16786599D+00 0.21961918D+05 0.21961918D+05 0.21961918D+05 0.12293768D+01  1  2  5  9  6  2       21 0.224333201932D-03 0.100000000000D+01
0.989115410537D-04 0.000000000000D+00 -.546394610005D-04 0.261519623869D-06 0.000000000000D+00  6 4 -2 25 24 3 -2 4 0.32848984D-01 0.16786599D+00 0.21961918D+05 0.21961918D+05 0.21961918D+05 0.12293768D+01  1  2  5  9  6  2       21 0.164764383226D-03 0.100000000000D+01
0.989115410537D-04 0.000000000000D+00 -.546394610005D-04 0.261519623869D-06 0.000000000000D+00  6 4 1 25 24 3 1 4 0.32848984D-01 0.16786599D+00 0.21961918D+05 0.21961918D+05 0.21961918D+05 0.12293768D+01  1  2  5 10  6  2       21 0.130639308186D-02 0.100000000000D+01
0.989115410537D-04 0.000000000000D+00 -.546394610005D-04 0.261519623869D-06 0.000000000000D+00  6 4 2 25 24 3 2 4 0.32848984D-01 0.16786599D+00 0.21961918D+05 0.21961918D+05 0.21961918D+05 0.12293768D+01  1  2  5 10  6  2       21 0.248801872323D-02 0.100000000000D+01
  </mgrwgt>
  </event>
  <event>
  5     66 0.43779995E-03 0.39131645E+02 0.75467711E-02 0.11718376E+00
        2 -1    0    0  502    0 0.00000000E+00 0.00000000E+00 0.20893863E+04 0.20893863E+04 0.32000000E+00 0.0000E+00 0.9000E+01
       21 -1    0    0  501  502 0.00000000E+00 0.00000000E+00 -.32350870E+02 0.32359563E+02 0.75000000E+00 0.0000E+00 0.9000E+01
       25  1    1    2    0    0 0.36232280E+02 -.87979598E+02 0.16559510E+04 0.16633857E+04 0.12500000E+03 0.0000E+00 0.9000E+01
       24  1    1    2    0    0 0.28802902E+01 0.89199564E+02 0.40164182E+03 0.41922336E+03 0.80419002E+02 0.0000E+00 0.9000E+01
        1  1    1    2  501    0 -.39112571E+02 -.12199652E+01 -.55737351E+00 0.39136869E+02 0.32000000E+00 0.0000E+00 0.9000E+01
#aMCatNLO 1  0  0  5  5 0.54307950D+02 0.00000000D+00  -5  6  0 0.00000000D+00 0.00000000D+00 0.00000000D+00 0.00000000D+00 0.00000000D+00
  <mgrwgt>
 0.1237603023D+00    4    2    0
 0.260005218815899D+03 0.000000000000000D+00 0.000000000000000D+00 0.260005218815899D+03
 0.260005218815899D+03 -.000000000000000D+00 -.000000000000000D+00 -.260005218815899D+03
 0.236402745142174D+03 0.362323150184252D+02 -.879795973171330D+02 0.176658053071680D+03
 0.121716752276171D+03 0.288030811405325D+01 0.891995641968840D+02 -.195676621634369D+02
 0.161890940213452D+03 -.391126231324785D+02 -.121996687975098D+01 -.157090390908243D+03
 0.000000000000000D+00 0.000000000000000D+00 0.000000000000000D+00 0.000000000000000D+00
 0.260005218815899D+03 0.000000000000000D+00 0.000000000000000D+00 0.260005218815899D+03
 0.260005218815899D+03 -.000000000000000D+00 -.000000000000000D+00 -.260005218815899D+03
 0.189820225924214D+03 0.197329530665820D+02 -.884942310467628D+02 0.110390669010717D+03
 0.133925992620224D+03 -.701578492817597D+01 0.888908938806651D+02 -.593139384283298D+02
 0.119674852156807D+03 0.179301846061173D+02 0.294713431801020D+02 -.114595020179346D+03
 0.765893669305533D+02 -.306473527445234D+02 -.298680060140042D+02 0.635182895969585D+02
0.267305773426D-04 0.000000000000D+00 0.000000000000D+00 0.152405826138D-05 0.000000000000D+00  6 2 21 25 24 1 21 2 0.32144472D+00 0.49777275D-02 0.25020620D+05 0.25020620D+05 0.25020620D+05 0.12232593D+01  1  2  2  3  6  5        1 0.949879212271D-01 0.100000000000D+01
0.370493775142D-05 0.141061132073D-05 -.539613342340D-07 0.152405826138D-05 0.000000000000D+00  6 2 21 25 24 1 21 4 0.32144472D+00 0.49777275D-02 0.25020620D+05 0.25020620D+05 0.25020620D+05 0.12232593D+01  1  2  3  3  6  5        1 0.197005332708D-01 0.100000000000D+01
0.263658551605D-05 0.000000000000D+00 0.000000000000D+00 0.152405826138D-05 0.000000000000D+00  6 2 21 25 24 1 21 4 0.32144472D+00 0.49777275D-02 0.25020620D+05 0.25020620D+05 0.25020620D+05 0.12232593D+01  1  2 15  3  6  5        1 0.140197067172D-01 0.100000000000D+01
-.930508271617D-06 0.000000000000D+00 0.000000000000D+00 0.152405826138D-05 0.000000000000D+00  6 2 21 25 24 1 21 4 0.32144472D+00 0.49777275D-02 0.25020620D+05 0.25020620D+05 0.25020620D+05 0.12232593D+01  1  2  4  3  6  5        1 -.494785888285D-02 0.100000000000D+01
  </mgrwgt>
  </event>
  <event>
  5     66 -.43779995E-03 0.70298362E+02 0.75467711E-02 0.11536712E+00
        2 -1    0    0  502    0 0.00000000E+00 0.00000000E+00 0.84643757E+03 0.84643763E+03 0.32000000E+00 0.0000E+00 0.9000E+01
       21 -1    0    0  501  502 0.00000000E+00 0.00000000E+00 -.99674186E+02 0.99677008E+02 0.75000000E+00 0.0000E+00 0.9000E+01
       25  1    1    2    0    0 -.43741708E+02 -.63640784E+02 0.57125053E+03 0.58984375E+03 0.12500000E+03 0.0000E+00 0.9000E+01
       24  1    1    2    0    0 0.52055889E+01 0.48460339E+01 0.24467705E+03 0.25765221E+03 0.80419002E+02 0.0000E+00 0.9000E+01
        1  1    1    2  501    0 0.38536119E+02 0.58794750E+02 -.69164199E+02 0.98618679E+02 0.32000000E+00 0.0000E+00 0.9000E+01
#aMCatNLO 1  0  0  2  2 0.85759278D+02 0.00000000D+00  -5  6  0 0.00000000D+00 0.00000000D+00 0.00000000D+00 0.00000000D+00 0.00000000D+00
  <mgrwgt>
 -.3470153558D+00   12    2    0
 0.290464006686646D+03 0.000000000000000D+00 0.000000000000000D+00 0.290464006686646D+03
 0.290464006686646D+03 0.000000000000000D+00 0.000000000000000D+00 -.290464006686646D+03
 0.226311808308853D+03 -.437417203713871D+02 -.636408026297722D+02 0.172129441757105D+03
 0.105095071599302D+03 0.520558313231203D+01 0.484602518908603D+01 0.672842928491575D+02
 0.249521133465137D+03 0.385361372390750D+02 0.587947774406862D+02 -.239413734606263D+03
 0.000000000000000D+00 0.000000000000000D+00 -.000000000000000D+00 -.000000000000000D+00
 0.294741143482397D+03 0.000000000000000D+00 0.000000000000000D+00 0.294741143482397D+03
 0.192197242627382D+04 0.000000000000000D+00 0.000000000000000D+00 -.192197242627382D+04
 0.233151806621396D+03 -.767520313173572D+02 -.567040201385027D+02 0.172129441757105D+03
 0.105629141877509D+03 -.993396564734594D+01 0.802744802004162D+01 0.672842928491575D+02
 0.248443038146893D+03 0.275974143597982D+01 0.663128246476283D+02 -.239413734606263D+03
 0.162948958311042D+04 0.839262555287233D+02 -.176362525291672D+02 -.162723128279143D+04
0.168668669418D-05 0.000000000000D+00 0.000000000000D+00 0.404851112118D-05 0.000000000000D+00  6 2 21 25 24 1 21 2 0.13022139D+00 0.15334712D-01 0.22195258D+05 0.22195258D+05 0.22195258D+05 0.12288775D+01  1  2  2  2  6  2       21 0.404812021015D-02 0.100000000000D+01
0.121915134020D-06 0.890089022333D-07 -.340493447957D-08 0.404851112118D-05 0.000000000000D+00  6 2 21 25 24 1 21 4 0.13022139D+00 0.15334712D-01 0.22195258D+05 0.22195258D+05 0.22195258D+05 0.12288775D+01  1  2  3  2  6  2       21 0.441869225329D-03 0.100000000000D+01
0.161994898963D-06 0.000000000000D+00 0.000000000000D+00 0.404851112118D-05 0.000000000000D+00  6 2 21 25 24 1 21 4 0.13022139D+00 0.15334712D-01 0.22195258D+05 0.22195258D+05 0.22195258D+05 0.12288775D+01  1  2 15  2  6  2       21 0.587134329857D-03 0.100000000000D+01
-.273547979357D-02 0.000000000000D+00 -.206860627414D-04 0.404851112118D-05 0.000000000000D+00  6 2 21 25 24 1 21 4 0.13022139D+00 0.10172847D+00 0.22195258D+05 0.22195258D+05 0.22195258D+05 0.12288775D+01  1  2  5  2  6  2       21 -.212884689817D+00 0.100000000000D+01
-.117736132327D-02 0.000000000000D+00 -.883755422218D-05 0.404851112118D-05 0.000000000000D+00  6 2 -1 25 24 1 -1 4 0.13022139D+00 0.10172847D+00 0.22195258D+05 0.22195258D+05 0.22195258D+05 0.12288775D+01  1  2  5  5  6  2       21 -.104278194645D-01 0.100000000000D+01
-.117736132327D-02 0.000000000000D+00 -.883755422218D-05 0.404851112118D-05 0.000000000000D+00  6 2 1 25 24 1 1 4 0.13022139D+00 0.10172847D+00 0.22195258D+05 0.22195258D+05 0.22195258D+05 0.12288775D+01  1  2  5  6  6  2       21 -.389665751641D-01 0.100000000000D+01
-.117736132327D-02 0.000000000000D+00 -.883755422218D-05 0.404851112118D-05 0.000000000000D+00  6 2 -2 25 24 1 -2 4 0.13022139D+00 0.10172847D+00 0.22195258D+05 0.22195258D+05 0.22195258D+05 0.12288775D+01  1  2  5  7  6  2       21 -.772379964126D-02 0.100000000000D+01
-.117736132327D-02 0.000000000000D+00 -.883755422218D-05 0.404851112118D-05 0.000000000000D+00  6 2 2 25 24 1 2 4 0.13022139D+00 0.10172847D+00 0.22195258D+05 0.22195258D+05 0.22195258D+05 0.12288775D+01  1  2  5  8  6  2       21 -.645817808502D-01 0.100000000000D+01
-.117736132327D-02 0.000000000000D+00 -.883755422218D-05 0.404851112118D-05 0.000000000000D+00  6 2 -3 25 24 1 -3 4 0.13022139D+00 0.10172847D+00 0.22195258D+05 0.22195258D+05 0.22195258D+05 0.12288775D+01  1  2  5  9  6  2       21 -.486320470263D-02 0.100000000000D+01
-.117736132327D-02 0.000000000000D+00 -.883755422218D-05 0.404851112118D-05 0.000000000000D+00  6 2 -4 25 24 1 -4 4 0.13022139D+00 0.10172847D+00 0.22195258D+05 0.22195258D+05 0.22195258D+05 0.12288775D+01  1  2  5  9  6  2       21 -.388578896537D-02 0.100000000000D+01
-.117736132327D-02 0.000000000000D+00 -.883755422218D-05 0.404851112118D-05 0.000000000000D+00  6 2 3 25 24 1 3 4 0.13022139D+00 0.10172847D+00 0.22195258D+05 0.22195258D+05 0.22195258D+05 0.12288775D+01  1  2  5 10  6  2       21 -.487303199881D-02 0.100000000000D+01
-.117736132327D-02 0.000000000000D+00 -.883755422218D-05 0.404851112118D-05 0.000000000000D+00  6 2 4 25 24 1 4 4 0.13022139D+00 0.10172847D+00 0.22195258D+05 0.22195258D+05 0.22195258D+05 0.12288775D+01  1  2  5 10  6  2       21 -.388578896537D-02 0.100000000000D+01
  </mgrwgt>
  </event>
  <event>
  5     66 0.43779995E-03 0.44382252E+02 0.75467711E-02 0.11401863E+00
        2 -1    0    0  502    0 0.00000000E+00 0.00000000E+00 0.18191746E+04 0.18191746E+04 0.32000000E+00 0.0000E+00 0.9000E+01
       21 -1    0    0  501  502 0.00000000E+00 0.00000000E+00 -.44284683E+02 0.44291034E+02 0.75000000E+00 0.0000E+00 0.9000E+01
       25  1    1    2    0    0 0.15131407E+03 0.17871432E+02 0.11428657E+04 0.11597337E+04 0.12500000E+03 0.0000E+00 0.9000E+01
       24  1    1    2    0    0 -.87027438E+02 -.43691092E+01 0.62670836E+03 0.63782713E+03 0.80419002E+02 0.0000E+00 0.9000E+01
        1  1    1    2  501    0 -.64286628E+02 -.13502323E+02 0.53158750E+01 0.65904811E+02 0.32000000E+00 0.0000E+00 0.9000E+01
#aMCatNLO 1  0  0  1  2 0.49482805D+02 0.00000000D+00  -5  6  0 0.00000000D+00 0.00000000D+00 0.00000000D+00 0.00000000D+00 0.00000000D+00
  <mgrwgt>
 0.7432308976D-01    6    2    0
 0.283844171961086D+03 0.000000000000000D+00 0.000000000000000D+00 0.283844171961086D+03
 0.283844171961086D+03 0.000000000000000D+00 0.000000000000000D+00 -.283844171961086D+03
 0.233690252044842D+03 0.151314099914124D+03 0.178714392073651D+02 0.125581800945112D+03
 0.134282509136940D+03 -.870274186664527D+02 -.436910506691503D+01 0.630215489091624D+02
 0.199715582740391D+03 -.642866812476714D+02 -.135023341404501D+02 -.188603349854275D+03
 0.000000000000000D+00 -.000000000000000D+00 0.000000000000000D+00 -.000000000000000D+00
 0.307219292880954D+03 0.000000000000000D+00 0.000000000000000D+00 0.307219292880954D+03
 0.312371917125036D+03 0.000000000000000D+00 0.000000000000000D+00 -.312371917125036D+03
 0.247213120290138D+03 0.171836284273163D+03 0.138141059124799D+02 0.125581800945112D+03
 0.127423794647055D+03 -.758593019029945D+02 -.657709478149852D+01 0.630215489091624D+02
 0.195203943359003D+03 -.474337918985180D+02 -.168342303886786D+02 -.188603349854275D+03
 0.497503517097919D+02 -.485431904716509D+02 0.959721925769726D+01 -.515262424408198D+01
0.840440078358D-05 0.000000000000D+00 0.000000000000D+00 0.101070869275D-05 0.000000000000D+00  6 2 21 25 24 1 21 2 0.27987351D+00 0.68135189D-02 0.36355827D+05 0.36355827D+05 0.36355827D+05 0.12062361D+01  1  2  2  1  6  1        2 0.231896291455D-01 0.100000000000D+01
0.685499878557D-06 0.443512414165D-06 -.169660637669D-07 0.101070869275D-05 0.000000000000D+00  6 2 21 25 24 1 21 4 0.27987351D+00 0.68135189D-02 0.36355827D+05 0.36355827D+05 0.36355827D+05 0.12062361D+01  1  2  3  1  6  1        2 0.275206736454D-02 0.100000000000D+01
0.811200082784D-06 0.000000000000D+00 0.000000000000D+00 0.101070869275D-05 0.000000000000D+00  6 2 21 25 24 1 21 4 0.27987351D+00 0.68135189D-02 0.36355827D+05 0.36355827D+05 0.36355827D+05 0.12062361D+01  1  2 15  1  6  1        2 0.325671432451D-02 0.100000000000D+01
0.247034437680D-04 0.000000000000D+00 0.000000000000D+00 0.995284040074D-06 0.000000000000D+00  6 2 21 25 24 1 21 4 0.31577626D+00 0.68135189D-02 0.44838788D+05 0.44838788D+05 0.44838788D+05 0.11969964D+01  1  2 12  1  6  1        2 0.721892374151D-01 0.100000000000D+01
-.684474261481D-05 0.000000000000D+00 0.000000000000D+00 0.101070869275D-05 0.000000000000D+00  6 2 21 25 24 1 21 4 0.27987351D+00 0.68135189D-02 0.36355827D+05 0.36355827D+05 0.36355827D+05 0.12062361D+01  1  2  4  1  6  1        2 -.274794983313D-01 0.100000000000D+01
0.471001680618D-06 0.000000000000D+00 0.000000000000D+00 0.995284040074D-06 0.000000000000D+00  6 21 21 25 24 1 -2 4 0.31577626D+00 0.68135189D-02 0.44838788D+05 0.44838788D+05 0.44838788D+05 0.11969964D+01  1  2 12  4  6  1        2 0.414939837383D-03 0.100000000000D+01
  </mgrwgt>
  </event>
  <event>
  6     66 -.43779995E-03 0.98663088E+02 0.75467711E-02 0.10827397E+00
        2 -1    0    0  502    0 0.00000000E+00 0.00000000E+00 0.10470957E+04 0.10470957E+04 0.32000000E+00 0.0000E+00 0.9000E+01
       21 -1    0    0  501  503 0.00000000E+00 0.00000000E+00 -.11390981E+03 0.11391228E+03 0.75000000E+00 0.0000E+00 0.9000E+01
       25  1    1    2    0    0 0.16253380E+03 0.10637153E+03 0.61910870E+03 0.66079703E+03 0.12500000E+03 0.0000E+00 0.9000E+01
       24  1    1    2    0    0 -.14377483E+03 -.21355655E+03 0.26327091E+03 0.37690369E+03 0.80419002E+02 0.0000E+00 0.9000E+01
        1  1    1    2  501    0 -.20349264E+02 0.10019948E+03 0.53765206E+02 0.11551982E+03 0.32000000E+00 0.0000E+00 0.9000E+01
       21  1    1    2  502  503 0.15903008E+01 0.69855370E+01 -.29589506E+01 0.77874689E+01 0.75000000E+00 0.0000E+00 0.9000E+01
#aMCatNLO 2  0  0  2  1 0.71642714D+01 0.00000000D+00  -5  6  0 0.00000000D+00 0.00000000D+00 0.00000000D+00 0.00000000D+00 0.00000000D+00
  <mgrwgt>
 -.1372869635D+00    6    2    0
 0.336711736034912D+03 0.000000000000000D+00 0.000000000000000D+00 0.336711736034912D+03
 0.336711736034912D+03 0.000000000000000D+00 0.000000000000000D+00 -.336711736034912D+03
 0.272445002724758D+03 0.163175414522590D+03 0.109189643943407D+03 0.141607504252375D+03
 0.276902988038499D+03 -.143117915323353D+03 -.210671241934474D+03 -.730954100170615D+02
 0.124075481306567D+03 -.200574991992365D+02 0.101481597991067D+03 -.685120942353136D+02
 0.000000000000000D+00 0.000000000000000D+00 0.000000000000000D+00 -.000000000000000D+00
 0.337500927402321D+03 0.000000000000000D+00 0.000000000000000D+00 0.337500927402321D+03
 0.353392355281293D+03 0.000000000000000D+00 0.000000000000000D+00 -.353392355281293D+03
 0.270942435525486D+03 0.162533823411960D+03 0.106371398199825D+03 0.141607504252375D+03
 0.279441961685564D+03 -.143774805691184D+03 -.213556691019517D+03 -.730954100170615D+02
 0.123077182627491D+03 -.203493185181726D+02 0.100199755802388D+03 -.685120942353136D+02
 0.174317028450719D+02 0.159030079739718D+01 0.698553701730374D+01 -.158914278789719D+02
-.115558603768D-03 0.000000000000D+00 0.000000000000D+00 0.614716005999D-07 0.000000000000D+00  6 2 21 25 24 1 21 4 0.16071132D+00 0.17543389D-01 0.93059671D+05 0.93059671D+05 0.93059671D+05 0.11664522D+01  1  2 13  2  6  2       21 -.191775955903D+00 0.100000000000D+01
-.908806979636D-04 0.000000000000D+00 0.000000000000D+00 0.614716005999D-07 0.000000000000D+00  6 2 21 25 24 1 21 4 0.16071132D+00 0.17762991D-01 0.93059671D+05 0.93059671D+05 0.93059671D+05 0.11664522D+01  1  2 13  2  6  2       21 -.147362308586D+00 0.100000000000D+01
-.154702860157D-03 0.000000000000D+00 0.000000000000D+00 0.615672311116D-07 0.000000000000D+00  6 2 21 25 24 1 21 4 0.16071132D+00 0.16697188D-01 0.90986116D+05 0.90986116D+05 0.90986116D+05 0.11673592D+01  1  2  8  2  6  2       21 -.282552764026D+00 0.100000000000D+01
-.161957264580D-05 0.000000000000D+00 0.000000000000D+00 0.615672311116D-07 0.000000000000D+00  6 2 21 25 24 1 21 4 0.16071132D+00 0.17554889D-01 0.90986116D+05 0.90986116D+05 0.90986116D+05 0.11673592D+01  1  2  9  2  6  2       21 -.269488854863D-02 0.100000000000D+01
0.161417016616D-05 0.000000000000D+00 0.000000000000D+00 0.615672311116D-07 0.000000000000D+00  6 2 21 25 24 1 21 4 0.16071132D+00 0.16697188D-01 0.90986116D+05 0.90986116D+05 0.90986116D+05 0.11673592D+01  1  2 10  2  6  2       21 0.294815649557D-02 0.100000000000D+01
0.292140567863D-03 0.000000000000D+00 0.000000000000D+00 0.615672311116D-07 0.315993645150D-07  6 2 21 25 24 1 21 4 0.16108800D+00 0.17524363D-01 0.93059671D+05 0.93059671D+05 0.93059671D+05 0.11664522D+01  1  2  1  2  6  2       21 0.484150797116D+00 0.100000000000D+01
  </mgrwgt>
  </event>
  <event>
  5     66 0.43779995E-03 0.96538878E+02 0.75467711E-02 0.10886636E+00
        2 -1    0    0  502    0 0.00000000E+00 0.00000000E+00 0.12747174E+04 0.12747175E+04 0.32000000E+00 0.0000E+00 0.9000E+01
       21 -1    0    0  501  502 0.00000000E+00 0.00000000E+00 -.38583890E+02 0.38591178E+02 0.75000000E+00 0.0000E+00 0.9000E+01
       25  1    1    2    0    0 -.13797482E+02 0.10055453E+03 0.97870839E+03 0.99186526E+03 0.12500000E+03 0.0000E+00 0.9000E+01
       24  1    1    2    0    0 -.67821557E+01 -.62348283E+01 0.18113528E+03 0.19839878E+03 0.80419002E+02 0.0000E+00 0.9000E+01
        1  1    1    2  501    0 0.20579637E+02 -.94319703E+02 0.76289864E+02 0.12304460E+03 0.32000000E+00 0.0000E+00 0.9000E+01
#aMCatNLO 1  0  0  2  2 0.20227308D+03 0.00000000D+00  -5  6  0 0.00000000D+00 0.00000000D+00 0.00000000D+00 0.00000000D+00 0.00000000D+00
  <mgrwgt>
 0.6753429669D-01    3    2    0
 0.221784509899946D+03 0.000000000000000D+00 0.000000000000000D+00 0.221784509899946D+03
 0.221784509899946D+03 0.000000000000000D+00 0.000000000000000D+00 -.221784509899946D+03
 0.209236919131010D+03 -.137975032644637D+02 0.100554629889111D+03 0.133616928714021D+03
 0.826284816536109D+02 -.678216418799418D+01 -.623478924993864D+01 -.165945677240029D+02
 0.151703619015272D+03 0.205796674524579D+02 -.943198406391726D+02 -.117022360990018D+03
 0.000000000000000D+00 0.000000000000000D+00 -.000000000000000D+00 0.000000000000000D+00
 0.492670734796053D+03 0.000000000000000D+00 0.000000000000000D+00 0.492670734796053D+03
 0.284848740702659D+03 0.000000000000000D+00 0.000000000000000D+00 -.284848740702659D+03
 0.256532188488816D+03 -.103780807854338D+03 0.146832639467506D+03 0.133616928714021D+03
 0.922642206148534D+02 -.405702000222959D+02 0.111422458912103D+02 -.165945677240029D+02
 0.138715513598215D+03 -.355272594371993D+02 -.654643000269642D+02 -.117022360990018D+03
 0.290007552796828D+03 0.179878267313833D+03 -.925105853317518D+02 0.207821994093394D+03
0.883671968581D-05 0.000000000000D+00 0.000000000000D+00 0.401672824253D-06 0.000000000000D+00  6 2 21 25 24 1 21 2 0.19611094D+00 0.59365468D-02 0.28645773D+05 0.28645773D+05 0.28645773D+05 0.12170095D+01  1  2  2  2  6  2       21 0.612018863770D-01 0.100000000000D+01
-.235400436056D-06 0.466326509417D-06 -.178387910738D-07 0.401672824253D-06 0.000000000000D+00  6 2 21 25 24 1 21 4 0.19611094D+00 0.59365468D-02 0.28645773D+05 0.28645773D+05 0.28645773D+05 0.12170095D+01  1  2  3  2  6  2       21 -.241473194130D-02 0.100000000000D+01
0.852716222784D-06 0.000000000000D+00 0.000000000000D+00 0.401672824253D-06 0.000000000000D+00  6 2 21 25 24 1 21 4 0.19611094D+00 0.59365468D-02 0.28645773D+05 0.28645773D+05 0.28645773D+05 0.12170095D+01  1  2 15  2  6  2       21 0.874714225052D-02 0.100000000000D+01
  </mgrwgt>
  </event>
  <event>
  5     66 -.43779995E-03 0.29435442E+02 0.75467711E-02 0.11921197E+00
        2 -1    0    0  502    0 0.00000000E+00 0.00000000E+00 0.14233001E+04 0.14233001E+04 0.32000000E+00 0.0000E+00 0.9000E+01
       21 -1    0    0  501  502 0.00000000E+00 0.00000000E+00 -.28318937E+02 0.28328867E+02 0.75000000E+00 0.0000E+00 0.9000E+01
       25  1    1    2    0    0 0.49331325E+02 -.74057210E+02 0.94659751E+03 0.95895250E+03 0.12500000E+03 0.0000E+00 0.9000E+01
       24  1    1    2    0    0 -.22768152E+02 0.86739356E+02 0.44728337E+03 0.46321888E+03 0.80419002E+02 0.0000E+00 0.9000E+01
        1  1    1    2  501    0 -.26563173E+02 -.12682146E+02 0.11002943E+01 0.29457631E+02 0.32000000E+00 0.0000E+00 0.9000E+01
#aMCatNLO 1  0  0  5  5 0.13357876D+02 0.00000000D+00  -5  6  0 0.00000000D+00 0.00000000D+00 0.00000000D+00 0.00000000D+00 0.00000000D+00
  <mgrwgt>
 -.1180918111D+00    6    2    0
 0.200782417243582D+03 0.000000000000000D+00 0.000000000000000D+00 0.200782417243582D+03
 0.200782417243582D+03 -.000000000000000D+00 -.000000000000000D+00 -.200782417243582D+03
 0.178196902465742D+03 0.493313822982163D+02 -.740571827825555D+02 0.906150343334022D+02
 0.120703038718554D+03 -.227681133276042D+02 0.867393747527468D+02 0.773960493346338D+01
 0.102664893302867D+03 -.265632689706121D+02 -.126821919701913D+02 -.983546392668657D+02
 0.000000000000000D+00 0.000000000000000D+00 0.000000000000000D+00 -.000000000000000D+00
 0.200782417243582D+03 0.000000000000000D+00 0.000000000000000D+00 0.200782417243582D+03
 0.200782417243582D+03 -.000000000000000D+00 -.000000000000000D+00 -.200782417243582D+03
 0.177269854764219D+03 0.488550838074204D+02 -.742845835931285D+02 0.888514650115160D+02
 0.120582749558239D+03 -.230914179811878D+02 0.865850183109195D+02 0.654251911500861D+01
 0.712334418036260D+02 -.216118118826176D+02 -.212723708411771D+02 -.644563344996933D+02
 0.324787883610798D+02 -.415185394361493D+01 0.897193612338615D+01 -.309376496268314D+02
0.337242145025D-05 0.000000000000D+00 0.000000000000D+00 0.216104154410D-05 0.000000000000D+00  6 2 21 25 24 1 21 2 0.21897001D+00 0.43575261D-02 0.23001899D+05 0.23001899D+05 0.23001899D+05 0.12271953D+01  1  2  2  3  6  5        1 0.333916215037D-01 0.100000000000D+01
0.518629850270D-06 0.177967569313D-06 -.680794727037D-08 0.216104154410D-05 0.000000000000D+00  6 2 21 25 24 1 21 4 0.21897001D+00 0.43575261D-02 0.23001899D+05 0.23001899D+05 0.23001899D+05 0.12271953D+01  1  2  3  3  6  5        1 0.773357932899D-02 0.100000000000D+01
0.333264882041D-06 0.000000000000D+00 0.000000000000D+00 0.216104154410D-05 0.000000000000D+00  6 2 21 25 24 1 21 4 0.21897001D+00 0.43575261D-02 0.23001899D+05 0.23001899D+05 0.23001899D+05 0.12271953D+01  1  2 15  3  6  5        1 0.496949876968D-02 0.100000000000D+01
-.138816254668D-04 0.000000000000D+00 0.000000000000D+00 0.216104154410D-05 0.000000000000D+00  6 2 21 25 24 1 21 4 0.21897001D+00 0.43575261D-02 0.23001899D+05 0.23001899D+05 0.23001899D+05 0.12271953D+01  1  2  4  3  6  5        1 -.206996669604D+00 0.100000000000D+01
-.790924198041D-05 0.000000000000D+00 0.000000000000D+00 0.216104154410D-05 0.000000000000D+00  6 2 21 25 24 1 21 4 0.21897001D+00 0.43575261D-02 0.23001899D+05 0.23001899D+05 0.23001899D+05 0.12271953D+01  1  2  5  3  6  5        1 -.117939124128D+00 0.100000000000D+01
0.107801799203D-04 0.000000000000D+00 -.000000000000D+00 0.216104154410D-05 0.000000000000D+00  6 2 21 25 24 1 21 4 0.21897001D+00 0.43575261D-02 0.23001899D+05 0.23001899D+05 0.23001899D+05 0.12271953D+01  1  2  6  3  6  5        1 0.160749283041D+00 0.100000000000D+01
  </mgrwgt>
  </event>
  <event>
  5     66 0.43779995E-03 0.20669364E+02 0.75467711E-02 0.10508826E+00
        2 -1    0    0  502    0 0.00000000E+00 0.00000000E+00 0.74731604E+03 0.74731611E+03 0.32000000E+00 0.0000E+00 0.9000E+01
       21 -1    0    0  501  502 0.00000000E+00 0.00000000E+00 -.39037072E+03 0.39037144E+03 0.75000000E+00 0.0000E+00 0.9000E+01
       25  1    1    2    0    0 -.28732316E+03 -.10358979E+03 0.67252177E+02 0.33679860E+03 0.12500000E+03 0.0000E+00 0.9000E+01
       24  1    1    2    0    0 0.27899175E+03 0.84673923E+02 0.50281463E+03 0.58676728E+03 0.80419002E+02 0.0000E+00 0.9000E+01
        1  1    1    2  501    0 0.83314099E+01 0.18915862E+02 -.21312148E+03 0.21412167E+03 0.32000000E+00 0.0000E+00 0.9000E+01
#aMCatNLO 1  0  0  5  2 0.68621930D+02 0.00000000D+00  -5  6  0 0.00000000D+00 0.00000000D+00 0.00000000D+00 0.00000000D+00 0.00000000D+00
  <mgrwgt>
 0.1285774399D+01    4    2    0
 0.540121053104589D+03 0.000000000000000D+00 0.000000000000000D+00 0.540121053104589D+03
 0.540121053104589D+03 -.000000000000000D+00 -.000000000000000D+00 -.540121053104589D+03
 0.332486784926936D+03 -.287323164903818D+03 -.103589788773206D+03 -.404600633047766D+02
 0.451825153162401D+03 0.278991751496507D+03 0.846739184614105D+02 0.335667518841424D+03
 0.295930168119842D+03 0.833141340731063D+01 0.189158703117952D+02 -.295207455536648D+03
 0.000000000000000D+00 -.000000000000000D+00 0.000000000000000D+00 0.000000000000000D+00
 0.540121053104589D+03 0.000000000000000D+00 0.000000000000000D+00 0.540121053104589D+03
 0.540121053104589D+03 -.000000000000000D+00 -.000000000000000D+00 -.540121053104589D+03
 0.335465759626946D+03 -.286596645913577D+03 -.101940280061227D+03 -.662028529159422D+02
 0.428290777285550D+03 0.279949036474755D+03 0.868473646241081D+02 0.301747984563598D+03
 0.696024554601889D+02 0.627714822742477D+02 0.297429316627809D+02 0.442728305900241D+01
 0.246883113836494D+03 -.561238728354257D+02 -.146500162256616D+02 -.239972414706658D+03
0.491464548240D-02 0.000000000000D+00 0.000000000000D+00 0.296349412117D-05 0.000000000000D+00  6 2 21 25 24 1 21 2 0.11497176D+00 0.60057095D-01 0.10664493D+06 0.10664493D+06 0.10664493D+06 0.11610137D+01  1  2  2  3  6  5        1 0.791005840657D+00 0.100000000000D+01
0.278230832172D-02 0.259352967427D-03 -.992125325684D-05 0.296349412117D-05 0.000000000000D+00  6 2 21 25 24 1 21 4 0.11497176D+00 0.60057095D-01 0.10664493D+06 0.10664493D+06 0.10664493D+06 0.11610137D+01  1  2  3  3  6  5        1 0.603625306895D+00 0.100000000000D+01
0.490204268638D-03 0.000000000000D+00 0.000000000000D+00 0.296349412117D-05 0.000000000000D+00  6 2 21 25 24 1 21 4 0.11497176D+00 0.60057095D-01 0.10664493D+06 0.10664493D+06 0.10664493D+06 0.11610137D+01  1  2 15  3  6  5        1 0.106350435639D+00 0.100000000000D+01
-.991960961945D-03 0.000000000000D+00 0.000000000000D+00 0.296349412117D-05 0.000000000000D+00  6 2 21 25 24 1 21 4 0.11497176D+00 0.60057095D-01 0.10664493D+06 0.10664493D+06 0.10664493D+06 0.11610137D+01  1  2  4  3  6  5        1 -.215207184411D+00 0.100000000000D+01
  </mgrwgt>
  </event>
  <event>
  5     66 0.43779995E-03 0.99394420E+02 0.75467711E-02 0.99581895E-01
        2 -1    0    0  502    0 0.00000000E+00 0.00000000E+00 0.12472270E+04 0.12472270E+04 0.32000000E+00 0.0000E+00 0.9000E+01
       21 -1    0    0  501  502 0.00000000E+00 0.00000000E+00 -.39556153E+02 0.39563263E+02 0.75000000E+00 0.0000E+00 0.9000E+01
       25  1    1    2    0    0 -.66281866E+02 -.12345083E+03 0.45218562E+03 0.48962254E+03 0.12500000E+03 0.0000E+00 0.9000E+01
       24  1    1    2    0    0 -.33009172E+02 0.12797440E+03 0.44099126E+03 0.46734094E+03 0.80419002E+02 0.0000E+00 0.9000E+01
        1  1    1    2  501    0 0.99291038E+02 -.45235717E+01 0.31449393E+03 0.32982679E+03 0.32000000E+00 0.0000E+00 0.9000E+01
#aMCatNLO 1  0  0  2  2 0.51308930D+01 0.00000000D+00  -5  6  0 0.00000000D+00 0.00000000D+00 0.00000000D+00 0.00000000D+00 0.00000000D+00
  <mgrwgt>
 0.8618012330D-01    3    2    0
 0.222126318671185D+03 0.000000000000000D+00 0.000000000000000D+00 0.222126318671185D+03
 0.222126318671185D+03 0.000000000000000D+00 0.000000000000000D+00 -.222126318671185D+03
 0.188969440781285D+03 -.662820804764261D+02 -.123450820359273D+03 -.212374741796389D+02
 0.154861271460476D+03 -.330093481420437D+02 0.127974409842527D+03 0.690874841624329D+01
 0.100421925100609D+03 0.992914286184698D+02 -.452358948325399D+01 0.143287257633956D+02
 0.000000000000000D+00 -.000000000000000D+00 -.000000000000000D+00 0.000000000000000D+00
 0.106350661345214D+04 0.000000000000000D+00 0.000000000000000D+00 0.106350661345214D+04
 0.412921434204302D+03 0.000000000000000D+00 0.000000000000000D+00 -.412921434204302D+03
 0.194018586934014D+03 0.102551459071866D+03 -.105120787709055D+03 -.212374741796389D+02
 0.209686799815015D+03 0.127695260762067D+03 0.145421895313328D+03 0.690874841624329D+01
 0.258006206083700D+03 0.257298169514587D+03 0.126309920491188D+02 0.143287257633956D+02
 0.814716454823713D+03 -.487544889348520D+03 -.529320996533913D+02 0.650585179247838D+03
0.125650144919D-04 0.000000000000D+00 0.000000000000D+00 0.100038447260D-06 0.000000000000D+00  6 2 21 25 24 1 21 2 0.19188162D+00 0.60861121D-02 0.48813105D+05 0.48813105D+05 0.48813105D+05 0.11933164D+01  1  2  2  2  6  2       21 0.823654678438D-01 0.100000000000D+01
-.936228968488D-06 0.663074031667D-06 -.253651441180D-07 0.100038447260D-06 0.000000000000D+00  6 2 21 25 24 1 21 4 0.19188162D+00 0.60861121D-02 0.48813105D+05 0.48813105D+05 0.48813105D+05 0.11933164D+01  1  2  3  2  6  2       21 -.873927686213D-02 0.100000000000D+01
0.134488874609D-05 0.000000000000D+00 0.000000000000D+00 0.100038447260D-06 0.000000000000D+00  6 2 21 25 24 1 21 4 0.19188162D+00 0.60861121D-02 0.48813105D+05 0.48813105D+05 0.48813105D+05 0.11933164D+01  1  2 15  2  6  2       21 0.125539323140D-01 0.100000000000D+01
  </mgrwgt>
  </event>
  <event>
  6     66 -.43779995E-03 0.17274411E+02 0.75467711E-02 0.11973033E+00
        2 -1    0    0  502    0 0.00000000E+00 0.00000000E+00 0.35035468E+03 0.35035483E+03 0.32000000E+00 0.0000E+00 0.9000E+01
       21 -1    0    0  501  503 0.00000000E+00 0.00000000E+00 -.73288184E+02 0.73292021E+02 0.75000000E+00 0.0000E+00 0.9000E+01
       25  1    1    2    0    0 -.55399217E+02 -.35175777E+02 0.12734493E+03 0.19012664E+03 0.12500000E+03 0.0000E+00 0.9000E+01
       24  1    1    2    0    0 0.40160122E+02 0.54934979E+02 0.12660193E+03 0.16469958E+03 0.80419002E+02 0.0000E+00 0.9000E+01
        1  1    1    2  501    0 -.10718739E+02 -.29172907E+02 -.24532776E+01 0.31178051E+02 0.32000000E+00 0.0000E+00 0.9000E+01
       21  1    1    2  502  503 0.25957834E+02 0.94137055E+01 0.25572916E+02 0.37642576E+02 0.75000000E+00 0.0000E+00 0.9000E+01
#aMCatNLO 2  0  0  2  1 0.27612081D+02 0.00000000D+00  -5  6  0 0.00000000D+00 0.00000000D+00 0.00000000D+00 0.00000000D+00 0.00000000D+00
  <mgrwgt>
 -.3262884604D-01    2    2    0
 0.145763378079737D+03 0.000000000000000D+00 0.000000000000000D+00 0.145763378079737D+03
 0.145763378079737D+03 0.000000000000000D+00 0.000000000000000D+00 -.145763378079737D+03
 0.135816195770962D+03 -.430914081710562D+02 -.307119537409739D+02 0.457662243843620D+01
 0.114208597016109D+03 0.500475311639630D+02 0.585209790316599D+02 0.254347658842306D+02
 0.415019633724039D+02 -.695612299290678D+01 -.278090252906860D+02 -.300113883226667D+02
 0.000000000000000D+00 0.000000000000000D+00 0.000000000000000D+00 0.000000000000000D+00
 0.160929493912576D+03 0.000000000000000D+00 0.000000000000000D+00 0.160929493912576D+03
 0.159548577344085D+03 0.000000000000000D+00 0.000000000000000D+00 -.159548577344085D+03
 0.141252663276195D+03 -.553991108410304D+02 -.351753880959038D+02 0.457662243843620D+01
 0.108373750370146D+03 0.401601791149597D+02 0.549352938718720D+02 0.254347658842306D+02
 0.432050678442744D+02 -.107189022451708D+02 -.291736112442893D+02 -.300113883226667D+02
 0.276465897660447D+02 0.259578339712414D+02 0.941370546832117D+01 0.138091656849131D+01
-.217494949503D-05 0.000000000000D+00 0.000000000000D+00 0.109336813773D-05 0.000000000000D+00  6 2 21 25 24 1 21 4 0.48819804D-01 0.11760577D-01 0.23289477D+05 0.23289477D+05 0.23289477D+05 0.12266115D+01  1  2 13  2  6  2       21 -.381286804760D-01 0.100000000000D+01
0.323484285348D-06 0.000000000000D+00 0.000000000000D+00 0.111064311722D-05 0.113797958227D-07  6 2 21 25 24 1 21 4 0.53899315D-01 0.11275054D-01 0.23289477D+05 0.23289477D+05 0.23289477D+05 0.12266115D+01  1  2  1  2  6  2       21 0.549983443764D-02 0.100000000000D+01
  </mgrwgt>
  </event>
  <event>
  5     66 0.43779995E-03 0.10420812E+03 0.75467711E-02 0.11159035E+00
        2 -1    0    0  502    0 0.00000000E+00 0.00000000E+00 0.66079951E+02 0.66080725E+02 0.32000000E+00 0.0000E+00 0.9000E+01
       21 -1    0    0  501  502 0.00000000E+00 0.00000000E+00 -.93035877E+03 0.93035907E+03 0.75000000E+00 0.0000E+00 0.9000E+01
       25  1    1    2    0    0 0.47516732E+02 -.11801236E+03 -.22093311E+03 0.28393872E+03 0.12500000E+03 0.0000E+00 0.9000E+01
       24  1    1    2    0    0 -.97739474E+02 -.45624666E+02 -.26315030E+03 0.29555018E+03 0.80419002E+02 0.0000E+00 0.9000E+01
        1  1    1    2  501    0 0.50222742E+02 0.16363702E+03 -.38019541E+03 0.41695089E+03 0.32000000E+00 0.0000E+00 0.9000E+01
#aMCatNLO 1  0  0  2  1 0.77532241D+01 0.00000000D+00  -5  6  0 0.00000000D+00 0.00000000D+00 0.00000000D+00 0.00000000D+00 0.00000000D+00
  <mgrwgt>
 0.5780230358D-01   32    2    0
 0.247948780643011D+03 0.000000000000000D+00 0.000000000000000D+00 0.247948780643011D+03
 0.247948780643011D+03 0.000000000000000D+00 0.000000000000000D+00 -.247948780643011D+03
 0.185481978717373D+03 0.475167006943815D+02 -.118012457127790D+03 0.509292405862683D+02
 0.135235096389600D+03 -.977394967505633D+02 -.456247405030850D+02 -.136634245380337D+02
 0.175180486179049D+03 0.502227960561818D+02 0.163637197630875D+03 -.372658160482346D+02
 0.000000000000000D+00 0.000000000000000D+00 0.000000000000000D+00 -.000000000000000D+00
 0.251513982227781D+03 0.000000000000000D+00 0.000000000000000D+00 0.251513982227781D+03
 0.252230442179172D+03 0.000000000000000D+00 0.000000000000000D+00 -.252230442179172D+03
 0.186159808977892D+03 0.453296468817176D+02 -.119924601502653D+03 0.509292405862683D+02
 0.136871576645005D+03 -.993408019762276D+02 -.470247640242081D+02 -.136634245380337D+02
 0.172926781739358D+03 0.481742392126729D+02 0.161846141360463D+03 -.372658160482346D+02
 0.778625704469700D+01 0.583691588183703D+01 0.510322416639776D+01 -.716459951390245D+00
0.185772693306D-04 0.000000000000D+00 0.000000000000D+00 0.146438759114D-06 0.000000000000D+00  6 2 21 25 24 1 21 2 0.10166229D-01 0.14313220D+00 0.58580190D+05 0.58580190D+05 0.58580190D+05 0.11855295D+01  1  2  2  2  6  2       21 0.657185462079D-02 0.100000000000D+01
-.155050997804D-05 0.980349436157D-06 -.375021544300D-07 0.146438759114D-06 0.000000000000D+00  6 2 21 25 24 1 21 4 0.10166229D-01 0.14313220D+00 0.58580190D+05 0.58580190D+05 0.58580190D+05 0.11855295D+01  1  2  3  2  6  2       21 -.770912957873D-03 0.100000000000D+01
0.199885527703D-05 0.000000000000D+00 0.000000000000D+00 0.146438759114D-06 0.000000000000D+00  6 2 21 25 24 1 21 4 0.10166229D-01 0.14313220D+00 0.58580190D+05 0.58580190D+05 0.58580190D+05 0.11855295D+01  1  2 15  2  6  2       21 0.993830066106D-03 0.100000000000D+01
0.216229259272D-04 0.000000000000D+00 0.000000000000D+00 0.146105923226D-06 0.000000000000D+00  6 2 21 25 24 1 21 4 0.10166229D-01 0.14661667D+00 0.60482186D+05 0.60482186D+05 0.60482186D+05 0.11841814D+01  1  2 12  2  6  2       21 0.100319954912D-01 0.100000000000D+01
-.425117182817D-05 0.000000000000D+00 0.000000000000D+00 0.146438759114D-06 0.000000000000D+00  6 2 21 25 24 1 21 4 0.10166229D-01 0.14313220D+00 0.58580190D+05 0.58580190D+05 0.58580190D+05 0.11855295D+01  1  2  4  2  6  2       21 -.211368097909D-02 0.100000000000D+01
-.140039015055D-02 0.000000000000D+00 -.185645539003D-03 0.146438759114D-06 0.000000000000D+00  6 2 21 25 24 1 21 4 0.10166229D-01 0.14712617D+00 0.58580190D+05 0.58580190D+05 0.58580190D+05 0.11855295D+01  1  2  5  2  6  2       21 -.647628830836D+00 0.100000000000D+01
0.140343266529D-02 0.000000000000D+00 0.185364604949D-03 0.146438759114D-06 0.000000000000D+00  6 2 21 25 24 1 21 4 0.10166229D-01 0.14313220D+00 0.58580190D+05 0.58580190D+05 0.58580190D+05 0.11855295D+01  1  2  6  2  6  2       21 0.697786175191D+00 0.100000000000D+01
0.216699531007D-06 0.000000000000D+00 0.000000000000D+00 0.146438759114D-06 0.677318351097D-07  6 2 21 25 24 1 21 4 0.10312407D-01 0.14560385D+00 0.60482186D+05 0.60482186D+05 0.60482186D+05 0.11841814D+01  1  2 11  2  6  2       21 0.100591522060D-03 0.100000000000D+01
0.718085051496D-06 0.000000000000D+00 0.000000000000D+00 0.146105923226D-06 0.000000000000D+00  6 2 -1 25 24 1 -1 4 0.10166229D-01 0.14661667D+00 0.60482186D+05 0.60482186D+05 0.60482186D+05 0.11841814D+01  1  2 12  5  6  2       21 0.406050129379D-04 0.100000000000D+01
-.777445940323D-05 0.000000000000D+00 -.118237347544D-05 0.146438759114D-06 0.000000000000D+00  6 2 -1 25 24 1 -1 4 0.10166229D-01 0.14712617D+00 0.58580190D+05 0.58580190D+05 0.58580190D+05 0.11855295D+01  1  2  5  5  6  2       21 -.437757272937D-03 0.100000000000D+01
0.100850195724D-07 0.000000000000D+00 0.000000000000D+00 0.146438759114D-06 0.305864677176D-08  6 2 -1 25 24 1 -1 4 0.10312407D-01 0.14560385D+00 0.60482186D+05 0.60482186D+05 0.60482186D+05 0.11841814D+01  1  2 11  5  6  2       21 0.570393566267D-06 0.100000000000D+01
0.718085051496D-06 0.000000000000D+00 0.000000000000D+00 0.146105923226D-06 0.000000000000D+00  6 2 1 25 24 1 1 4 0.10166229D-01 0.14661667D+00 0.60482186D+05 0.60482186D+05 0.60482186D+05 0.11841814D+01  1  2 12  6  6  2       21 0.208677714230D-03 0.100000000000D+01
-.777445940323D-05 0.000000000000D+00 -.118237347544D-05 0.146438759114D-06 0.000000000000D+00  6 2 1 25 24 1 1 4 0.10166229D-01 0.14712617D+00 0.58580190D+05 0.58580190D+05 0.58580190D+05 0.11855295D+01  1  2  5  6  6  2       21 -.225672845253D-02 0.100000000000D+01
0.133666170113D-07 0.000000000000D+00 0.000000000000D+00 0.146438759114D-06 0.811105539976D-10  6 2 1 25 24 1 1 4 0.10312407D-01 0.14560385D+00 0.60482186D+05 0.60482186D+05 0.60482186D+05 0.11841814D+01  1  2 11  6  6  2       21 0.386056516201D-05 0.100000000000D+01
0.718085051496D-06 0.000000000000D+00 0.000000000000D+00 0.146105923226D-06 0.000000000000D+00  6 2 -2 25 24 1 -2 4 0.10166229D-01 0.14661667D+00 0.60482186D+05 0.60482186D+05 0.60482186D+05 0.11841814D+01  1  2 12  7  6  2       21 0.298353247239D-04 0.100000000000D+01
-.777445940323D-05 0.000000000000D+00 -.118237347544D-05 0.146438759114D-06 0.000000000000D+00  6 2 -2 25 24 1 -2 4 0.10166229D-01 0.14712617D+00 0.58580190D+05 0.58580190D+05 0.58580190D+05 0.11855295D+01  1  2  5  7  6  2       21 -.321609354336D-03 0.100000000000D+01
0.126564916319D-07 0.000000000000D+00 0.000000000000D+00 0.146438759114D-06 0.151796933122D-09  6 2 -2 25 24 1 -2 4 0.10312407D-01 0.14560385D+00 0.60482186D+05 0.60482186D+05 0.60482186D+05 0.11841814D+01  1  2 11  7  6  2       21 0.525880262596D-06 0.100000000000D+01
0.718085051496D-06 0.000000000000D+00 0.000000000000D+00 0.146105923226D-06 0.000000000000D+00  6 2 2 25 24 1 2 4 0.10166229D-01 0.14661667D+00 0.60482186D+05 0.60482186D+05 0.60482186D+05 0.11841814D+01  1  2 12  8  6  2       21 0.383058904781D-03 0.100000000000D+01
-.777445940323D-05 0.000000000000D+00 -.118237347544D-05 0.146438759114D-06 0.000000000000D+00  6 2 2 25 24 1 2 4 0.10166229D-01 0.14712617D+00 0.58580190D+05 0.58580190D+05 0.58580190D+05 0.11855295D+01  1  2  5  8  6  2       21 -.414616135226D-02 0.100000000000D+01
0.100268348839D-07 0.000000000000D+00 0.000000000000D+00 0.146438759114D-06 0.211825175745D-09  6 2 2 25 24 1 2 4 0.10312407D-01 0.14560385D+00 0.60482186D+05 0.60482186D+05 0.60482186D+05 0.11841814D+01  1  2 11  8  6  2       21 0.530492436538D-05 0.100000000000D+01
0.718085051496D-06 0.000000000000D+00 0.000000000000D+00 0.146105923226D-06 0.000000000000D+00  6 2 -3 25 24 1 -3 4 0.10166229D-01 0.14661667D+00 0.60482186D+05 0.60482186D+05 0.60482186D+05 0.11841814D+01  1  2 12  9  6  2       21 0.193907448000D-04 0.100000000000D+01
0.718085051496D-06 0.000000000000D+00 0.000000000000D+00 0.146105923226D-06 0.000000000000D+00  6 2 -4 25 24 1 -4 4 0.10166229D-01 0.14661667D+00 0.60482186D+05 0.60482186D+05 0.60482186D+05 0.11841814D+01  1  2 12  9  6  2       21 0.153624494266D-04 0.100000000000D+01
-.777445940323D-05 0.000000000000D+00 -.118237347544D-05 0.146438759114D-06 0.000000000000D+00  6 2 -3 25 24 1 -3 4 0.10166229D-01 0.14712617D+00 0.58580190D+05 0.58580190D+05 0.58580190D+05 0.11855295D+01  1  2  5  9  6  2       21 -.208969742975D-03 0.100000000000D+01
-.777445940323D-05 0.000000000000D+00 -.118237347544D-05 0.146438759114D-06 0.000000000000D+00  6 2 -4 25 24 1 -4 4 0.10166229D-01 0.14712617D+00 0.58580190D+05 0.58580190D+05 0.58580190D+05 0.11855295D+01  1  2  5  9  6  2       21 -.165483965058D-03 0.100000000000D+01
0.126153372215D-07 0.000000000000D+00 0.000000000000D+00 0.146438759114D-06 0.151303343472D-09  6 2 -3 25 24 1 -3 4 0.10312407D-01 0.14560385D+00 0.60482186D+05 0.60482186D+05 0.60482186D+05 0.11841814D+01  1  2 11  9  6  2       21 0.340544751792D-06 0.100000000000D+01
0.126153372215D-07 0.000000000000D+00 0.000000000000D+00 0.146438759114D-06 0.151303343472D-09  6 2 -4 25 24 1 -4 4 0.10312407D-01 0.14560385D+00 0.60482186D+05 0.60482186D+05 0.60482186D+05 0.11841814D+01  1  2 11  9  6  2       21 0.269909546818D-06 0.100000000000D+01
0.718085051496D-06 0.000000000000D+00 0.000000000000D+00 0.146105923226D-06 0.000000000000D+00  6 2 3 25 24 1 3 4 0.10166229D-01 0.14661667D+00 0.60482186D+05 0.60482186D+05 0.60482186D+05 0.11841814D+01  1  2 12 10  6  2       21 0.194641473538D-04 0.100000000000D+01
0.718085051496D-06 0.000000000000D+00 0.000000000000D+00 0.146105923226D-06 0.000000000000D+00  6 2 4 25 24 1 4 4 0.10166229D-01 0.14661667D+00 0.60482186D+05 0.60482186D+05 0.60482186D+05 0.11841814D+01  1  2 12 10  6  2       21 0.153624494266D-04 0.100000000000D+01
-.777445940323D-05 0.000000000000D+00 -.118237347544D-05 0.146438759114D-06 0.000000000000D+00  6 2 3 25 24 1 3 4 0.10166229D-01 0.14712617D+00 0.58580190D+05 0.58580190D+05 0.58580190D+05 0.11855295D+01  1  2  5 10  6  2       21 -.209765129662D-03 0.100000000000D+01
-.777445940323D-05 0.000000000000D+00 -.118237347544D-05 0.146438759114D-06 0.000000000000D+00  6 2 4 25 24 1 4 4 0.10166229D-01 0.14712617D+00 0.58580190D+05 0.58580190D+05 0.58580190D+05 0.11855295D+01  1  2  5 10  6  2       21 -.165483965058D-03 0.100000000000D+01
0.126153372215D-07 0.000000000000D+00 0.000000000000D+00 0.146438759114D-06 0.151303343472D-09  6 2 3 25 24 1 3 4 0.10312407D-01 0.14560385D+00 0.60482186D+05 0.60482186D+05 0.60482186D+05 0.11841814D+01  1  2 11 10  6  2       21 0.341819240739D-06 0.100000000000D+01
0.126153372215D-07 0.000000000000D+00 0.000000000000D+00 0.146438759114D-06 0.151303343472D-09  6 2 4 25 24 1 4 4 0.10312407D-01 0.14560385D+00 0.60482186D+05 0.60482186D+05 0.60482186D+05 0.11841814D+01  1  2 11 10  6  2       21 0.269909546818D-06 0.100000000000D+01
  </mgrwgt>
  </event>
  <event>
  5     66 0.43779995E-03 0.79441968E+02 0.75467711E-02 0.11172857E+00
        2 -1    0    0  502    0 0.00000000E+00 0.00000000E+00 0.70471645E+03 0.70471653E+03 0.32000000E+00 0.0000E+00 0.9000E+01
       21 -1    0    0  501  502 0.00000000E+00 0.00000000E+00 -.85945496E+02 0.85948769E+02 0.75000000E+00 0.0000E+00 0.9000E+01
       25  1    1    2    0    0 -.42624767E+02 0.13768782E+03 0.93051503E+02 0.21226961E+03 0.12500000E+03 0.0000E+00 0.9000E+01
       24  1    1    2    0    0 0.80646515E+02 -.63320532E+02 0.17688839E+03 0.21970451E+03 0.80419002E+02 0.0000E+00 0.9000E+01
        1  1    1    2  501    0 -.38021749E+02 -.74367291E+02 0.34883106E+03 0.35869117E+03 0.32000000E+00 0.0000E+00 0.9000E+01
#aMCatNLO 1  0  0  2  1 0.76280873D+02 0.00000000D+00  -5  6  0 0.00000000D+00 0.00000000D+00 0.00000000D+00 0.00000000D+00 0.00000000D+00
  <mgrwgt>
 0.6638814844D-01   23    2    0
 0.246106740556850D+03 0.000000000000000D+00 0.000000000000000D+00 0.246106740556850D+03
 0.246106740556850D+03 0.000000000000000D+00 0.000000000000000D+00 -.246106740556850D+03
 0.224001804461894D+03 -.426247198327142D+02 0.137687913619669D+03 -.117375381168412D+03
 0.130551727910358D+03 0.806465424555853D+02 -.633204782384728D+02 0.794920949656584D+01
 0.137659948741447D+03 -.380218226228711D+02 -.743674353811960D+02 0.109426171671846D+03
 0.000000000000000D+00 -.000000000000000D+00 0.000000000000000D+00 -.000000000000000D+00
 0.277718702174971D+03 0.000000000000000D+00 0.000000000000000D+00 0.277718702174971D+03
 0.299776586168099D+03 0.000000000000000D+00 0.000000000000000D+00 -.299776586168099D+03
 0.205467891994322D+03 -.234150012670113D+02 0.110755642076719D+03 -.117375381168412D+03
 0.147356827044574D+03 0.930770938349646D+02 -.807482705318882D+02 0.794920949656584D+01
 0.145264512522503D+03 -.253669151379429D+02 -.921097778090286D+02 0.109426171671846D+03
 0.794060567816703D+02 -.442951774300103D+02 0.621024062641979D+02 -.220578839931275D+02
0.855569374137D-05 0.000000000000D+00 0.000000000000D+00 0.634824516532D-07 0.000000000000D+00  6 2 21 25 24 1 21 2 0.10841817D+00 0.13222641D-01 0.40929413D+05 0.40929413D+05 0.40929413D+05 0.12009886D+01  1  2  2  2  6  2       21 0.318713964565D-01 0.100000000000D+01
-.104966332672D-05 0.451496362894D-06 -.172714806592D-07 0.634824516532D-07 0.000000000000D+00  6 2 21 25 24 1 21 4 0.10841817D+00 0.13222641D-01 0.40929413D+05 0.40929413D+05 0.40929413D+05 0.12009886D+01  1  2  3  2  6  2       21 -.563992894948D-02 0.100000000000D+01
0.987758034886D-06 0.000000000000D+00 0.000000000000D+00 0.634824516532D-07 0.000000000000D+00  6 2 21 25 24 1 21 4 0.10841817D+00 0.13222641D-01 0.40929413D+05 0.40929413D+05 0.40929413D+05 0.12009886D+01  1  2 15  2  6  2       21 0.530730663271D-02 0.100000000000D+01
0.698296776708D-05 0.000000000000D+00 0.000000000000D+00 0.617945296404D-07 0.000000000000D+00  6 2 21 25 24 1 21 4 0.10841817D+00 0.16804832D-01 0.59439400D+05 0.59439400D+05 0.59439400D+05 0.11849146D+01  1  2 12  2  6  2       21 0.227819153800D-01 0.100000000000D+01
-.776416556654D-05 0.000000000000D+00 0.000000000000D+00 0.634824516532D-07 0.000000000000D+00  6 2 21 25 24 1 21 4 0.10841817D+00 0.13222641D-01 0.40929413D+05 0.40929413D+05 0.40929413D+05 0.12009886D+01  1  2  4  2  6  2       21 -.417175117320D-01 0.100000000000D+01
-.308742481033D-04 0.000000000000D+00 -.119363740757D-04 0.634824516532D-07 0.000000000000D+00  6 2 21 25 24 1 21 4 0.10841817D+00 0.18133949D-01 0.40929413D+05 0.40929413D+05 0.40929413D+05 0.12009886D+01  1  2  5  2  6  2       21 -.931254818729D-01 0.100000000000D+01
0.280541305397D-04 0.000000000000D+00 0.985407835014D-05 0.634824516532D-07 0.000000000000D+00  6 2 21 25 24 1 21 4 0.10841817D+00 0.13222641D-01 0.40929413D+05 0.40929413D+05 0.40929413D+05 0.12009886D+01  1  2  6  2  6  2       21 0.150737192540D+00 0.100000000000D+01
0.499237718101D-06 0.000000000000D+00 0.000000000000D+00 0.617945296404D-07 0.000000000000D+00  6 2 -1 25 24 1 -1 4 0.10841817D+00 0.16804832D-01 0.59439400D+05 0.59439400D+05 0.59439400D+05 0.11849146D+01  1  2 12  5  6  2       21 0.124895532379D-03 0.100000000000D+01
-.273164099042D-05 0.000000000000D+00 -.119728799952D-05 0.634824516532D-07 0.000000000000D+00  6 2 -1 25 24 1 -1 4 0.10841817D+00 0.18133949D-01 0.40929413D+05 0.40929413D+05 0.40929413D+05 0.12009886D+01  1  2  5  5  6  2       21 -.638133302020D-03 0.100000000000D+01
0.499237718101D-06 0.000000000000D+00 0.000000000000D+00 0.617945296404D-07 0.000000000000D+00  6 2 1 25 24 1 1 4 0.10841817D+00 0.16804832D-01 0.59439400D+05 0.59439400D+05 0.59439400D+05 0.11849146D+01  1  2 12  6  6  2       21 0.177667479478D-03 0.100000000000D+01
-.273164099042D-05 0.000000000000D+00 -.119728799952D-05 0.634824516532D-07 0.000000000000D+00  6 2 1 25 24 1 1 4 0.10841817D+00 0.18133949D-01 0.40929413D+05 0.40929413D+05 0.40929413D+05 0.12009886D+01  1  2  5  6  6  2       21 -.929339025884D-03 0.100000000000D+01
0.499237718101D-06 0.000000000000D+00 0.000000000000D+00 0.617945296404D-07 0.000000000000D+00  6 2 -2 25 24 1 -2 4 0.10841817D+00 0.16804832D-01 0.59439400D+05 0.59439400D+05 0.59439400D+05 0.11849146D+01  1  2 12  7  6  2       21 0.115924290694D-03 0.100000000000D+01
-.273164099042D-05 0.000000000000D+00 -.119728799952D-05 0.634824516532D-07 0.000000000000D+00  6 2 -2 25 24 1 -2 4 0.10841817D+00 0.18133949D-01 0.40929413D+05 0.40929413D+05 0.40929413D+05 0.12009886D+01  1  2  5  7  6  2       21 -.588720407044D-03 0.100000000000D+01
0.499237718101D-06 0.000000000000D+00 0.000000000000D+00 0.617945296404D-07 0.000000000000D+00  6 2 2 25 24 1 2 4 0.10841817D+00 0.16804832D-01 0.59439400D+05 0.59439400D+05 0.59439400D+05 0.11849146D+01  1  2 12  8  6  2       21 0.214569817001D-03 0.100000000000D+01
-.273164099042D-05 0.000000000000D+00 -.119728799952D-05 0.634824516532D-07 0.000000000000D+00  6 2 2 25 24 1 2 4 0.10841817D+00 0.18133949D-01 0.40929413D+05 0.40929413D+05 0.40929413D+05 0.12009886D+01  1  2  5  8  6  2       21 -.113347898031D-02 0.100000000000D+01
0.499237718101D-06 0.000000000000D+00 0.000000000000D+00 0.617945296404D-07 0.000000000000D+00  6 2 -3 25 24 1 -3 4 0.10841817D+00 0.16804832D-01 0.59439400D+05 0.59439400D+05 0.59439400D+05 0.11849146D+01  1  2 12  9  6  2       21 0.783566188637D-04 0.100000000000D+01
0.499237718101D-06 0.000000000000D+00 0.000000000000D+00 0.617945296404D-07 0.000000000000D+00  6 2 -4 25 24 1 -4 4 0.10841817D+00 0.16804832D-01 0.59439400D+05 0.59439400D+05 0.59439400D+05 0.11849146D+01  1  2 12  9  6  2       21 0.679434615829D-04 0.100000000000D+01
-.273164099042D-05 0.000000000000D+00 -.119728799952D-05 0.634824516532D-07 0.000000000000D+00  6 2 -3 25 24 1 -3 4 0.10841817D+00 0.18133949D-01 0.40929413D+05 0.40929413D+05 0.40929413D+05 0.12009886D+01  1  2  5  9  6  2       21 -.392833363420D-03 0.100000000000D+01
-.273164099042D-05 0.000000000000D+00 -.119728799952D-05 0.634824516532D-07 0.000000000000D+00  6 2 -4 25 24 1 -4 4 0.10841817D+00 0.18133949D-01 0.40929413D+05 0.40929413D+05 0.40929413D+05 0.12009886D+01  1  2  5  9  6  2       21 -.338544338178D-03 0.100000000000D+01
0.499237718101D-06 0.000000000000D+00 0.000000000000D+00 0.617945296404D-07 0.000000000000D+00  6 2 3 25 24 1 3 4 0.10841817D+00 0.16804832D-01 0.59439400D+05 0.59439400D+05 0.59439400D+05 0.11849146D+01  1  2 12 10  6  2       21 0.783489116058D-04 0.100000000000D+01
0.499237718101D-06 0.000000000000D+00 0.000000000000D+00 0.617945296404D-07 0.000000000000D+00  6 2 4 25 24 1 4 4 0.10841817D+00 0.16804832D-01 0.59439400D+05 0.59439400D+05 0.59439400D+05 0.11849146D+01  1  2 12 10  6  2       21 0.679434615829D-04 0.100000000000D+01
-.273164099042D-05 0.000000000000D+00 -.119728799952D-05 0.634824516532D-07 0.000000000000D+00  6 2 3 25 24 1 3 4 0.10841817D+00 0.18133949D-01 0.40929413D+05 0.40929413D+05 0.40929413D+05 0.12009886D+01  1  2  5 10  6  2       21 -.392795833374D-03 0.100000000000D+01
-.273164099042D-05 0.000000000000D+00 -.119728799952D-05 0.634824516532D-07 0.000000000000D+00  6 2 4 25 24 1 4 4 0.10841817D+00 0.18133949D-01 0.40929413D+05 0.40929413D+05 0.40929413D+05 0.12009886D+01  1  2  5 10  6  2       21 -.338544338178D-03 0.100000000000D+01
  </mgrwgt>
  </event>
  <event>
  5     66 -.43779995E-03 0.84110972E+02 0.75467711E-02 0.11659874E+00
        2 -1    0    0  502    0 0.00000000E+00 0.00000000E+00 0.44484678E+03 0.44484690E+03 0.32000000E+00 0.0000E+00 0.9000E+01
       21 -1    0    0  501  502 -.00000000E+00 -.00000000E+00 -.49751532E+03 0.49751589E+03 0.75000000E+00 0.0000E+00 0.9000E+01
       25  1    1    2    0    0 -.43589337E+02 -.81900197E+01 0.39662825E+03 0.41821773E+03 0.12500000E+03 0.0000E+00 0.9000E+01
       24  1    1    2    0    0 0.94376465E+02 0.75237155E+02 -.13275243E+03 0.19661630E+03 0.80419002E+02 0.0000E+00 0.9000E+01
        1  1    1    2  501    0 -.50787128E+02 -.67047135E+02 -.31654435E+03 0.32752875E+03 0.32000000E+00 0.0000E+00 0.9000E+01
#aMCatNLO 1  0  0  5  1 0.38279752D+02 0.00000000D+00  -5  6  0 0.00000000D+00 0.00000000D+00 0.00000000D+00 0.00000000D+00 0.00000000D+00
  <mgrwgt>
 -.1490120297D-01    6    2    0
 0.470444907810082D+03 0.000000000000000D+00 0.000000000000000D+00 0.470444907810082D+03
 0.470444907810082D+03 -.000000000000000D+00 -.000000000000000D+00 -.470444907810082D+03
 0.441074733542100D+03 -.435893244169695D+02 -.819000298929365D+01 0.420659975772764D+03
 0.189492960500886D+03 0.943764701290359D+02 0.752371617135180D+02 -.121954161504629D+03
 0.310322121577176D+03 -.507871457120664D+02 -.670471587242242D+02 -.298705814268136D+03
 0.000000000000000D+00 -.000000000000000D+00 0.000000000000000D+00 0.000000000000000D+00
 0.470444907810082D+03 0.000000000000000D+00 0.000000000000000D+00 0.470444907810082D+03
 0.470444907810082D+03 -.000000000000000D+00 -.000000000000000D+00 -.470444907810082D+03
 0.432365418075147D+03 -.451807526688358D+02 -.102909429240957D+02 0.411299952381844D+03
 0.191448106638721D+03 0.936823866530020D+02 0.743208604657704D+02 -.126036430097831D+03
 0.267309040508296D+03 -.104179297132498D+02 -.399802973772762D+02 -.264096886955489D+03
 0.497672503979993D+02 -.380837042709164D+02 -.240496201643984D+02 -.211666353285237D+02
0.864679952025D-04 0.000000000000D+00 0.000000000000D+00 0.177693889252D-06 0.000000000000D+00  6 2 21 25 24 1 21 2 0.68438019D-01 0.76540871D-01 0.32721169D+05 0.32721169D+05 0.32721169D+05 0.12109607D+01  1  2  2  3  6  5        1 0.171848136141D-01 0.100000000000D+01
0.445749541425D-05 0.456304146932D-05 -.174553969780D-06 0.177693889252D-06 0.000000000000D+00  6 2 21 25 24 1 21 4 0.68438019D-01 0.76540871D-01 0.32721169D+05 0.32721169D+05 0.32721169D+05 0.12109607D+01  1  2  3  3  6  5        1 0.129909350507D-02 0.100000000000D+01
0.778989016945D-05 0.000000000000D+00 0.000000000000D+00 0.177693889252D-06 0.000000000000D+00  6 2 21 25 24 1 21 4 0.68438019D-01 0.76540871D-01 0.32721169D+05 0.32721169D+05 0.32721169D+05 0.12109607D+01  1  2 15  3  6  5        1 0.227028741118D-02 0.100000000000D+01
-.152949152098D-03 0.000000000000D+00 0.000000000000D+00 0.177693889252D-06 0.000000000000D+00  6 2 21 25 24 1 21 4 0.68438019D-01 0.76540871D-01 0.32721169D+05 0.32721169D+05 0.32721169D+05 0.12109607D+01  1  2  4  3  6  5        1 -.445755366259D-01 0.100000000000D+01
-.176880147854D-03 0.000000000000D+00 0.000000000000D+00 0.177693889252D-06 0.000000000000D+00  6 2 21 25 24 1 21 4 0.68438019D-01 0.76540871D-01 0.32721169D+05 0.32721169D+05 0.32721169D+05 0.12109607D+01  1  2  5  3  6  5        1 -.515499916208D-01 0.100000000000D+01
0.207487243567D-03 0.000000000000D+00 -.000000000000D+00 0.177693889252D-06 0.000000000000D+00  6 2 21 25 24 1 21 4 0.68438019D-01 0.76540871D-01 0.32721169D+05 0.32721169D+05 0.32721169D+05 0.12109607D+01  1  2  6  3  6  5        1 0.604701307470D-01 0.100000000000D+01
  </mgrwgt>
  </event>
  <event>
  5     66 0.43779995E-03 0.84755525E+02 0.75467711E-02 0.11965424E+00
        2 -1    0    0  502    0 0.00000000E+00 0.00000000E+00 0.17370552E+03 0.17370582E+03 0.32000000E+00 0.0000E+00 0.9000E+01
       21 -1    0    0  501  502 0.00000000E+00 0.00000000E+00 -.16049632E+03 0.16049807E+03 0.75000000E+00 0.0000E+00 0.9000E+01
       25  1    1    2    0    0 -.35762213E+02 0.41775767E+01 0.11385343E+02 0.13057953E+03 0.12500000E+03 0.0000E+00 0.9000E+01
       24  1    1    2    0    0 -.29561918E+02 -.58179407E+02 0.39537503E+02 0.11085658E+03 0.80419002E+02 0.0000E+00 0.9000E+01
        1  1    1    2  501    0 0.65324131E+02 0.54001830E+02 -.37713641E+02 0.92767779E+02 0.32000000E+00 0.0000E+00 0.9000E+01
#aMCatNLO 1  0  0  5  2 0.25310547D+02 0.00000000D+00  -5  6  0 0.00000000D+00 0.00000000D+00 0.00000000D+00 0.00000000D+00 0.00000000D+00
  <mgrwgt>
 0.2338817119D-01    4    2    0
 0.166971370966038D+03 0.000000000000000D+00 0.000000000000000D+00 0.166971370966038D+03
 0.166971370966038D+03 -.000000000000000D+00 -.000000000000000D+00 -.166971370966038D+03
 0.130231335520331D+03 -.357623593643461D+02 0.417745554465754D+01 0.622922702081520D+01
 0.109379461359149D+03 -.295620410350234D+02 -.581795088351989D+02 0.351835344214548D+02
 0.943319450525960D+02 0.653244003993696D+02 0.540020532905414D+02 -.414127614422700D+02
 0.000000000000000D+00 0.000000000000000D+00 0.000000000000000D+00 0.000000000000000D+00
 0.166971370966038D+03 0.000000000000000D+00 0.000000000000000D+00 0.166971370966038D+03
 0.166971370966038D+03 -.000000000000000D+00 -.000000000000000D+00 -.166971370966038D+03
 0.128228572504779D+03 -.257297398594587D+02 0.124711719788597D+02 -.131007067165479D+00
 0.102284047167580D+03 -.213459139755343D+02 -.513874414209426D+02 0.299748756689240D+02
 0.775629571572618D+02 0.570741859340155D+02 0.227152383791206D+02 -.473557553875807D+02
 0.258671651024558D+02 -.999853209902255D+01 0.162010310629623D+02 0.175118867858222D+02
0.969196197635D-05 0.000000000000D+00 0.000000000000D+00 0.381581870984D-06 0.000000000000D+00  6 2 21 25 24 1 21 2 0.26724084D-01 0.24691899D-01 0.25345298D+05 0.25345298D+05 0.25345298D+05 0.12226595D+01  1  2  2  3  6  5        1 0.551296187955D-01 0.100000000000D+01
-.506675544328D-06 0.511458885031D-06 -.195652788522D-07 0.381581870984D-06 0.000000000000D+00  6 2 21 25 24 1 21 4 0.26724084D-01 0.24691899D-01 0.25345298D+05 0.25345298D+05 0.25345298D+05 0.12226595D+01  1  2  3  3  6  5        1 -.430838246798D-02 0.100000000000D+01
0.100077836658D-05 0.000000000000D+00 0.000000000000D+00 0.381581870984D-06 0.000000000000D+00  6 2 21 25 24 1 21 4 0.26724084D-01 0.24691899D-01 0.25345298D+05 0.25345298D+05 0.25345298D+05 0.12226595D+01  1  2 15  3  6  5        1 0.850985609461D-02 0.100000000000D+01
-.422696901078D-05 0.000000000000D+00 0.000000000000D+00 0.381581870984D-06 0.000000000000D+00  6 2 21 25 24 1 21 4 0.26724084D-01 0.24691899D-01 0.25345298D+05 0.25345298D+05 0.25345298D+05 0.12226595D+01  1  2  4  3  6  5        1 -.359429212295D-01 0.100000000000D+01
  </mgrwgt>
  </event>
  <event>
  5     66 0.43779995E-03 0.43942763E+02 0.75467711E-02 0.11218267E+00
        2 -1    0    0  502    0 0.00000000E+00 0.00000000E+00 0.28594279E+03 0.28594297E+03 0.32000000E+00 0.0000E+00 0.9000E+01
       21 -1    0    0  501  502 0.00000000E+00 0.00000000E+00 -.15888166E+04 0.15888168E+04 0.75000000E+00 0.0000E+00 0.9000E+01
       25  1    1    2    0    0 -.52144350E+02 0.16427392E+03 0.82088100E+02 0.22818504E+03 0.12500000E+03 0.0000E+00 0.9000E+01
       24  1    1    2    0    0 0.37497441E+01 -.12575496E+03 0.87332644E+02 0.17298144E+03 0.80419002E+02 0.0000E+00 0.9000E+01
        1  1    1    2  501    0 0.48394606E+02 -.38518961E+02 -.14722946E+04 0.14735933E+04 0.32000000E+00 0.0000E+00 0.9000E+01
#aMCatNLO 1  0  0  2  1 0.36024144D+02 0.00000000D+00  -5  6  0 0.00000000D+00 0.00000000D+00 0.00000000D+00 0.00000000D+00 0.00000000D+00
  <mgrwgt>
 0.3166685723D+00   23    2    0
 0.674025957187255D+03 0.000000000000000D+00 0.000000000000000D+00 0.674025957187255D+03
 0.674025957187255D+03 0.000000000000000D+00 0.000000000000000D+00 -.674025957187255D+03
 0.396678046292643D+03 -.521443517132189D+02 0.164273925678650D+03 0.334699143018147D+03
 0.324974194214372D+03 0.374974258607955D+01 -.125754961685529D+03 0.288639290452494D+03
 0.626399673867495D+03 0.483946091271393D+02 -.385189639931204D+02 -.623338433470641D+03
 0.000000000000000D+00 -.000000000000000D+00 0.000000000000000D+00 -.000000000000000D+00
 0.683287937251857D+03 0.000000000000000D+00 0.000000000000000D+00 0.683287937251857D+03
 0.710229561623974D+03 0.000000000000000D+00 0.000000000000000D+00 -.710229561623974D+03
 0.392251071688372D+03 -.477076805415075D+02 0.154713813607396D+03 0.334699143018147D+03
 0.328180691190871D+03 0.742286528454940D+01 -.133669784148085D+03 0.288639290452494D+03
 0.628101404242836D+03 0.554494999167918D+02 -.537207997815309D+02 -.623338433470641D+03
 0.449843317537514D+02 -.151646846598337D+02 0.326767703222202D+02 -.269416243721169D+02
0.274448463037D-02 0.000000000000D+00 0.000000000000D+00 0.954159445632D-05 0.000000000000D+00  6 2 21 25 24 1 21 2 0.43991225D-01 0.24443336D+00 0.44960545D+05 0.44960545D+05 0.44960545D+05 0.11968783D+01  1  2  2  2  6  2       21 0.394799437717D-01 0.100000000000D+01
0.734211697494D-03 0.144830432936D-03 -.554032374765D-05 0.954159445632D-05 0.000000000000D+00  6 2 21 25 24 1 21 4 0.43991225D-01 0.24443336D+00 0.44960545D+05 0.44960545D+05 0.44960545D+05 0.11968783D+01  1  2  3  2  6  2       21 0.151299337802D-01 0.100000000000D+01
0.266388282530D-03 0.000000000000D+00 0.000000000000D+00 0.954159445632D-05 0.000000000000D+00  6 2 21 25 24 1 21 4 0.43991225D-01 0.24443336D+00 0.44960545D+05 0.44960545D+05 0.44960545D+05 0.11968783D+01  1  2 15  2  6  2       21 0.548947543094D-02 0.100000000000D+01
0.116890831348D-01 0.000000000000D+00 0.000000000000D+00 0.938980540519D-05 0.000000000000D+00  6 2 21 25 24 1 21 4 0.43991225D-01 0.25918282D+00 0.56155615D+05 0.56155615D+05 0.56155615D+05 0.11873201D+01  1  2 12  2  6  2       21 0.186371918249D+00 0.100000000000D+01
-.607225093671D-02 0.000000000000D+00 0.000000000000D+00 0.954159445632D-05 0.000000000000D+00  6 2 21 25 24 1 21 4 0.43991225D-01 0.24443336D+00 0.44960545D+05 0.44960545D+05 0.44960545D+05 0.11968783D+01  1  2  4  2  6  2       21 -.125131150706D+00 0.100000000000D+01
-.591225499286D-01 0.000000000000D+00 -.116189367851D-01 0.954159445632D-05 0.000000000000D+00  6 2 21 25 24 1 21 4 0.43991225D-01 0.25915440D+00 0.44960545D+05 0.44960545D+05 0.44960545D+05 0.11968783D+01  1  2  5  2  6  2       21 -.997411398587D+00 0.100000000000D+01
0.594042670251D-01 0.000000000000D+00 0.115398452020D-01 0.954159445632D-05 0.000000000000D+00  6 2 21 25 24 1 21 4 0.43991225D-01 0.24443336D+00 0.44960545D+05 0.44960545D+05 0.44960545D+05 0.11968783D+01  1  2  6  2  6  2       21 0.122414642728D+01 0.100000000000D+01
0.218733399116D-03 0.000000000000D+00 0.000000000000D+00 0.938980540519D-05 0.000000000000D+00  6 2 -1 25 24 1 -1 4 0.43991225D-01 0.25918282D+00 0.56155615D+05 0.56155615D+05 0.56155615D+05 0.11873201D+01  1  2 12  5  6  2       21 0.405390776057D-03 0.100000000000D+01
-.686189565926D-03 0.000000000000D+00 -.164271700462D-03 0.954159445632D-05 0.000000000000D+00  6 2 -1 25 24 1 -1 4 0.43991225D-01 0.25915440D+00 0.44960545D+05 0.44960545D+05 0.44960545D+05 0.11968783D+01  1  2  5  5  6  2       21 -.132840354865D-02 0.100000000000D+01
0.218733399116D-03 0.000000000000D+00 0.000000000000D+00 0.938980540519D-05 0.000000000000D+00  6 2 1 25 24 1 1 4 0.43991225D-01 0.25918282D+00 0.56155615D+05 0.56155615D+05 0.56155615D+05 0.11873201D+01  1  2 12  6  6  2       21 0.375176030655D-02 0.100000000000D+01
-.686189565926D-03 0.000000000000D+00 -.164271700462D-03 0.954159445632D-05 0.000000000000D+00  6 2 1 25 24 1 1 4 0.43991225D-01 0.25915440D+00 0.44960545D+05 0.44960545D+05 0.44960545D+05 0.11968783D+01  1  2  5  6  6  2       21 -.122836686827D-01 0.100000000000D+01
0.218733399116D-03 0.000000000000D+00 0.000000000000D+00 0.938980540519D-05 0.000000000000D+00  6 2 -2 25 24 1 -2 4 0.43991225D-01 0.25918282D+00 0.56155615D+05 0.56155615D+05 0.56155615D+05 0.11873201D+01  1  2 12  7  6  2       21 0.323527072915D-03 0.100000000000D+01
-.686189565926D-03 0.000000000000D+00 -.164271700462D-03 0.954159445632D-05 0.000000000000D+00  6 2 -2 25 24 1 -2 4 0.43991225D-01 0.25915440D+00 0.44960545D+05 0.44960545D+05 0.44960545D+05 0.11968783D+01  1  2  5  7  6  2       21 -.105870513509D-02 0.100000000000D+01
0.218733399116D-03 0.000000000000D+00 0.000000000000D+00 0.938980540519D-05 0.000000000000D+00  6 2 2 25 24 1 2 4 0.43991225D-01 0.25918282D+00 0.56155615D+05 0.56155615D+05 0.56155615D+05 0.11873201D+01  1  2 12  8  6  2       21 0.857150600813D-02 0.100000000000D+01
-.686189565926D-03 0.000000000000D+00 -.164271700462D-03 0.954159445632D-05 0.000000000000D+00  6 2 2 25 24 1 2 4 0.43991225D-01 0.25915440D+00 0.44960545D+05 0.44960545D+05 0.44960545D+05 0.11968783D+01  1  2  5  8  6  2       21 -.280228467593D-01 0.100000000000D+01
0.218733399116D-03 0.000000000000D+00 0.000000000000D+00 0.938980540519D-05 0.000000000000D+00  6 2 -3 25 24 1 -3 4 0.43991225D-01 0.25918282D+00 0.56155615D+05 0.56155615D+05 0.56155615D+05 0.11873201D+01  1  2 12  9  6  2       21 0.223379679137D-03 0.100000000000D+01
0.218733399116D-03 0.000000000000D+00 0.000000000000D+00 0.938980540519D-05 0.000000000000D+00  6 2 -4 25 24 1 -4 4 0.43991225D-01 0.25918282D+00 0.56155615D+05 0.56155615D+05 0.56155615D+05 0.11873201D+01  1  2 12  9  6  2       21 0.165476360132D-03 0.100000000000D+01
-.686189565926D-03 0.000000000000D+00 -.164271700462D-03 0.954159445632D-05 0.000000000000D+00  6 2 -3 25 24 1 -3 4 0.43991225D-01 0.25915440D+00 0.44960545D+05 0.44960545D+05 0.44960545D+05 0.11968783D+01  1  2  5  9  6  2       21 -.729065020002D-03 0.100000000000D+01
-.686189565926D-03 0.000000000000D+00 -.164271700462D-03 0.954159445632D-05 0.000000000000D+00  6 2 -4 25 24 1 -4 4 0.43991225D-01 0.25915440D+00 0.44960545D+05 0.44960545D+05 0.44960545D+05 0.11968783D+01  1  2  5  9  6  2       21 -.539577577606D-03 0.100000000000D+01
0.218733399116D-03 0.000000000000D+00 0.000000000000D+00 0.938980540519D-05 0.000000000000D+00  6 2 3 25 24 1 3 4 0.43991225D-01 0.25918282D+00 0.56155615D+05 0.56155615D+05 0.56155615D+05 0.11873201D+01  1  2 12 10  6  2       21 0.225860245637D-03 0.100000000000D+01
0.218733399116D-03 0.000000000000D+00 0.000000000000D+00 0.938980540519D-05 0.000000000000D+00  6 2 4 25 24 1 4 4 0.43991225D-01 0.25918282D+00 0.56155615D+05 0.56155615D+05 0.56155615D+05 0.11873201D+01  1  2 12 10  6  2       21 0.165476360132D-03 0.100000000000D+01
-.686189565926D-03 0.000000000000D+00 -.164271700462D-03 0.954159445632D-05 0.000000000000D+00  6 2 3 25 24 1 3 4 0.43991225D-01 0.25915440D+00 0.44960545D+05 0.44960545D+05 0.44960545D+05 0.11968783D+01  1  2  5 10  6  2       21 -.737109378331D-03 0.100000000000D+01
-.686189565926D-03 0.000000000000D+00 -.164271700462D-03 0.954159445632D-05 0.000000000000D+00  6 2 4 25 24 1 4 4 0.43991225D-01 0.25915440D+00 0.44960545D+05 0.44960545D+05 0.44960545D+05 0.11968783D+01  1  2  5 10  6  2       21 -.539577577606D-03 0.100000000000D+01
  </mgrwgt>
  </event>
  <event>
  6     66 0.43779995E-03 0.81528135E+02 0.75467711E-02 0.11608172E+00
        2 -1    0    0  502    0 0.00000000E+00 0.00000000E+00 0.20776255E+04 0.20776255E+04 0.32000000E+00 0.0000E+00 0.9000E+01
       21 -1    0    0  501  503 0.00000000E+00 0.00000000E+00 -.12923719E+03 0.12923937E+03 0.75000000E+00 0.0000E+00 0.9000E+01
       25  1    1    2    0    0 -.67538692E+02 -.24882949E+02 0.16640515E+04 0.16702913E+04 0.12500000E+03 0.0000E+00 0.9000E+01
       24  1    1    2    0    0 0.13605947E+02 0.66835258E+02 0.22775926E+03 0.25098519E+03 0.80419002E+02 0.0000E+00 0.9000E+01
        1  1    1    2  501    0 -.27779958E+02 0.85567590E+01 0.14928218E+03 0.15208621E+03 0.32000000E+00 0.0000E+00 0.9000E+01
       21  1    1    2  502  503 0.81712703E+02 -.50509068E+02 -.92704611E+02 0.13350221E+03 0.75000000E+00 0.0000E+00 0.9000E+01
#aMCatNLO 2  0  0  2  1 0.36024144D+02 0.00000000D+00  -5  6  0 0.00000000D+00 0.00000000D+00 0.00000000D+00 0.00000000D+00 0.00000000D+00
  <mgrwgt>
 0.8661202455D-01    1    2    0
 0.175744425426196D+03 0.000000000000000D+00 0.000000000000000D+00 0.175744425426196D+03
 0.175744425426196D+03 0.000000000000000D+00 0.000000000000000D+00 -.175744425426196D+03
 0.177456476645428D+03 -.264075972941077D+02 -.503068719334053D+02 0.112417340943635D+03
 0.151474456554416D+03 0.482844588606289D+02 0.453998049780532D+02 -.109930722614637D+03
 0.225579176525483D+02 -.218768615665212D+02 0.490706695535203D+01 -.248661832899829D+01
 0.000000000000000D+00 0.000000000000000D+00 -.000000000000000D+00 -.000000000000000D+00
 0.183996261053993D+03 0.000000000000000D+00 0.000000000000000D+00 0.183996261053993D+03
 0.145931550921341D+04 0.000000000000000D+00 0.000000000000000D+00 -.145931550921341D+04
 0.182874692049857D+03 -.675375434560111D+02 -.248832206802104D+02 0.112417340943635D+03
 0.152328759809737D+03 0.136068871753510D+02 0.668350503674766D+02 -.109930722614637D+03
 0.291762183633451D+02 -.277820466127409D+02 0.855723864800869D+01 -.248661832899829D+01
 0.127893210004446D+04 0.817127028934011D+02 -.505090683352749D+02 -.127531924815941D+04
0.197980482340D-03 0.000000000000D+00 0.000000000000D+00 0.290284480867D-06 0.141285005017D-07  6 2 21 25 24 1 21 4 0.31963467D+00 0.19882803D-01 0.35122950D+05 0.35122950D+05 0.35122950D+05 0.12077773D+01  1  2  1  2  6  2       21 0.866120245542D-01 0.100000000000D+01
  </mgrwgt>
  </event>
  <event>
  5     66 0.43779995E-03 0.24011398E+02 0.75467711E-02 0.94110705E-01
        2 -1    0    0  502    0 0.00000000E+00 0.00000000E+00 0.19125177E+03 0.19125204E+03 0.32000000E+00 0.0000E+00 0.9000E+01
       21 -1    0    0  501  502 0.00000000E+00 0.00000000E+00 -.45584224E+03 0.45584286E+03 0.75000000E+00 0.0000E+00 0.9000E+01
       25  1    1    2    0    0 -.10473959E+03 -.11094648E+03 0.39973219E+02 0.20125199E+03 0.12500000E+03 0.0000E+00 0.9000E+01
       24  1    1    2    0    0 0.12838460E+03 0.10676806E+03 -.52486032E+02 0.19262405E+03 0.80419002E+02 0.0000E+00 0.9000E+01
        1  1    1    2  501    0 -.23645009E+02 0.41784223E+01 -.25207766E+03 0.25321887E+03 0.32000000E+00 0.0000E+00 0.9000E+01
#aMCatNLO 1  0  0  2  1 0.17344249D+02 0.00000000D+00  -5  6  0 0.00000000D+00 0.00000000D+00 0.00000000D+00 0.00000000D+00 0.00000000D+00
  <mgrwgt>
 0.2490692565D+00   12    2    0
 0.295264156244203D+03 0.000000000000000D+00 0.000000000000000D+00 0.295264156244203D+03
 0.295264156244203D+03 0.000000000000000D+00 0.000000000000000D+00 -.295264156244203D+03
 0.238440223674898D+03 -.104739567797793D+03 -.110946487956374D+03 0.133974773796461D+03
 0.187558740789684D+03 0.128384609217737D+03 0.106768059951225D+03 0.287930335758807D+02
 0.164529348023824D+03 -.236450414199435D+02 0.417842800514872D+01 -.162767807372341D+03
 0.000000000000000D+00 -.000000000000000D+00 0.000000000000000D+00 -.000000000000000D+00
 0.820226986723083D+03 0.000000000000000D+00 0.000000000000000D+00 0.820226986723083D+03
 0.114462648951695D+04 0.000000000000000D+00 0.000000000000000D+00 -.114462648951695D+04
 0.388176174246038D+03 0.166728840885452D+03 -.298844434205275D+03 0.133974773796461D+03
 0.397059992338127D+03 0.381658410693718D+03 -.685364160532642D+02 0.287930335758807D+02
 0.259151591373177D+03 0.159905837218312D+03 -.122867047730305D+03 -.162767807372341D+03
 0.920465718282689D+03 -.708293088797483D+03 0.490247897988845D+03 -.324399502793865D+03
0.209355975619D-03 0.000000000000D+00 0.000000000000D+00 0.332572329874D-05 0.000000000000D+00  6 2 21 25 24 1 21 2 0.29423417D-01 0.70129644D-01 0.41328679D+05 0.41328679D+05 0.41328679D+05 0.12005618D+01  1  2  2  2  6  2       21 0.122398782228D+00 0.100000000000D+01
0.684365076932D-04 0.110480183606D-04 -.422629396645D-06 0.332572329874D-05 0.000000000000D+00  6 2 21 25 24 1 21 4 0.29423417D-01 0.70129644D-01 0.41328679D+05 0.41328679D+05 0.41328679D+05 0.12005618D+01  1  2  3  2  6  2       21 0.576698207954D-01 0.100000000000D+01
0.208349909530D-04 0.000000000000D+00 0.000000000000D+00 0.332572329874D-05 0.000000000000D+00  6 2 21 25 24 1 21 4 0.29423417D-01 0.70129644D-01 0.41328679D+05 0.41328679D+05 0.41328679D+05 0.12005618D+01  1  2 15  2  6  2       21 0.175571523889D-01 0.100000000000D+01
0.605397325477D-02 0.000000000000D+00 -.244081151482D-02 0.332572329874D-05 0.000000000000D+00  6 2 21 25 24 1 21 4 0.29423417D-01 0.46672364D+00 0.41328679D+05 0.41328679D+05 0.41328679D+05 0.12005618D+01  1  2  5  2  6  2       21 0.876166228867D-02 0.100000000000D+01
0.263080171133D-02 0.000000000000D+00 -.104305204473D-02 0.332572329874D-05 0.000000000000D+00  6 2 -1 25 24 1 -1 4 0.29423417D-01 0.46672364D+00 0.41328679D+05 0.41328679D+05 0.41328679D+05 0.12005618D+01  1  2  5  5  6  2       21 0.361420842276D-03 0.100000000000D+01
0.263080171133D-02 0.000000000000D+00 -.104305204473D-02 0.332572329874D-05 0.000000000000D+00  6 2 1 25 24 1 1 4 0.29423417D-01 0.46672364D+00 0.41328679D+05 0.41328679D+05 0.41328679D+05 0.12005618D+01  1  2  5  6  6  2       21 0.953202160291D-02 0.100000000000D+01
0.263080171133D-02 0.000000000000D+00 -.104305204473D-02 0.332572329874D-05 0.000000000000D+00  6 2 -2 25 24 1 -2 4 0.29423417D-01 0.46672364D+00 0.41328679D+05 0.41328679D+05 0.41328679D+05 0.12005618D+01  1  2  5  7  6  2       21 0.339373890573D-03 0.100000000000D+01
0.263080171133D-02 0.000000000000D+00 -.104305204473D-02 0.332572329874D-05 0.000000000000D+00  6 2 2 25 24 1 2 4 0.29423417D-01 0.46672364D+00 0.41328679D+05 0.41328679D+05 0.41328679D+05 0.12005618D+01  1  2  5  8  6  2       21 0.314163430479D-01 0.100000000000D+01
0.263080171133D-02 0.000000000000D+00 -.104305204473D-02 0.332572329874D-05 0.000000000000D+00  6 2 -3 25 24 1 -3 4 0.29423417D-01 0.46672364D+00 0.41328679D+05 0.41328679D+05 0.41328679D+05 0.12005618D+01  1  2  5  9  6  2       21 0.348676563815D-03 0.100000000000D+01
0.263080171133D-02 0.000000000000D+00 -.104305204473D-02 0.332572329874D-05 0.000000000000D+00  6 2 -4 25 24 1 -4 4 0.29423417D-01 0.46672364D+00 0.41328679D+05 0.41328679D+05 0.41328679D+05 0.12005618D+01  1  2  5  9  6  2       21 0.152441058501D-03 0.100000000000D+01
0.263080171133D-02 0.000000000000D+00 -.104305204473D-02 0.332572329874D-05 0.000000000000D+00  6 2 3 25 24 1 3 4 0.29423417D-01 0.46672364D+00 0.41328679D+05 0.41328679D+05 0.41328679D+05 0.12005618D+01  1  2  5 10  6  2       21 0.379120735814D-03 0.100000000000D+01
0.263080171133D-02 0.000000000000D+00 -.104305204473D-02 0.332572329874D-05 0.000000000000D+00  6 2 4 25 24 1 4 4 0.29423417D-01 0.46672364D+00 0.41328679D+05 0.41328679D+05 0.41328679D+05 0.12005618D+01  1  2  5 10  6  2       21 0.152441058501D-03 0.100000000000D+01
  </mgrwgt>
  </event>
  <event>
  5     66 0.43779995E-03 0.12304991E+03 0.75467711E-02 0.11061505E+00
        2 -1    0    0  502    0 0.00000000E+00 0.00000000E+00 0.35598400E+03 0.35598414E+03 0.32000000E+00 0.0000E+00 0.9000E+01
       21 -1    0    0  501  502 0.00000000E+00 0.00000000E+00 -.17630711E+03 0.17630871E+03 0.75000000E+00 0.0000E+00 0.9000E+01
       25  1    1    2    0    0 -.35202118E+02 -.16519581E+02 0.83605280E+02 0.15532845E+03 0.12500000E+03 0.0000E+00 0.9000E+01
       24  1    1    2    0    0 -.77784135E+02 0.65257249E+02 0.18450778E+03 0.22543118E+03 0.80419002E+02 0.0000E+00 0.9000E+01
        1  1    1    2  501    0 0.11298625E+03 -.48737668E+02 -.88436177E+02 0.15153321E+03 0.32000000E+00 0.0000E+00 0.9000E+01
#aMCatNLO 1  0  0  1  2 0.12821862D+03 0.00000000D+00  -5  6  0 0.00000000D+00 0.00000000D+00 0.00000000D+00 0.00000000D+00 0.00000000D+00
  <mgrwgt>
 0.3453067122D-01    7    2    0
 0.250525392723250D+03 0.000000000000000D+00 0.000000000000000D+00 0.250525392723250D+03
 0.250525392723250D+03 0.000000000000000D+00 0.000000000000000D+00 -.250525392723250D+03
 0.135032817584980D+03 -.352021599933862D+02 -.165195633442142D+02 0.331175751475710D+02
 0.173323072835597D+03 -.777841888813273D+02 0.652572722681713D+02 0.115172826651927D+03
 0.192694895025923D+03 0.112986348874714D+03 -.487377089239571D+02 -.148290401799498D+03
 0.000000000000000D+00 0.000000000000000D+00 0.000000000000000D+00 0.000000000000000D+00
 0.352623547615953D+03 0.000000000000000D+00 0.000000000000000D+00 0.352623547615953D+03
 0.302309707676026D+03 0.000000000000000D+00 0.000000000000000D+00 -.302309707676026D+03
 0.149334642000403D+03 -.675342418464090D+02 -.319090535109415D+02 0.331175751475710D+02
 0.189703882507648D+03 -.119059717565675D+03 0.456108620647761D+02 0.115172826651927D+03
 0.178157671074033D+03 0.708210619602763D+02 -.688076280617593D+02 -.148290401799498D+03
 0.137737059709895D+03 0.115772897451807D+03 0.551058195079247D+02 0.503138399399272D+02
0.118284902643D-04 0.000000000000D+00 0.000000000000D+00 0.462156796575D-06 0.000000000000D+00  6 2 21 25 24 1 21 2 0.54766902D-01 0.27124305D-01 0.36764462D+05 0.36764462D+05 0.36764462D+05 0.12057381D+01  1  2  2  1  6  1        2 0.251479711954D-01 0.100000000000D+01
-.360818989392D-06 0.624206580353D-06 -.238783139044D-07 0.462156796575D-06 0.000000000000D+00  6 2 21 25 24 1 21 4 0.54766902D-01 0.27124305D-01 0.36764462D+05 0.36764462D+05 0.36764462D+05 0.12057381D+01  1  2  3  1  6  1        2 -.111524163046D-02 0.100000000000D+01
0.124114887235D-05 0.000000000000D+00 0.000000000000D+00 0.462156796575D-06 0.000000000000D+00  6 2 21 25 24 1 21 4 0.54766902D-01 0.27124305D-01 0.36764462D+05 0.36764462D+05 0.36764462D+05 0.12057381D+01  1  2 15  1  6  1        2 0.383621963571D-02 0.100000000000D+01
-.115688665133D-04 0.000000000000D+00 0.000000000000D+00 0.462156796575D-06 0.000000000000D+00  6 2 21 25 24 1 21 4 0.54766902D-01 0.27124305D-01 0.36764462D+05 0.36764462D+05 0.36764462D+05 0.12057381D+01  1  2  4  1  6  1        2 -.357577675569D-01 0.100000000000D+01
-.209993421540D-04 0.000000000000D+00 -.143267589054D-04 0.462156796575D-06 0.000000000000D+00  6 2 21 25 24 1 21 4 0.89908861D-01 0.27124305D-01 0.36764462D+05 0.36764462D+05 0.36764462D+05 0.12057381D+01  1  2  5  1  6  1        2 -.375972967172D-01 0.100000000000D+01
0.263885184479D-04 0.000000000000D+00 0.127303583175D-04 0.462156796575D-06 0.000000000000D+00  6 2 21 25 24 1 21 4 0.54766902D-01 0.27124305D-01 0.36764462D+05 0.36764462D+05 0.36764462D+05 0.12057381D+01  1  2  6  1  6  1        2 0.815632635878D-01 0.100000000000D+01
-.536033428447D-06 0.000000000000D+00 -.802294069601D-06 0.462156796575D-06 0.000000000000D+00  6 21 21 25 24 1 -2 4 0.89908861D-01 0.27124305D-01 0.36764462D+05 0.36764462D+05 0.36764462D+05 0.12057381D+01  1  2  5  4  6  1        2 -.154647729343D-02 0.100000000000D+01
  </mgrwgt>
  </event>
  <event>
  6     66 0.43779995E-03 0.89895195E+02 0.75467711E-02 0.11496912E+00
        2 -1    0    0  502    0 0.00000000E+00 0.00000000E+00 0.35764833E+03 0.35764847E+03 0.32000000E+00 0.0000E+00 0.9000E+01
       21 -1    0    0  501  502 0.00000000E+00 0.00000000E+00 -.12213346E+03 0.12213576E+03 0.75000000E+00 0.0000E+00 0.9000E+01
       25  1    1    2    0    0 0.69072710E+01 0.52683846E+02 0.13692470E+03 0.19286439E+03 0.12500000E+03 0.0000E+00 0.9000E+01
       24  1    1    2    0    0 -.77738958E+01 0.94621318E+01 0.54136388E+02 0.97713509E+02 0.80419002E+02 0.0000E+00 0.9000E+01
        1  1    1    2  503    0 0.28594840E+02 0.55476706E+02 0.22709864E+02 0.66416640E+02 0.32000000E+00 0.0000E+00 0.9000E+01
       21  1    1    2  501  503 -.27728216E+02 -.11762268E+03 0.21743911E+02 0.12278970E+03 0.75000000E+00 0.0000E+00 0.9000E+01
#aMCatNLO 2  0  0  5  2 0.53177314D+02 0.00000000D+00  -5  6  0 0.00000000D+00 0.00000000D+00 0.00000000D+00 0.00000000D+00 0.00000000D+00
  <mgrwgt>
 0.2643759571D-01    1    2    0
 0.209000992896749D+03 0.000000000000000D+00 0.000000000000000D+00 0.209000992896749D+03
 0.209000992896749D+03 -.000000000000000D+00 -.000000000000000D+00 -.209000992896749D+03
 0.172698834693025D+03 0.641471820169040D+01 0.880049813846590D+02 0.800865915506932D+02
 0.890151857288802D+02 -.803914578662489D+01 0.284833047065036D+02 0.240948298187466D+02
 0.156287965371592D+03 0.162442758493450D+01 -.116488286091163D+03 -.104181421369440D+03
 0.000000000000000D+00 0.000000000000000D+00 0.000000000000000D+00 0.000000000000000D+00
 0.209000992896749D+03 0.000000000000000D+00 0.000000000000000D+00 0.209000992896749D+03
 0.209000992896749D+03 -.000000000000000D+00 -.000000000000000D+00 -.209000992896749D+03
 0.144411166517021D+03 0.690333461017769D+01 0.529661230763033D+02 0.487495517141714D+02
 0.816852548052997D+02 -.777612337842981D+01 0.962187325928389D+01 0.722608873609561D+01
 0.628896317434053D+02 0.282159688656095D+02 0.551467402842591D+02 -.108536591901793D+02
 0.129015932727771D+03 -.273431800973574D+02 -.117734736619846D+03 -.451219812600877D+02
0.435304473248D-05 0.000000000000D+00 0.000000000000D+00 0.569981781925D-06 0.705199910384D-09  6 2 21 25 24 1 21 4 0.55023008D-01 0.18789952D-01 0.40022647D+05 0.40022647D+05 0.40022647D+05 0.12019753D+01  1  2  1  3  6  5        1 0.264375957068D-01 0.100000000000D+01
  </mgrwgt>
  </event>
  <event>
  5     66 -.43779995E-03 0.13134659E+03 0.75467711E-02 0.11165409E+00
        2 -1    0    0  502    0 0.00000000E+00 0.00000000E+00 0.17569326E+04 0.17569327E+04 0.32000000E+00 0.0000E+00 0.9000E+01
       21 -1    0    0  501  502 0.00000000E+00 0.00000000E+00 -.64061733E+02 0.64066123E+02 0.75000000E+00 0.0000E+00 0.9000E+01
       25  1    1    2    0    0 -.16179812E+03 0.93775613E+02 0.11769129E+04 0.11982160E+04 0.12500000E+03 0.0000E+00 0.9000E+01
       24  1    1    2    0    0 0.62702651E+02 0.30205113E+02 0.42862906E+03 0.44162661E+03 0.80419002E+02 0.0000E+00 0.9000E+01
        1  1    1    2  501    0 0.99095470E+02 -.12398073E+03 0.87328942E+02 0.18115623E+03 0.32000000E+00 0.0000E+00 0.9000E+01
#aMCatNLO 1  0  0  5  2 0.21093360D+01 0.00000000D+00  -5  6  0 0.00000000D+00 0.00000000D+00 0.00000000D+00 0.00000000D+00 0.00000000D+00
  <mgrwgt>
 -.2512421542D-01    8    2    0
 0.335493924325760D+03 0.000000000000000D+00 0.000000000000000D+00 0.335493924325760D+03
 0.335493924325760D+03 -.000000000000000D+00 -.000000000000000D+00 -.335493924325760D+03
 0.282550930874869D+03 -.161798149859151D+03 0.937756492729169D+02 0.170989809181289D+03
 0.117122620307473D+03 0.627026388588168D+02 0.302051285323067D+02 0.490563097246983D+02
 0.271314297469178D+03 0.990955110003340D+02 -.123980777805224D+03 -.220046118905987D+03
 0.000000000000000D+00 0.000000000000000D+00 0.000000000000000D+00 -.000000000000000D+00
 0.335493924325760D+03 0.000000000000000D+00 0.000000000000000D+00 0.335493924325760D+03
 0.335493924325760D+03 -.000000000000000D+00 -.000000000000000D+00 -.335493924325760D+03
 0.282466309695914D+03 -.161761855614846D+03 0.937302406707176D+02 0.170909216150210D+03
 0.117111833458987D+03 0.627176850589663D+02 0.301863038693253D+02 0.490228989484303D+02
 0.261515854408302D+03 0.967474441271348D+02 -.120691327555291D+03 -.210865069688444D+03
 0.989385108831633D+01 0.229672642874504D+01 -.322521698475151D+01 -.906704541019580D+01
0.613966869000D-06 0.000000000000D+00 0.000000000000D+00 0.312896627425D-06 0.000000000000D+00  6 2 21 25 24 1 21 2 0.27029767D+00 0.98559912D-02 0.60027496D+05 0.60027496D+05 0.60027496D+05 0.11844994D+01  1  2  2  3  6  5        1 0.906351608849D-03 0.100000000000D+01
-.135253395718D-07 0.323999218147D-07 -.123942221681D-08 0.312896627425D-06 0.000000000000D+00  6 2 21 25 24 1 21 4 0.27029767D+00 0.98559912D-02 0.60027496D+05 0.60027496D+05 0.60027496D+05 0.11844994D+01  1  2  3  3  6  5        1 -.280136449163D-04 0.100000000000D+01
0.560643571598D-07 0.000000000000D+00 0.000000000000D+00 0.312896627425D-06 0.000000000000D+00  6 2 21 25 24 1 21 4 0.27029767D+00 0.98559912D-02 0.60027496D+05 0.60027496D+05 0.60027496D+05 0.11844994D+01  1  2 15  3  6  5        1 0.116120337357D-03 0.100000000000D+01
0.298165225953D-07 0.000000000000D+00 0.000000000000D+00 0.312907307496D-06 0.000000000000D+00  6 2 21 25 24 1 21 4 0.27029767D+00 0.98559912D-02 0.59998714D+05 0.59998714D+05 0.59998714D+05 0.11845196D+01  1  2 12  3  6  5        1 0.617612876636D-04 0.100000000000D+01
-.320442392830D-03 0.000000000000D+00 0.000000000000D+00 0.312896627425D-06 0.000000000000D+00  6 2 21 25 24 1 21 4 0.27029767D+00 0.98559912D-02 0.60027496D+05 0.60027496D+05 0.60027496D+05 0.11844994D+01  1  2  4  3  6  5        1 -.663699374143D+00 0.100000000000D+01
-.120455399998D-03 0.000000000000D+00 0.000000000000D+00 0.312896627425D-06 0.000000000000D+00  6 2 21 25 24 1 21 4 0.27029767D+00 0.98559912D-02 0.60027496D+05 0.60027496D+05 0.60027496D+05 0.11844994D+01  1  2  5  3  6  5        1 -.249486882446D+00 0.100000000000D+01
0.124928008141D-03 0.000000000000D+00 -.000000000000D+00 0.312896627425D-06 0.000000000000D+00  6 2 21 25 24 1 21 4 0.27029767D+00 0.98559912D-02 0.60027496D+05 0.60027496D+05 0.60027496D+05 0.11844994D+01  1  2  6  3  6  5        1 0.258750535732D+00 0.100000000000D+01
0.303303066285D-03 0.000000000000D+00 0.000000000000D+00 0.312896627425D-06 0.135412198510D-05  6 2 21 25 24 1 21 4 0.27029767D+00 0.98559912D-02 0.59998714D+05 0.59998714D+05 0.59998714D+05 0.11845196D+01  1  2 11  3  6  5        1 0.628255285846D+00 0.100000000000D+01
  </mgrwgt>
  </event>
  <event>
  5     66 -.43779995E-03 0.26720803E+02 0.75467711E-02 0.11605972E+00
        2 -1    0    0  502    0 0.00000000E+00 0.00000000E+00 0.26213164E+04 0.26213164E+04 0.32000000E+00 0.0000E+00 0.9000E+01
       21 -1    0    0  501  502 0.00000000E+00 0.00000000E+00 -.29522701E+02 0.29532226E+02 0.75000000E+00 0.0000E+00 0.9000E+01
       25  1    1    2    0    0 -.98662648E+02 0.99797970E+02 0.17769004E+04 0.17868112E+04 0.12500000E+03 0.0000E+00 0.9000E+01
       24  1    1    2    0    0 0.77172615E+02 -.11567807E+03 0.82104840E+03 0.83661504E+03 0.80419002E+02 0.0000E+00 0.9000E+01
        1  1    1    2  501    0 0.21490033E+02 0.15880105E+02 -.61551877E+01 0.27422399E+02 0.32000000E+00 0.0000E+00 0.9000E+01
#aMCatNLO 1  0  0  5  2 0.39640780D+01 0.00000000D+00  -5  6  0 0.00000000D+00 0.00000000D+00 0.00000000D+00 0.00000000D+00 0.00000000D+00
  <mgrwgt>
 -.8921561504D+00    8    2    0
 0.278210331409152D+03 0.000000000000000D+00 0.000000000000000D+00 0.278210331409152D+03
 0.278210331409152D+03 -.000000000000000D+00 -.000000000000000D+00 -.278210331409152D+03
 0.235804735716385D+03 -.986626665746220D+02 0.997979563178819D+02 0.142425136564558D+03
 0.161302011617374D+03 0.771726022502252D+02 -.115678083773636D+03 0.146319306254896D+02
 0.159313915484546D+03 0.214900643243968D+02 0.158801274557537D+02 -.157057067190048D+03
 0.000000000000000D+00 0.000000000000000D+00 0.000000000000000D+00 -.000000000000000D+00
 0.278210331409152D+03 0.000000000000000D+00 0.000000000000000D+00 0.278210331409152D+03
 0.278210331409152D+03 -.000000000000000D+00 -.000000000000000D+00 -.278210331409152D+03
 0.235750331929381D+03 -.986506276869007D+02 0.998068524788497D+02 0.142337152072321D+03
 0.161296138806190D+03 0.771808382404170D+02 -.115671997771658D+03 0.145717390669439D+02
 0.597200207971971D+02 0.107059375074354D+02 0.879762458938274D+01 -.580901505221740D+02
 0.996541712855362D+02 0.107638519390483D+02 0.706752070342581D+01 -.988187406170908D+02
0.323169745849D-05 0.000000000000D+00 0.000000000000D+00 0.285752016237D-05 0.000000000000D+00  6 2 21 25 24 1 21 2 0.40328017D+00 0.45426881D-02 0.35210867D+05 0.35210867D+05 0.35210867D+05 0.12076654D+01  1  2  2  3  6  5        1 0.672991377713D-02 0.100000000000D+01
0.881924088245D-06 0.170541360244D-06 -.652386607538D-08 0.285752016237D-05 0.000000000000D+00  6 2 21 25 24 1 21 4 0.40328017D+00 0.45426881D-02 0.35210867D+05 0.35210867D+05 0.35210867D+05 0.12076654D+01  1  2  3  3  6  5        1 0.267857145708D-02 0.100000000000D+01
0.311966536056D-06 0.000000000000D+00 0.000000000000D+00 0.285752016237D-05 0.000000000000D+00  6 2 21 25 24 1 21 4 0.40328017D+00 0.45426881D-02 0.35210867D+05 0.35210867D+05 0.35210867D+05 0.12076654D+01  1  2 15  3  6  5        1 0.947501797695D-03 0.100000000000D+01
0.904601326238D-05 0.000000000000D+00 0.000000000000D+00 0.285750789430D-05 0.000000000000D+00  6 2 21 25 24 1 21 4 0.40328017D+00 0.45426881D-02 0.35212907D+05 0.35212907D+05 0.35212907D+05 0.12076628D+01  1  2 12  3  6  5        1 0.274741620155D-01 0.100000000000D+01
-.606766261316D-03 0.000000000000D+00 0.000000000000D+00 0.285752016237D-05 0.000000000000D+00  6 2 21 25 24 1 21 4 0.40328017D+00 0.45426881D-02 0.35210867D+05 0.35210867D+05 0.35210867D+05 0.12076654D+01  1  2  4  3  6  5        1 -.184286472083D+01 0.100000000000D+01
-.960808765263D-04 0.000000000000D+00 0.000000000000D+00 0.285752016237D-05 0.000000000000D+00  6 2 21 25 24 1 21 4 0.40328017D+00 0.45426881D-02 0.35210867D+05 0.35210867D+05 0.35210867D+05 0.12076654D+01  1  2  5  3  6  5        1 -.291815924823D+00 0.100000000000D+01
0.168528251781D-03 0.000000000000D+00 -.000000000000D+00 0.285752016237D-05 0.000000000000D+00  6 2 21 25 24 1 21 4 0.40328017D+00 0.45426881D-02 0.35210867D+05 0.35210867D+05 0.35210867D+05 0.12076654D+01  1  2  6  3  6  5        1 0.511852404247D+00 0.100000000000D+01
0.228121876566D-03 0.000000000000D+00 0.000000000000D+00 0.285752016237D-05 0.853545395710D-06  6 2 21 25 24 1 21 4 0.40328017D+00 0.45426881D-02 0.35212907D+05 0.35212907D+05 0.35212907D+05 0.12076628D+01  1  2 11  3  6  5        1 0.692841941999D+00 0.100000000000D+01
  </mgrwgt>
  </event>
  <event>
  6     66 -.43779995E-03 0.26511022E+02 0.75467711E-02 0.12130863E+00
        2 -1    0    0  502    0 0.00000000E+00 0.00000000E+00 0.26108672E+04 0.26108672E+04 0.32000000E+00 0.0000E+00 0.9000E+01
       21 -1    0    0  503  502 0.00000000E+00 0.00000000E+00 -.90935073E+01 0.91243836E+01 0.75000000E+00 0.0000E+00 0.9000E+01
       25  1    1    2    0    0 -.87023514E+01 -.80845507E+02 0.12863856E+04 0.12949999E+04 0.12500000E+03 0.0000E+00 0.9000E+01
       24  1    1    2    0    0 -.42038891E+01 0.45894161E+02 0.11741705E+04 0.11778232E+04 0.80419002E+02 0.0000E+00 0.9000E+01
        1  1    1    2  501    0 0.67821934E+01 0.29760993E+02 0.12876365E+03 0.13233252E+03 0.32000000E+00 0.0000E+00 0.9000E+01
       21  1    1    2  503  501 0.61240471E+01 0.51903523E+01 0.12453870E+02 0.14835939E+02 0.75000000E+00 0.0000E+00 0.9000E+01
#aMCatNLO 2  0  0  2  5 0.80276840D+01 0.00000000D+00  -5  6  0 0.00000000D+00 0.00000000D+00 0.00000000D+00 0.00000000D+00 0.00000000D+00
  <mgrwgt>
 -.9579206543D-01    3    2    0
 0.143347868851632D+03 0.000000000000000D+00 0.000000000000000D+00 0.143347868851632D+03
 0.143347868851632D+03 0.000000000000000D+00 0.000000000000000D+00 -.143347868851632D+03
 0.147681473519021D+03 -.553151711290385D+01 -.781585015073745D+02 -.674303947049920D+01
 0.987887410185701D+02 -.210250246245224D+01 0.476749011500519D+02 0.318540842183815D+02
 0.402255231656722D+02 0.763401957535608D+01 0.304836003573227D+02 -.251110447478823D+02
 0.000000000000000D+00 0.000000000000000D+00 0.000000000000000D+00 -.000000000000000D+00
 0.144151173131333D+03 0.000000000000000D+00 0.000000000000000D+00 0.144151173131333D+03
 0.164968093261486D+03 0.000000000000000D+00 0.000000000000000D+00 -.164968093261486D+03
 0.149272498765944D+03 -.870248124956455D+01 -.808460087241731D+02 -.674303947049920D+01
 0.980092631812462D+02 -.420397094486463D+01 0.458938303246008D+02 0.318540842183815D+02
 0.395263441567825D+02 0.678240506700209D+01 0.297618261465484D+02 -.251110447478823D+02
 0.223111602888464D+02 0.612404712742708D+01 0.519035225302383D+01 -.208169201301532D+02
-.509803565734D-05 0.000000000000D+00 0.000000000000D+00 0.862084493647D-06 0.000000000000D+00  6 2 21 25 24 1 21 4 0.39941849D+00 0.14044101D-02 0.19650577D+05 0.19650577D+05 0.19650577D+05 0.12346697D+01  1  2 13  2  6  2       21 -.121478122008D+00 0.100000000000D+01
-.376745975244D-05 0.000000000000D+00 0.000000000000D+00 0.862084493647D-06 0.000000000000D+00  6 2 21 25 24 1 21 4 0.39941849D+00 0.14669125D-02 0.19650577D+05 0.19650577D+05 0.19650577D+05 0.12346697D+01  1  2 13  2  6  2       21 -.837398250722D-01 0.100000000000D+01
0.465995545957D-05 0.000000000000D+00 0.000000000000D+00 0.865925019200D-06 0.330002855424D-06  6 2 21 25 24 1 21 4 0.40165678D+00 0.14013168D-02 0.19650577D+05 0.19650577D+05 0.19650577D+05 0.12346697D+01  1  2  1  2  6  2       21 0.109425881645D+00 0.100000000000D+01
  </mgrwgt>
  </event>
  <event>
  5     66 -.43779995E-03 0.25502545E+02 0.75467711E-02 0.12072192E+00
        2 -1    0    0  502    0 0.00000000E+00 0.00000000E+00 0.21605978E+03 0.21606002E+03 0.32000000E+00 0.0000E+00 0.9000E+01
       21 -1    0    0  501  502 0.00000000E+00 0.00000000E+00 -.17509804E+03 0.17509964E+03 0.75000000E+00 0.0000E+00 0.9000E+01
       25  1    1    2    0    0 0.70941678E+02 -.36186517E+02 0.13956381E+03 0.20358105E+03 0.12500000E+03 0.0000E+00 0.9000E+01
       24  1    1    2    0    0 -.58770368E+02 0.58596979E+02 -.37708172E+02 0.12155939E+03 0.80419002E+02 0.0000E+00 0.9000E+01
        1  1    1    2  501    0 -.12171310E+02 -.22410462E+02 -.60893894E+02 0.66019227E+02 0.32000000E+00 0.0000E+00 0.9000E+01
#aMCatNLO 1  0  0  5  1 0.12784430D+02 0.00000000D+00  -5  6  0 0.00000000D+00 0.00000000D+00 0.00000000D+00 0.00000000D+00 0.00000000D+00
  <mgrwgt>
 -.1387109444D-01    6    2    0
 0.194504509311921D+03 0.000000000000000D+00 0.000000000000000D+00 0.194504509311921D+03
 0.194504509311921D+03 -.000000000000000D+00 -.000000000000000D+00 -.194504509311921D+03
 0.190011008006842D+03 0.709417353496373D+02 -.361864113834665D+02 0.118899104204130D+03
 0.126201940932891D+03 -.587703295120365D+02 0.585970489683448D+02 -.507163500471642D+02
 0.727960696841085D+02 -.121714058376008D+02 -.224106375848783D+02 -.681827541569658D+02
 0.000000000000000D+00 0.000000000000000D+00 0.000000000000000D+00 -.000000000000000D+00
 0.194504509311921D+03 0.000000000000000D+00 0.000000000000000D+00 0.194504509311921D+03
 0.194504509311921D+03 -.000000000000000D+00 -.000000000000000D+00 -.194504509311921D+03
 0.188672914942069D+03 0.705599104007331D+02 -.368894477183755D+02 0.116760166683724D+03
 0.126685006401507D+03 -.590253140516298D+02 0.581275579183530D+02 -.521447428235521D+02
 0.322981188192006D+02 -.173989598358628D+02 -.651564232369550D+01 -.264195208321215D+02
 0.413529784610643D+02 0.586436348675951D+01 -.147224678762820D+02 -.381959030280507D+02
0.953326245092D-05 0.000000000000D+00 0.000000000000D+00 0.134247021928D-05 0.000000000000D+00  6 2 21 25 24 1 21 2 0.33240108D-01 0.26938301D-01 0.20920549D+05 0.20920549D+05 0.20920549D+05 0.12316803D+01  1  2  2  3  6  5        1 0.367681707055D-01 0.100000000000D+01
0.114311421399D-05 0.503084080990D-06 -.192449102337D-07 0.134247021928D-05 0.000000000000D+00  6 2 21 25 24 1 21 4 0.33240108D-01 0.26938301D-01 0.20920549D+05 0.20920549D+05 0.20920549D+05 0.12316803D+01  1  2  3  3  6  5        1 0.668830540194D-02 0.100000000000D+01
0.920465929745D-06 0.000000000000D+00 0.000000000000D+00 0.134247021928D-05 0.000000000000D+00  6 2 21 25 24 1 21 4 0.33240108D-01 0.26938301D-01 0.20920549D+05 0.20920549D+05 0.20920549D+05 0.12316803D+01  1  2 15  3  6  5        1 0.538560117165D-02 0.100000000000D+01
-.177952598355D-04 0.000000000000D+00 0.000000000000D+00 0.134247021928D-05 0.000000000000D+00  6 2 21 25 24 1 21 4 0.33240108D-01 0.26938301D-01 0.20920549D+05 0.20920549D+05 0.20920549D+05 0.12316803D+01  1  2  4  3  6  5        1 -.104119195641D+00 0.100000000000D+01
-.734969781926D-05 0.000000000000D+00 0.000000000000D+00 0.134247021928D-05 0.000000000000D+00  6 2 21 25 24 1 21 4 0.33240108D-01 0.26938301D-01 0.20920549D+05 0.20920549D+05 0.20920549D+05 0.12316803D+01  1  2  5  3  6  5        1 -.430027227598D-01 0.100000000000D+01
0.144265000356D-04 0.000000000000D+00 -.000000000000D+00 0.134247021928D-05 0.000000000000D+00  6 2 21 25 24 1 21 4 0.33240108D-01 0.26938301D-01 0.20920549D+05 0.20920549D+05 0.20920549D+05 0.12316803D+01  1  2  6  3  6  5        1 0.844087466832D-01 0.100000000000D+01
  </mgrwgt>
  </event>
  <event>
  5     66 0.43779995E-03 0.50113117E+02 0.75467711E-02 0.11312939E+00
        2 -1    0    0  502    0 0.00000000E+00 0.00000000E+00 0.54960974E+02 0.54961906E+02 0.32000000E+00 0.0000E+00 0.9000E+01
       21 -1    0    0  501  502 0.00000000E+00 0.00000000E+00 -.17915026E+04 0.17915028E+04 0.75000000E+00 0.0000E+00 0.9000E+01
       25  1    1    2    0    0 -.96653960E+02 0.58125060E+02 -.26982978E+03 0.31804657E+03 0.12500000E+03 0.0000E+00 0.9000E+01
       24  1    1    2    0    0 0.11881622E+03 -.13178914E+02 -.14044192E+03 0.20120170E+03 0.80419002E+02 0.0000E+00 0.9000E+01
        1  1    1    2  501    0 -.22162256E+02 -.44946146E+02 -.13262700E+04 0.13272164E+04 0.32000000E+00 0.0000E+00 0.9000E+01
#aMCatNLO 1  0  0  2  5 0.89645030D+01 0.00000000D+00  -5  6  0 0.00000000D+00 0.00000000D+00 0.00000000D+00 0.00000000D+00 0.00000000D+00
  <mgrwgt>
 0.5346293775D-01    4    2    0
 0.313789317538257D+03 0.000000000000000D+00 0.000000000000000D+00 0.313789317538257D+03
 0.313789317538257D+03 0.000000000000000D+00 0.000000000000000D+00 -.313789317538257D+03
 0.189125510103696D+03 -.966539541012684D+02 0.581250720646535D+02 0.861565303738029D+02
 0.203366758218531D+03 0.118816222499154D+03 -.131789001545409D+02 0.143526458382042D+03
 0.235086366754286D+03 -.221622683978857D+02 -.449461719101126D+02 -.229682988755845D+03
 0.000000000000000D+00 0.000000000000000D+00 0.000000000000000D+00 0.000000000000000D+00
 0.370345178815336D+03 0.000000000000000D+00 0.000000000000000D+00 0.370345178815336D+03
 0.336205992523839D+03 0.000000000000000D+00 0.000000000000000D+00 -.336205992523839D+03
 0.195806987942264D+03 -.114205310087864D+03 0.474296947987708D+02 0.861565303738029D+02
 0.194398066028301D+03 0.100679764640331D+03 -.242308245309271D+02 0.143526458382042D+03
 0.240962264876368D+03 -.438681494110390D+02 -.581732175299115D+02 -.229682988755845D+03
 0.753838524922416D+02 0.573936948585717D+02 0.349743472620678D+02 0.341391862914964D+02
0.814798445103D-03 0.000000000000D+00 0.000000000000D+00 0.244814263062D-05 0.000000000000D+00  6 2 21 25 24 1 21 2 0.84556182D-02 0.27561588D+00 0.32860881D+05 0.32860881D+05 0.32860881D+05 0.12107684D+01  1  2  2  2  6  2       21 0.544474073738D-01 0.100000000000D+01
0.127876811618D-03 0.429980952540D-04 -.164484330682D-05 0.244814263062D-05 0.000000000000D+00  6 2 21 25 24 1 21 4 0.84556182D-02 0.27561588D+00 0.32860881D+05 0.32860881D+05 0.32860881D+05 0.12107684D+01  1  2  3  2  6  2       21 0.125268246326D-01 0.100000000000D+01
0.763937310086D-04 0.000000000000D+00 0.000000000000D+00 0.244814263062D-05 0.000000000000D+00  6 2 21 25 24 1 21 4 0.84556182D-02 0.27561588D+00 0.32860881D+05 0.32860881D+05 0.32860881D+05 0.12107684D+01  1  2 15  2  6  2       21 0.748353715792D-02 0.100000000000D+01
-.214320243231D-03 0.000000000000D+00 0.000000000000D+00 0.244814263062D-05 0.000000000000D+00  6 2 21 25 24 1 21 4 0.84556182D-02 0.27561588D+00 0.32860881D+05 0.32860881D+05 0.32860881D+05 0.12107684D+01  1  2  4  2  6  2       21 -.209948314180D-01 0.100000000000D+01
  </mgrwgt>
  </event>
  <event>
  5     66 0.43779995E-03 0.42449399E+02 0.75467711E-02 0.11433679E+00
        2 -1    0    0  502    0 0.00000000E+00 0.00000000E+00 0.94651608E+03 0.94651613E+03 0.32000000E+00 0.0000E+00 0.9000E+01
       21 -1    0    0  501  502 0.00000000E+00 0.00000000E+00 -.38640105E+02 0.38647383E+02 0.75000000E+00 0.0000E+00 0.9000E+01
       25  1    1    2    0    0 -.10774009E+03 -.98253704E+02 0.43930139E+03 0.47945013E+03 0.12500000E+03 0.0000E+00 0.9000E+01
       24  1    1    2    0    0 0.65554811E+02 0.10297247E+03 0.38834977E+03 0.41495003E+03 0.80419002E+02 0.0000E+00 0.9000E+01
        1  1    1    2  501    0 0.42185278E+02 -.47187654E+01 0.80224809E+02 0.90763356E+02 0.32000000E+00 0.0000E+00 0.9000E+01
#aMCatNLO 1  0  0  1  2 0.33278260D+02 0.00000000D+00  -5  6  0 0.00000000D+00 0.00000000D+00 0.00000000D+00 0.00000000D+00 0.00000000D+00
  <mgrwgt>
 0.1398086804D+00    9    2    0
 0.191251385122327D+03 0.000000000000000D+00 0.000000000000000D+00 0.191251385122327D+03
 0.191251385122327D+03 0.000000000000000D+00 0.000000000000000D+00 -.191251385122327D+03
 0.192170397572491D+03 -.107740666164873D+03 -.982536397521388D+02 -.652938228132270D+01
 0.146979695872148D+03 0.655543696585689D+02 0.102972519178961D+03 0.153329696049022D+02
 0.433526768000151D+02 0.421862965063040D+02 -.471887942682192D+01 -.880358732357955D+01
 0.000000000000000D+00 -.000000000000000D+00 -.000000000000000D+00 0.000000000000000D+00
 0.215081746948527D+03 0.000000000000000D+00 0.000000000000000D+00 0.215081746948527D+03
 0.203955039385319D+03 0.000000000000000D+00 0.000000000000000D+00 -.203955039385319D+03
 0.181632607463404D+03 -.102124464748769D+03 -.830262907804325D+02 -.652938228132270D+01
 0.157913755399722D+03 0.701352398220646D+02 0.115392748334847D+03 0.153329696049022D+02
 0.444013052400223D+02 0.435047557791360D+02 -.114410744752183D+01 -.880358732357955D+01
 0.350891182306971D+02 -.115155308524320D+02 -.312223501068925D+02 0.111267075632083D+02
0.172392785262D-05 0.000000000000D+00 0.000000000000D+00 0.254023861661D-06 0.000000000000D+00  6 2 21 25 24 1 21 2 0.14561842D+00 0.59451955D-02 0.36230568D+05 0.36230568D+05 0.36230568D+05 0.12063900D+01  1  2  2  1  6  1        2 0.181014011048D-01 0.100000000000D+01
0.318349755775D-07 0.909741721571D-07 -.348011364881D-08 0.254023861661D-06 0.000000000000D+00  6 2 21 25 24 1 21 4 0.14561842D+00 0.59451955D-02 0.36230568D+05 0.36230568D+05 0.36230568D+05 0.12063900D+01  1  2  3  1  6  1        2 0.486489053928D-03 0.100000000000D+01
0.171604939011D-06 0.000000000000D+00 0.000000000000D+00 0.254023861661D-06 0.000000000000D+00  6 2 21 25 24 1 21 4 0.14561842D+00 0.59451955D-02 0.36230568D+05 0.36230568D+05 0.36230568D+05 0.12063900D+01  1  2 15  1  6  1        2 0.262239637111D-02 0.100000000000D+01
0.737273055957D-05 0.000000000000D+00 0.000000000000D+00 0.250781170343D-06 0.000000000000D+00  6 2 21 25 24 1 21 4 0.16812423D+00 0.59451955D-02 0.43156087D+05 0.43156087D+05 0.43156087D+05 0.11986653D+01  1  2 12  1  6  1        2 0.894939117098D-01 0.100000000000D+01
-.242857908537D-05 0.000000000000D+00 0.000000000000D+00 0.254023861661D-06 0.000000000000D+00  6 2 21 25 24 1 21 4 0.14561842D+00 0.59451955D-02 0.36230568D+05 0.36230568D+05 0.36230568D+05 0.12063900D+01  1  2  4  1  6  1        2 -.371125505893D-01 0.100000000000D+01
-.196671679547D-04 0.000000000000D+00 -.450229557255D-05 0.254023861661D-06 0.000000000000D+00  6 2 21 25 24 1 21 4 0.17080273D+00 0.59451955D-02 0.36230568D+05 0.36230568D+05 0.36230568D+05 0.12063900D+01  1  2  5  1  6  1        2 -.239794797744D+00 0.100000000000D+01
0.201846950350D-04 0.000000000000D+00 0.444561287910D-05 0.254023861661D-06 0.000000000000D+00  6 2 21 25 24 1 21 4 0.14561842D+00 0.59451955D-02 0.36230568D+05 0.36230568D+05 0.36230568D+05 0.12063900D+01  1  2  6  1  6  1        2 0.308454239819D+00 0.100000000000D+01
0.162428535663D-06 0.000000000000D+00 0.000000000000D+00 0.250781170343D-06 0.000000000000D+00  6 21 21 25 24 1 -2 4 0.16812423D+00 0.59451955D-02 0.43156087D+05 0.43156087D+05 0.43156087D+05 0.11986653D+01  1  2 12  4  6  1        2 0.146400407010D-02 0.100000000000D+01
-.436522965353D-06 0.000000000000D+00 -.107916835217D-06 0.254023861661D-06 0.000000000000D+00  6 21 21 25 24 1 -2 4 0.17080273D+00 0.59451955D-02 0.36230568D+05 0.36230568D+05 0.36230568D+05 0.12063900D+01  1  2  5  4  6  1        2 -.390641338544D-02 0.100000000000D+01
  </mgrwgt>
  </event>
  <event>
  6     66 -.43779995E-03 0.15677598E+02 0.75467711E-02 0.12310641E+00
        2 -1    0    0  502    0 0.00000000E+00 0.00000000E+00 0.46527639E+03 0.46527650E+03 0.32000000E+00 0.0000E+00 0.9000E+01
       21 -1    0    0  503  502 0.00000000E+00 0.00000000E+00 -.65506303E+02 0.65510596E+02 0.75000000E+00 0.0000E+00 0.9000E+01
       25  1    1    2    0    0 0.11134631E+02 0.13164939E+02 0.37690203E+03 0.39746375E+03 0.12500000E+03 0.0000E+00 0.9000E+01
       24  1    1    2    0    0 -.10224556E+02 0.23388396E+02 0.11965881E+02 0.85217116E+02 0.80419002E+02 0.0000E+00 0.9000E+01
        1  1    1    2  501    0 0.12076759E+02 -.22265847E+02 0.13341290E+02 0.28630551E+02 0.32000000E+00 0.0000E+00 0.9000E+01
       21  1    1    2  503  501 -.12986834E+02 -.14287488E+02 -.24391129E+01 0.19475676E+02 0.75000000E+00 0.0000E+00 0.9000E+01
#aMCatNLO 2  0  0  2  1 0.19307775D+02 0.00000000D+00  -5  6  0 0.00000000D+00 0.00000000D+00 0.00000000D+00 0.00000000D+00 0.00000000D+00
  <mgrwgt>
 -.5399626979D-01    2    2    0
 0.157555020914849D+03 0.000000000000000D+00 0.000000000000000D+00 0.157555020914849D+03
 0.157555020914849D+03 0.000000000000000D+00 0.000000000000000D+00 -.157555020914849D+03
 0.162805629672263D+03 0.441537366799760D+01 0.577378551044577D+01 0.104056911972407D+03
 0.122364485763789D+03 -.152715808989956D+02 0.178366916908628D+02 -.891879065133633D+02
 0.299399263936464D+02 0.108562072309981D+02 -.236104772013086D+02 -.148690054590440D+02
 0.000000000000000D+00 -.000000000000000D+00 -.000000000000000D+00 -.000000000000000D+00
 0.160790316374079D+03 0.000000000000000D+00 0.000000000000000D+00 0.160790316374079D+03
 0.189552392464339D+03 0.000000000000000D+00 0.000000000000000D+00 -.189552392464339D+03
 0.163554726080074D+03 0.111343233117925D+02 0.131656499377369D+02 0.104056911972407D+03
 0.122773313537864D+03 -.102248020845112D+02 0.233889143996081D+02 -.891879065133633D+02
 0.293729718438937D+02 0.120773125811466D+02 -.222670759736965D+02 -.148690054590440D+02
 0.346416973765872D+02 -.129868338084280D+02 -.142874883636485D+02 -.287620760902604D+02
-.489341754458D-05 0.000000000000D+00 0.000000000000D+00 0.462263991615D-06 0.000000000000D+00  6 2 21 25 24 1 21 4 0.70139275D-01 0.10152275D-01 0.16281236D+05 0.16281236D+05 0.16281236D+05 0.12437848D+01  1  2 13  2  6  2       21 -.795319946877D-01 0.100000000000D+01
0.158559052367D-05 0.000000000000D+00 0.000000000000D+00 0.468360736026D-06 0.205456333698D-07  6 2 21 25 24 1 21 4 0.71579542D-01 0.10077981D-01 0.16281236D+05 0.16281236D+05 0.16281236D+05 0.12437848D+01  1  2  1  2  6  2       21 0.255357248999D-01 0.100000000000D+01
  </mgrwgt>
  </event>
  <event>
  5     66 0.43779995E-03 0.59805089E+02 0.75467711E-02 0.11947203E+00
        2 -1    0    0  502    0 0.00000000E+00 0.00000000E+00 0.32631525E+04 0.32631526E+04 0.32000000E+00 0.0000E+00 0.9000E+01
       21 -1    0    0  501  502 0.00000000E+00 0.00000000E+00 -.17283118E+02 0.17299384E+02 0.75000000E+00 0.0000E+00 0.9000E+01
       25  1    1    2    0    0 -.67659408E+02 0.21620136E+02 0.16024480E+04 0.16088846E+04 0.12500000E+03 0.0000E+00 0.9000E+01
       24  1    1    2    0    0 0.55994802E+02 0.37036305E+02 0.15833129E+04 0.15867747E+04 0.80419002E+02 0.0000E+00 0.9000E+01
        1  1    1    2  501    0 0.11664606E+02 -.58656441E+02 0.60108539E+02 0.84792570E+02 0.32000000E+00 0.0000E+00 0.9000E+01
#aMCatNLO 1  0  0  1  2 0.14094060D+01 0.00000000D+00  -5  6  0 0.00000000D+00 0.00000000D+00 0.00000000D+00 0.00000000D+00 0.00000000D+00
  <mgrwgt>
 0.1489407962D-01   11    2    0
 0.237537692367640D+03 0.000000000000000D+00 0.000000000000000D+00 0.237537692367640D+03
 0.237537692367640D+03 0.000000000000000D+00 0.000000000000000D+00 -.237537692367640D+03
 0.161094078006457D+03 -.676594141467384D+02 0.216201690964706D+02 0.726709978898782D+02
 0.139159721493787D+03 0.559947958821051D+02 0.370363341355583D+02 0.916029744046472D+02
 0.174821585235036D+03 0.116646182646334D+02 -.586565032320289D+02 -.164273972294525D+03
 0.000000000000000D+00 -.000000000000000D+00 -.000000000000000D+00 0.000000000000000D+00
 0.253899428808467D+03 0.000000000000000D+00 0.000000000000000D+00 0.253899428808467D+03
 0.237569091312193D+03 0.000000000000000D+00 0.000000000000000D+00 -.237569091312193D+03
 0.161037157254752D+03 -.673950366983816D+02 0.220181995359497D+02 0.726709978898782D+02
 0.139343771016002D+03 0.562233674537146D+02 0.373804574473826D+02 0.916029744046472D+02
 0.174696547102011D+03 0.119514725087018D+02 -.582246331101910D+02 -.164273972294525D+03
 0.163910447478958D+02 -.779803264034825D+00 -.117402387314130D+01 0.163303374962741D+02
0.660793571867D-06 0.000000000000D+00 0.000000000000D+00 0.191104456073D-05 0.000000000000D+00  6 2 21 25 24 1 21 2 0.50202472D+00 0.26601936D-02 0.23767608D+05 0.23767608D+05 0.23767608D+05 0.12256585D+01  1  2  2  1  6  1        2 0.149201380565D-02 0.100000000000D+01
0.435336787648D-07 0.348710348150D-07 -.133395183853D-08 0.191104456073D-05 0.000000000000D+00  6 2 21 25 24 1 21 4 0.50202472D+00 0.26601936D-02 0.23767608D+05 0.23767608D+05 0.23767608D+05 0.12256585D+01  1  2  3  1  6  1        2 0.147662881005D-03 0.100000000000D+01
0.600587014877D-07 0.000000000000D+00 0.000000000000D+00 0.191104456073D-05 0.000000000000D+00  6 2 21 25 24 1 21 4 0.50202472D+00 0.26601936D-02 0.23767608D+05 0.23767608D+05 0.23767608D+05 0.12256585D+01  1  2 15  1  6  1        2 0.203714483653D-03 0.100000000000D+01
0.555611747975D-07 0.000000000000D+00 0.000000000000D+00 0.190988837718D-05 0.000000000000D+00  6 2 21 25 24 1 21 4 0.53663640D+00 0.26601936D-02 0.23956604D+05 0.23956604D+05 0.23956604D+05 0.12252876D+01  1  2 12  1  6  1        2 0.135724184362D-03 0.100000000000D+01
-.574348959338D-03 0.000000000000D+00 0.000000000000D+00 0.191104456073D-05 0.000000000000D+00  6 2 21 25 24 1 21 4 0.50202472D+00 0.26601936D-02 0.23767608D+05 0.23767608D+05 0.23767608D+05 0.12256585D+01  1  2  4  1  6  1        2 -.194814737565D+01 0.100000000000D+01
-.583975317730D-03 0.000000000000D+00 -.227655775473D-05 0.191104456073D-05 0.000000000000D+00  6 2 21 25 24 1 21 4 0.53662038D+00 0.26601936D-02 0.23767608D+05 0.23767608D+05 0.23767608D+05 0.12256585D+01  1  2  5  1  6  1        2 -.142904860562D+01 0.100000000000D+01
0.583138679497D-03 0.000000000000D+00 0.227270515271D-05 0.191104456073D-05 0.000000000000D+00  6 2 21 25 24 1 21 4 0.50202472D+00 0.26601936D-02 0.23767608D+05 0.23767608D+05 0.23767608D+05 0.12256585D+01  1  2  6  1  6  1        2 0.197796142856D+01 0.100000000000D+01
0.578037162579D-03 0.000000000000D+00 0.000000000000D+00 0.191104456073D-05 0.774483653072D-05  6 2 21 25 24 1 21 4 0.53660448D+00 0.26605453D-02 0.23956604D+05 0.23956604D+05 0.23956604D+05 0.12252876D+01  1  2 11  1  6  1        2 0.141215389816D+01 0.100000000000D+01
0.819971653624D-09 0.000000000000D+00 0.000000000000D+00 0.190988837718D-05 0.000000000000D+00  6 21 21 25 24 1 -2 4 0.53663640D+00 0.26601936D-02 0.23956604D+05 0.23956604D+05 0.23956604D+05 0.12252876D+01  1  2 12  4  6  1        2 0.157373189671D-06 0.100000000000D+01
-.661737755761D-05 0.000000000000D+00 -.258098929085D-07 0.191104456073D-05 0.000000000000D+00  6 21 21 25 24 1 -2 4 0.53662038D+00 0.26601936D-02 0.23767608D+05 0.23767608D+05 0.23767608D+05 0.12256585D+01  1  2  5  4  6  1        2 -.127350614572D-02 0.100000000000D+01
0.660965493542D-05 0.000000000000D+00 0.000000000000D+00 0.191104456073D-05 0.885465625400D-07  6 21 21 25 24 1 -2 4 0.53660448D+00 0.26605453D-02 0.23956604D+05 0.23956604D+05 0.23956604D+05 0.12252876D+01  1  2 11  4  6  1        2 0.126896759023D-02 0.100000000000D+01
  </mgrwgt>
  </event>
  <event>
  5     66 -.43779995E-03 0.63873058E+02 0.75467711E-02 0.11858116E+00
        2 -1    0    0  502    0 0.00000000E+00 0.00000000E+00 0.16043526E+03 0.16043558E+03 0.32000000E+00 0.0000E+00 0.9000E+01
       21 -1    0    0  501  502 -.00000000E+00 -.00000000E+00 -.60872202E+03 0.60872248E+03 0.75000000E+00 0.0000E+00 0.9000E+01
       25  1    1    2    0    0 -.62075481E+02 0.96337042E+01 0.15429301E+02 0.14074529E+03 0.12500000E+03 0.0000E+00 0.9000E+01
       24  1    1    2    0    0 0.73720270E+02 0.53168866E+02 0.34458989E+02 0.12615960E+03 0.80419002E+02 0.0000E+00 0.9000E+01
        1  1    1    2  501    0 -.11644790E+02 -.62802571E+02 -.49817505E+03 0.50225317E+03 0.32000000E+00 0.0000E+00 0.9000E+01
#aMCatNLO 1  0  0  5  2 0.25299553D+01 0.00000000D+00  -5  6  0 0.00000000D+00 0.00000000D+00 0.00000000D+00 0.00000000D+00 0.00000000D+00
  <mgrwgt>
 -.1404893121D+00    8    2    0
 0.312507240454406D+03 0.000000000000000D+00 0.000000000000000D+00 0.312507240454406D+03
 0.312507240454406D+03 -.000000000000000D+00 -.000000000000000D+00 -.312507240454406D+03
 0.184271168519388D+03 -.620754780388520D+02 0.963371819046297D+01 0.119936191566913D+03
 0.179970565163317D+03 0.737202729001068D+02 0.531688799602925D+02 0.132893114713047D+03
 0.260772747226108D+03 -.116447948612547D+02 -.628025981507554D+02 -.252829306279960D+03
 0.000000000000000D+00 0.000000000000000D+00 0.000000000000000D+00 -.000000000000000D+00
 0.312507240454406D+03 0.000000000000000D+00 0.000000000000000D+00 0.312507240454406D+03
 0.312507240454406D+03 -.000000000000000D+00 -.000000000000000D+00 -.312507240454406D+03
 0.184243528459788D+03 -.620774418120608D+02 0.962312718725858D+01 0.119893554541188D+03
 0.179935977102138D+03 0.737183549987825D+02 0.531585363529041D+02 0.132851473647909D+03
 0.237176313435449D+03 -.116331607606282D+02 -.593419861782533D+02 -.229337746352334D+03
 0.236586619114382D+02 -.775242609340765D-02 -.343967736190928D+01 -.234072818367618D+02
0.372584621609D-05 0.000000000000D+00 0.000000000000D+00 0.341692521116D-05 0.000000000000D+00  6 2 21 25 24 1 21 2 0.24682408D-01 0.93649601D-01 0.26427775D+05 0.26427775D+05 0.26427775D+05 0.12207200D+01  1  2  2  3  6  5        1 0.144250890714D-02 0.100000000000D+01
0.388289142813D-06 0.196618306606D-06 -.752141004642D-08 0.341692521116D-05 0.000000000000D+00  6 2 21 25 24 1 21 4 0.24682408D-01 0.93649601D-01 0.26427775D+05 0.26427775D+05 0.26427775D+05 0.12207200D+01  1  2  3  3  6  5        1 0.224016996381D-03 0.100000000000D+01
0.313393186854D-06 0.000000000000D+00 0.000000000000D+00 0.341692521116D-05 0.000000000000D+00  6 2 21 25 24 1 21 4 0.24682408D-01 0.93649601D-01 0.26427775D+05 0.26427775D+05 0.26427775D+05 0.12207200D+01  1  2 15  3  6  5        1 0.180807013806D-03 0.100000000000D+01
0.448108277484D-05 0.000000000000D+00 0.000000000000D+00 0.341687333145D-05 0.000000000000D+00  6 2 21 25 24 1 21 4 0.24682408D-01 0.93649601D-01 0.26433070D+05 0.26433070D+05 0.26433070D+05 0.12207108D+01  1  2 12  3  6  5        1 0.258518929781D-02 0.100000000000D+01
-.322177117170D-02 0.000000000000D+00 0.000000000000D+00 0.341692521116D-05 0.000000000000D+00  6 2 21 25 24 1 21 4 0.24682408D-01 0.93649601D-01 0.26427775D+05 0.26427775D+05 0.26427775D+05 0.12207200D+01  1  2  4  3  6  5        1 -.185874757064D+01 0.100000000000D+01
-.994348117525D-03 0.000000000000D+00 0.000000000000D+00 0.341692521116D-05 0.000000000000D+00  6 2 21 25 24 1 21 4 0.24682408D-01 0.93649601D-01 0.26427775D+05 0.26427775D+05 0.26427775D+05 0.12207200D+01  1  2  5  3  6  5        1 -.573672694094D+00 0.100000000000D+01
0.108863439038D-02 0.000000000000D+00 -.000000000000D+00 0.341692521116D-05 0.000000000000D+00  6 2 21 25 24 1 21 4 0.24682408D-01 0.93649601D-01 0.26427775D+05 0.26427775D+05 0.26427775D+05 0.12207200D+01  1  2  6  3  6  5        1 0.628069599173D+00 0.100000000000D+01
0.287639978943D-02 0.000000000000D+00 0.000000000000D+00 0.341692521116D-05 0.137945387195D-04  6 2 21 25 24 1 21 4 0.24682408D-01 0.93649601D-01 0.26433070D+05 0.26433070D+05 0.26433070D+05 0.12207108D+01  1  2 11  3  6  5        1 0.165942883126D+01 0.100000000000D+01
  </mgrwgt>
  </event>
  <event>
  6     66 -.43779995E-03 0.78718635E+02 0.75467711E-02 0.11753179E+00
        2 -1    0    0  503    0 0.00000000E+00 0.00000000E+00 0.44090785E+03 0.44090797E+03 0.32000000E+00 0.0000E+00 0.9000E+01
       21 -1    0    0  501  502 0.00000000E+00 0.00000000E+00 -.70462814E+02 0.70466805E+02 0.75000000E+00 0.0000E+00 0.9000E+01
       25  1    1    2    0    0 -.57585410E+02 -.81797474E+02 0.14991635E+03 0.21933266E+03 0.12500000E+03 0.0000E+00 0.9000E+01
       24  1    1    2    0    0 0.46533540E+02 -.47349591E+01 0.72985735E+02 0.11824518E+03 0.80419002E+02 0.0000E+00 0.9000E+01
        1  1    1    2  501    0 -.34899625E+01 0.68549220E+02 0.10729487E+03 0.12737138E+03 0.32000000E+00 0.0000E+00 0.9000E+01
       21  1    1    2  503  502 0.14541833E+02 0.17983214E+02 0.40248085E+02 0.46425551E+02 0.75000000E+00 0.0000E+00 0.9000E+01
#aMCatNLO 2  0  0  1  2 0.23127059D+02 0.00000000D+00  -5  6  0 0.00000000D+00 0.00000000D+00 0.00000000D+00 0.00000000D+00 0.00000000D+00
  <mgrwgt>
 -.1099528023D+00    2    2    0
 0.163258147664991D+03 0.000000000000000D+00 0.000000000000000D+00 0.163258147664991D+03
 0.163258147664991D+03 0.000000000000000D+00 0.000000000000000D+00 -.163258147664991D+03
 0.153647155005459D+03 -.506027987627524D+02 -.731627005896290D+02 -.830808287633701D+01
 0.963807195469394D+02 0.507750643024116D+02 0.510150113414596D+00 -.156096040296676D+02
 0.764884207775837D+02 -.172265539659193D+00 0.726525504762144D+02 0.239176869060046D+02
 0.000000000000000D+00 0.000000000000000D+00 0.000000000000000D+00 0.000000000000000D+00
 0.181501650564374D+03 0.000000000000000D+00 0.000000000000000D+00 0.181501650564374D+03
 0.171164717641789D+03 0.000000000000000D+00 0.000000000000000D+00 -.171164717641789D+03
 0.160315256793547D+03 -.575854166004729D+02 -.817977818443183D+02 -.830808287633701D+01
 0.943327495533150D+02 0.465335397721263D+02 -.473514754055628D+01 -.156096040296676D+02
 0.726863059266103D+02 -.348995602895454D+01 0.685497157487840D+02 0.239176869060046D+02
 0.253320559326911D+02 0.145418328573011D+02 0.179832136360905D+02 0.103369329225857D+02
-.910061656442D-05 0.000000000000D+00 0.000000000000D+00 0.217087347876D-06 0.000000000000D+00  6 2 21 25 24 1 21 4 0.69183866D-01 0.10339655D-01 0.29738604D+05 0.29738604D+05 0.29738604D+05 0.12152975D+01  1  2 13  1  6  1        2 -.133006096879D+00 0.100000000000D+01
0.167845315186D-05 0.000000000000D+00 0.000000000000D+00 0.219435403570D-06 0.865357534782D-08  6 2 21 25 24 1 21 4 0.67830133D-01 0.10840404D-01 0.29738604D+05 0.29738604D+05 0.29738604D+05 0.12152975D+01  1  2  1  1  6  1        2 0.230532946095D-01 0.100000000000D+01
  </mgrwgt>
  </event>
  <event>
  6     66 0.43779995E-03 0.31069398E+02 0.75467711E-02 0.12043251E+00
        2 -1    0    0  502    0 0.00000000E+00 0.00000000E+00 0.20653272E+04 0.20653273E+04 0.32000000E+00 0.0000E+00 0.9000E+01
       21 -1    0    0  501  502 0.00000000E+00 0.00000000E+00 -.33443406E+02 0.33451815E+02 0.75000000E+00 0.0000E+00 0.9000E+01
       25  1    1    2    0    0 0.35411448E+02 0.72575148E+02 0.14183635E+04 0.14261490E+04 0.12500000E+03 0.0000E+00 0.9000E+01
       24  1    1    2    0    0 -.55294204E+02 -.50349255E+02 0.62559835E+03 0.63516376E+03 0.80419002E+02 0.0000E+00 0.9000E+01
        1  1    1    2  503    0 0.22221721E+02 -.23574596E+02 -.97806164E+01 0.33842714E+02 0.32000000E+00 0.0000E+00 0.9000E+01
       21  1    1    2  501  503 -.23389658E+01 0.13487025E+01 -.22973781E+01 0.36235626E+01 0.75000000E+00 0.0000E+00 0.9000E+01
#aMCatNLO 2  0  0  5  2 0.61570872D+01 0.00000000D+00  -5  6  0 0.00000000D+00 0.00000000D+00 0.00000000D+00 0.00000000D+00 0.00000000D+00
  <mgrwgt>
 0.1052227058D+00    4    2    0
 0.262831557832685D+03 0.000000000000000D+00 0.000000000000000D+00 0.262831557832685D+03
 0.262831557832685D+03 -.000000000000000D+00 -.000000000000000D+00 -.262831557832685D+03
 0.211859096762009D+03 0.353728322109068D+02 0.726183147076928D+02 0.150780038437480D+03
 0.117879572758373D+03 -.553156968122782D+02 -.503252289537424D+02 0.428476689710375D+02
 0.195924446144987D+03 0.199428646013714D+02 -.222930857539504D+02 -.193627707408517D+03
 0.000000000000000D+00 0.000000000000000D+00 0.000000000000000D+00 -.000000000000000D+00
 0.262831557832685D+03 0.000000000000000D+00 0.000000000000000D+00 0.262831557832685D+03
 0.262831557832685D+03 -.000000000000000D+00 -.000000000000000D+00 -.262831557832685D+03
 0.211584222424055D+03 0.354114272904494D+02 0.725751712859667D+02 0.150405314097799D+03
 0.117804097412691D+03 -.552942152359137D+02 -.503492420849348D+02 0.426391017232460D+02
 0.173049351159200D+03 0.222533074772242D+02 -.236046531906798D+02 -.169981436017854D+03
 0.232254446694242D+02 -.237051953175993D+01 0.137872398964789D+01 -.230629798031911D+02
-.458779705804D-06 0.000000000000D+00 0.000000000000D+00 0.748283215347D-05 0.000000000000D+00  6 2 21 25 24 1 21 4 0.31774330D+00 0.51457882D-02 0.20816094D+05 0.20816094D+05 0.20816094D+05 0.12319184D+01  1  2  8  3  6  5        1 -.245350488385D-02 0.100000000000D+01
-.261669679675D-06 0.000000000000D+00 0.000000000000D+00 0.748283215347D-05 0.000000000000D+00  6 2 21 25 24 1 21 4 0.31774330D+00 0.51457882D-02 0.20816094D+05 0.20816094D+05 0.20816094D+05 0.12319184D+01  1  2  9  3  6  5        1 -.139938150907D-02 0.100000000000D+01
0.294512757986D-06 0.000000000000D+00 0.000000000000D+00 0.748283215347D-05 0.000000000000D+00  6 2 21 25 24 1 21 4 0.31774330D+00 0.51457882D-02 0.20816094D+05 0.20816094D+05 0.20816094D+05 0.12319184D+01  1  2 10  3  6  5        1 0.157502278530D-02 0.100000000000D+01
0.202332613153D-04 0.000000000000D+00 0.000000000000D+00 0.748283215347D-05 0.945734684997D-05  6 2 21 25 24 1 21 4 0.31774330D+00 0.51457882D-02 0.21581860D+05 0.21581860D+05 0.21581860D+05 0.12302031D+01  1  2  1  3  6  5        1 0.107500569365D+00 0.100000000000D+01
  </mgrwgt>
  </event>
  <event>
  6     66 0.43779995E-03 0.64970893E+02 0.75467711E-02 0.11686164E+00
        2 -1    0    0  502    0 0.00000000E+00 0.00000000E+00 0.70078731E+03 0.70078738E+03 0.32000000E+00 0.0000E+00 0.9000E+01
       21 -1    0    0  501  502 0.00000000E+00 0.00000000E+00 -.51904766E+02 0.51910185E+02 0.75000000E+00 0.0000E+00 0.9000E+01
       25  1    1    2    0    0 0.90906904E+02 0.73053201E+02 0.32520469E+03 0.36740158E+03 0.12500000E+03 0.0000E+00 0.9000E+01
       24  1    1    2    0    0 -.89034220E+00 -.41744050E+02 0.17632956E+03 0.19824906E+03 0.80419002E+02 0.0000E+00 0.9000E+01
        1  1    1    2  503    0 -.21613338E+02 -.52734147E+00 -.90555335E-01 0.21622328E+02 0.32000000E+00 0.0000E+00 0.9000E+01
       21  1    1    2  501  503 -.68403224E+02 -.30781810E+02 0.14743885E+03 0.16542460E+03 0.75000000E+00 0.0000E+00 0.9000E+01
#aMCatNLO 2  0  0  5  2 0.30336938D+02 0.00000000D+00  -5  6  0 0.00000000D+00 0.00000000D+00 0.00000000D+00 0.00000000D+00 0.00000000D+00
  <mgrwgt>
 0.1406240546D-01    2    2    0
 0.190725635948866D+03 0.000000000000000D+00 0.000000000000000D+00 0.190725635948866D+03
 0.190725635948866D+03 -.000000000000000D+00 -.000000000000000D+00 -.190725635948866D+03
 0.177715598904563D+03 0.991238098966505D+02 0.759111683428902D+02 0.192301566919631D+02
 0.907929743433812D+02 0.338953826088704D+01 -.402554409787389D+02 0.120066122504477D+02
 0.112942698649788D+03 -.102513348157537D+03 -.356557273641513D+02 -.312367689424108D+02
 0.000000000000000D+00 0.000000000000000D+00 -.000000000000000D+00 0.000000000000000D+00
 0.190725635948866D+03 0.000000000000000D+00 0.000000000000000D+00 0.190725635948866D+03
 0.190725635948866D+03 -.000000000000000D+00 -.000000000000000D+00 -.190725635948866D+03
 0.171811631367678D+03 0.909630156346326D+02 0.730727179312006D+02 0.167434869135313D+02
 0.912381208066634D+02 -.860540669021391D+00 -.417336841375523D+02 0.107115737417401D+02
 0.422933487752787D+02 -.211640221039591D+02 -.419064561981518D+00 -.366146951906388D+02
 0.761081709481115D+02 -.689384528616522D+02 -.309199692316668D+02 0.915963453536737D+01
-.115247369203D-05 0.000000000000D+00 0.000000000000D+00 0.215130831378D-06 0.000000000000D+00  6 2 21 25 24 1 21 4 0.10781385D+00 0.79857711D-02 0.32099048D+05 0.32099048D+05 0.32099048D+05 0.12118278D+01  1  2 13  3  6  5        1 -.158090928983D-01 0.100000000000D+01
0.217761488396D-05 0.000000000000D+00 0.000000000000D+00 0.213662758699D-06 0.243751547598D-08  6 2 21 25 24 1 21 4 0.10781385D+00 0.79857711D-02 0.32099048D+05 0.32099048D+05 0.32099048D+05 0.12118278D+01  1  2  1  3  6  5        1 0.298714983566D-01 0.100000000000D+01
  </mgrwgt>
  </event>
  <event>
  6     66 0.43779995E-03 0.30807549E+02 0.75467711E-02 0.11010685E+00
        2 -1    0    0  502    0 0.00000000E+00 0.00000000E+00 0.16055588E+04 0.16055589E+04 0.32000000E+00 0.0000E+00 0.9000E+01
       21 -1    0    0  501  502 0.00000000E+00 0.00000000E+00 -.51202917E+02 0.51208410E+02 0.75000000E+00 0.0000E+00 0.9000E+01
       25  1    1    2    0    0 -.22776286E+03 -.59224214E+02 0.96295804E+03 0.99914795E+03 0.12500000E+03 0.0000E+00 0.9000E+01
       24  1    1    2    0    0 0.18983864E+03 0.60434312E+02 0.48165804E+03 0.52740184E+03 0.80419002E+02 0.0000E+00 0.9000E+01
        1  1    1    2  503    0 0.25955171E+01 -.19688964E+02 0.74165206E+02 0.76778722E+02 0.32000000E+00 0.0000E+00 0.9000E+01
       21  1    1    2  501  503 0.35328701E+02 0.18478866E+02 0.35574642E+02 0.53438781E+02 0.75000000E+00 0.0000E+00 0.9000E+01
#aMCatNLO 2  0  0  5  2 0.19898966D+02 0.00000000D+00  -5  6  0 0.00000000D+00 0.00000000D+00 0.00000000D+00 0.00000000D+00 0.00000000D+00
  <mgrwgt>
 0.6959974876D-01    1    2    0
 0.286729616139101D+03 0.000000000000000D+00 0.000000000000000D+00 0.286729616139101D+03
 0.286729616139101D+03 -.000000000000000D+00 -.000000000000000D+00 -.286729616139101D+03
 0.287007645803329D+03 -.237446312067223D+03 -.589152313531180D+02 0.830459701000145D+02
 0.210721201032824D+03 0.182468733148619D+03 0.606694729849521D+02 -.309933070389638D+02
 0.757303854420502D+02 0.549775789186041D+02 -.175424163183410D+01 -.520526630610508D+02
 0.000000000000000D+00 0.000000000000000D+00 0.000000000000000D+00 0.000000000000000D+00
 0.286729616139101D+03 0.000000000000000D+00 0.000000000000000D+00 0.286729616139101D+03
 0.286729616139101D+03 -.000000000000000D+00 -.000000000000000D+00 -.286729616139101D+03
 0.276850158164553D+03 -.228066242473707D+03 -.592145335216403D+02 0.741649387478815D+02
 0.217929121883791D+03 0.189599555550910D+03 0.604419404931005D+02 -.377447555959147D+02
 0.200196691195030D+02 0.222232324813919D+01 -.189124096979074D+02 0.617812191961781D+01
 0.586602831103557D+02 0.362443636746577D+02 0.176850027264472D+02 -.425983050715846D+02
0.195085543679D-04 0.000000000000D+00 0.000000000000D+00 0.179383040053D-06 0.171636729749D-08  6 2 21 25 24 1 21 4 0.24700948D+00 0.78777968D-02 0.73099452D+05 0.73099452D+05 0.73099452D+05 0.11762838D+01  1  2  1  3  6  5        1 0.695997487564D-01 0.100000000000D+01
  </mgrwgt>
  </event>
  <event>
  5     66 0.43779995E-03 0.32129647E+02 0.75467711E-02 0.12256696E+00
        2 -1    0    0  502    0 0.00000000E+00 0.00000000E+00 0.18752198E+03 0.18752225E+03 0.32000000E+00 0.0000E+00 0.9000E+01
       21 -1    0    0  501  502 0.00000000E+00 0.00000000E+00 -.45587924E+03 0.45587985E+03 0.75000000E+00 0.0000E+00 0.9000E+01
       25  1    1    2    0    0 -.33751906E+02 -.57171668E+01 0.74354647E+02 0.14941717E+03 0.12500000E+03 0.0000E+00 0.9000E+01
       24  1    1    2    0    0 0.58876747E+02 -.14309206E+02 0.41154870E+02 0.10877575E+03 0.80419002E+02 0.0000E+00 0.9000E+01
        1  1    1    2  501    0 -.25124840E+02 0.20026373E+02 -.38386677E+03 0.38520918E+03 0.32000000E+00 0.0000E+00 0.9000E+01
#aMCatNLO 1  0  0  2  1 0.30396609D+01 0.00000000D+00  -5  6  0 0.00000000D+00 0.00000000D+00 0.00000000D+00 0.00000000D+00 0.00000000D+00
  <mgrwgt>
 0.1663359727D-02    1    2    0
 0.292382733668184D+03 0.000000000000000D+00 0.000000000000000D+00 0.292382733668184D+03
 0.292382733668184D+03 0.000000000000000D+00 0.000000000000000D+00 -.292382733668184D+03
 0.198522258086314D+03 -.337518993080047D+02 -.571717246036936D+01 0.150380218738536D+03
 0.138569701408359D+03 0.588767517191141D+02 -.143092103517258D+02 0.952004243695744D+02
 0.247673507841694D+03 -.251248524111095D+02 0.200263828120951D+02 -.245580643108110D+03
 0.000000000000000D+00 0.000000000000000D+00 -.000000000000000D+00 -.000000000000000D+00
 0.362592590410465D+03 0.000000000000000D+00 0.000000000000000D+00 0.362592590410465D+03
 0.122829622878289D+04 0.000000000000000D+00 0.000000000000000D+00 -.122829622878289D+04
 0.233234982135940D+03 -.897964468187903D+02 0.899774685286392D+02 0.150380218738536D+03
 0.134989365549775D+03 0.233672276234692D+02 0.463223998752877D+02 0.952004243695744D+02
 0.299149472443640D+03 -.961055879809752D+02 0.141224185438423D+03 -.245580643108110D+03
 0.923514999063999D+03 0.162534807176296D+03 -.277524053842350D+03 -.865703638372423D+03
0.165036551815D-05 0.000000000000D+00 0.000000000000D+00 0.177179502085D-04 0.000000000000D+00  6 2 21 25 24 1 21 4 0.28849604D-01 0.70135336D-01 0.17216358D+05 0.17216358D+05 0.17216358D+05 0.12410568D+01  1  2 14  2  6  2       21 0.166335972737D-02 0.100000000000D+01
  </mgrwgt>
  </event>
  <event>
  5     66 0.43779995E-03 0.53096986E+02 0.75467711E-02 0.10026532E+00
        2 -1    0    0  502    0 0.00000000E+00 0.00000000E+00 0.25721644E+03 0.25721664E+03 0.32000000E+00 0.0000E+00 0.9000E+01
       21 -1    0    0  501  502 0.00000000E+00 0.00000000E+00 -.86264799E+03 0.86264831E+03 0.75000000E+00 0.0000E+00 0.9000E+01
       25  1    1    2    0    0 0.58891587E+02 0.16546645E+02 0.22100307E+03 0.26116923E+03 0.12500000E+03 0.0000E+00 0.9000E+01
       24  1    1    2    0    0 -.41166086E+02 0.33504282E+02 -.13853207E+03 0.16874695E+03 0.80419002E+02 0.0000E+00 0.9000E+01
        1  1    1    2  501    0 -.17725501E+02 -.50050927E+02 -.68790255E+03 0.68994877E+03 0.32000000E+00 0.0000E+00 0.9000E+01
#aMCatNLO 1  0  0  1  1 0.11175632D+02 0.00000000D+00  -5  6  0 0.00000000D+00 0.00000000D+00 0.00000000D+00 0.00000000D+00 0.00000000D+00
  <mgrwgt>
 0.1481234230D+00    5    2    0
 0.471049401112843D+03 0.000000000000000D+00 0.000000000000000D+00 0.471049401112843D+03
 0.471049401112843D+03 0.000000000000000D+00 0.000000000000000D+00 -.471049401112843D+03
 0.452475425259097D+03 0.588915898713253D+02 0.165466532555673D+02 0.430542680081624D+03
 0.111561658360930D+03 -.411660854572023D+02 0.335042845506095D+02 -.562281423021633D+02
 0.378061718605659D+03 -.177255044141229D+02 -.500509378061767D+02 -.374314537779461D+03
 0.000000000000000D+00 -.000000000000000D+00 -.000000000000000D+00 0.000000000000000D+00
 0.961722815700603D+03 0.000000000000000D+00 0.000000000000000D+00 0.961722815700603D+03
 0.684291036687657D+03 0.000000000000000D+00 0.000000000000000D+00 -.684291036687657D+03
 0.537935158189852D+03 0.191957214230812D+03 0.227012473114627D+03 0.430542680081624D+03
 0.130008947585425D+03 -.871010806324897D+01 0.848389092850290D+02 -.562281423021633D+02
 0.401288500710875D+03 0.869833156056738D+02 0.115563793707087D+03 -.374314537779461D+03
 0.576781245902108D+03 -.270230421773237D+03 -.427415176106743D+03 0.277431779012946D+03
0.543027283019D-03 0.000000000000D+00 0.000000000000D+00 0.112060309434D-05 0.000000000000D+00  6 2 21 25 24 1 21 2 0.39571800D-01 0.13271512D+00 0.20825085D+05 0.20825085D+05 0.20825085D+05 0.12318979D+01  1  2  2  1  6  1        2 0.558848050349D-01 0.100000000000D+01
0.916430646195D-04 0.286563370133D-04 -.109621563132D-05 0.112060309434D-05 0.000000000000D+00  6 2 21 25 24 1 21 4 0.39571800D-01 0.13271512D+00 0.20825085D+05 0.20825085D+05 0.20825085D+05 0.12318979D+01  1  2  3  1  6  1        2 0.143126845686D-01 0.100000000000D+01
0.507478157083D-04 0.000000000000D+00 0.000000000000D+00 0.112060309434D-05 0.000000000000D+00  6 2 21 25 24 1 21 4 0.39571800D-01 0.13271512D+00 0.20825085D+05 0.20825085D+05 0.20825085D+05 0.12318979D+01  1  2 15  1  6  1        2 0.792572227690D-02 0.100000000000D+01
0.116911279753D-02 0.000000000000D+00 -.569734560564D-03 0.112060309434D-05 0.000000000000D+00  6 2 21 25 24 1 21 4 0.11061366D+00 0.13271512D+00 0.20825085D+05 0.20825085D+05 0.20825085D+05 0.12318979D+01  1  2  5  1  6  1        2 0.591477874087D-01 0.100000000000D+01
0.166773913182D-03 0.000000000000D+00 -.657475068720D-04 0.112060309434D-05 0.000000000000D+00  6 21 21 25 24 1 -2 4 0.11061366D+00 0.13271512D+00 0.20825085D+05 0.20825085D+05 0.20825085D+05 0.12318979D+01  1  2  5  4  6  1        2 0.108524236629D-01 0.100000000000D+01
  </mgrwgt>
  </event>
  <event>
  5     66 0.43779995E-03 0.22937329E+02 0.75467711E-02 0.10729318E+00
        2 -1    0    0  502    0 0.00000000E+00 0.00000000E+00 0.22886176E+04 0.22886176E+04 0.32000000E+00 0.0000E+00 0.9000E+01
       21 -1    0    0  501  502 0.00000000E+00 0.00000000E+00 -.13379098E+03 0.13379308E+03 0.75000000E+00 0.0000E+00 0.9000E+01
       25  1    1    2    0    0 0.26090387E+02 0.11895613E+03 0.12293681E+04 0.12416933E+04 0.12500000E+03 0.0000E+00 0.9000E+01
       24  1    1    2    0    0 -.14310516E+02 -.13863748E+03 0.10458519E+04 0.10581581E+04 0.80419002E+02 0.0000E+00 0.9000E+01
        1  1    1    2  501    0 -.11779872E+02 0.19681351E+02 -.12039338E+03 0.12255933E+03 0.32000000E+00 0.0000E+00 0.9000E+01
#aMCatNLO 1  0  0  5  2 0.79391397D+01 0.00000000D+00  -5  6  0 0.00000000D+00 0.00000000D+00 0.00000000D+00 0.00000000D+00 0.00000000D+00
  <mgrwgt>
 0.1639538062D+01    3    2    0
 0.553352474685129D+03 0.000000000000000D+00 0.000000000000000D+00 0.553352474685129D+03
 0.553352474685129D+03 -.000000000000000D+00 -.000000000000000D+00 -.553352474685129D+03
 0.324220113601895D+03 0.260903880840264D+02 0.118956131963474D+03 0.273244235770746D+03
 0.279807190505983D+03 -.143105152288251D+02 -.138637484664721D+03 0.228909818278303D+03
 0.502677645262380D+03 -.117798728552014D+02 0.196813527012467D+02 -.502154054049049D+03
 0.000000000000000D+00 0.000000000000000D+00 0.000000000000000D+00 0.000000000000000D+00
 0.553352474685129D+03 0.000000000000000D+00 0.000000000000000D+00 0.553352474685129D+03
 0.553352474685129D+03 -.000000000000000D+00 -.000000000000000D+00 -.553352474685129D+03
 0.288393376721697D+03 0.250478309616802D+02 0.120697995792423D+03 0.228801966147037D+03
 0.248641760259808D+03 -.152098395599401D+02 -.137134928603967D+03 0.190573295946916D+03
 0.153776273157010D+03 0.697819977044197D+02 -.131398498897189D+03 -.388850803008713D+02
 0.415893539231743D+03 -.796199891061599D+02 0.147835431708734D+03 -.380490181793082D+03
0.384482679433D-02 0.000000000000D+00 0.000000000000D+00 0.529172656358D-04 0.000000000000D+00  6 2 21 25 24 1 21 2 0.35209517D+00 0.20583391D-01 0.32106477D+05 0.32106477D+05 0.32106477D+05 0.12118174D+01  1  2  2  3  6  5        1 0.848427634630D+00 0.100000000000D+01
0.206538860444D-02 0.202897084220D-03 -.776159755406D-05 0.529172656358D-04 0.000000000000D+00  6 2 21 25 24 1 21 4 0.35209517D+00 0.20583391D-01 0.32106477D+05 0.32106477D+05 0.32106477D+05 0.12118174D+01  1  2  3  3  6  5        1 0.669289726883D+00 0.100000000000D+01
0.375931494851D-03 0.000000000000D+00 0.000000000000D+00 0.529172656358D-04 0.000000000000D+00  6 2 21 25 24 1 21 4 0.35209517D+00 0.20583391D-01 0.32106477D+05 0.32106477D+05 0.32106477D+05 0.12118174D+01  1  2 15  3  6  5        1 0.121820700945D+00 0.100000000000D+01
  </mgrwgt>
  </event>
  <event>
  5     66 0.43779995E-03 0.65080177E+02 0.75467711E-02 0.10302811E+00
        2 -1    0    0  502    0 0.00000000E+00 0.00000000E+00 0.34783570E+04 0.34783571E+04 0.32000000E+00 0.0000E+00 0.9000E+01
       21 -1    0    0  501  502 0.00000000E+00 0.00000000E+00 -.13504444E+02 0.13525254E+02 0.75000000E+00 0.0000E+00 0.9000E+01
       25  1    1    2    0    0 0.92908194E+02 -.92093697E+02 0.27067957E+04 0.27128364E+04 0.12500000E+03 0.0000E+00 0.9000E+01
       24  1    1    2    0    0 -.75610427E+02 0.29354927E+02 0.46024468E+03 0.47420568E+03 0.80419002E+02 0.0000E+00 0.9000E+01
        1  1    1    2  501    0 -.17297767E+02 0.62738770E+02 0.29781220E+03 0.30484024E+03 0.32000000E+00 0.0000E+00 0.9000E+01
#aMCatNLO 1  0  0  2  1 0.34506347D+03 0.00000000D+00  -5  6  0 0.00000000D+00 0.00000000D+00 0.00000000D+00 0.00000000D+00 0.00000000D+00
  <mgrwgt>
 0.1733018528D+00   12    2    0
 0.216817058605054D+03 0.000000000000000D+00 0.000000000000000D+00 0.216817058605054D+03
 0.216817058605054D+03 0.000000000000000D+00 0.000000000000000D+00 -.216817058605054D+03
 0.217365992844946D+03 0.929082729641192D+02 -.920939821119750D+02 0.120456324529072D+03
 0.141110679005287D+03 -.756103758662999D+02 0.293547424333415D+02 -.828636104269637D+02
 0.751574453598749D+02 -.172978970978193D+02 0.627392396786335D+02 -.375927141021079D+02
 0.000000000000000D+00 0.000000000000000D+00 0.000000000000000D+00 -.000000000000000D+00
 0.386895405081425D+03 0.000000000000000D+00 0.000000000000000D+00 0.386895405081425D+03
 0.615515537382919D+03 0.000000000000000D+00 0.000000000000000D+00 -.615515537382919D+03
 0.267525641752770D+03 -.510028260550054D+02 -.197063326396824D+03 0.120456324529072D+03
 0.222327336035535D+03 -.183475227387705D+03 -.493223214815118D+02 -.828636104269637D+02
 0.790749099516388D+02 -.630725530693592D+02 0.293510183743229D+02 -.375927141021079D+02
 0.433483054724400D+03 0.297550606512069D+03 0.217034629504013D+03 -.228620132301494D+03
0.147057368170D-04 0.000000000000D+00 0.000000000000D+00 0.157073764215D-06 0.000000000000D+00  6 2 21 25 24 1 21 2 0.53513345D+00 0.20792087D-02 0.32442445D+05 0.32442445D+05 0.32442445D+05 0.12113469D+01  1  2  2  2  6  2       21 0.349573389735D-01 0.100000000000D+01
-.380977201003D-06 0.776043052415D-06 -.296866457230D-07 0.157073764215D-06 0.000000000000D+00  6 2 21 25 24 1 21 4 0.53513345D+00 0.20792087D-02 0.32442445D+05 0.32442445D+05 0.32442445D+05 0.12113469D+01  1  2  3  2  6  2       21 -.132888566958D-02 0.100000000000D+01
0.153490298712D-05 0.000000000000D+00 0.000000000000D+00 0.157073764215D-06 0.000000000000D+00  6 2 21 25 24 1 21 4 0.53513345D+00 0.20792087D-02 0.32442445D+05 0.32442445D+05 0.32442445D+05 0.12113469D+01  1  2 15  2  6  2       21 0.535389146231D-02 0.100000000000D+01
0.178546294868D-01 0.000000000000D+00 -.582593063933D-02 0.157073764215D-06 0.000000000000D+00  6 2 21 25 24 1 21 4 0.53513345D+00 0.74671025D-01 0.32442445D+05 0.32442445D+05 0.32442445D+05 0.12113469D+01  1  2  5  2  6  2       21 0.874767208931D-01 0.100000000000D+01
0.792691314707D-02 0.000000000000D+00 -.258620816070D-02 0.157073764215D-06 0.000000000000D+00  6 2 -1 25 24 1 -1 4 0.53513345D+00 0.74671025D-01 0.32442445D+05 0.32442445D+05 0.32442445D+05 0.12113469D+01  1  2  5  5  6  2       21 0.422795201581D-02 0.100000000000D+01
0.792691314707D-02 0.000000000000D+00 -.258620816070D-02 0.157073764215D-06 0.000000000000D+00  6 2 1 25 24 1 1 4 0.53513345D+00 0.74671025D-01 0.32442445D+05 0.32442445D+05 0.32442445D+05 0.12113469D+01  1  2  5  6  6  2       21 0.125021796787D-01 0.100000000000D+01
0.792691314707D-02 0.000000000000D+00 -.258620816070D-02 0.157073764215D-06 0.000000000000D+00  6 2 -2 25 24 1 -2 4 0.53513345D+00 0.74671025D-01 0.32442445D+05 0.32442445D+05 0.32442445D+05 0.12113469D+01  1  2  5  7  6  2       21 0.326212516331D-02 0.100000000000D+01
0.792691314707D-02 0.000000000000D+00 -.258620816070D-02 0.157073764215D-06 0.000000000000D+00  6 2 2 25 24 1 2 4 0.53513345D+00 0.74671025D-01 0.32442445D+05 0.32442445D+05 0.32442445D+05 0.12113469D+01  1  2  5  8  6  2       21 0.193984142924D-01 0.100000000000D+01
0.792691314707D-02 0.000000000000D+00 -.258620816070D-02 0.157073764215D-06 0.000000000000D+00  6 2 -3 25 24 1 -3 4 0.53513345D+00 0.74671025D-01 0.32442445D+05 0.32442445D+05 0.32442445D+05 0.12113469D+01  1  2  5  9  6  2       21 0.205529539132D-02 0.100000000000D+01
0.792691314707D-02 0.000000000000D+00 -.258620816070D-02 0.157073764215D-06 0.000000000000D+00  6 2 -4 25 24 1 -4 4 0.53513345D+00 0.74671025D-01 0.32442445D+05 0.32442445D+05 0.32442445D+05 0.12113469D+01  1  2  5  9  6  2       21 0.166961946450D-02 0.100000000000D+01
0.792691314707D-02 0.000000000000D+00 -.258620816070D-02 0.157073764215D-06 0.000000000000D+00  6 2 3 25 24 1 3 4 0.53513345D+00 0.74671025D-01 0.32442445D+05 0.32442445D+05 0.32442445D+05 0.12113469D+01  1  2  5 10  6  2       21 0.205758162599D-02 0.100000000000D+01
0.792691314707D-02 0.000000000000D+00 -.258620816070D-02 0.157073764215D-06 0.000000000000D+00  6 2 4 25 24 1 4 4 0.53513345D+00 0.74671025D-01 0.32442445D+05 0.32442445D+05 0.32442445D+05 0.12113469D+01  1  2  5 10  6  2       21 0.166961946450D-02 0.100000000000D+01
  </mgrwgt>
  </event>
  <event>
  5     66 0.43779995E-03 0.52533899E+02 0.75467711E-02 0.11690004E+00
        2 -1    0    0  502    0 0.00000000E+00 0.00000000E+00 0.20113515E+03 0.20113541E+03 0.32000000E+00 0.0000E+00 0.9000E+01
       21 -1    0    0  501  502 0.00000000E+00 0.00000000E+00 -.18632490E+03 0.18632641E+03 0.75000000E+00 0.0000E+00 0.9000E+01
       25  1    1    2    0    0 -.23331371E+02 -.10373115E+03 -.58138198E+02 0.17409639E+03 0.12500000E+03 0.0000E+00 0.9000E+01
       24  1    1    2    0    0 0.72629832E+02 0.85582116E+02 0.81199592E+02 0.16018733E+03 0.80419002E+02 0.0000E+00 0.9000E+01
        1  1    1    2  501    0 -.49298461E+02 0.18149032E+02 -.82511413E+01 0.53178091E+02 0.32000000E+00 0.0000E+00 0.9000E+01
#aMCatNLO 1  0  0  2  1 0.28156498D+01 0.00000000D+00  -5  6  0 0.00000000D+00 0.00000000D+00 0.00000000D+00 0.00000000D+00 0.00000000D+00
  <mgrwgt>
 0.4515253219D-01   41    2    0
 0.193589329250432D+03 0.000000000000000D+00 0.000000000000000D+00 0.193589329250432D+03
 0.193589329250432D+03 0.000000000000000D+00 0.000000000000000D+00 -.193589329250432D+03
 0.176447604515600D+03 -.233309700527674D+02 -.103731296024523D+03 -.648401203018867D+02
 0.157198584558954D+03 0.726301895900432D+02 0.855819843687765D+02 0.751316081591833D+02
 0.535324694263100D+02 -.492992195372758D+02 0.181493116557466D+02 -.102914878572966D+02
 0.000000000000000D+00 0.000000000000000D+00 -.000000000000000D+00 -.000000000000000D+00
 0.193824522999390D+03 0.000000000000000D+00 0.000000000000000D+00 0.193824522999390D+03
 0.202208911438008D+03 0.000000000000000D+00 0.000000000000000D+00 -.202208911438008D+03
 0.175963883682529D+03 -.241225631825391D+02 -.102723654069449D+03 -.648401203018867D+02
 0.157365862029340D+03 0.719236091772907D+02 0.864814111598206D+02 0.751316081591833D+02
 0.538591506713201D+02 -.495404445583414D+02 0.184563740122749D+02 -.102914878572966D+02
 0.884453805420948D+01 0.173939856358987D+01 -.221413110264691D+01 -.838438843861809D+01
0.140587247860D-05 0.000000000000D+00 0.000000000000D+00 0.186258544355D-06 0.000000000000D+00  6 2 21 25 24 1 21 2 0.30944005D-01 0.28665505D-01 0.31456222D+05 0.31456222D+05 0.31456222D+05 0.12127438D+01  1  2  2  2  6  2       21 0.503101724079D-02 0.100000000000D+01
-.253876323569D-07 0.741899289490D-07 -.283805148448D-08 0.186258544355D-06 0.000000000000D+00  6 2 21 25 24 1 21 4 0.30944005D-01 0.28665505D-01 0.31456222D+05 0.31456222D+05 0.31456222D+05 0.12127438D+01  1  2  3  2  6  2       21 -.133619614195D-03 0.100000000000D+01
0.158423635505D-06 0.000000000000D+00 0.000000000000D+00 0.186258544355D-06 0.000000000000D+00  6 2 21 25 24 1 21 4 0.30944005D-01 0.28665505D-01 0.31456222D+05 0.31456222D+05 0.31456222D+05 0.12127438D+01  1  2 15  2  6  2       21 0.833811706342D-03 0.100000000000D+01
0.376885222559D-06 0.000000000000D+00 0.000000000000D+00 0.186038391166D-06 0.000000000000D+00  6 2 21 25 24 1 21 4 0.30944005D-01 0.29958829D-01 0.31958128D+05 0.31958128D+05 0.31958128D+05 0.12120269D+01  1  2 12  2  6  2       21 0.181634276131D-02 0.100000000000D+01
0.338598723789D-06 0.000000000000D+00 0.000000000000D+00 0.186038391166D-06 0.000000000000D+00  6 2 21 25 24 1 21 4 0.30944005D-01 0.30099522D-01 0.31958128D+05 0.31958128D+05 0.31958128D+05 0.12120269D+01  1  2 12  2  6  2       21 0.161701979083D-02 0.100000000000D+01
-.149156940531D-03 0.000000000000D+00 0.000000000000D+00 0.186258544355D-06 0.000000000000D+00  6 2 21 25 24 1 21 4 0.30944005D-01 0.28665505D-01 0.31456222D+05 0.31456222D+05 0.31456222D+05 0.12127438D+01  1  2  4  2  6  2       21 -.785039446294D+00 0.100000000000D+01
-.237602219608D-03 0.000000000000D+00 -.100061177416D-04 0.186258544355D-06 0.000000000000D+00  6 2 21 25 24 1 21 4 0.30944005D-01 0.29963239D-01 0.31456222D+05 0.31456222D+05 0.31456222D+05 0.12127438D+01  1  2  5  2  6  2       21 -.114762035118D+01 0.100000000000D+01
0.237255966989D-03 0.000000000000D+00 0.996699378527D-05 0.186258544355D-06 0.000000000000D+00  6 2 21 25 24 1 21 4 0.30944005D-01 0.28665505D-01 0.31456222D+05 0.31456222D+05 0.31456222D+05 0.12127438D+01  1  2  6  2  6  2       21 0.124872025594D+01 0.100000000000D+01
0.149446073623D-03 0.000000000000D+00 0.000000000000D+00 0.186258544355D-06 0.357831063491D-06  6 2 21 25 24 1 21 4 0.30981599D-01 0.29941839D-01 0.31958128D+05 0.31958128D+05 0.31958128D+05 0.12120269D+01  1  2 11  2  6  2       21 0.720075496835D+00 0.100000000000D+01
0.102974944506D-07 0.000000000000D+00 0.000000000000D+00 0.186038391166D-06 0.000000000000D+00  6 2 -1 25 24 1 -1 4 0.30944005D-01 0.29958829D-01 0.31958128D+05 0.31958128D+05 0.31958128D+05 0.12120269D+01  1  2 12  5  6  2       21 0.433473907136D-05 0.100000000000D+01
0.102873430863D-07 0.000000000000D+00 0.000000000000D+00 0.186038391166D-06 0.000000000000D+00  6 2 -1 25 24 1 -1 4 0.30944005D-01 0.30099522D-01 0.31958128D+05 0.31958128D+05 0.31958128D+05 0.12120269D+01  1  2 12  5  6  2       21 0.429628179160D-05 0.100000000000D+01
-.234110249951D-05 0.000000000000D+00 -.105007622383D-06 0.186258544355D-06 0.000000000000D+00  6 2 -1 25 24 1 -1 4 0.30944005D-01 0.29963239D-01 0.31456222D+05 0.31456222D+05 0.31456222D+05 0.12127438D+01  1  2  5  5  6  2       21 -.987349774365D-03 0.100000000000D+01
0.495022817748D-05 0.000000000000D+00 0.000000000000D+00 0.186258544355D-06 0.117899035667D-07  6 2 -1 25 24 1 -1 4 0.30981599D-01 0.29941839D-01 0.31958128D+05 0.31958128D+05 0.31958128D+05 0.12120269D+01  1  2 11  5  6  2       21 0.208304601103D-02 0.100000000000D+01
0.102974944506D-07 0.000000000000D+00 0.000000000000D+00 0.186038391166D-06 0.000000000000D+00  6 2 1 25 24 1 1 4 0.30944005D-01 0.29958829D-01 0.31958128D+05 0.31958128D+05 0.31958128D+05 0.12120269D+01  1  2 12  6  6  2       21 0.761363613077D-05 0.100000000000D+01
0.102873430863D-07 0.000000000000D+00 0.000000000000D+00 0.186038391166D-06 0.000000000000D+00  6 2 1 25 24 1 1 4 0.30944005D-01 0.30099522D-01 0.31958128D+05 0.31958128D+05 0.31958128D+05 0.12120269D+01  1  2 12  6  6  2       21 0.756157843976D-05 0.100000000000D+01
-.234110249951D-05 0.000000000000D+00 -.105007622383D-06 0.186258544355D-06 0.000000000000D+00  6 2 1 25 24 1 1 4 0.30944005D-01 0.29963239D-01 0.31456222D+05 0.31456222D+05 0.31456222D+05 0.12127438D+01  1  2  5  6  6  2       21 -.173430859652D-02 0.100000000000D+01
0.188669710811D-05 0.000000000000D+00 0.000000000000D+00 0.186258544355D-06 0.208970077550D-08  6 2 1 25 24 1 1 4 0.30981599D-01 0.29941839D-01 0.31958128D+05 0.31958128D+05 0.31958128D+05 0.12120269D+01  1  2 11  6  6  2       21 0.139411092585D-02 0.100000000000D+01
0.102974944506D-07 0.000000000000D+00 0.000000000000D+00 0.186038391166D-06 0.000000000000D+00  6 2 -2 25 24 1 -2 4 0.30944005D-01 0.29958829D-01 0.31958128D+05 0.31958128D+05 0.31958128D+05 0.12120269D+01  1  2 12  7  6  2       21 0.380709102787D-05 0.100000000000D+01
0.102873430863D-07 0.000000000000D+00 0.000000000000D+00 0.186038391166D-06 0.000000000000D+00  6 2 -2 25 24 1 -2 4 0.30944005D-01 0.30099522D-01 0.31958128D+05 0.31958128D+05 0.31958128D+05 0.12120269D+01  1  2 12  7  6  2       21 0.377124180838D-05 0.100000000000D+01
-.234110249951D-05 0.000000000000D+00 -.105007622383D-06 0.186258544355D-06 0.000000000000D+00  6 2 -2 25 24 1 -2 4 0.30944005D-01 0.29963239D-01 0.31456222D+05 0.31456222D+05 0.31456222D+05 0.12127438D+01  1  2  5  7  6  2       21 -.867127710925D-03 0.100000000000D+01
0.189520309611D-05 0.000000000000D+00 0.000000000000D+00 0.186258544355D-06 0.419369200796D-08  6 2 -2 25 24 1 -2 4 0.30981599D-01 0.29941839D-01 0.31958128D+05 0.31958128D+05 0.31958128D+05 0.12120269D+01  1  2 11  7  6  2       21 0.700468405182D-03 0.100000000000D+01
0.102974944506D-07 0.000000000000D+00 0.000000000000D+00 0.186038391166D-06 0.000000000000D+00  6 2 2 25 24 1 2 4 0.30944005D-01 0.29958829D-01 0.31958128D+05 0.31958128D+05 0.31958128D+05 0.12120269D+01  1  2 12  8  6  2       21 0.100069308241D-04 0.100000000000D+01
0.102873430863D-07 0.000000000000D+00 0.000000000000D+00 0.186038391166D-06 0.000000000000D+00  6 2 2 25 24 1 2 4 0.30944005D-01 0.30099522D-01 0.31958128D+05 0.31958128D+05 0.31958128D+05 0.12120269D+01  1  2 12  8  6  2       21 0.994605562714D-05 0.100000000000D+01
-.234110249951D-05 0.000000000000D+00 -.105007622383D-06 0.186258544355D-06 0.000000000000D+00  6 2 2 25 24 1 2 4 0.30944005D-01 0.29963239D-01 0.31456222D+05 0.31456222D+05 0.31456222D+05 0.12127438D+01  1  2  5  8  6  2       21 -.227945557420D-02 0.100000000000D+01
0.192437408065D-05 0.000000000000D+00 0.000000000000D+00 0.186258544355D-06 0.427804654076D-08  6 2 2 25 24 1 2 4 0.30981599D-01 0.29941839D-01 0.31958128D+05 0.31958128D+05 0.31958128D+05 0.12120269D+01  1  2 11  8  6  2       21 0.186876005291D-02 0.100000000000D+01
0.102974944506D-07 0.000000000000D+00 0.000000000000D+00 0.186038391166D-06 0.000000000000D+00  6 2 -3 25 24 1 -3 4 0.30944005D-01 0.29958829D-01 0.31958128D+05 0.31958128D+05 0.31958128D+05 0.12120269D+01  1  2 12  9  6  2       21 0.244871955369D-05 0.100000000000D+01
0.102974944506D-07 0.000000000000D+00 0.000000000000D+00 0.186038391166D-06 0.000000000000D+00  6 2 -4 25 24 1 -4 4 0.30944005D-01 0.29958829D-01 0.31958128D+05 0.31958128D+05 0.31958128D+05 0.12120269D+01  1  2 12  9  6  2       21 0.206471139399D-05 0.100000000000D+01
0.102873430863D-07 0.000000000000D+00 0.000000000000D+00 0.186038391166D-06 0.000000000000D+00  6 2 -3 25 24 1 -3 4 0.30944005D-01 0.30099522D-01 0.31958128D+05 0.31958128D+05 0.31958128D+05 0.12120269D+01  1  2 12  9  6  2       21 0.242507321041D-05 0.100000000000D+01
0.102873430863D-07 0.000000000000D+00 0.000000000000D+00 0.186038391166D-06 0.000000000000D+00  6 2 -4 25 24 1 -4 4 0.30944005D-01 0.30099522D-01 0.31958128D+05 0.31958128D+05 0.31958128D+05 0.12120269D+01  1  2 12  9  6  2       21 0.204438766307D-05 0.100000000000D+01
-.234110249951D-05 0.000000000000D+00 -.105007622383D-06 0.186258544355D-06 0.000000000000D+00  6 2 -3 25 24 1 -3 4 0.30944005D-01 0.29963239D-01 0.31456222D+05 0.31456222D+05 0.31456222D+05 0.12127438D+01  1  2  5  9  6  2       21 -.557546277766D-03 0.100000000000D+01
-.234110249951D-05 0.000000000000D+00 -.105007622383D-06 0.186258544355D-06 0.000000000000D+00  6 2 -4 25 24 1 -4 4 0.30944005D-01 0.29963239D-01 0.31456222D+05 0.31456222D+05 0.31456222D+05 0.12127438D+01  1  2  5  9  6  2       21 -.470032925553D-03 0.100000000000D+01
0.189382991288D-05 0.000000000000D+00 0.000000000000D+00 0.186258544355D-06 0.419065343783D-08  6 2 -3 25 24 1 -3 4 0.30981599D-01 0.29941839D-01 0.31958128D+05 0.31958128D+05 0.31958128D+05 0.12120269D+01  1  2 11  9  6  2       21 0.450227832229D-03 0.100000000000D+01
0.189382991288D-05 0.000000000000D+00 0.000000000000D+00 0.186258544355D-06 0.419065343783D-08  6 2 -4 25 24 1 -4 4 0.30981599D-01 0.29941839D-01 0.31958128D+05 0.31958128D+05 0.31958128D+05 0.12120269D+01  1  2 11  9  6  2       21 0.379631777252D-03 0.100000000000D+01
0.102974944506D-07 0.000000000000D+00 0.000000000000D+00 0.186038391166D-06 0.000000000000D+00  6 2 3 25 24 1 3 4 0.30944005D-01 0.29958829D-01 0.31958128D+05 0.31958128D+05 0.31958128D+05 0.12120269D+01  1  2 12 10  6  2       21 0.244878900963D-05 0.100000000000D+01
0.102974944506D-07 0.000000000000D+00 0.000000000000D+00 0.186038391166D-06 0.000000000000D+00  6 2 4 25 24 1 4 4 0.30944005D-01 0.29958829D-01 0.31958128D+05 0.31958128D+05 0.31958128D+05 0.12120269D+01  1  2 12 10  6  2       21 0.206471139399D-05 0.100000000000D+01
0.102873430863D-07 0.000000000000D+00 0.000000000000D+00 0.186038391166D-06 0.000000000000D+00  6 2 3 25 24 1 3 4 0.30944005D-01 0.30099522D-01 0.31958128D+05 0.31958128D+05 0.31958128D+05 0.12120269D+01  1  2 12 10  6  2       21 0.242514701890D-05 0.100000000000D+01
0.102873430863D-07 0.000000000000D+00 0.000000000000D+00 0.186038391166D-06 0.000000000000D+00  6 2 4 25 24 1 4 4 0.30944005D-01 0.30099522D-01 0.31958128D+05 0.31958128D+05 0.31958128D+05 0.12120269D+01  1  2 12 10  6  2       21 0.204438766307D-05 0.100000000000D+01
-.234110249951D-05 0.000000000000D+00 -.105007622383D-06 0.186258544355D-06 0.000000000000D+00  6 2 3 25 24 1 3 4 0.30944005D-01 0.29963239D-01 0.31456222D+05 0.31456222D+05 0.31456222D+05 0.12127438D+01  1  2  5 10  6  2       21 -.557561968014D-03 0.100000000000D+01
-.234110249951D-05 0.000000000000D+00 -.105007622383D-06 0.186258544355D-06 0.000000000000D+00  6 2 4 25 24 1 4 4 0.30944005D-01 0.29963239D-01 0.31456222D+05 0.31456222D+05 0.31456222D+05 0.12127438D+01  1  2  5 10  6  2       21 -.470032925553D-03 0.100000000000D+01
0.189382991288D-05 0.000000000000D+00 0.000000000000D+00 0.186258544355D-06 0.419065343783D-08  6 2 3 25 24 1 3 4 0.30981599D-01 0.29941839D-01 0.31958128D+05 0.31958128D+05 0.31958128D+05 0.12120269D+01  1  2 11 10  6  2       21 0.450240490294D-03 0.100000000000D+01
0.189382991288D-05 0.000000000000D+00 0.000000000000D+00 0.186258544355D-06 0.419065343783D-08  6 2 4 25 24 1 4 4 0.30981599D-01 0.29941839D-01 0.31958128D+05 0.31958128D+05 0.31958128D+05 0.12120269D+01  1  2 11 10  6  2       21 0.379631777252D-03 0.100000000000D+01
  </mgrwgt>
  </event>
  <event>
  5     66 0.43779995E-03 0.51099139E+02 0.75467711E-02 0.11587333E+00
        2 -1    0    0  502    0 0.00000000E+00 0.00000000E+00 0.13582705E+04 0.13582705E+04 0.32000000E+00 0.0000E+00 0.9000E+01
       21 -1    0    0  501  502 0.00000000E+00 0.00000000E+00 -.27003233E+02 0.27013647E+02 0.75000000E+00 0.0000E+00 0.9000E+01
       25  1    1    2    0    0 -.37697641E+02 0.73376860E+02 0.61162467E+03 0.62969438E+03 0.12500000E+03 0.0000E+00 0.9000E+01
       24  1    1    2    0    0 -.63162306E+01 -.99336009E+02 0.67713761E+03 0.68912270E+03 0.80419002E+02 0.0000E+00 0.9000E+01
        1  1    1    2  501    0 0.44013872E+02 0.25959149E+02 0.42504962E+02 0.66467078E+02 0.32000000E+00 0.0000E+00 0.9000E+01
#aMCatNLO 1  0  0  2  1 0.52384661D+02 0.00000000D+00  -5  6  0 0.00000000D+00 0.00000000D+00 0.00000000D+00 0.00000000D+00 0.00000000D+00
  <mgrwgt>
 0.4971712457D-01    4    2    0
 0.191533112634706D+03 0.000000000000000D+00 0.000000000000000D+00 0.191533112634706D+03
 0.191533112634706D+03 0.000000000000000D+00 0.000000000000000D+00 -.191533112634706D+03
 0.151591992283523D+03 -.376977452408007D+02 0.733767987631626D+02 0.234490411641442D+02
 0.138826345784676D+03 -.631632575957021D+01 -.993360651630262D+02 0.538329686751701D+02
 0.926478872012128D+02 0.440140710003709D+02 0.259592663998636D+02 -.772820098393143D+02
 0.000000000000000D+00 0.000000000000000D+00 0.000000000000000D+00 0.000000000000000D+00
 0.220777479734733D+03 0.000000000000000D+00 0.000000000000000D+00 0.220777479734733D+03
 0.218297319971743D+03 0.000000000000000D+00 0.000000000000000D+00 -.218297319971743D+03
 0.153381611600783D+03 -.564679198701463D+02 0.645169378634358D+02 0.234490411641442D+02
 0.146698064681804D+03 -.238894631627334D+02 -.107630902906325D+03 0.538329686751701D+02
 0.865517834527005D+02 0.329848898881223D+02 0.207532940302914D+02 -.772820098393143D+02
 0.524433399711889D+02 0.473724931447574D+02 0.223606710125982D+02 0.248015976299022D+01
0.414984122326D-05 0.000000000000D+00 0.000000000000D+00 0.654857813194D-06 0.000000000000D+00  6 2 21 25 24 1 21 2 0.20896549D+00 0.41551475D-02 0.27032368D+05 0.27032368D+05 0.27032368D+05 0.12196751D+01  1  2  2  2  6  2       21 0.475491685690D-01 0.100000000000D+01
0.147856338332D-06 0.218993137848D-06 -.837733380750D-08 0.654857813194D-06 0.000000000000D+00  6 2 21 25 24 1 21 4 0.20896549D+00 0.41551475D-02 0.27032368D+05 0.27032368D+05 0.27032368D+05 0.12196751D+01  1  2  3  2  6  2       21 0.252022713208D-02 0.100000000000D+01
0.411747609376D-06 0.000000000000D+00 0.000000000000D+00 0.654857813194D-06 0.000000000000D+00  6 2 21 25 24 1 21 4 0.20896549D+00 0.41551475D-02 0.27032368D+05 0.27032368D+05 0.27032368D+05 0.12196751D+01  1  2 15  2  6  2       21 0.701828212726D-02 0.100000000000D+01
-.432414603528D-06 0.000000000000D+00 0.000000000000D+00 0.654857813194D-06 0.000000000000D+00  6 2 21 25 24 1 21 4 0.20896549D+00 0.41551475D-02 0.27032368D+05 0.27032368D+05 0.27032368D+05 0.12196751D+01  1  2  4  2  6  2       21 -.737055325738D-02 0.100000000000D+01
  </mgrwgt>
  </event>
  <event>
  5     66 0.43779995E-03 0.33259240E+03 0.75467711E-02 0.10135924E+00
        2 -1    0    0  502    0 0.00000000E+00 0.00000000E+00 0.64258182E+03 0.64258190E+03 0.32000000E+00 0.0000E+00 0.9000E+01
       21 -1    0    0  501  502 0.00000000E+00 0.00000000E+00 -.50689479E+03 0.50689534E+03 0.75000000E+00 0.0000E+00 0.9000E+01
       25  1    1    2    0    0 -.11345221E+03 0.34643173E+03 0.25697422E+03 0.46319228E+03 0.12500000E+03 0.0000E+00 0.9000E+01
       24  1    1    2    0    0 0.41383986E+02 0.11546312E+03 0.91269068E+02 0.17274729E+03 0.80419002E+02 0.0000E+00 0.9000E+01
        1  1    1    2  501    0 0.72068222E+02 -.46189485E+03 -.21255625E+03 0.51353767E+03 0.32000000E+00 0.0000E+00 0.9000E+01
#aMCatNLO 1  0  0  2  1 0.18834404D+01 0.00000000D+00  -5  6  0 0.00000000D+00 0.00000000D+00 0.00000000D+00 0.00000000D+00 0.00000000D+00
  <mgrwgt>
 0.4302196289D-01   31    2    0
 0.570720371411899D+03 0.000000000000000D+00 0.000000000000000D+00 0.570720371411899D+03
 0.570720371411899D+03 0.000000000000000D+00 0.000000000000000D+00 -.570720371411899D+03
 0.435906080374175D+03 -.113452212909518D+03 0.346431756061396D+03 0.203722224328440D+03
 0.163114084857484D+03 0.413839845722794D+02 0.115463135739771D+03 0.713765986201678D+02
 0.542420577592139D+03 0.720682283372389D+02 -.461894891801167D+03 -.275098822948608D+03
 0.000000000000000D+00 -.000000000000000D+00 0.000000000000000D+00 -.000000000000000D+00
 0.571494589337053D+03 0.000000000000000D+00 0.000000000000000D+00 0.571494589337053D+03
 0.571867760708988D+03 0.000000000000000D+00 0.000000000000000D+00 -.571867760708988D+03
 0.435339037898724D+03 -.113015116962782D+03 0.345861123243345D+03 0.203722224328440D+03
 0.163004582761003D+03 0.415475954147177D+02 0.115249540265410D+03 0.713765986201678D+02
 0.543098676053546D+03 0.726128237167950D+02 -.462605866127180D+03 -.275098822948608D+03
 0.192005333276854D+01 -.114530216873021D+01 0.149520261842515D+01 -.373171371935200D+00
0.444965010711D-04 0.000000000000D+00 0.000000000000D+00 0.197883802463D-06 0.000000000000D+00  6 2 21 25 24 1 21 2 0.98858791D-01 0.77983862D-01 0.24976176D+06 0.24976176D+06 0.24976176D+06 0.11287295D+01  1  2  2  2  6  2       21 0.434011114036D-02 0.100000000000D+01
-.330672578073D-05 0.234814487316D-05 -.898256156523D-07 0.197883802463D-06 0.000000000000D+00  6 2 21 25 24 1 21 4 0.98858791D-01 0.77983862D-01 0.24976176D+06 0.24976176D+06 0.24976176D+06 0.11287295D+01  1  2  3  2  6  2       21 -.410915888693D-03 0.100000000000D+01
0.448608169966D-05 0.000000000000D+00 0.000000000000D+00 0.197883802463D-06 0.000000000000D+00  6 2 21 25 24 1 21 4 0.98858791D-01 0.77983862D-01 0.24976176D+06 0.24976176D+06 0.24976176D+06 0.11287295D+01  1  2 15  2  6  2       21 0.557470552626D-03 0.100000000000D+01
-.254752401231D-02 0.000000000000D+00 0.000000000000D+00 0.197883802463D-06 0.000000000000D+00  6 2 21 25 24 1 21 4 0.98858791D-01 0.77983862D-01 0.24976176D+06 0.24976176D+06 0.24976176D+06 0.11287295D+01  1  2  4  2  6  2       21 -.316572393026D+00 0.100000000000D+01
-.490472461935D-01 0.000000000000D+00 -.415093867095D-02 0.197883802463D-06 0.000000000000D+00  6 2 21 25 24 1 21 4 0.98858791D-01 0.78228282D-01 0.24976176D+06 0.24976176D+06 0.24976176D+06 0.11287295D+01  1  2  5  2  6  2       21 -.605113439683D+01 0.100000000000D+01
0.490592783997D-01 0.000000000000D+00 0.415085737388D-02 0.197883802463D-06 0.000000000000D+00  6 2 21 25 24 1 21 4 0.98858791D-01 0.77983862D-01 0.24976176D+06 0.24976176D+06 0.24976176D+06 0.11287295D+01  1  2  6  2  6  2       21 0.609643445483D+01 0.100000000000D+01
0.254745699719D-02 0.000000000000D+00 0.000000000000D+00 0.197883802463D-06 0.485092444907D-06  6 2 21 25 24 1 21 4 0.98992899D-01 0.78140643D-01 0.25071559D+06 0.25071559D+06 0.25071559D+06 0.11285911D+01  1  2 11  2  6  2       21 0.314363427241D+00 0.100000000000D+01
0.162722729409D-08 0.000000000000D+00 0.000000000000D+00 0.197835261421D-06 0.000000000000D+00  6 2 -1 25 24 1 -1 4 0.98858791D-01 0.78193449D-01 0.25071559D+06 0.25071559D+06 0.25071559D+06 0.11285911D+01  1  2 12  5  6  2       21 0.233964460857D-07 0.100000000000D+01
-.313844845156D-04 0.000000000000D+00 -.290015087585D-05 0.197883802463D-06 0.000000000000D+00  6 2 -1 25 24 1 -1 4 0.98858791D-01 0.78228282D-01 0.24976176D+06 0.24976176D+06 0.24976176D+06 0.11287295D+01  1  2  5  5  6  2       21 -.451099339722D-03 0.100000000000D+01
0.434622675920D-05 0.000000000000D+00 0.000000000000D+00 0.197883802463D-06 0.589066793184D-09  6 2 -1 25 24 1 -1 4 0.98992899D-01 0.78140643D-01 0.25071559D+06 0.25071559D+06 0.25071559D+06 0.11285911D+01  1  2 11  5  6  2       21 0.624759288378D-04 0.100000000000D+01
0.162722729409D-08 0.000000000000D+00 0.000000000000D+00 0.197835261421D-06 0.000000000000D+00  6 2 1 25 24 1 1 4 0.98858791D-01 0.78193449D-01 0.25071559D+06 0.25071559D+06 0.25071559D+06 0.11285911D+01  1  2 12  6  6  2       21 0.719017108809D-07 0.100000000000D+01
-.313844845156D-04 0.000000000000D+00 -.290015087585D-05 0.197883802463D-06 0.000000000000D+00  6 2 1 25 24 1 1 4 0.98858791D-01 0.78228282D-01 0.24976176D+06 0.24976176D+06 0.24976176D+06 0.11287295D+01  1  2  5  6  6  2       21 -.138674840036D-02 0.100000000000D+01
0.380619005273D-05 0.000000000000D+00 0.000000000000D+00 0.197883802463D-06 0.188293836506D-09  6 2 1 25 24 1 1 4 0.98992899D-01 0.78140643D-01 0.25071559D+06 0.25071559D+06 0.25071559D+06 0.11285911D+01  1  2 11  6  6  2       21 0.168060841266D-03 0.100000000000D+01
0.162722729409D-08 0.000000000000D+00 0.000000000000D+00 0.197835261421D-06 0.000000000000D+00  6 2 -2 25 24 1 -2 4 0.98858791D-01 0.78193449D-01 0.25071559D+06 0.25071559D+06 0.25071559D+06 0.11285911D+01  1  2 12  7  6  2       21 0.180935153440D-07 0.100000000000D+01
-.313844845156D-04 0.000000000000D+00 -.290015087585D-05 0.197883802463D-06 0.000000000000D+00  6 2 -2 25 24 1 -2 4 0.98858791D-01 0.78228282D-01 0.24976176D+06 0.24976176D+06 0.24976176D+06 0.11287295D+01  1  2  5  7  6  2       21 -.348829838441D-03 0.100000000000D+01
0.386523627333D-05 0.000000000000D+00 0.000000000000D+00 0.197883802463D-06 0.382262128698D-09  6 2 -2 25 24 1 -2 4 0.98992899D-01 0.78140643D-01 0.25071559D+06 0.25071559D+06 0.25071559D+06 0.11285911D+01  1  2 11  7  6  2       21 0.429722486702D-04 0.100000000000D+01
0.162722729409D-08 0.000000000000D+00 0.000000000000D+00 0.197835261421D-06 0.000000000000D+00  6 2 2 25 24 1 2 4 0.98858791D-01 0.78193449D-01 0.25071559D+06 0.25071559D+06 0.25071559D+06 0.11285911D+01  1  2 12  8  6  2       21 0.113571949788D-06 0.100000000000D+01
-.313844845156D-04 0.000000000000D+00 -.290015087585D-05 0.197883802463D-06 0.000000000000D+00  6 2 2 25 24 1 2 4 0.98858791D-01 0.78228282D-01 0.24976176D+06 0.24976176D+06 0.24976176D+06 0.11287295D+01  1  2  5  8  6  2       21 -.219060704160D-02 0.100000000000D+01
0.394294206809D-05 0.000000000000D+00 0.000000000000D+00 0.197883802463D-06 0.606192349618D-09  6 2 2 25 24 1 2 4 0.98992899D-01 0.78140643D-01 0.25071559D+06 0.25071559D+06 0.25071559D+06 0.11285911D+01  1  2 11  8  6  2       21 0.274957640514D-03 0.100000000000D+01
0.162722729409D-08 0.000000000000D+00 0.000000000000D+00 0.197835261421D-06 0.000000000000D+00  6 2 -3 25 24 1 -3 4 0.98858791D-01 0.78193449D-01 0.25071559D+06 0.25071559D+06 0.25071559D+06 0.11285911D+01  1  2 12  9  6  2       21 0.117843273707D-07 0.100000000000D+01
0.162722729409D-08 0.000000000000D+00 0.000000000000D+00 0.197835261421D-06 0.000000000000D+00  6 2 -4 25 24 1 -4 4 0.98858791D-01 0.78193449D-01 0.25071559D+06 0.25071559D+06 0.25071559D+06 0.11285911D+01  1  2 12  9  6  2       21 0.972050522387D-08 0.100000000000D+01
-.313844845156D-04 0.000000000000D+00 -.290015087585D-05 0.197883802463D-06 0.000000000000D+00  6 2 -3 25 24 1 -3 4 0.98858791D-01 0.78228282D-01 0.24976176D+06 0.24976176D+06 0.24976176D+06 0.11287295D+01  1  2  5  9  6  2       21 -.227182317330D-03 0.100000000000D+01
-.313844845156D-04 0.000000000000D+00 -.290015087585D-05 0.197883802463D-06 0.000000000000D+00  6 2 -4 25 24 1 -4 4 0.98858791D-01 0.78228282D-01 0.24976176D+06 0.24976176D+06 0.24976176D+06 0.11287295D+01  1  2  5  9  6  2       21 -.187386900440D-03 0.100000000000D+01
0.386494197931D-05 0.000000000000D+00 0.000000000000D+00 0.197883802463D-06 0.382233023761D-09  6 2 -3 25 24 1 -3 4 0.98992899D-01 0.78140643D-01 0.25071559D+06 0.25071559D+06 0.25071559D+06 0.11285911D+01  1  2 11  9  6  2       21 0.279856309635D-04 0.100000000000D+01
0.386494197931D-05 0.000000000000D+00 0.000000000000D+00 0.197883802463D-06 0.382233023761D-09  6 2 -4 25 24 1 -4 4 0.98992899D-01 0.78140643D-01 0.25071559D+06 0.25071559D+06 0.25071559D+06 0.11285911D+01  1  2 11  9  6  2       21 0.230850874967D-04 0.100000000000D+01
0.162722729409D-08 0.000000000000D+00 0.000000000000D+00 0.197835261421D-06 0.000000000000D+00  6 2 3 25 24 1 3 4 0.98858791D-01 0.78193449D-01 0.25071559D+06 0.25071559D+06 0.25071559D+06 0.11285911D+01  1  2 12 10  6  2       21 0.117991093213D-07 0.100000000000D+01
0.162722729409D-08 0.000000000000D+00 0.000000000000D+00 0.197835261421D-06 0.000000000000D+00  6 2 4 25 24 1 4 4 0.98858791D-01 0.78193449D-01 0.25071559D+06 0.25071559D+06 0.25071559D+06 0.11285911D+01  1  2 12 10  6  2       21 0.972050522387D-08 0.100000000000D+01
-.313844845156D-04 0.000000000000D+00 -.290015087585D-05 0.197883802463D-06 0.000000000000D+00  6 2 3 25 24 1 3 4 0.98858791D-01 0.78228282D-01 0.24976176D+06 0.24976176D+06 0.24976176D+06 0.11287295D+01  1  2  5 10  6  2       21 -.227467526714D-03 0.100000000000D+01
-.313844845156D-04 0.000000000000D+00 -.290015087585D-05 0.197883802463D-06 0.000000000000D+00  6 2 4 25 24 1 4 4 0.98858791D-01 0.78228282D-01 0.24976176D+06 0.24976176D+06 0.24976176D+06 0.11287295D+01  1  2  5 10  6  2       21 -.187386900440D-03 0.100000000000D+01
0.386494197931D-05 0.000000000000D+00 0.000000000000D+00 0.197883802463D-06 0.382233023761D-09  6 2 3 25 24 1 3 4 0.98992899D-01 0.78140643D-01 0.25071559D+06 0.25071559D+06 0.25071559D+06 0.11285911D+01  1  2 11 10  6  2       21 0.280206884306D-04 0.100000000000D+01
0.386494197931D-05 0.000000000000D+00 0.000000000000D+00 0.197883802463D-06 0.382233023761D-09  6 2 4 25 24 1 4 4 0.98992899D-01 0.78140643D-01 0.25071559D+06 0.25071559D+06 0.25071559D+06 0.11285911D+01  1  2 11 10  6  2       21 0.230850874967D-04 0.100000000000D+01
  </mgrwgt>
  </event>
  <event>
  5     66 0.43779995E-03 0.34518598E+02 0.75467711E-02 0.11958118E+00
        2 -1    0    0  502    0 0.00000000E+00 0.00000000E+00 0.61553637E+03 0.61553645E+03 0.32000000E+00 0.0000E+00 0.9000E+01
       21 -1    0    0  501  502 0.00000000E+00 0.00000000E+00 -.10292378E+03 0.10292651E+03 0.75000000E+00 0.0000E+00 0.9000E+01
       25  1    1    2    0    0 -.52567281E+02 0.44378478E+02 0.16713353E+03 0.21975301E+03 0.12500000E+03 0.0000E+00 0.9000E+01
       24  1    1    2    0    0 0.83044484E+02 -.60585595E+02 0.40741169E+03 0.42780662E+03 0.80419002E+02 0.0000E+00 0.9000E+01
        1  1    1    2  501    0 -.30477203E+02 0.16207116E+02 -.61932632E+02 0.70903341E+02 0.32000000E+00 0.0000E+00 0.9000E+01
#aMCatNLO 1  0  0  5  2 0.72454582D+00 0.00000000D+00  -5  6  0 0.00000000D+00 0.00000000D+00 0.00000000D+00 0.00000000D+00 0.00000000D+00
  <mgrwgt>
 0.1946365873D-02    1    2    0
 0.251702885161783D+03 0.000000000000000D+00 0.000000000000000D+00 0.251702885161783D+03
 0.251702885161783D+03 -.000000000000000D+00 -.000000000000000D+00 -.251702885161783D+03
 0.143442233266935D+03 -.525672643160710D+02 0.443784697205309D+02 0.147617218573640D+02
 0.195704753145023D+03 0.830445064940112D+02 -.605856069382204D+02 0.145829107596109D+03
 0.164258783911607D+03 -.304772421779401D+02 0.162071372176895D+02 -.160590829453473D+03
 0.000000000000000D+00 0.000000000000000D+00 0.000000000000000D+00 0.000000000000000D+00
 0.251702885161783D+03 0.000000000000000D+00 0.000000000000000D+00 0.251702885161783D+03
 0.251702885161783D+03 -.000000000000000D+00 -.000000000000000D+00 -.251702885161783D+03
 0.144106144884139D+03 -.551871365520263D+02 0.457716610261299D+02 0.957078609862128D+00
 0.180509625008455D+03 0.796167924848798D+02 -.587628228764394D+02 0.127767780634769D+03
 0.147974406039235D+03 -.196413627608567D+02 -.119504155773800D+02 -.146177389766984D+03
 0.308155943917372D+02 -.478829317199666D+01 0.249415774276894D+02 0.174525305223526D+02
0.391625447850D-06 0.000000000000D+00 0.000000000000D+00 0.243100501406D-05 0.000000000000D+00  6 2 21 25 24 1 21 4 0.94698119D-01 0.15834645D-01 0.23672047D+05 0.23672047D+05 0.23672047D+05 0.12258472D+01  1  2 14  3  6  5        1 0.194636587309D-02 0.100000000000D+01
  </mgrwgt>
  </event>
  <event>
  5     66 0.43779995E-03 0.56536682E+02 0.75467711E-02 0.11158010E+00
        2 -1    0    0  502    0 0.00000000E+00 0.00000000E+00 0.77805391E+03 0.77805398E+03 0.32000000E+00 0.0000E+00 0.9000E+01
       21 -1    0    0  501  502 0.00000000E+00 0.00000000E+00 -.90150525E+02 0.90153645E+02 0.75000000E+00 0.0000E+00 0.9000E+01
       25  1    1    2    0    0 0.52504261E+01 -.22273697E+03 0.31985412E+03 0.40935435E+03 0.12500000E+03 0.0000E+00 0.9000E+01
       24  1    1    2    0    0 -.18261743E+02 0.16771825E+03 0.16915125E+03 0.25207591E+03 0.80419002E+02 0.0000E+00 0.9000E+01
        1  1    1    2  501    0 0.13011317E+02 0.55018719E+02 0.19889802E+03 0.20677737E+03 0.32000000E+00 0.0000E+00 0.9000E+01
#aMCatNLO 1  0  0  5  2 0.31948300D+02 0.00000000D+00  -5  6  0 0.00000000D+00 0.00000000D+00 0.00000000D+00 0.00000000D+00 0.00000000D+00
  <mgrwgt>
 0.1845543750D+00    5    2    0
 0.264845902424036D+03 0.000000000000000D+00 0.000000000000000D+00 0.264845902424036D+03
 0.264845902424036D+03 -.000000000000000D+00 -.000000000000000D+00 -.264845902424036D+03
 0.255574907196244D+03 0.525037662779244D+01 -.222737180379410D+03 -.735630411723278D+01
 0.193498297133865D+03 -.182617802489139D+02 0.167718094339209D+03 -.501151000467877D+02
 0.806186005179637D+02 0.130114036211215D+02 0.550190860402013D+02 0.574714041640206D+02
 0.000000000000000D+00 0.000000000000000D+00 0.000000000000000D+00 -.000000000000000D+00
 0.264845902424036D+03 0.000000000000000D+00 0.000000000000000D+00 0.264845902424036D+03
 0.264845902424036D+03 -.000000000000000D+00 -.000000000000000D+00 -.264845902424036D+03
 0.237781281832636D+03 0.102809125104624D+02 -.201465417961123D+03 0.148635861646442D+02
 0.204663745445763D+03 -.142018971728413D+02 0.184885424073950D+03 -.321825857756240D+02
 0.514821275579936D+02 0.269678420598553D+02 0.767404309395976D+01 0.431770079454827D+02
 0.357646500116800D+02 -.230468573974764D+02 0.890595079321335D+01 -.258580083345028D+02
0.390771292243D-04 0.000000000000D+00 0.000000000000D+00 0.571638348785D-07 0.000000000000D+00  6 2 21 25 24 1 21 2 0.11970085D+00 0.13869557D-01 0.62225695D+05 0.62225695D+05 0.62225695D+05 0.11829864D+01  1  2  2  3  6  5        1 0.113738834622D+00 0.100000000000D+01
-.265315169805D-05 0.206215676372D-05 -.788854652838D-07 0.571638348785D-07 0.000000000000D+00  6 2 21 25 24 1 21 4 0.11970085D+00 0.13869557D-01 0.62225695D+05 0.62225695D+05 0.62225695D+05 0.11829864D+01  1  2  3  3  6  5        1 -.108070639192D-01 0.100000000000D+01
0.409569764769D-05 0.000000000000D+00 0.000000000000D+00 0.571638348785D-07 0.000000000000D+00  6 2 21 25 24 1 21 4 0.11970085D+00 0.13869557D-01 0.62225695D+05 0.62225695D+05 0.62225695D+05 0.11829864D+01  1  2 15  3  6  5        1 0.166829760639D-01 0.100000000000D+01
0.500458666440D-04 0.000000000000D+00 0.000000000000D+00 0.572741242393D-07 0.000000000000D+00  6 2 21 25 24 1 21 4 0.11970085D+00 0.13869557D-01 0.60560315D+05 0.60560315D+05 0.60560315D+05 0.11841271D+01  1  2 12  3  6  5        1 0.204753558062D+00 0.100000000000D+01
-.343245462476D-04 0.000000000000D+00 0.000000000000D+00 0.571638348785D-07 0.000000000000D+00  6 2 21 25 24 1 21 4 0.11970085D+00 0.13869557D-01 0.62225695D+05 0.62225695D+05 0.62225695D+05 0.11829864D+01  1  2  4  3  6  5        1 -.139813929814D+00 0.100000000000D+01
  </mgrwgt>
  </event>
  <event>
  5     66 0.43779995E-03 0.49683158E+02 0.75467711E-02 0.12035711E+00
        4 -1    0    0  502    0 0.00000000E+00 0.00000000E+00 0.22579038E+03 0.22579571E+03 0.15500000E+01 0.0000E+00 0.9000E+01
       21 -1    0    0  501  502 0.00000000E+00 0.00000000E+00 -.26682819E+03 0.26682925E+03 0.75000000E+00 0.0000E+00 0.9000E+01
       25  1    1    2    0    0 -.34672897E+02 -.33406664E+02 0.19470918E+01 0.13396644E+03 0.12500000E+03 0.0000E+00 0.9000E+01
       24  1    1    2    0    0 0.55045472E+02 -.17851398E+02 0.13775820E+03 0.16968563E+03 0.80419002E+02 0.0000E+00 0.9000E+01
        3  1    1    2  501    0 -.20372575E+02 0.51258063E+02 -.18074310E+03 0.18897288E+03 0.50000000E+00 0.0000E+00 0.9000E+01
#aMCatNLO 1  0  0  2  1 0.81864934D+01 0.00000000D+00  -5  6  0 0.00000000D+00 0.00000000D+00 0.00000000D+00 0.00000000D+00 0.00000000D+00
  <mgrwgt>
 0.2221664515D-01   41    2    0
 0.245456331702023D+03 0.000000000000000D+00 0.000000000000000D+00 0.245456331702023D+03
 0.245456331702023D+03 0.000000000000000D+00 0.000000000000000D+00 -.245456331702023D+03
 0.134596501716203D+03 -.346728741040112D+02 -.334067220486447D+02 0.131529843598979D+02
 0.181793608712208D+03 0.550455027114148D+02 -.178514764008550D+02 0.152423809281209D+03
 0.174522552975635D+03 -.203726286074035D+02 0.512581984494998D+02 -.165576793641107D+03
 0.000000000000000D+00 -.000000000000000D+00 0.000000000000000D+00 -.000000000000000D+00
 0.245831954269700D+03 0.000000000000000D+00 0.000000000000000D+00 0.245831954269700D+03
 0.294553120115900D+03 0.000000000000000D+00 0.000000000000000D+00 -.294553120115900D+03
 0.134865649559338D+03 -.336964682355722D+02 -.354300784918633D+02 0.131529843598979D+02
 0.182485938534288D+03 0.563654828496275D+02 -.205868044072742D+02 0.152423809281209D+03
 0.173629329829661D+03 -.191110876456394D+02 0.486439709895088D+02 -.165576793641107D+03
 0.494041564623124D+02 -.355792696841585D+01 0.737291190962865D+01 -.487211658462000D+02
0.167888727219D-05 0.000000000000D+00 0.000000000000D+00 0.144127881046D-05 0.000000000000D+00  6 4 21 25 24 3 21 2 0.34737473D-01 0.41050982D-01 0.20762777D+05 0.20762777D+05 0.20762777D+05 0.12320405D+01  1  2  2  2  6  2       21 0.487150757709D-03 0.100000000000D+01
0.113021577987D-06 0.885973154275D-07 -.338918969370D-08 0.144127881046D-05 0.000000000000D+00  6 4 21 25 24 3 21 4 0.34737473D-01 0.41050982D-01 0.20762777D+05 0.20762777D+05 0.20762777D+05 0.12320405D+01  1  2  3  2  6  2       21 0.497798012276D-04 0.100000000000D+01
0.180751422261D-06 0.000000000000D+00 0.000000000000D+00 0.144127881046D-05 0.000000000000D+00  6 4 21 25 24 3 21 4 0.34737473D-01 0.41050982D-01 0.20762777D+05 0.20762777D+05 0.20762777D+05 0.12320405D+01  1  2 15  2  6  2       21 0.796110798665D-04 0.100000000000D+01
0.960341437684D-04 0.000000000000D+00 0.000000000000D+00 0.143608344678D-05 0.000000000000D+00  6 4 21 25 24 3 21 4 0.34737473D-01 0.49289498D-01 0.21758111D+05 0.21758111D+05 0.21758111D+05 0.12298179D+01  1  2 12  2  6  2       21 0.289443494748D-01 0.100000000000D+01
0.776470063495D-04 0.000000000000D+00 0.000000000000D+00 0.143608344678D-05 0.000000000000D+00  6 4 21 25 24 3 21 4 0.34737473D-01 0.51068996D-01 0.21758111D+05 0.21758111D+05 0.21758111D+05 0.12298179D+01  1  2 12  2  6  2       21 0.217447324759D-01 0.100000000000D+01
-.119736224969D-03 0.000000000000D+00 0.000000000000D+00 0.144127881046D-05 0.000000000000D+00  6 4 21 25 24 3 21 4 0.34737473D-01 0.41050982D-01 0.20762777D+05 0.20762777D+05 0.20762777D+05 0.12320405D+01  1  2  4  2  6  2       21 -.527372346493D-01 0.100000000000D+01
-.197150856769D-03 0.000000000000D+00 -.325056169085D-05 0.144127881046D-05 0.000000000000D+00  6 4 21 25 24 3 21 4 0.34737473D-01 0.49296642D-01 0.20762777D+05 0.20762777D+05 0.20762777D+05 0.12320405D+01  1  2  5  2  6  2       21 -.597949729980D-01 0.100000000000D+01
0.189469970882D-03 0.000000000000D+00 0.304267322751D-05 0.144127881046D-05 0.000000000000D+00  6 4 21 25 24 3 21 4 0.34737473D-01 0.41050982D-01 0.20762777D+05 0.20762777D+05 0.20762777D+05 0.12320405D+01  1  2  6  2  6  2       21 0.834511219637D-01 0.100000000000D+01
0.352730580574D-06 0.000000000000D+00 0.000000000000D+00 0.144127881046D-05 0.112866918690D-05  6 4 21 25 24 3 21 4 0.34790631D-01 0.49262102D-01 0.21758111D+05 0.21758111D+05 0.21758111D+05 0.12298179D+01  1  2 11  2  6  2       21 0.106120039718D-03 0.100000000000D+01
0.406708047746D-05 0.000000000000D+00 0.000000000000D+00 0.143608344678D-05 0.000000000000D+00  6 4 -3 25 24 3 -3 4 0.34737473D-01 0.49289498D-01 0.21758111D+05 0.21758111D+05 0.21758111D+05 0.12298179D+01  1  2 12  5  6  2       21 0.617843850227D-04 0.100000000000D+01
0.395088797634D-05 0.000000000000D+00 0.000000000000D+00 0.143608344678D-05 0.000000000000D+00  6 4 -3 25 24 3 -3 4 0.34737473D-01 0.51068996D-01 0.21758111D+05 0.21758111D+05 0.21758111D+05 0.12298179D+01  1  2 12  5  6  2       21 0.559085057413D-04 0.100000000000D+01
-.822103504887D-05 0.000000000000D+00 -.167657238917D-06 0.144127881046D-05 0.000000000000D+00  6 4 -3 25 24 3 -3 4 0.34737473D-01 0.49296642D-01 0.20762777D+05 0.20762777D+05 0.20762777D+05 0.12320405D+01  1  2  5  5  6  2       21 -.125402826986D-03 0.100000000000D+01
0.193553429280D-07 0.000000000000D+00 0.000000000000D+00 0.144127881046D-05 0.615987809172D-07  6 4 -3 25 24 3 -3 4 0.34790631D-01 0.49262102D-01 0.21758111D+05 0.21758111D+05 0.21758111D+05 0.12298179D+01  1  2 11  5  6  2       21 0.293491625208D-06 0.100000000000D+01
0.406708047746D-05 0.000000000000D+00 0.000000000000D+00 0.143608344678D-05 0.000000000000D+00  6 4 3 25 24 3 3 4 0.34737473D-01 0.49289498D-01 0.21758111D+05 0.21758111D+05 0.21758111D+05 0.12298179D+01  1  2 12  6  6  2       21 0.618089985061D-04 0.100000000000D+01
0.395088797634D-05 0.000000000000D+00 0.000000000000D+00 0.143608344678D-05 0.000000000000D+00  6 4 3 25 24 3 3 4 0.34737473D-01 0.51068996D-01 0.21758111D+05 0.21758111D+05 0.21758111D+05 0.12298179D+01  1  2 12  6  6  2       21 0.559331750934D-04 0.100000000000D+01
-.822103504887D-05 0.000000000000D+00 -.167657238917D-06 0.144127881046D-05 0.000000000000D+00  6 4 3 25 24 3 3 4 0.34737473D-01 0.49296642D-01 0.20762777D+05 0.20762777D+05 0.20762777D+05 0.12320405D+01  1  2  5  6  6  2       21 -.125452691445D-03 0.100000000000D+01
0.321746985195D-07 0.000000000000D+00 0.000000000000D+00 0.144127881046D-05 0.111899568312D-07  6 4 3 25 24 3 3 4 0.34790631D-01 0.49262102D-01 0.21758111D+05 0.21758111D+05 0.21758111D+05 0.12298179D+01  1  2 11  6  6  2       21 0.488069900064D-06 0.100000000000D+01
0.406708047746D-05 0.000000000000D+00 0.000000000000D+00 0.143608344678D-05 0.000000000000D+00  6 4 -4 25 24 3 -4 4 0.34737473D-01 0.49289498D-01 0.21758111D+05 0.21758111D+05 0.21758111D+05 0.12298179D+01  1  2 12  7  6  2       21 0.508319624471D-04 0.100000000000D+01
0.395088797634D-05 0.000000000000D+00 0.000000000000D+00 0.143608344678D-05 0.000000000000D+00  6 4 -4 25 24 3 -4 4 0.34737473D-01 0.51068996D-01 0.21758111D+05 0.21758111D+05 0.21758111D+05 0.12298179D+01  1  2 12  7  6  2       21 0.459304092578D-04 0.100000000000D+01
-.822103504887D-05 0.000000000000D+00 -.167657238917D-06 0.144127881046D-05 0.000000000000D+00  6 4 -4 25 24 3 -4 4 0.34737473D-01 0.49296642D-01 0.20762777D+05 0.20762777D+05 0.20762777D+05 0.12320405D+01  1  2  5  7  6  2       21 -.103117704165D-03 0.100000000000D+01
0.239739165974D-07 0.000000000000D+00 0.000000000000D+00 0.144127881046D-05 0.162736714875D-07  6 4 -4 25 24 3 -4 4 0.34790631D-01 0.49262102D-01 0.21758111D+05 0.21758111D+05 0.21758111D+05 0.12298179D+01  1  2 11  7  6  2       21 0.299090040037D-06 0.100000000000D+01
0.406708047746D-05 0.000000000000D+00 0.000000000000D+00 0.143608344678D-05 0.000000000000D+00  6 4 4 25 24 3 4 4 0.34737473D-01 0.49289498D-01 0.21758111D+05 0.21758111D+05 0.21758111D+05 0.12298179D+01  1  2 12  8  6  2       21 0.508319624471D-04 0.100000000000D+01
0.395088797634D-05 0.000000000000D+00 0.000000000000D+00 0.143608344678D-05 0.000000000000D+00  6 4 4 25 24 3 4 4 0.34737473D-01 0.51068996D-01 0.21758111D+05 0.21758111D+05 0.21758111D+05 0.12298179D+01  1  2 12  8  6  2       21 0.459304092578D-04 0.100000000000D+01
-.822103504887D-05 0.000000000000D+00 -.167657238917D-06 0.144127881046D-05 0.000000000000D+00  6 4 4 25 24 3 4 4 0.34737473D-01 0.49296642D-01 0.20762777D+05 0.20762777D+05 0.20762777D+05 0.12320405D+01  1  2  5  8  6  2       21 -.103117704165D-03 0.100000000000D+01
0.237530677692D-07 0.000000000000D+00 0.000000000000D+00 0.144127881046D-05 0.161360378513D-07  6 4 4 25 24 3 4 4 0.34790631D-01 0.49262102D-01 0.21758111D+05 0.21758111D+05 0.21758111D+05 0.12298179D+01  1  2 11  8  6  2       21 0.296334808758D-06 0.100000000000D+01
0.406708047746D-05 0.000000000000D+00 0.000000000000D+00 0.143608344678D-05 0.000000000000D+00  6 4 -1 25 24 3 -1 4 0.34737473D-01 0.49289498D-01 0.21758111D+05 0.21758111D+05 0.21758111D+05 0.12298179D+01  1  2 12  9  6  2       21 0.120237939967D-03 0.100000000000D+01
0.406708047746D-05 0.000000000000D+00 0.000000000000D+00 0.143608344678D-05 0.000000000000D+00  6 4 -2 25 24 3 -2 4 0.34737473D-01 0.49289498D-01 0.21758111D+05 0.21758111D+05 0.21758111D+05 0.12298179D+01  1  2 12  9  6  2       21 0.986371995722D-04 0.100000000000D+01
0.395088797634D-05 0.000000000000D+00 0.000000000000D+00 0.143608344678D-05 0.000000000000D+00  6 4 -1 25 24 3 -1 4 0.34737473D-01 0.51068996D-01 0.21758111D+05 0.21758111D+05 0.21758111D+05 0.12298179D+01  1  2 12  9  6  2       21 0.109461270114D-03 0.100000000000D+01
0.395088797634D-05 0.000000000000D+00 0.000000000000D+00 0.143608344678D-05 0.000000000000D+00  6 4 -2 25 24 3 -2 4 0.34737473D-01 0.51068996D-01 0.21758111D+05 0.21758111D+05 0.21758111D+05 0.12298179D+01  1  2 12  9  6  2       21 0.893146692086D-04 0.100000000000D+01
-.822103504887D-05 0.000000000000D+00 -.167657238917D-06 0.144127881046D-05 0.000000000000D+00  6 4 -1 25 24 3 -1 4 0.34737473D-01 0.49296642D-01 0.20762777D+05 0.20762777D+05 0.20762777D+05 0.12320405D+01  1  2  5  9  6  2       21 -.244332690263D-03 0.100000000000D+01
-.822103504887D-05 0.000000000000D+00 -.167657238917D-06 0.144127881046D-05 0.000000000000D+00  6 4 -2 25 24 3 -2 4 0.34737473D-01 0.49296642D-01 0.20762777D+05 0.20762777D+05 0.20762777D+05 0.12320405D+01  1  2  5  9  6  2       21 -.200404930423D-03 0.100000000000D+01
0.239780708482D-07 0.000000000000D+00 0.000000000000D+00 0.144127881046D-05 0.162764914236D-07  6 4 -1 25 24 3 -1 4 0.34790631D-01 0.49262102D-01 0.21758111D+05 0.21758111D+05 0.21758111D+05 0.12298179D+01  1  2 11  9  6  2       21 0.707506900804D-06 0.100000000000D+01
0.239780708482D-07 0.000000000000D+00 0.000000000000D+00 0.144127881046D-05 0.162764914236D-07  6 4 -2 25 24 3 -2 4 0.34790631D-01 0.49262102D-01 0.21758111D+05 0.21758111D+05 0.21758111D+05 0.12298179D+01  1  2 11  9  6  2       21 0.580452019347D-06 0.100000000000D+01
0.406708047746D-05 0.000000000000D+00 0.000000000000D+00 0.143608344678D-05 0.000000000000D+00  6 4 1 25 24 3 1 4 0.34737473D-01 0.49289498D-01 0.21758111D+05 0.21758111D+05 0.21758111D+05 0.12298179D+01  1  2 12 10  6  2       21 0.271710900812D-03 0.100000000000D+01
0.406708047746D-05 0.000000000000D+00 0.000000000000D+00 0.143608344678D-05 0.000000000000D+00  6 4 2 25 24 3 2 4 0.34737473D-01 0.49289498D-01 0.21758111D+05 0.21758111D+05 0.21758111D+05 0.12298179D+01  1  2 12 10  6  2       21 0.388626061347D-03 0.100000000000D+01
0.395088797634D-05 0.000000000000D+00 0.000000000000D+00 0.143608344678D-05 0.000000000000D+00  6 4 1 25 24 3 1 4 0.34737473D-01 0.51068996D-01 0.21758111D+05 0.21758111D+05 0.21758111D+05 0.12298179D+01  1  2 12 10  6  2       21 0.252542923591D-03 0.100000000000D+01
0.395088797634D-05 0.000000000000D+00 0.000000000000D+00 0.143608344678D-05 0.000000000000D+00  6 4 2 25 24 3 2 4 0.34737473D-01 0.51068996D-01 0.21758111D+05 0.21758111D+05 0.21758111D+05 0.12298179D+01  1  2 12 10  6  2       21 0.363553067213D-03 0.100000000000D+01
-.822103504887D-05 0.000000000000D+00 -.167657238917D-06 0.144127881046D-05 0.000000000000D+00  6 4 1 25 24 3 1 4 0.34737473D-01 0.49296642D-01 0.20762777D+05 0.20762777D+05 0.20762777D+05 0.12320405D+01  1  2  5 10  6  2       21 -.552146543607D-03 0.100000000000D+01
-.822103504887D-05 0.000000000000D+00 -.167657238917D-06 0.144127881046D-05 0.000000000000D+00  6 4 2 25 24 3 2 4 0.34737473D-01 0.49296642D-01 0.20762777D+05 0.20762777D+05 0.20762777D+05 0.12320405D+01  1  2  5 10  6  2       21 -.789630579471D-03 0.100000000000D+01
0.239780708482D-07 0.000000000000D+00 0.000000000000D+00 0.144127881046D-05 0.162764914236D-07  6 4 1 25 24 3 1 4 0.34790631D-01 0.49262102D-01 0.21758111D+05 0.21758111D+05 0.21758111D+05 0.12298179D+01  1  2 11 10  6  2       21 0.159829256530D-05 0.100000000000D+01
0.239780708482D-07 0.000000000000D+00 0.000000000000D+00 0.144127881046D-05 0.162764914236D-07  6 4 2 25 24 3 2 4 0.34790631D-01 0.49262102D-01 0.21758111D+05 0.21758111D+05 0.21758111D+05 0.12298179D+01  1  2 11 10  6  2       21 0.228579513706D-05 0.100000000000D+01
  </mgrwgt>
  </event>
  <event>
  5     66 0.43779995E-03 0.13609755E+03 0.75467711E-02 0.11228459E+00
        2 -1    0    0  502    0 0.00000000E+00 0.00000000E+00 0.16016235E+04 0.16016235E+04 0.32000000E+00 0.0000E+00 0.9000E+01
       21 -1    0    0  501  502 0.00000000E+00 0.00000000E+00 -.80804878E+02 0.80808358E+02 0.75000000E+00 0.0000E+00 0.9000E+01
       25  1    1    2    0    0 -.85851184E+02 0.68701077E+02 0.89734476E+03 0.91265704E+03 0.12500000E+03 0.0000E+00 0.9000E+01
       24  1    1    2    0    0 -.79975741E+02 -.47795403E+02 0.58560508E+03 0.59839874E+03 0.80419002E+02 0.0000E+00 0.9000E+01
        1  1    1    2  501    0 0.16582693E+03 -.20905674E+02 0.37868753E+02 0.17137608E+03 0.32000000E+00 0.0000E+00 0.9000E+01
#aMCatNLO 1  0  0  2  5 0.13279171D+02 0.00000000D+00  -5  6  0 0.00000000D+00 0.00000000D+00 0.00000000D+00 0.00000000D+00 0.00000000D+00
  <mgrwgt>
 0.6918790606D-01   32    2    0
 0.359752614498093D+03 0.000000000000000D+00 0.000000000000000D+00 0.359752614498093D+03
 0.359752614498093D+03 0.000000000000000D+00 0.000000000000000D+00 -.359752614498093D+03
 0.237364121258902D+03 -.858512116958433D+02 0.687010802326944D+02 0.169193549186213D+03
 0.161452646237924D+03 -.799757597046435D+02 -.477954004711000D+02 0.104495064841982D+03
 0.320688461499359D+03 0.165826971400487D+03 -.209056797615944D+02 -.273688614028194D+03
 0.000000000000000D+00 -.000000000000000D+00 0.000000000000000D+00 -.000000000000000D+00
 0.361013493357078D+03 0.000000000000000D+00 0.000000000000000D+00 0.361013493357078D+03
 0.396562445026537D+03 0.000000000000000D+00 0.000000000000000D+00 -.396562445026537D+03
 0.235575426110873D+03 -.839610815724148D+02 0.647677472379765D+02 0.169193549186213D+03
 0.161635906374623D+03 -.786845177071745D+02 -.504824560816408D+02 0.104495064841982D+03
 0.322416426107432D+03 0.168397177100877D+03 -.262542400322591D+02 -.273688614028194D+03
 0.379481797906872D+02 -.575157782128748D+01 0.119689488759234D+02 -.355489516694589D+02
0.290144139955D-05 0.000000000000D+00 0.000000000000D+00 0.894091497976D-06 0.000000000000D+00  6 2 21 25 24 1 21 2 0.24640388D+00 0.12431790D-01 0.52142522D+05 0.52142522D+05 0.52142522D+05 0.11904813D+01  1  2  2  2  6  2       21 0.346694335287D-02 0.100000000000D+01
-.506090365835D-07 0.153113269204D-06 -.585717424337D-08 0.894091497976D-06 0.000000000000D+00  6 2 21 25 24 1 21 4 0.24640388D+00 0.12431790D-01 0.52142522D+05 0.52142522D+05 0.52142522D+05 0.11904813D+01  1  2  3  2  6  2       21 -.857050060156D-04 0.100000000000D+01
0.250975027179D-06 0.000000000000D+00 0.000000000000D+00 0.894091497976D-06 0.000000000000D+00  6 2 21 25 24 1 21 4 0.24640388D+00 0.12431790D-01 0.52142522D+05 0.52142522D+05 0.52142522D+05 0.11904813D+01  1  2 15  2  6  2       21 0.425019278498D-03 0.100000000000D+01
0.710934733140D-04 0.000000000000D+00 0.000000000000D+00 0.890157408871D-06 0.000000000000D+00  6 2 21 25 24 1 21 4 0.24640388D+00 0.13724285D-01 0.55447480D+05 0.55447480D+05 0.55447480D+05 0.11878593D+01  1  2 12  2  6  2       21 0.995339447876D-01 0.100000000000D+01
0.563467020934D-04 0.000000000000D+00 0.000000000000D+00 0.890157408871D-06 0.000000000000D+00  6 2 21 25 24 1 21 4 0.24640388D+00 0.14042748D-01 0.55447480D+05 0.55447480D+05 0.55447480D+05 0.11878593D+01  1  2 12  2  6  2       21 0.756651375630D-01 0.100000000000D+01
-.900264251438D-04 0.000000000000D+00 0.000000000000D+00 0.894091497976D-06 0.000000000000D+00  6 2 21 25 24 1 21 4 0.24640388D+00 0.12431790D-01 0.52142522D+05 0.52142522D+05 0.52142522D+05 0.11904813D+01  1  2  4  2  6  2       21 -.152457265133D+00 0.100000000000D+01
-.169521819917D-03 0.000000000000D+00 -.970933918879D-05 0.894091497976D-06 0.000000000000D+00  6 2 21 25 24 1 21 4 0.24640388D+00 0.13739327D-01 0.52142522D+05 0.52142522D+05 0.52142522D+05 0.11904813D+01  1  2  5  2  6  2       21 -.239591980023D+00 0.100000000000D+01
0.166958572524D-03 0.000000000000D+00 0.951784940530D-05 0.894091497976D-06 0.000000000000D+00  6 2 21 25 24 1 21 4 0.24640388D+00 0.12431790D-01 0.52142522D+05 0.52142522D+05 0.52142522D+05 0.11904813D+01  1  2  6  2  6  2       21 0.282739732437D+00 0.100000000000D+01
0.180321659898D-05 0.000000000000D+00 0.000000000000D+00 0.890157408871D-06 0.000000000000D+00  6 2 -1 25 24 1 -1 4 0.24640388D+00 0.13724285D-01 0.55447480D+05 0.55447480D+05 0.55447480D+05 0.11878593D+01  1  2 12  5  6  2       21 0.184052271108D-03 0.100000000000D+01
0.181331583480D-05 0.000000000000D+00 0.000000000000D+00 0.890157408871D-06 0.000000000000D+00  6 2 -1 25 24 1 -1 4 0.24640388D+00 0.14042748D-01 0.55447480D+05 0.55447480D+05 0.55447480D+05 0.11878593D+01  1  2 12  5  6  2       21 0.178498034967D-03 0.100000000000D+01
-.420456737159D-05 0.000000000000D+00 -.248081267032D-06 0.894091497976D-06 0.000000000000D+00  6 2 -1 25 24 1 -1 4 0.24640388D+00 0.13739327D-01 0.52142522D+05 0.52142522D+05 0.52142522D+05 0.11904813D+01  1  2  5  5  6  2       21 -.432744037444D-03 0.100000000000D+01
0.180321659898D-05 0.000000000000D+00 0.000000000000D+00 0.890157408871D-06 0.000000000000D+00  6 2 1 25 24 1 1 4 0.24640388D+00 0.13724285D-01 0.55447480D+05 0.55447480D+05 0.55447480D+05 0.11878593D+01  1  2 12  6  6  2       21 0.247563114080D-03 0.100000000000D+01
0.181331583480D-05 0.000000000000D+00 0.000000000000D+00 0.890157408871D-06 0.000000000000D+00  6 2 1 25 24 1 1 4 0.24640388D+00 0.14042748D-01 0.55447480D+05 0.55447480D+05 0.55447480D+05 0.11878593D+01  1  2 12  6  6  2       21 0.241522712817D-03 0.100000000000D+01
-.420456737159D-05 0.000000000000D+00 -.248081267032D-06 0.894091497976D-06 0.000000000000D+00  6 2 1 25 24 1 1 4 0.24640388D+00 0.13739327D-01 0.52142522D+05 0.52142522D+05 0.52142522D+05 0.11904813D+01  1  2  5  6  6  2       21 -.582269556531D-03 0.100000000000D+01
0.180321659898D-05 0.000000000000D+00 0.000000000000D+00 0.890157408871D-06 0.000000000000D+00  6 2 -2 25 24 1 -2 4 0.24640388D+00 0.13724285D-01 0.55447480D+05 0.55447480D+05 0.55447480D+05 0.11878593D+01  1  2 12  7  6  2       21 0.173153840603D-03 0.100000000000D+01
0.181331583480D-05 0.000000000000D+00 0.000000000000D+00 0.890157408871D-06 0.000000000000D+00  6 2 -2 25 24 1 -2 4 0.24640388D+00 0.14042748D-01 0.55447480D+05 0.55447480D+05 0.55447480D+05 0.11878593D+01  1  2 12  7  6  2       21 0.167691503083D-03 0.100000000000D+01
-.420456737159D-05 0.000000000000D+00 -.248081267032D-06 0.894091497976D-06 0.000000000000D+00  6 2 -2 25 24 1 -2 4 0.24640388D+00 0.13739327D-01 0.52142522D+05 0.52142522D+05 0.52142522D+05 0.11904813D+01  1  2  5  7  6  2       21 -.407077293202D-03 0.100000000000D+01
0.180321659898D-05 0.000000000000D+00 0.000000000000D+00 0.890157408871D-06 0.000000000000D+00  6 2 2 25 24 1 2 4 0.24640388D+00 0.13724285D-01 0.55447480D+05 0.55447480D+05 0.55447480D+05 0.11878593D+01  1  2 12  8  6  2       21 0.291412079334D-03 0.100000000000D+01
0.181331583480D-05 0.000000000000D+00 0.000000000000D+00 0.890157408871D-06 0.000000000000D+00  6 2 2 25 24 1 2 4 0.24640388D+00 0.14042748D-01 0.55447480D+05 0.55447480D+05 0.55447480D+05 0.11878593D+01  1  2 12  8  6  2       21 0.285091197117D-03 0.100000000000D+01
-.420456737159D-05 0.000000000000D+00 -.248081267032D-06 0.894091497976D-06 0.000000000000D+00  6 2 2 25 24 1 2 4 0.24640388D+00 0.13739327D-01 0.52142522D+05 0.52142522D+05 0.52142522D+05 0.11904813D+01  1  2  5  8  6  2       21 -.685466900804D-03 0.100000000000D+01
0.180321659898D-05 0.000000000000D+00 0.000000000000D+00 0.890157408871D-06 0.000000000000D+00  6 2 -3 25 24 1 -3 4 0.24640388D+00 0.13724285D-01 0.55447480D+05 0.55447480D+05 0.55447480D+05 0.11878593D+01  1  2 12  9  6  2       21 0.118692660671D-03 0.100000000000D+01
0.180321659898D-05 0.000000000000D+00 0.000000000000D+00 0.890157408871D-06 0.000000000000D+00  6 2 -4 25 24 1 -4 4 0.24640388D+00 0.13724285D-01 0.55447480D+05 0.55447480D+05 0.55447480D+05 0.11878593D+01  1  2 12  9  6  2       21 0.103593023051D-03 0.100000000000D+01
0.181331583480D-05 0.000000000000D+00 0.000000000000D+00 0.890157408871D-06 0.000000000000D+00  6 2 -3 25 24 1 -3 4 0.24640388D+00 0.14042748D-01 0.55447480D+05 0.55447480D+05 0.55447480D+05 0.11878593D+01  1  2 12  9  6  2       21 0.114744661934D-03 0.100000000000D+01
0.181331583480D-05 0.000000000000D+00 0.000000000000D+00 0.890157408871D-06 0.000000000000D+00  6 2 -4 25 24 1 -4 4 0.24640388D+00 0.14042748D-01 0.55447480D+05 0.55447480D+05 0.55447480D+05 0.11878593D+01  1  2 12  9  6  2       21 0.100068226561D-03 0.100000000000D+01
-.420456737159D-05 0.000000000000D+00 -.248081267032D-06 0.894091497976D-06 0.000000000000D+00  6 2 -3 25 24 1 -3 4 0.24640388D+00 0.13739327D-01 0.52142522D+05 0.52142522D+05 0.52142522D+05 0.11904813D+01  1  2  5  9  6  2       21 -.278684265797D-03 0.100000000000D+01
-.420456737159D-05 0.000000000000D+00 -.248081267032D-06 0.894091497976D-06 0.000000000000D+00  6 2 -4 25 24 1 -4 4 0.24640388D+00 0.13739327D-01 0.52142522D+05 0.52142522D+05 0.52142522D+05 0.11904813D+01  1  2  5  9  6  2       21 -.243091075392D-03 0.100000000000D+01
0.180321659898D-05 0.000000000000D+00 0.000000000000D+00 0.890157408871D-06 0.000000000000D+00  6 2 3 25 24 1 3 4 0.24640388D+00 0.13724285D-01 0.55447480D+05 0.55447480D+05 0.55447480D+05 0.11878593D+01  1  2 12 10  6  2       21 0.118679348448D-03 0.100000000000D+01
0.180321659898D-05 0.000000000000D+00 0.000000000000D+00 0.890157408871D-06 0.000000000000D+00  6 2 4 25 24 1 4 4 0.24640388D+00 0.13724285D-01 0.55447480D+05 0.55447480D+05 0.55447480D+05 0.11878593D+01  1  2 12 10  6  2       21 0.103593023051D-03 0.100000000000D+01
0.181331583480D-05 0.000000000000D+00 0.000000000000D+00 0.890157408871D-06 0.000000000000D+00  6 2 3 25 24 1 3 4 0.24640388D+00 0.14042748D-01 0.55447480D+05 0.55447480D+05 0.55447480D+05 0.11878593D+01  1  2 12 10  6  2       21 0.114731898968D-03 0.100000000000D+01
0.181331583480D-05 0.000000000000D+00 0.000000000000D+00 0.890157408871D-06 0.000000000000D+00  6 2 4 25 24 1 4 4 0.24640388D+00 0.14042748D-01 0.55447480D+05 0.55447480D+05 0.55447480D+05 0.11878593D+01  1  2 12 10  6  2       21 0.100068226561D-03 0.100000000000D+01
-.420456737159D-05 0.000000000000D+00 -.248081267032D-06 0.894091497976D-06 0.000000000000D+00  6 2 3 25 24 1 3 4 0.24640388D+00 0.13739327D-01 0.52142522D+05 0.52142522D+05 0.52142522D+05 0.11904813D+01  1  2  5 10  6  2       21 -.278652810271D-03 0.100000000000D+01
-.420456737159D-05 0.000000000000D+00 -.248081267032D-06 0.894091497976D-06 0.000000000000D+00  6 2 4 25 24 1 4 4 0.24640388D+00 0.13739327D-01 0.52142522D+05 0.52142522D+05 0.52142522D+05 0.11904813D+01  1  2  5 10  6  2       21 -.243091075392D-03 0.100000000000D+01
  </mgrwgt>
  </event>
  <event>
  5     66 0.43779995E-03 0.44511316E+02 0.75467711E-02 0.11896335E+00
        2 -1    0    0  502    0 0.00000000E+00 0.00000000E+00 0.16621671E+02 0.16624751E+02 0.32000000E+00 0.0000E+00 0.9000E+01
       21 -1    0    0  501  502 0.00000000E+00 0.00000000E+00 -.20699754E+04 0.20699755E+04 0.75000000E+00 0.0000E+00 0.9000E+01
       25  1    1    2    0    0 0.47524014E+02 0.57946771E+02 -.99804367E+03 0.10086290E+04 0.12500000E+03 0.0000E+00 0.9000E+01
       24  1    1    2    0    0 -.89582872E+02 -.43377106E+02 -.37547261E+03 0.39667816E+03 0.80419002E+02 0.0000E+00 0.9000E+01
        1  1    1    2  501    0 0.42058858E+02 -.14569665E+02 -.67983741E+03 0.68129306E+03 0.32000000E+00 0.0000E+00 0.9000E+01
#aMCatNLO 1  0  0  2  5 0.12876248D+00 0.00000000D+00  -5  6  0 0.00000000D+00 0.00000000D+00 0.00000000D+00 0.00000000D+00 0.00000000D+00
  <mgrwgt>
 0.4416864492D-01   23    2    0
 0.185498800821546D+03 0.000000000000000D+00 0.000000000000000D+00 0.185498800821546D+03
 0.185498800821546D+03 0.000000000000000D+00 0.000000000000000D+00 -.185498800821546D+03
 0.148973765243510D+03 0.475238329523354D+02 0.579468338909266D+02 -.308517823531221D+02
 0.152914074934742D+03 -.895830577119918D+02 -.433770419860377D+02 0.837186141684680D+02
 0.691097614648403D+02 0.420592247596564D+02 -.145697919048888D+02 -.528668318153458D+02
 0.000000000000000D+00 -.000000000000000D+00 -.000000000000000D+00 -.000000000000000D+00
 0.185499481768777D+03 0.000000000000000D+00 0.000000000000000D+00 0.185499481768777D+03
 0.191687375529944D+03 0.000000000000000D+00 0.000000000000000D+00 -.191687375529944D+03
 0.148993626162029D+03 0.475746923509668D+02 0.579561628324099D+02 -.308517823531221D+02
 0.152880786524668D+03 -.895308622597141D+02 -.433674679774356D+02 0.837186141684680D+02
 0.691232113012507D+02 0.420828194417213D+02 -.145654640242173D+02 -.528668318153458D+02
 0.618923331077380D+01 -.126649532973932D+00 -.232308307569552D-01 -.618789376116719D+01
0.132589882290D-05 0.000000000000D+00 0.000000000000D+00 0.489332768604D-06 0.000000000000D+00  6 2 21 25 24 1 21 2 0.25574276D-02 0.31845800D+00 0.25315358D+05 0.25315358D+05 0.25315358D+05 0.12227144D+01  1  2  2  2  6  2       21 0.253490940884D-03 0.100000000000D+01
0.330127595320D-07 0.699696031908D-07 -.267660771505D-08 0.489332768604D-06 0.000000000000D+00  6 2 21 25 24 1 21 4 0.25574276D-02 0.31845800D+00 0.25315358D+05 0.25315358D+05 0.25315358D+05 0.12227144D+01  1  2  3  2  6  2       21 0.943591330974D-05 0.100000000000D+01
0.137543903678D-06 0.000000000000D+00 0.000000000000D+00 0.489332768604D-06 0.000000000000D+00  6 2 21 25 24 1 21 4 0.25574276D-02 0.31845800D+00 0.25315358D+05 0.25315358D+05 0.25315358D+05 0.12227144D+01  1  2 15  2  6  2       21 0.393136584093D-04 0.100000000000D+01
-.385937516044D-01 0.000000000000D+00 0.000000000000D+00 0.489332768604D-06 0.000000000000D+00  6 2 21 25 24 1 21 4 0.25574276D-02 0.31845800D+00 0.25315358D+05 0.25315358D+05 0.25315358D+05 0.12227144D+01  1  2  4  2  6  2       21 -.110311073536D+02 0.100000000000D+01
-.396895272997D-01 0.000000000000D+00 -.886689557000D-05 0.489332768604D-06 0.000000000000D+00  6 2 21 25 24 1 21 4 0.25574276D-02 0.32908273D+00 0.25315358D+05 0.25315358D+05 0.25315358D+05 0.12227144D+01  1  2  5  2  6  2       21 -.985940419769D+01 0.100000000000D+01
0.396127243473D-01 0.000000000000D+00 0.884782432494D-05 0.489332768604D-06 0.000000000000D+00  6 2 21 25 24 1 21 4 0.25574276D-02 0.31845800D+00 0.25315358D+05 0.25315358D+05 0.25315358D+05 0.12227144D+01  1  2  6  2  6  2       21 0.113223565131D+02 0.100000000000D+01
0.386977833950D-01 0.000000000000D+00 0.000000000000D+00 0.489332768604D-06 0.517878638353D-03  6 2 21 25 24 1 21 4 0.25574370D-02 0.32908233D+00 0.25336072D+05 0.25336072D+05 0.25336072D+05 0.12226764D+01  1  2 11  2  6  2       21 0.961116098733D+01 0.100000000000D+01
-.300053711618D-03 0.000000000000D+00 -.678570848348D-07 0.489332768604D-06 0.000000000000D+00  6 2 -1 25 24 1 -1 4 0.25574276D-02 0.32908273D+00 0.25315358D+05 0.25315358D+05 0.25315358D+05 0.12227144D+01  1  2  5  5  6  2       21 -.767889310666D-02 0.100000000000D+01
0.314862847148D-03 0.000000000000D+00 0.000000000000D+00 0.489332768604D-06 0.421368909161D-05  6 2 -1 25 24 1 -1 4 0.25574370D-02 0.32908233D+00 0.25336072D+05 0.25336072D+05 0.25336072D+05 0.12226764D+01  1  2 11  5  6  2       21 0.805679044377D-02 0.100000000000D+01
-.300053711618D-03 0.000000000000D+00 -.678570848348D-07 0.489332768604D-06 0.000000000000D+00  6 2 1 25 24 1 1 4 0.25574276D-02 0.32908273D+00 0.25315358D+05 0.25315358D+05 0.25315358D+05 0.12227144D+01  1  2  5  6  6  2       21 -.981656974033D-01 0.100000000000D+01
0.300240994902D-03 0.000000000000D+00 0.000000000000D+00 0.489332768604D-06 0.200876612350D-05  6 2 1 25 24 1 1 4 0.25574370D-02 0.32908233D+00 0.25336072D+05 0.25336072D+05 0.25336072D+05 0.12226764D+01  1  2 11  6  6  2       21 0.982138253259D-01 0.100000000000D+01
-.300053711618D-03 0.000000000000D+00 -.678570848348D-07 0.489332768604D-06 0.000000000000D+00  6 2 -2 25 24 1 -2 4 0.25574276D-02 0.32908273D+00 0.25315358D+05 0.25315358D+05 0.25315358D+05 0.12227144D+01  1  2  5  7  6  2       21 -.651316176205D-02 0.100000000000D+01
0.300443879226D-03 0.000000000000D+00 0.000000000000D+00 0.489332768604D-06 0.402024404005D-05  6 2 -2 25 24 1 -2 4 0.25574370D-02 0.32908233D+00 0.25336072D+05 0.25336072D+05 0.25336072D+05 0.12226764D+01  1  2 11  7  6  2       21 0.652076912156D-02 0.100000000000D+01
-.300053711618D-03 0.000000000000D+00 -.678570848348D-07 0.489332768604D-06 0.000000000000D+00  6 2 2 25 24 1 2 4 0.25574276D-02 0.32908273D+00 0.25315358D+05 0.25315358D+05 0.25315358D+05 0.12227144D+01  1  2  5  8  6  2       21 -.254124753373D+00 0.100000000000D+01
0.300574245138D-03 0.000000000000D+00 0.000000000000D+00 0.489332768604D-06 0.402199322518D-05  6 2 2 25 24 1 2 4 0.25574370D-02 0.32908233D+00 0.25336072D+05 0.25336072D+05 0.25336072D+05 0.12226764D+01  1  2 11  8  6  2       21 0.254532750421D+00 0.100000000000D+01
-.300053711618D-03 0.000000000000D+00 -.678570848348D-07 0.489332768604D-06 0.000000000000D+00  6 2 -3 25 24 1 -3 4 0.25574276D-02 0.32908273D+00 0.25315358D+05 0.25315358D+05 0.25315358D+05 0.12227144D+01  1  2  5  9  6  2       21 -.481208956378D-02 0.100000000000D+01
-.300053711618D-03 0.000000000000D+00 -.678570848348D-07 0.489332768604D-06 0.000000000000D+00  6 2 -4 25 24 1 -4 4 0.25574276D-02 0.32908273D+00 0.25315358D+05 0.25315358D+05 0.25315358D+05 0.12227144D+01  1  2  5  9  6  2       21 -.325669873660D-02 0.100000000000D+01
0.300437922341D-03 0.000000000000D+00 0.000000000000D+00 0.489332768604D-06 0.402016433089D-05  6 2 -3 25 24 1 -3 4 0.25574370D-02 0.32908233D+00 0.25336072D+05 0.25336072D+05 0.25336072D+05 0.12226764D+01  1  2 11  9  6  2       21 0.481766111124D-02 0.100000000000D+01
0.300437922341D-03 0.000000000000D+00 0.000000000000D+00 0.489332768604D-06 0.402016433089D-05  6 2 -4 25 24 1 -4 4 0.25574370D-02 0.32908233D+00 0.25336072D+05 0.25336072D+05 0.25336072D+05 0.12226764D+01  1  2 11  9  6  2       21 0.326047840108D-02 0.100000000000D+01
-.300053711618D-03 0.000000000000D+00 -.678570848348D-07 0.489332768604D-06 0.000000000000D+00  6 2 3 25 24 1 3 4 0.25574276D-02 0.32908273D+00 0.25315358D+05 0.25315358D+05 0.25315358D+05 0.12227144D+01  1  2  5 10  6  2       21 -.491612788186D-02 0.100000000000D+01
-.300053711618D-03 0.000000000000D+00 -.678570848348D-07 0.489332768604D-06 0.000000000000D+00  6 2 4 25 24 1 4 4 0.25574276D-02 0.32908273D+00 0.25315358D+05 0.25315358D+05 0.25315358D+05 0.12227144D+01  1  2  5 10  6  2       21 -.325669873660D-02 0.100000000000D+01
0.300437922341D-03 0.000000000000D+00 0.000000000000D+00 0.489332768604D-06 0.402016433089D-05  6 2 3 25 24 1 3 4 0.25574370D-02 0.32908233D+00 0.25336072D+05 0.25336072D+05 0.25336072D+05 0.12226764D+01  1  2 11 10  6  2       21 0.492182258536D-02 0.100000000000D+01
0.300437922341D-03 0.000000000000D+00 0.000000000000D+00 0.489332768604D-06 0.402016433089D-05  6 2 4 25 24 1 4 4 0.25574370D-02 0.32908233D+00 0.25336072D+05 0.25336072D+05 0.25336072D+05 0.12226764D+01  1  2 11 10  6  2       21 0.326047840108D-02 0.100000000000D+01
  </mgrwgt>
  </event>
  <event>
  5     66 0.43779995E-03 0.85552438E+02 0.75467711E-02 0.11422930E+00
        2 -1    0    0  502    0 0.00000000E+00 0.00000000E+00 0.16143252E+04 0.16143252E+04 0.32000000E+00 0.0000E+00 0.9000E+01
       21 -1    0    0  501  502 0.00000000E+00 0.00000000E+00 -.52227751E+02 0.52233135E+02 0.75000000E+00 0.0000E+00 0.9000E+01
       25  1    1    2    0    0 0.56878387E+02 -.35128447E+02 0.92031670E+03 0.93116968E+03 0.12500000E+03 0.0000E+00 0.9000E+01
       24  1    1    2    0    0 -.10581145E+03 0.11167075E+03 0.61738148E+03 0.64132170E+03 0.80419002E+02 0.0000E+00 0.9000E+01
        1  1    1    2  501    0 0.48933064E+02 -.76542305E+02 0.24399269E+02 0.94066975E+02 0.32000000E+00 0.0000E+00 0.9000E+01
#aMCatNLO 1  0  0  2  1 0.14149677D+02 0.00000000D+00  -5  6  0 0.00000000D+00 0.00000000D+00 0.00000000D+00 0.00000000D+00 0.00000000D+00
  <mgrwgt>
 0.1527896470D+00   23    2    0
 0.290374046552986D+03 0.000000000000000D+00 0.000000000000000D+00 0.290374046552986D+03
 0.290374046552986D+03 0.000000000000000D+00 0.000000000000000D+00 -.290374046552986D+03
 0.196684739903385D+03 0.568783664972191D+02 -.351284154717095D+02 0.136347837393621D+03
 0.179750987231688D+03 -.105811468918267D+03 0.111670781080162D+03 0.466558801728263D+02
 0.204312365970899D+03 0.489331024210479D+02 -.765423656084522D+02 -.183003717566447D+03
 0.000000000000000D+00 -.000000000000000D+00 -.000000000000000D+00 -.000000000000000D+00
 0.293438745277483D+03 0.000000000000000D+00 0.000000000000000D+00 0.293438745277483D+03
 0.307264968844871D+03 0.000000000000000D+00 0.000000000000000D+00 -.307264968844871D+03
 0.196018257907137D+03 0.573181410449816D+02 -.303653647792858D+02 0.136347837393621D+03
 0.182276594670210D+03 -.105406046711164D+03 0.116061773087527D+03 0.466558801728263D+02
 0.202625590346968D+03 0.493888182080546D+02 -.716066606980748D+02 -.183003717566447D+03
 0.197832711980391D+02 -.130091254187264D+01 -.140897476101662D+02 -.138262235673874D+02
0.453300899948D-05 0.000000000000D+00 0.000000000000D+00 0.535993883045D-06 0.000000000000D+00  6 2 21 25 24 1 21 2 0.24835814D+00 0.80354552D-02 0.41247850D+05 0.41247850D+05 0.41247850D+05 0.12006478D+01  1  2  2  2  6  2       21 0.118526368203D-01 0.100000000000D+01
0.114189156019D-06 0.239213456921D-06 -.915083915217D-08 0.535993883045D-06 0.000000000000D+00  6 2 21 25 24 1 21 4 0.24835814D+00 0.80354552D-02 0.41247850D+05 0.41247850D+05 0.41247850D+05 0.12006478D+01  1  2  3  2  6  2       21 0.430412151918D-03 0.100000000000D+01
0.410382923637D-06 0.000000000000D+00 0.000000000000D+00 0.535993883045D-06 0.000000000000D+00  6 2 21 25 24 1 21 4 0.24835814D+00 0.80354552D-02 0.41247850D+05 0.41247850D+05 0.41247850D+05 0.12006478D+01  1  2 15  2  6  2       21 0.154685263847D-02 0.100000000000D+01
0.292877495602D-04 0.000000000000D+00 0.000000000000D+00 0.533723058044D-06 0.000000000000D+00  6 2 21 25 24 1 21 4 0.24835814D+00 0.85437390D-02 0.43716304D+05 0.43716304D+05 0.43716304D+05 0.11981017D+01  1  2 12  2  6  2       21 0.981520088573D-01 0.100000000000D+01
-.611481864200D-05 0.000000000000D+00 0.000000000000D+00 0.535993883045D-06 0.000000000000D+00  6 2 21 25 24 1 21 4 0.24835814D+00 0.80354552D-02 0.41247850D+05 0.41247850D+05 0.41247850D+05 0.12006478D+01  1  2  4  2  6  2       21 -.230485305440D-01 0.100000000000D+01
-.158159873984D-03 0.000000000000D+00 -.220287491659D-04 0.535993883045D-06 0.000000000000D+00  6 2 21 25 24 1 21 4 0.24835814D+00 0.85951109D-02 0.41247850D+05 0.41247850D+05 0.41247850D+05 0.12006478D+01  1  2  5  2  6  2       21 -.529998400779D+00 0.100000000000D+01
0.158251529115D-03 0.000000000000D+00 0.218302982117D-04 0.535993883045D-06 0.000000000000D+00  6 2 21 25 24 1 21 4 0.24835814D+00 0.80354552D-02 0.41247850D+05 0.41247850D+05 0.41247850D+05 0.12006478D+01  1  2  6  2  6  2       21 0.596496055891D+00 0.100000000000D+01
0.564172605334D-06 0.000000000000D+00 0.000000000000D+00 0.533723058044D-06 0.000000000000D+00  6 2 -1 25 24 1 -1 4 0.24835814D+00 0.85437390D-02 0.43716304D+05 0.43716304D+05 0.43716304D+05 0.11981017D+01  1  2 12  5  6  2       21 0.122947457711D-03 0.100000000000D+01
-.226978937943D-05 0.000000000000D+00 -.362940967911D-06 0.535993883045D-06 0.000000000000D+00  6 2 -1 25 24 1 -1 4 0.24835814D+00 0.85951109D-02 0.41247850D+05 0.41247850D+05 0.41247850D+05 0.12006478D+01  1  2  5  5  6  2       21 -.494637088774D-03 0.100000000000D+01
0.564172605334D-06 0.000000000000D+00 0.000000000000D+00 0.533723058044D-06 0.000000000000D+00  6 2 1 25 24 1 1 4 0.24835814D+00 0.85437390D-02 0.43716304D+05 0.43716304D+05 0.43716304D+05 0.11981017D+01  1  2 12  6  6  2       21 0.149404299401D-03 0.100000000000D+01
-.226978937943D-05 0.000000000000D+00 -.362940967911D-06 0.535993883045D-06 0.000000000000D+00  6 2 1 25 24 1 1 4 0.24835814D+00 0.85951109D-02 0.41247850D+05 0.41247850D+05 0.41247850D+05 0.12006478D+01  1  2  5  6  6  2       21 -.601763388281D-03 0.100000000000D+01
0.564172605334D-06 0.000000000000D+00 0.000000000000D+00 0.533723058044D-06 0.000000000000D+00  6 2 -2 25 24 1 -2 4 0.24835814D+00 0.85437390D-02 0.43716304D+05 0.43716304D+05 0.43716304D+05 0.11981017D+01  1  2 12  7  6  2       21 0.118353363699D-03 0.100000000000D+01
-.226978937943D-05 0.000000000000D+00 -.362940967911D-06 0.535993883045D-06 0.000000000000D+00  6 2 -2 25 24 1 -2 4 0.24835814D+00 0.85951109D-02 0.41247850D+05 0.41247850D+05 0.41247850D+05 0.12006478D+01  1  2  5  7  6  2       21 -.476033384157D-03 0.100000000000D+01
0.564172605334D-06 0.000000000000D+00 0.000000000000D+00 0.533723058044D-06 0.000000000000D+00  6 2 2 25 24 1 2 4 0.24835814D+00 0.85437390D-02 0.43716304D+05 0.43716304D+05 0.43716304D+05 0.11981017D+01  1  2 12  8  6  2       21 0.167302028341D-03 0.100000000000D+01
-.226978937943D-05 0.000000000000D+00 -.362940967911D-06 0.535993883045D-06 0.000000000000D+00  6 2 2 25 24 1 2 4 0.24835814D+00 0.85951109D-02 0.41247850D+05 0.41247850D+05 0.41247850D+05 0.12006478D+01  1  2  5  8  6  2       21 -.674218380520D-03 0.100000000000D+01
0.564172605334D-06 0.000000000000D+00 0.000000000000D+00 0.533723058044D-06 0.000000000000D+00  6 2 -3 25 24 1 -3 4 0.24835814D+00 0.85437390D-02 0.43716304D+05 0.43716304D+05 0.43716304D+05 0.11981017D+01  1  2 12  9  6  2       21 0.838686341016D-04 0.100000000000D+01
0.564172605334D-06 0.000000000000D+00 0.000000000000D+00 0.533723058044D-06 0.000000000000D+00  6 2 -4 25 24 1 -4 4 0.24835814D+00 0.85437390D-02 0.43716304D+05 0.43716304D+05 0.43716304D+05 0.11981017D+01  1  2 12  9  6  2       21 0.741746680552D-04 0.100000000000D+01
-.226978937943D-05 0.000000000000D+00 -.362940967911D-06 0.535993883045D-06 0.000000000000D+00  6 2 -3 25 24 1 -3 4 0.24835814D+00 0.85951109D-02 0.41247850D+05 0.41247850D+05 0.41247850D+05 0.12006478D+01  1  2  5  9  6  2       21 -.336781080646D-03 0.100000000000D+01
-.226978937943D-05 0.000000000000D+00 -.362940967911D-06 0.535993883045D-06 0.000000000000D+00  6 2 -4 25 24 1 -4 4 0.24835814D+00 0.85951109D-02 0.41247850D+05 0.41247850D+05 0.41247850D+05 0.12006478D+01  1  2  5  9  6  2       21 -.297648276307D-03 0.100000000000D+01
0.564172605334D-06 0.000000000000D+00 0.000000000000D+00 0.533723058044D-06 0.000000000000D+00  6 2 3 25 24 1 3 4 0.24835814D+00 0.85437390D-02 0.43716304D+05 0.43716304D+05 0.43716304D+05 0.11981017D+01  1  2 12 10  6  2       21 0.838590564298D-04 0.100000000000D+01
0.564172605334D-06 0.000000000000D+00 0.000000000000D+00 0.533723058044D-06 0.000000000000D+00  6 2 4 25 24 1 4 4 0.24835814D+00 0.85437390D-02 0.43716304D+05 0.43716304D+05 0.43716304D+05 0.11981017D+01  1  2 12 10  6  2       21 0.741746680552D-04 0.100000000000D+01
-.226978937943D-05 0.000000000000D+00 -.362940967911D-06 0.535993883045D-06 0.000000000000D+00  6 2 3 25 24 1 3 4 0.24835814D+00 0.85951109D-02 0.41247850D+05 0.41247850D+05 0.41247850D+05 0.12006478D+01  1  2  5 10  6  2       21 -.336742370683D-03 0.100000000000D+01
-.226978937943D-05 0.000000000000D+00 -.362940967911D-06 0.535993883045D-06 0.000000000000D+00  6 2 4 25 24 1 4 4 0.24835814D+00 0.85951109D-02 0.41247850D+05 0.41247850D+05 0.41247850D+05 0.12006478D+01  1  2  5 10  6  2       21 -.297648276307D-03 0.100000000000D+01
  </mgrwgt>
  </event>
  <event>
  5     66 -.43779995E-03 0.22996673E+02 0.75467711E-02 0.12351561E+00
        2 -1    0    0  502    0 0.00000000E+00 0.00000000E+00 0.21322531E+04 0.21322531E+04 0.32000000E+00 0.0000E+00 0.9000E+01
       21 -1    0    0  501  502 0.00000000E+00 0.00000000E+00 -.92423054E+01 0.92726862E+01 0.75000000E+00 0.0000E+00 0.9000E+01
       25  1    1    2    0    0 0.47488859E+02 0.31329638E+02 0.16252080E+04 0.16310005E+04 0.12500000E+03 0.0000E+00 0.9000E+01
       24  1    1    2    0    0 -.24498773E+02 -.30862884E+02 0.37113030E+03 0.38178217E+03 0.80419002E+02 0.0000E+00 0.9000E+01
        1  1    1    2  501    0 -.22990086E+02 -.46675394E+00 0.12667253E+03 0.12874313E+03 0.32000000E+00 0.0000E+00 0.9000E+01
#aMCatNLO 1  0  0  5  2 0.24929171D+01 0.00000000D+00  -5  6  0 0.00000000D+00 0.00000000D+00 0.00000000D+00 0.00000000D+00 0.00000000D+00
  <mgrwgt>
 -.1122221056D-01    1    2    0
 0.140497297013951D+03 0.000000000000000D+00 0.000000000000000D+00 0.140497297013951D+03
 0.140497297013951D+03 -.000000000000000D+00 -.000000000000000D+00 -.140497297013951D+03
 0.151233428974697D+03 0.474899471202032D+02 0.313296596583356D+02 0.633222503363381D+02
 0.105634219026671D+03 -.244980125734249D+02 -.308628681879483D+02 -.560241289282559D+02
 0.241269460265336D+02 -.229919345467782D+02 -.466791470387261D+00 -.729812140808212D+01
 0.000000000000000D+00 0.000000000000000D+00 -.000000000000000D+00 0.000000000000000D+00
 0.140497297013951D+03 0.000000000000000D+00 0.000000000000000D+00 0.140497297013951D+03
 0.140497297013951D+03 -.000000000000000D+00 -.000000000000000D+00 -.140497297013951D+03
 0.150479639763531D+03 0.458001744783940D+02 0.312953532168970D+02 0.627858811209992D+02
 0.106122151873581D+03 -.256839742017112D+02 -.308869460562619D+02 -.564005779795939D+02
 0.566207761685700D+01 -.261399998802049D+01 0.461133843440290D+01 -.199039816251440D+01
 0.187307247739332D+02 -.175022002886624D+02 -.501974559503799D+01 -.439490497889083D+01
-.264349625805D-06 0.000000000000D+00 0.000000000000D+00 0.716968919830D-06 0.000000000000D+00  6 2 21 25 24 1 21 4 0.32804128D+00 0.14242320D-02 0.15611117D+05 0.15611117D+05 0.15611117D+05 0.12458503D+01  1  2 14  3  6  5        1 -.112222105581D-01 0.100000000000D+01
  </mgrwgt>
  </event>
  <event>
  5     66 -.43779995E-03 0.12356205E+03 0.75467711E-02 0.11306663E+00
        2 -1    0    0  502    0 0.00000000E+00 0.00000000E+00 0.12065075E+04 0.12065075E+04 0.32000000E+00 0.0000E+00 0.9000E+01
       21 -1    0    0  501  502 0.00000000E+00 0.00000000E+00 -.49583937E+02 0.49589609E+02 0.75000000E+00 0.0000E+00 0.9000E+01
       25  1    1    2    0    0 -.12142185E+03 -.62015762E+02 0.72813360E+03 0.75126078E+03 0.12500000E+03 0.0000E+00 0.9000E+01
       24  1    1    2    0    0 0.98317722E+02 -.59366785E+02 0.26333957E+03 0.29833829E+03 0.80419002E+02 0.0000E+00 0.9000E+01
        1  1    1    2  501    0 0.23104130E+02 0.12138255E+03 0.16545040E+03 0.20649809E+03 0.32000000E+00 0.0000E+00 0.9000E+01
#aMCatNLO 1  0  0  2  1 0.14149677D+02 0.00000000D+00  -5  6  0 0.00000000D+00 0.00000000D+00 0.00000000D+00 0.00000000D+00 0.00000000D+00
  <mgrwgt>
 -.5842549614D-02    1    2    0
 0.244595546097920D+03 0.000000000000000D+00 0.000000000000000D+00 0.244595546097920D+03
 0.244595546097920D+03 0.000000000000000D+00 0.000000000000000D+00 -.244595546097920D+03
 0.206998149321618D+03 -.121421877334564D+03 -.620158978706885D+02 0.929192657010214D+02
 0.143253077876282D+03 0.983177038011795D+02 -.593668791145657D+02 -.293841989871725D+02
 0.138939864997941D+03 0.231041735333848D+02 0.121382776985254D+03 -.635350667138489D+02
 0.000000000000000D+00 0.000000000000000D+00 0.000000000000000D+00 0.000000000000000D+00
 0.781973475936466D+03 0.000000000000000D+00 0.000000000000000D+00 0.781973475936466D+03
 0.458205678248834D+03 0.000000000000000D+00 0.000000000000000D+00 -.458205678248834D+03
 0.413031302603205D+03 -.320982039354698D+03 -.208101891878432D+03 0.929192657010214D+02
 0.155467449615246D+03 0.217272765547042D+01 -.129748834445308D+03 -.293841989871725D+02
 0.105809740508450D+03 -.556699407890767D+02 0.637169849935873D+02 -.635350667138489D+02
 0.565870661458399D+03 0.374479252488304D+03 0.274133741330152D+03 0.323767797687632D+03
-.882255933927D-06 0.000000000000D+00 0.000000000000D+00 0.129475584510D-06 0.000000000000D+00  6 2 21 25 24 1 21 4 0.18561698D+00 0.76287376D-02 0.50341901D+05 0.50341901D+05 0.50341901D+05 0.11919888D+01  1  2 14  2  6  2       21 -.584254961368D-02 0.100000000000D+01
  </mgrwgt>
  </event>
  <event>
  6     66 0.43779995E-03 0.23421831E+02 0.75467711E-02 0.12293843E+00
        2 -1    0    0  502    0 0.00000000E+00 0.00000000E+00 0.88291218E+02 0.88291798E+02 0.32000000E+00 0.0000E+00 0.9000E+01
       21 -1    0    0  501  502 -.00000000E+00 -.00000000E+00 -.25713110E+03 0.25713219E+03 0.75000000E+00 0.0000E+00 0.9000E+01
       25  1    1    2    0    0 -.30722504E+02 -.16871987E+02 -.14836369E+03 0.19714289E+03 0.12500000E+03 0.0000E+00 0.9000E+01
       24  1    1    2    0    0 0.13141284E+01 0.23623099E+02 0.17014006E+02 0.85536367E+02 0.80419002E+02 0.0000E+00 0.9000E+01
        1  1    1    2  503    0 0.29909819E+02 0.65735539E+01 -.10058642E+02 0.32234881E+02 0.32000000E+00 0.0000E+00 0.9000E+01
       21  1    1    2  501  503 -.50144340E+00 -.13324666E+02 -.27431555E+02 0.30509849E+02 0.75000000E+00 0.0000E+00 0.9000E+01
#aMCatNLO 2  0  0  5  2 0.18882646D+02 0.00000000D+00  -5  6  0 0.00000000D+00 0.00000000D+00 0.00000000D+00 0.00000000D+00 0.00000000D+00
  <mgrwgt>
 0.2489054180D+00    2    2    0
 0.150674174278027D+03 0.000000000000000D+00 0.000000000000000D+00 0.150674174278027D+03
 0.150674174278027D+03 -.000000000000000D+00 -.000000000000000D+00 -.150674174278027D+03
 0.143884080452086D+03 -.398864906984200D+02 -.147682630465756D+02 -.571716264758512D+02
 0.109236970665020D+03 -.561526010677254D+01 0.252138384192246D+02 0.692692645536423D+02
 0.482272974389479D+02 0.455017508051925D+02 -.104455753726490D+02 -.120976380777911D+02
 0.000000000000000D+00 -.000000000000000D+00 0.000000000000000D+00 0.000000000000000D+00
 0.150674174278027D+03 0.000000000000000D+00 0.000000000000000D+00 0.150674174278027D+03
 0.150674174278027D+03 -.000000000000000D+00 -.000000000000000D+00 -.150674174278027D+03
 0.142845708491388D+03 -.306420845283748D+02 -.168904482310097D+02 -.596294545398330D+02
 0.107567282747130D+03 0.137468881105844D+01 0.236091960267864D+02 0.674108333791540D+02
 0.309769113121898D+02 0.294220331766977D+02 0.685830957421249D+01 0.684664793726392D+01
 0.199584460053460D+02 -.154637459381399D+00 -.135770573699893D+02 -.146280267765850D+02
-.135209338954D-04 0.000000000000D+00 0.000000000000D+00 0.333802961767D-06 0.000000000000D+00  6 2 21 25 24 1 21 4 0.13583393D-01 0.39558759D-01 0.16565945D+05 0.16565945D+05 0.16565945D+05 0.12429360D+01  1  2 13  3  6  5        1 -.106070901024D+00 0.100000000000D+01
0.452490862081D-04 0.000000000000D+00 0.000000000000D+00 0.332642013172D-06 0.316617214053D-07  6 2 21 25 24 1 21 4 0.13583393D-01 0.39558759D-01 0.16565945D+05 0.16565945D+05 0.16565945D+05 0.12429360D+01  1  2  1  3  6  5        1 0.354976319073D+00 0.100000000000D+01
  </mgrwgt>
  </event>
  <event>
  5     66 0.43779995E-03 0.26790778E+02 0.75467711E-02 0.11982257E+00
        2 -1    0    0  502    0 0.00000000E+00 0.00000000E+00 0.24645026E+04 0.24645026E+04 0.32000000E+00 0.0000E+00 0.9000E+01
       21 -1    0    0  501  502 0.00000000E+00 0.00000000E+00 -.11022665E+02 0.11048151E+02 0.75000000E+00 0.0000E+00 0.9000E+01
       25  1    1    2    0    0 -.48347783E+01 0.77953250E+02 0.17753624E+04 0.17814704E+04 0.12500000E+03 0.0000E+00 0.9000E+01
       24  1    1    2    0    0 -.21681038E+02 -.81776742E+02 0.60617546E+03 0.61731144E+03 0.80419002E+02 0.0000E+00 0.9000E+01
        1  1    1    2  501    0 0.26515816E+02 0.38234920E+01 0.71942108E+02 0.76768984E+02 0.32000000E+00 0.0000E+00 0.9000E+01
#aMCatNLO 1  0  0  2  1 0.12704805D+02 0.00000000D+00  -5  6  0 0.00000000D+00 0.00000000D+00 0.00000000D+00 0.00000000D+00 0.00000000D+00
  <mgrwgt>
 0.4762133699D-01   32    2    0
 0.164915001150019D+03 0.000000000000000D+00 0.000000000000000D+00 0.164915001150019D+03
 0.164915001150019D+03 0.000000000000000D+00 0.000000000000000D+00 -.164915001150019D+03
 0.164643681527157D+03 -.483518058963074D+01 0.779531919301034D+02 0.733652694630788D+02
 0.124144124041071D+03 -.216813412469253D+02 -.817767856536402D+02 -.422732107775984D+02
 0.410421967318098D+02 0.265165218365561D+02 0.382359372353679D+01 -.310920586854803D+02
 0.000000000000000D+00 0.000000000000000D+00 -.000000000000000D+00 -.000000000000000D+00
 0.165584891708248D+03 0.000000000000000D+00 0.000000000000000D+00 0.165584891708248D+03
 0.238729187504242D+03 0.000000000000000D+00 0.000000000000000D+00 -.238729187504242D+03
 0.166920018816981D+03 -.956549837571386D+01 0.822394744590178D+02 0.733652694630788D+02
 0.122739940530789D+03 -.252035605988406D+02 -.785851972754691D+02 -.422732107775984D+02
 0.404146420352303D+02 0.253544020604228D+02 0.487662523604969D+01 -.310920586854803D+02
 0.742394778294894D+02 0.941465691413163D+01 -.853090241959836D+01 -.731442957959931D+02
0.777338729665D-06 0.000000000000D+00 0.000000000000D+00 0.881663052118D-06 0.000000000000D+00  6 2 21 25 24 1 21 2 0.37915621D+00 0.16977566D-02 0.21157177D+05 0.21157177D+05 0.21157177D+05 0.12311458D+01  1  2  2  2  6  2       21 0.104804044234D-01 0.100000000000D+01
0.526070968102D-07 0.410212917608D-07 -.156922293398D-08 0.881663052118D-06 0.000000000000D+00  6 2 21 25 24 1 21 4 0.37915621D+00 0.16977566D-02 0.21157177D+05 0.21157177D+05 0.21157177D+05 0.12311458D+01  1  2  3  2  6  2       21 0.107505589660D-02 0.100000000000D+01
0.735107626170D-07 0.000000000000D+00 0.000000000000D+00 0.881663052118D-06 0.000000000000D+00  6 2 21 25 24 1 21 4 0.37915621D+00 0.16977566D-02 0.21157177D+05 0.21157177D+05 0.21157177D+05 0.12311458D+01  1  2 15  2  6  2       21 0.150223417764D-02 0.100000000000D+01
0.247863561949D-04 0.000000000000D+00 0.000000000000D+00 0.875854911532D-06 0.000000000000D+00  6 2 21 25 24 1 21 4 0.37915621D+00 0.24599066D-02 0.23056476D+05 0.23056476D+05 0.23056476D+05 0.12270839D+01  1  2 12  2  6  2       21 0.273666317755D+00 0.100000000000D+01
0.219342889766D-04 0.000000000000D+00 0.000000000000D+00 0.875854911532D-06 0.000000000000D+00  6 2 21 25 24 1 21 4 0.37915621D+00 0.25843599D-02 0.23056476D+05 0.23056476D+05 0.23056476D+05 0.12270839D+01  1  2 12  2  6  2       21 0.223410360972D+00 0.100000000000D+01
-.330386076414D-04 0.000000000000D+00 0.000000000000D+00 0.881663052118D-06 0.000000000000D+00  6 2 21 25 24 1 21 4 0.37915621D+00 0.16977566D-02 0.21157177D+05 0.21157177D+05 0.21157177D+05 0.12311458D+01  1  2  4  2  6  2       21 -.675162708338D+00 0.100000000000D+01
-.507538599704D-04 0.000000000000D+00 -.102445952882D-05 0.881663052118D-06 0.000000000000D+00  6 2 21 25 24 1 21 4 0.37915621D+00 0.24677505D-02 0.21157177D+05 0.21157177D+05 0.21157177D+05 0.12311458D+01  1  2  5  2  6  2       21 -.565982952021D+00 0.100000000000D+01
0.381748880480D-04 0.000000000000D+00 0.786199395753D-06 0.881663052118D-06 0.000000000000D+00  6 2 21 25 24 1 21 4 0.37915621D+00 0.16977566D-02 0.21157177D+05 0.21157177D+05 0.21157177D+05 0.12311458D+01  1  2  6  2  6  2       21 0.780125515118D+00 0.100000000000D+01
0.323211970169D-05 0.000000000000D+00 0.000000000000D+00 0.875854911532D-06 0.000000000000D+00  6 2 -1 25 24 1 -1 4 0.37915621D+00 0.24599066D-02 0.23056476D+05 0.23056476D+05 0.23056476D+05 0.12270839D+01  1  2 12  5  6  2       21 0.178751969319D-02 0.100000000000D+01
0.332916836275D-05 0.000000000000D+00 0.000000000000D+00 0.875854911532D-06 0.000000000000D+00  6 2 -1 25 24 1 -1 4 0.37915621D+00 0.25843599D-02 0.23056476D+05 0.23056476D+05 0.23056476D+05 0.12270839D+01  1  2 12  5  6  2       21 0.171369522721D-02 0.100000000000D+01
-.665430533176D-05 0.000000000000D+00 -.126388108104D-06 0.881663052118D-06 0.000000000000D+00  6 2 -1 25 24 1 -1 4 0.37915621D+00 0.24677505D-02 0.21157177D+05 0.21157177D+05 0.21157177D+05 0.12311458D+01  1  2  5  5  6  2       21 -.371450727336D-02 0.100000000000D+01
0.323211970169D-05 0.000000000000D+00 0.000000000000D+00 0.875854911532D-06 0.000000000000D+00  6 2 1 25 24 1 1 4 0.37915621D+00 0.24599066D-02 0.23056476D+05 0.23056476D+05 0.23056476D+05 0.12270839D+01  1  2 12  6  6  2       21 0.189913086275D-02 0.100000000000D+01
0.332916836275D-05 0.000000000000D+00 0.000000000000D+00 0.875854911532D-06 0.000000000000D+00  6 2 1 25 24 1 1 4 0.37915621D+00 0.25843599D-02 0.23056476D+05 0.23056476D+05 0.23056476D+05 0.12270839D+01  1  2 12  6  6  2       21 0.182609654496D-02 0.100000000000D+01
-.665430533176D-05 0.000000000000D+00 -.126388108104D-06 0.881663052118D-06 0.000000000000D+00  6 2 1 25 24 1 1 4 0.37915621D+00 0.24677505D-02 0.21157177D+05 0.21157177D+05 0.21157177D+05 0.12311458D+01  1  2  5  6  6  2       21 -.394759443861D-02 0.100000000000D+01
0.323211970169D-05 0.000000000000D+00 0.000000000000D+00 0.875854911532D-06 0.000000000000D+00  6 2 -2 25 24 1 -2 4 0.37915621D+00 0.24599066D-02 0.23056476D+05 0.23056476D+05 0.23056476D+05 0.12270839D+01  1  2 12  7  6  2       21 0.176748920246D-02 0.100000000000D+01
0.332916836275D-05 0.000000000000D+00 0.000000000000D+00 0.875854911532D-06 0.000000000000D+00  6 2 -2 25 24 1 -2 4 0.37915621D+00 0.25843599D-02 0.23056476D+05 0.23056476D+05 0.23056476D+05 0.12270839D+01  1  2 12  7  6  2       21 0.169352915074D-02 0.100000000000D+01
-.665430533176D-05 0.000000000000D+00 -.126388108104D-06 0.881663052118D-06 0.000000000000D+00  6 2 -2 25 24 1 -2 4 0.37915621D+00 0.24677505D-02 0.21157177D+05 0.21157177D+05 0.21157177D+05 0.12311458D+01  1  2  5  7  6  2       21 -.367266827537D-02 0.100000000000D+01
0.323211970169D-05 0.000000000000D+00 0.000000000000D+00 0.875854911532D-06 0.000000000000D+00  6 2 2 25 24 1 2 4 0.37915621D+00 0.24599066D-02 0.23056476D+05 0.23056476D+05 0.23056476D+05 0.12270839D+01  1  2 12  8  6  2       21 0.197546736832D-02 0.100000000000D+01
0.332916836275D-05 0.000000000000D+00 0.000000000000D+00 0.875854911532D-06 0.000000000000D+00  6 2 2 25 24 1 2 4 0.37915621D+00 0.25843599D-02 0.23056476D+05 0.23056476D+05 0.23056476D+05 0.12270839D+01  1  2 12  8  6  2       21 0.190286387049D-02 0.100000000000D+01
-.665430533176D-05 0.000000000000D+00 -.126388108104D-06 0.881663052118D-06 0.000000000000D+00  6 2 2 25 24 1 2 4 0.37915621D+00 0.24677505D-02 0.21157177D+05 0.21157177D+05 0.21157177D+05 0.12311458D+01  1  2  5  8  6  2       21 -.410697306679D-02 0.100000000000D+01
0.323211970169D-05 0.000000000000D+00 0.000000000000D+00 0.875854911532D-06 0.000000000000D+00  6 2 -3 25 24 1 -3 4 0.37915621D+00 0.24599066D-02 0.23056476D+05 0.23056476D+05 0.23056476D+05 0.12270839D+01  1  2 12  9  6  2       21 0.136325192523D-02 0.100000000000D+01
0.323211970169D-05 0.000000000000D+00 0.000000000000D+00 0.875854911532D-06 0.000000000000D+00  6 2 -4 25 24 1 -4 4 0.37915621D+00 0.24599066D-02 0.23056476D+05 0.23056476D+05 0.23056476D+05 0.12270839D+01  1  2 12  9  6  2       21 0.123616753783D-02 0.100000000000D+01
0.332916836275D-05 0.000000000000D+00 0.000000000000D+00 0.875854911532D-06 0.000000000000D+00  6 2 -3 25 24 1 -3 4 0.37915621D+00 0.25843599D-02 0.23056476D+05 0.23056476D+05 0.23056476D+05 0.12270839D+01  1  2 12  9  6  2       21 0.130148949581D-02 0.100000000000D+01
0.332916836275D-05 0.000000000000D+00 0.000000000000D+00 0.875854911532D-06 0.000000000000D+00  6 2 -4 25 24 1 -4 4 0.37915621D+00 0.25843599D-02 0.23056476D+05 0.23056476D+05 0.23056476D+05 0.12270839D+01  1  2 12  9  6  2       21 0.117903381523D-02 0.100000000000D+01
-.665430533176D-05 0.000000000000D+00 -.126388108104D-06 0.881663052118D-06 0.000000000000D+00  6 2 -3 25 24 1 -3 4 0.37915621D+00 0.24677505D-02 0.21157177D+05 0.21157177D+05 0.21157177D+05 0.12311458D+01  1  2  5  9  6  2       21 -.282710373506D-02 0.100000000000D+01
-.665430533176D-05 0.000000000000D+00 -.126388108104D-06 0.881663052118D-06 0.000000000000D+00  6 2 -4 25 24 1 -4 4 0.37915621D+00 0.24677505D-02 0.21157177D+05 0.21157177D+05 0.21157177D+05 0.12311458D+01  1  2  5  9  6  2       21 -.256131369963D-02 0.100000000000D+01
0.323211970169D-05 0.000000000000D+00 0.000000000000D+00 0.875854911532D-06 0.000000000000D+00  6 2 3 25 24 1 3 4 0.37915621D+00 0.24599066D-02 0.23056476D+05 0.23056476D+05 0.23056476D+05 0.12270839D+01  1  2 12 10  6  2       21 0.136316386507D-02 0.100000000000D+01
0.323211970169D-05 0.000000000000D+00 0.000000000000D+00 0.875854911532D-06 0.000000000000D+00  6 2 4 25 24 1 4 4 0.37915621D+00 0.24599066D-02 0.23056476D+05 0.23056476D+05 0.23056476D+05 0.12270839D+01  1  2 12 10  6  2       21 0.123616753783D-02 0.100000000000D+01
0.332916836275D-05 0.000000000000D+00 0.000000000000D+00 0.875854911532D-06 0.000000000000D+00  6 2 3 25 24 1 3 4 0.37915621D+00 0.25843599D-02 0.23056476D+05 0.23056476D+05 0.23056476D+05 0.12270839D+01  1  2 12 10  6  2       21 0.130140273114D-02 0.100000000000D+01
0.332916836275D-05 0.000000000000D+00 0.000000000000D+00 0.875854911532D-06 0.000000000000D+00  6 2 4 25 24 1 4 4 0.37915621D+00 0.25843599D-02 0.23056476D+05 0.23056476D+05 0.23056476D+05 0.12270839D+01  1  2 12 10  6  2       21 0.117903381523D-02 0.100000000000D+01
-.665430533176D-05 0.000000000000D+00 -.126388108104D-06 0.881663052118D-06 0.000000000000D+00  6 2 3 25 24 1 3 4 0.37915621D+00 0.24677505D-02 0.21157177D+05 0.21157177D+05 0.21157177D+05 0.12311458D+01  1  2  5 10  6  2       21 -.282691945035D-02 0.100000000000D+01
-.665430533176D-05 0.000000000000D+00 -.126388108104D-06 0.881663052118D-06 0.000000000000D+00  6 2 4 25 24 1 4 4 0.37915621D+00 0.24677505D-02 0.21157177D+05 0.21157177D+05 0.21157177D+05 0.12311458D+01  1  2  5 10  6  2       21 -.256131369963D-02 0.100000000000D+01
  </mgrwgt>
  </event>
  <event>
  6     66 -.43779995E-03 0.54361433E+02 0.75467711E-02 0.11734901E+00
        2 -1    0    0  502    0 0.00000000E+00 0.00000000E+00 0.76498498E+03 0.76498505E+03 0.32000000E+00 0.0000E+00 0.9000E+01
       21 -1    0    0  503  502 0.00000000E+00 0.00000000E+00 -.53898965E+02 0.53904183E+02 0.75000000E+00 0.0000E+00 0.9000E+01
       25  1    1    2    0    0 0.29808439E+02 -.62916171E+02 0.49659956E+03 0.51680084E+03 0.12500000E+03 0.0000E+00 0.9000E+01
       24  1    1    2    0    0 -.93720730E+02 0.67376977E+02 0.17038537E+03 0.22095616E+03 0.80419002E+02 0.0000E+00 0.9000E+01
        1  1    1    2  501    0 0.36731128E+02 -.71491010E+01 0.12724844E+02 0.39526061E+02 0.32000000E+00 0.0000E+00 0.9000E+01
       21  1    1    2  503  501 0.27181163E+02 0.26882950E+01 0.31376242E+02 0.41606172E+02 0.75000000E+00 0.0000E+00 0.9000E+01
#aMCatNLO 2  0  0  2  1 0.27313780D+02 0.00000000D+00  -5  6  0 0.00000000D+00 0.00000000D+00 0.00000000D+00 0.00000000D+00 0.00000000D+00
  <mgrwgt>
 -.5096981128D-01    2    2    0
 0.188027613384720D+03 0.000000000000000D+00 0.000000000000000D+00 0.188027613384720D+03
 0.188027613384720D+03 0.000000000000000D+00 0.000000000000000D+00 -.188027613384720D+03
 0.172310017355416D+03 0.421686055366036D+02 -.616936478436785D+02 0.920947588294916D+02
 0.142443411638676D+03 -.832257160884567D+02 0.684150197124752D+02 -.470720174222446D+02
 0.613017977753473D+02 0.410571105518531D+02 -.672137186879676D+01 -.450227414072470D+02
 0.000000000000000D+00 0.000000000000000D+00 0.000000000000000D+00 -.000000000000000D+00
 0.197961517593246D+03 0.000000000000000D+00 0.000000000000000D+00 0.197961517593246D+03
 0.208283360355545D+03 0.000000000000000D+00 0.000000000000000D+00 -.208283360355545D+03
 0.170157019778688D+03 0.298081766420882D+02 -.629161297393329D+02 0.920947588294916D+02
 0.148345098900007D+03 -.937209472147387D+02 0.673770112297533D+02 -.470720174222446D+02
 0.585437354734031D+02 0.367316075649294D+02 -.714917652964147D+01 -.450227414072470D+02
 0.291990237966928D+02 0.271811630077211D+02 0.268829503922113D+01 -.103218427622990D+02
-.439799748641D-05 0.000000000000D+00 0.000000000000D+00 0.426285984751D-06 0.000000000000D+00  6 2 21 25 24 1 21 4 0.11178191D+00 0.84737097D-02 0.30361951D+05 0.30361951D+05 0.30361951D+05 0.12143521D+01  1  2 13  2  6  2       21 -.525345797330D-01 0.100000000000D+01
0.134362023824D-06 0.000000000000D+00 0.000000000000D+00 0.431466965167D-06 0.735873626197D-08  6 2 21 25 24 1 21 4 0.11768759D+00 0.82923566D-02 0.30361951D+05 0.30361951D+05 0.30361951D+05 0.12143521D+01  1  2  1  2  6  2       21 0.156476845160D-02 0.100000000000D+01
  </mgrwgt>
  </event>
  <event>
  5     66 0.43779995E-03 0.28463297E+03 0.75467711E-02 0.10818312E+00
        2 -1    0    0  502    0 0.00000000E+00 0.00000000E+00 0.30334035E+04 0.30334035E+04 0.32000000E+00 0.0000E+00 0.9000E+01
       21 -1    0    0  501  502 0.00000000E+00 0.00000000E+00 -.59677087E+02 0.59681800E+02 0.75000000E+00 0.0000E+00 0.9000E+01
       25  1    1    2    0    0 0.26257221E+03 -.79193563E+02 0.18888075E+04 0.19127035E+04 0.12500000E+03 0.0000E+00 0.9000E+01
       24  1    1    2    0    0 0.18649771E+02 0.35260747E+02 0.67728686E+03 0.68320995E+03 0.80419002E+02 0.0000E+00 0.9000E+01
        1  1    1    2  501    0 -.28122198E+03 0.43932816E+02 0.40763203E+03 0.49717187E+03 0.32000000E+00 0.0000E+00 0.9000E+01
#aMCatNLO 1  0  0  5  1 0.96118900D+02 0.00000000D+00  -5  6  0 0.00000000D+00 0.00000000D+00 0.00000000D+00 0.00000000D+00 0.00000000D+00
  <mgrwgt>
 0.5731200334D-02    4    2    0
 0.425478550588093D+03 0.000000000000000D+00 0.000000000000000D+00 0.425478550588093D+03
 0.425478550588093D+03 -.000000000000000D+00 -.000000000000000D+00 -.425478550588093D+03
 0.351790122794644D+03 0.262572250603875D+03 -.791935692707021D+02 0.181426244779671D+03
 0.116528622628392D+03 0.186497842763488D+02 0.352607450556448D+02 0.743005339271938D+02
 0.382638355753151D+03 -.281222034880224D+03 0.439328242150574D+02 -.255726778706865D+03
 0.000000000000000D+00 0.000000000000000D+00 0.000000000000000D+00 0.000000000000000D+00
 0.425478550588093D+03 0.000000000000000D+00 0.000000000000000D+00 0.425478550588093D+03
 0.425478550588093D+03 -.000000000000000D+00 -.000000000000000D+00 -.425478550588093D+03
 0.316272601339370D+03 0.233870578125855D+03 -.747097615484799D+02 0.155326631890412D+03
 0.110369299954600D+03 0.890167287204638D+01 0.367836060396228D+02 0.654361747422542D+02
 0.326464370599015D+03 -.170303221744244D+03 0.638138100502741D+01 -.278451209210179D+03
 0.978508292832010D+02 -.724690292536577D+02 0.315447745038297D+02 0.576884025775128D+02
0.288921234254D-04 0.000000000000D+00 0.000000000000D+00 0.222345444800D-06 0.000000000000D+00  6 2 21 25 24 1 21 2 0.46667782D+00 0.91814541D-02 0.11417620D+06 0.11417620D+06 0.11417620D+06 0.11583194D+01  1  2  2  3  6  5        1 0.889409459176D-02 0.100000000000D+01
-.160777876367D-05 0.152467924136D-05 -.583248730062D-07 0.222345444800D-06 0.000000000000D+00  6 2 21 25 24 1 21 4 0.46667782D+00 0.91814541D-02 0.11417620D+06 0.11417620D+06 0.11417620D+06 0.11583194D+01  1  2  3  3  6  5        1 -.664056810539D-03 0.100000000000D+01
0.310569988417D-05 0.000000000000D+00 0.000000000000D+00 0.222345444800D-06 0.000000000000D+00  6 2 21 25 24 1 21 4 0.46667782D+00 0.91814541D-02 0.11417620D+06 0.11417620D+06 0.11417620D+06 0.11583194D+01  1  2 15  3  6  5        1 0.128273939561D-02 0.100000000000D+01
-.915575120214D-05 0.000000000000D+00 0.000000000000D+00 0.222345444800D-06 0.000000000000D+00  6 2 21 25 24 1 21 4 0.46667782D+00 0.91814541D-02 0.11417620D+06 0.11417620D+06 0.11417620D+06 0.11583194D+01  1  2  4  3  6  5        1 -.378157684303D-02 0.100000000000D+01
  </mgrwgt>
  </event>
  <event>
  5     66 0.43779995E-03 0.33402196E+02 0.75467711E-02 0.11476775E+00
        2 -1    0    0  502    0 0.00000000E+00 0.00000000E+00 0.72525443E+03 0.72525450E+03 0.32000000E+00 0.0000E+00 0.9000E+01
       21 -1    0    0  501  502 0.00000000E+00 0.00000000E+00 -.51082641E+03 0.51082696E+03 0.75000000E+00 0.0000E+00 0.9000E+01
       25  1    1    2    0    0 -.25287221E+02 -.13363333E+03 0.10757899E+03 0.21376517E+03 0.12500000E+03 0.0000E+00 0.9000E+01
       24  1    1    2    0    0 0.39340888E+02 0.16393516E+03 0.54848534E+03 0.57941852E+03 0.80419002E+02 0.0000E+00 0.9000E+01
        1  1    1    2  501    0 -.14053667E+02 -.30301830E+02 -.44163630E+03 0.44289777E+03 0.32000000E+00 0.0000E+00 0.9000E+01
#aMCatNLO 1  0  0  5  2 0.51653450D+00 0.00000000D+00  -5  6  0 0.00000000D+00 0.00000000D+00 0.00000000D+00 0.00000000D+00 0.00000000D+00
  <mgrwgt>
 0.2006273124D+01    8    2    0
 0.608670270015007D+03 0.000000000000000D+00 0.000000000000000D+00 0.608670270015007D+03
 0.608670270015007D+03 -.000000000000000D+00 -.000000000000000D+00 -.608670270015007D+03
 0.198106619876932D+03 -.252872207952680D+02 -.133633325588853D+03 0.715815869870050D+02
 0.491725928303431D+03 0.393408892278926D+02 0.163935158703146D+03 0.454867816829498D+03
 0.527507991849651D+03 -.140536684326246D+02 -.303018331142927D+02 -.526449403816502D+03
 0.000000000000000D+00 0.000000000000000D+00 -.000000000000000D+00 0.000000000000000D+00
 0.608670270015007D+03 0.000000000000000D+00 0.000000000000000D+00 0.608670270015007D+03
 0.608670270015007D+03 -.000000000000000D+00 -.000000000000000D+00 -.608670270015007D+03
 0.198106546058267D+03 -.252872269708869D+02 -.133633338904421D+03 0.715813556487673D+02
 0.491725384888392D+03 0.393408738992235D+02 0.163935125652219D+03 0.454867242618661D+03
 0.405746471600729D+03 -.110486701167216D+02 -.228499081838977D+02 -.404951858621591D+03
 0.121762137482626D+03 -.300497681161501D+01 -.745187856390009D+01 -.121496739645837D+03
0.827108554270D-05 0.000000000000D+00 0.000000000000D+00 0.866850178504D-05 0.000000000000D+00  6 2 21 25 24 1 21 2 0.11157765D+00 0.78588726D-01 0.40988468D+05 0.40988468D+05 0.40988468D+05 0.12009251D+01  1  2  2  3  6  5        1 0.860293362891D-03 0.100000000000D+01
0.344890963115D-05 0.436477175622D-06 -.166969387053D-07 0.866850178504D-05 0.000000000000D+00  6 2 21 25 24 1 21 4 0.11157765D+00 0.78588726D-01 0.40988468D+05 0.40988468D+05 0.40988468D+05 0.12009251D+01  1  2  3  3  6  5        1 0.517365845390D-03 0.100000000000D+01
0.829711151239D-06 0.000000000000D+00 0.000000000000D+00 0.866850178504D-05 0.000000000000D+00  6 2 21 25 24 1 21 4 0.11157765D+00 0.78588726D-01 0.40988468D+05 0.40988468D+05 0.40988468D+05 0.12009251D+01  1  2 15  3  6  5        1 0.124463745676D-03 0.100000000000D+01
0.318503112615D-11 0.000000000000D+00 0.000000000000D+00 0.866845895938D-05 0.000000000000D+00  6 2 21 25 24 1 21 4 0.11157765D+00 0.78588726D-01 0.40991233D+05 0.40991233D+05 0.40991233D+05 0.12009222D+01  1  2 12  3  6  5        1 0.477775145493D-09 0.100000000000D+01
-.386494054246D+00 0.000000000000D+00 0.000000000000D+00 0.866850178504D-05 0.000000000000D+00  6 2 21 25 24 1 21 4 0.11157765D+00 0.78588726D-01 0.40988468D+05 0.40988468D+05 0.40988468D+05 0.12009251D+01  1  2  4  3  6  5        1 -.579774028602D+02 0.100000000000D+01
-.344680740387D+00 0.000000000000D+00 0.000000000000D+00 0.866850178504D-05 0.000000000000D+00  6 2 21 25 24 1 21 4 0.11157765D+00 0.78588726D-01 0.40988468D+05 0.40988468D+05 0.40988468D+05 0.12009251D+01  1  2  5  3  6  5        1 -.517050493377D+02 0.100000000000D+01
0.433116701431D+00 0.000000000000D+00 -.000000000000D+00 0.866850178504D-05 0.000000000000D+00  6 2 21 25 24 1 21 4 0.11157765D+00 0.78588726D-01 0.40988468D+05 0.40988468D+05 0.40988468D+05 0.12009251D+01  1  2  6  3  6  5        1 0.649711973792D+02 0.100000000000D+01
0.311426824368D+00 0.000000000000D+00 0.000000000000D+00 0.866850178504D-05 0.138264341686D-03  6 2 21 25 24 1 21 4 0.11157765D+00 0.78588726D-01 0.40991233D+05 0.40991233D+05 0.40991233D+05 0.12009222D+01  1  2 11  3  6  5        1 0.467160258188D+02 0.100000000000D+01
  </mgrwgt>
  </event>
  <event>
  5     66 0.43779995E-03 0.12466290E+03 0.75467711E-02 0.91591711E-01
        2 -1    0    0  502    0 0.00000000E+00 0.00000000E+00 0.83132547E+03 0.83132553E+03 0.32000000E+00 0.0000E+00 0.9000E+01
       21 -1    0    0  501  502 0.00000000E+00 0.00000000E+00 -.77791601E+03 0.77791637E+03 0.75000000E+00 0.0000E+00 0.9000E+01
       25  1    1    2    0    0 -.31773331E+03 -.15139768E+03 0.16954601E+03 0.41017869E+03 0.12500000E+03 0.0000E+00 0.9000E+01
       24  1    1    2    0    0 0.36062429E+03 0.26844980E+03 0.43697112E+03 0.63208081E+03 0.80419002E+02 0.0000E+00 0.9000E+01
        1  1    1    2  501    0 -.42890983E+02 -.11705212E+03 -.55310767E+03 0.56698240E+03 0.32000000E+00 0.0000E+00 0.9000E+01
#aMCatNLO 1  0  0  2  1 0.42195866D+02 0.00000000D+00  -5  6  0 0.00000000D+00 0.00000000D+00 0.00000000D+00 0.00000000D+00 0.00000000D+00
  <mgrwgt>
 0.3909966131D+00    3    2    0
 0.804177674706394D+03 0.000000000000000D+00 0.000000000000000D+00 0.804177674706394D+03
 0.804177674706394D+03 0.000000000000000D+00 0.000000000000000D+00 -.804177674706394D+03
 0.404774598705833D+03 -.317733306068463D+03 -.151397677984350D+03 0.156018476704586D+03
 0.617918535756196D+03 0.360624292772746D+03 0.268449811011848D+03 0.416222199439880D+03
 0.585662214950759D+03 -.428909867042826D+02 -.117052133027498D+03 -.572240676144466D+03
 0.000000000000000D+00 0.000000000000000D+00 -.000000000000000D+00 0.000000000000000D+00
 0.239674921431280D+04 0.000000000000000D+00 0.000000000000000D+00 0.239674921431280D+04
 0.108579580941850D+04 0.000000000000000D+00 0.000000000000000D+00 -.108579580941850D+04
 0.622311183283202D+03 -.585188698456807D+03 -.697038805558712D+02 0.156018476704586D+03
 0.560145224213449D+03 0.538539034767394D+02 0.362152307777420D+03 0.416222199439880D+03
 0.683467486370456D+03 -.373375147045031D+03 -.161063049882694D+02 -.572240676144466D+03
 0.161662112986420D+04 0.904709942025099D+03 -.276342122233280D+03 0.131095340489429D+04
0.116974658325D-01 0.000000000000D+00 0.000000000000D+00 0.226059532123D-06 0.000000000000D+00  6 2 21 25 24 1 21 2 0.12789626D+00 0.11967942D+00 0.22794373D+06 0.22794373D+06 0.22794373D+06 0.11320654D+01  1  2  2  2  6  2       21 0.296165688472D+00 0.100000000000D+01
0.191130983615D-02 0.617292231126D-03 -.236138133265D-04 0.226059532123D-06 0.000000000000D+00  6 2 21 25 24 1 21 4 0.12789626D+00 0.11967942D+00 0.22794373D+06 0.22794373D+06 0.22794373D+06 0.11320654D+01  1  2  3  2  6  2       21 0.620179015361D-01 0.100000000000D+01
0.101125404559D-02 0.000000000000D+00 0.000000000000D+00 0.226059532123D-06 0.000000000000D+00  6 2 21 25 24 1 21 4 0.12789626D+00 0.11967942D+00 0.22794373D+06 0.22794373D+06 0.22794373D+06 0.11320654D+01  1  2 15  2  6  2       21 0.328130231119D-01 0.100000000000D+01
  </mgrwgt>
  </event>
  <event>
  5     66 0.43779995E-03 0.67239684E+02 0.75467711E-02 0.11675327E+00
        2 -1    0    0  502    0 0.00000000E+00 0.00000000E+00 0.30276160E+04 0.30276161E+04 0.32000000E+00 0.0000E+00 0.9000E+01
       21 -1    0    0  501  502 0.00000000E+00 0.00000000E+00 -.91447284E+01 0.91754323E+01 0.75000000E+00 0.0000E+00 0.9000E+01
       25  1    1    2    0    0 0.21170437E+02 -.87997781E+02 0.20001993E+04 0.20061440E+04 0.12500000E+03 0.0000E+00 0.9000E+01
       24  1    1    2    0    0 -.19824216E+01 0.19858889E+02 0.41143863E+03 0.41969902E+03 0.80419002E+02 0.0000E+00 0.9000E+01
        1  1    1    2  501    0 -.19188015E+02 0.68138892E+02 0.60683341E+03 0.61094842E+03 0.32000000E+00 0.0000E+00 0.9000E+01
#aMCatNLO 1  0  0  2  1 0.48551629D+02 0.00000000D+00  -5  6  0 0.00000000D+00 0.00000000D+00 0.00000000D+00 0.00000000D+00 0.00000000D+00
  <mgrwgt>
 0.2402244928D+00   23    2    0
 0.166533397126537D+03 0.000000000000000D+00 0.000000000000000D+00 0.166533397126537D+03
 0.166533397126537D+03 0.000000000000000D+00 0.000000000000000D+00 -.166533397126537D+03
 0.164222632217214D+03 0.211705329348050D+02 -.879981230285086D+02 0.561445617229860D+02
 0.979464067215924D+02 -.198236416835207D+01 0.198586848212377D+02 -.522301206659131D+02
 0.708977553142670D+02 -.191881687664530D+02 0.681394382072709D+02 -.391444105707289D+01
 0.000000000000000D+00 -.000000000000000D+00 0.000000000000000D+00 -.000000000000000D+00
 0.188450173206098D+03 0.000000000000000D+00 0.000000000000000D+00 0.188450173206098D+03
 0.197530121283776D+03 0.000000000000000D+00 0.000000000000000D+00 -.197530121283776D+03
 0.179137399575934D+03 0.281209018804365D+02 -.111902685370782D+03 0.561445617229860D+02
 0.961211881173652D+02 0.194599457939719D+01 0.634779103661174D+01 -.522301206659131D+02
 0.613283254479787D+02 -.165116194874556D+02 0.589339212624221D+02 -.391444105707289D+01
 0.493933813485969D+02 -.135552769723781D+02 0.466209730717486D+02 -.907994807767788D+01
0.831705345441D-05 0.000000000000D+00 0.000000000000D+00 0.221904214695D-06 0.000000000000D+00  6 2 21 25 24 1 21 2 0.46578945D+00 0.14092444D-02 0.23712169D+05 0.23712169D+05 0.23712169D+05 0.12257679D+01  1  2  2  2  6  2       21 0.726714191000D-01 0.100000000000D+01
-.548265922143D-06 0.438902968968D-06 -.167897346751D-07 0.221904214695D-06 0.000000000000D+00  6 2 21 25 24 1 21 4 0.46578945D+00 0.14092444D-02 0.23712169D+05 0.23712169D+05 0.23712169D+05 0.12257679D+01  1  2  3  2  6  2       21 -.719783460011D-02 0.100000000000D+01
0.915511269497D-06 0.000000000000D+00 0.000000000000D+00 0.221904214695D-06 0.000000000000D+00  6 2 21 25 24 1 21 4 0.46578945D+00 0.14092444D-02 0.23712169D+05 0.23712169D+05 0.23712169D+05 0.12257679D+01  1  2 15  2  6  2       21 0.120191652011D-01 0.100000000000D+01
0.595698789803D-05 0.000000000000D+00 0.000000000000D+00 0.216684577882D-06 0.000000000000D+00  6 2 21 25 24 1 21 4 0.46578945D+00 0.17496950D-02 0.32500739D+05 0.32500739D+05 0.32500739D+05 0.12112658D+01  1  2 12  2  6  2       21 0.521331073734D-01 0.100000000000D+01
-.120622732497D-06 0.000000000000D+00 0.000000000000D+00 0.221904214695D-06 0.000000000000D+00  6 2 21 25 24 1 21 4 0.46578945D+00 0.14092444D-02 0.23712169D+05 0.23712169D+05 0.23712169D+05 0.12257679D+01  1  2  4  2  6  2       21 -.158357914009D-02 0.100000000000D+01
-.254970110667D-04 0.000000000000D+00 -.110249558376D-04 0.221904214695D-06 0.000000000000D+00  6 2 21 25 24 1 21 4 0.46578945D+00 0.20357852D-02 0.23712169D+05 0.23712169D+05 0.23712169D+05 0.12257679D+01  1  2  5  2  6  2       21 -.185128262128D+00 0.100000000000D+01
0.230239847444D-04 0.000000000000D+00 0.853072696283D-05 0.221904214695D-06 0.000000000000D+00  6 2 21 25 24 1 21 4 0.46578945D+00 0.14092444D-02 0.23712169D+05 0.23712169D+05 0.23712169D+05 0.12257679D+01  1  2  6  2  6  2       21 0.302267252683D+00 0.100000000000D+01
0.375922224247D-06 0.000000000000D+00 0.000000000000D+00 0.216684577882D-06 0.000000000000D+00  6 2 -1 25 24 1 -1 4 0.46578945D+00 0.17496950D-02 0.32500739D+05 0.32500739D+05 0.32500739D+05 0.12112658D+01  1  2 12  5  6  2       21 0.156210776932D-03 0.100000000000D+01
-.243318786556D-05 0.000000000000D+00 -.133286014305D-05 0.221904214695D-06 0.000000000000D+00  6 2 -1 25 24 1 -1 4 0.46578945D+00 0.20357852D-02 0.23712169D+05 0.23712169D+05 0.23712169D+05 0.12257679D+01  1  2  5  5  6  2       21 -.856209478210D-03 0.100000000000D+01
0.375922224247D-06 0.000000000000D+00 0.000000000000D+00 0.216684577882D-06 0.000000000000D+00  6 2 1 25 24 1 1 4 0.46578945D+00 0.17496950D-02 0.32500739D+05 0.32500739D+05 0.32500739D+05 0.12112658D+01  1  2 12  6  6  2       21 0.163101889979D-03 0.100000000000D+01
-.243318786556D-05 0.000000000000D+00 -.133286014305D-05 0.221904214695D-06 0.000000000000D+00  6 2 1 25 24 1 1 4 0.46578945D+00 0.20357852D-02 0.23712169D+05 0.23712169D+05 0.23712169D+05 0.12257679D+01  1  2  5  6  6  2       21 -.900453404652D-03 0.100000000000D+01
0.375922224247D-06 0.000000000000D+00 0.000000000000D+00 0.216684577882D-06 0.000000000000D+00  6 2 -2 25 24 1 -2 4 0.46578945D+00 0.17496950D-02 0.32500739D+05 0.32500739D+05 0.32500739D+05 0.12112658D+01  1  2 12  7  6  2       21 0.154980041212D-03 0.100000000000D+01
-.243318786556D-05 0.000000000000D+00 -.133286014305D-05 0.221904214695D-06 0.000000000000D+00  6 2 -2 25 24 1 -2 4 0.46578945D+00 0.20357852D-02 0.23712169D+05 0.23712169D+05 0.23712169D+05 0.12257679D+01  1  2  5  7  6  2       21 -.848276284121D-03 0.100000000000D+01
0.375922224247D-06 0.000000000000D+00 0.000000000000D+00 0.216684577882D-06 0.000000000000D+00  6 2 2 25 24 1 2 4 0.46578945D+00 0.17496950D-02 0.32500739D+05 0.32500739D+05 0.32500739D+05 0.12112658D+01  1  2 12  8  6  2       21 0.167862116333D-03 0.100000000000D+01
-.243318786556D-05 0.000000000000D+00 -.133286014305D-05 0.221904214695D-06 0.000000000000D+00  6 2 2 25 24 1 2 4 0.46578945D+00 0.20357852D-02 0.23712169D+05 0.23712169D+05 0.23712169D+05 0.12257679D+01  1  2  5  8  6  2       21 -.930881195022D-03 0.100000000000D+01
0.375922224247D-06 0.000000000000D+00 0.000000000000D+00 0.216684577882D-06 0.000000000000D+00  6 2 -3 25 24 1 -3 4 0.46578945D+00 0.17496950D-02 0.32500739D+05 0.32500739D+05 0.32500739D+05 0.12112658D+01  1  2 12  9  6  2       21 0.123245771423D-03 0.100000000000D+01
0.375922224247D-06 0.000000000000D+00 0.000000000000D+00 0.216684577882D-06 0.000000000000D+00  6 2 -4 25 24 1 -4 4 0.46578945D+00 0.17496950D-02 0.32500739D+05 0.32500739D+05 0.32500739D+05 0.12112658D+01  1  2 12  9  6  2       21 0.112779642111D-03 0.100000000000D+01
-.243318786556D-05 0.000000000000D+00 -.133286014305D-05 0.221904214695D-06 0.000000000000D+00  6 2 -3 25 24 1 -3 4 0.46578945D+00 0.20357852D-02 0.23712169D+05 0.23712169D+05 0.23712169D+05 0.12257679D+01  1  2  5  9  6  2       21 -.663600159755D-03 0.100000000000D+01
-.243318786556D-05 0.000000000000D+00 -.133286014305D-05 0.221904214695D-06 0.000000000000D+00  6 2 -4 25 24 1 -4 4 0.46578945D+00 0.20357852D-02 0.23712169D+05 0.23712169D+05 0.23712169D+05 0.12257679D+01  1  2  5  9  6  2       21 -.603996137069D-03 0.100000000000D+01
0.375922224247D-06 0.000000000000D+00 0.000000000000D+00 0.216684577882D-06 0.000000000000D+00  6 2 3 25 24 1 3 4 0.46578945D+00 0.17496950D-02 0.32500739D+05 0.32500739D+05 0.32500739D+05 0.12112658D+01  1  2 12 10  6  2       21 0.123239591689D-03 0.100000000000D+01
0.375922224247D-06 0.000000000000D+00 0.000000000000D+00 0.216684577882D-06 0.000000000000D+00  6 2 4 25 24 1 4 4 0.46578945D+00 0.17496950D-02 0.32500739D+05 0.32500739D+05 0.32500739D+05 0.12112658D+01  1  2 12 10  6  2       21 0.112779642111D-03 0.100000000000D+01
-.243318786556D-05 0.000000000000D+00 -.133286014305D-05 0.221904214695D-06 0.000000000000D+00  6 2 3 25 24 1 3 4 0.46578945D+00 0.20357852D-02 0.23712169D+05 0.23712169D+05 0.23712169D+05 0.12257679D+01  1  2  5 10  6  2       21 -.663562377174D-03 0.100000000000D+01
-.243318786556D-05 0.000000000000D+00 -.133286014305D-05 0.221904214695D-06 0.000000000000D+00  6 2 4 25 24 1 4 4 0.46578945D+00 0.20357852D-02 0.23712169D+05 0.23712169D+05 0.23712169D+05 0.12257679D+01  1  2  5 10  6  2       21 -.603996137069D-03 0.100000000000D+01
  </mgrwgt>
  </event>
  <event>
  5     66 -.43779995E-03 0.21492576E+03 0.75467711E-02 0.99351483E-01
        2 -1    0    0  502    0 0.00000000E+00 0.00000000E+00 0.42151713E+04 0.42151713E+04 0.32000000E+00 0.0000E+00 0.9000E+01
       21 -1    0    0  501  502 0.00000000E+00 0.00000000E+00 -.94169560E+02 0.94172546E+02 0.75000000E+00 0.0000E+00 0.9000E+01
       25  1    1    2    0    0 0.16110835E+03 0.18388859E+03 0.35566364E+03 0.44932454E+03 0.12500000E+03 0.0000E+00 0.9000E+01
       24  1    1    2    0    0 0.47327320E+02 -.23630658E+03 0.32284984E+03 0.41082832E+03 0.80419002E+02 0.0000E+00 0.9000E+01
        1  1    1    2  501    0 -.20843567E+03 0.52417986E+02 0.34424883E+04 0.34491910E+04 0.32000000E+00 0.0000E+00 0.9000E+01
#aMCatNLO 1  0  0  2  2 0.36927376D+03 0.00000000D+00  -5  6  0 0.00000000D+00 0.00000000D+00 0.00000000D+00 0.00000000D+00 0.00000000D+00
  <mgrwgt>
 -.6966024552D-01   12    2    0
 0.630037530129296D+03 0.000000000000000D+00 0.000000000000000D+00 0.630037530129296D+03
 0.630037530129296D+03 0.000000000000000D+00 0.000000000000000D+00 -.630037530129296D+03
 0.373472568619124D+03 0.161108356122873D+03 0.183888587541099D+03 -.253151820989878D+03
 0.349134573385276D+03 0.473273306023952D+02 -.236306578935266D+03 -.239472459603417D+03
 0.537467918254192D+03 -.208435686725269D+03 0.524179913941669D+02 0.492624280593296D+03
 0.000000000000000D+00 -.000000000000000D+00 -.000000000000000D+00 -.000000000000000D+00
 0.669929428680929D+03 0.000000000000000D+00 0.000000000000000D+00 0.669929428680929D+03
 0.320166062337095D+04 0.000000000000000D+00 0.000000000000000D+00 -.320166062337095D+04
 0.460632130718188D+03 0.233149569322191D+03 0.279485945450506D+03 -.253151820989878D+03
 0.316859666149455D+03 0.104848925958420D+03 -.159976485443421D+03 -.239472459603417D+03
 0.535577989676220D+03 -.115757238699154D+03 0.175400578346556D+03 0.492624280593296D+03
 0.255852026550802D+04 -.222241256581457D+03 -.294910038353641D+03 -.253173119469002D+04
0.252163582030D-03 0.000000000000D+00 0.000000000000D+00 0.238836108863D-07 0.000000000000D+00  6 2 21 25 24 1 21 2 0.64848813D+00 0.14487855D-01 0.13822472D+06 0.13822472D+06 0.13822472D+06 0.11508739D+01  1  2  2  2  6  2       21 0.493077517360D-02 0.100000000000D+01
-.284820771786D-04 0.133070378140D-04 -.509045620571D-06 0.238836108863D-07 0.000000000000D+00  6 2 21 25 24 1 21 4 0.64848813D+00 0.14487855D-01 0.13822472D+06 0.13822472D+06 0.13822472D+06 0.11508739D+01  1  2  3  2  6  2       21 -.737666379267D-03 0.100000000000D+01
0.293609667049D-04 0.000000000000D+00 0.000000000000D+00 0.238836108863D-07 0.000000000000D+00  6 2 21 25 24 1 21 4 0.64848813D+00 0.14487855D-01 0.13822472D+06 0.13822472D+06 0.13822472D+06 0.11508739D+01  1  2 15  2  6  2       21 0.760429018755D-03 0.100000000000D+01
-.581109235019D-01 0.000000000000D+00 -.210140409057D-02 0.238836108863D-07 0.000000000000D+00  6 2 21 25 24 1 21 4 0.64848813D+00 0.79624106D-01 0.13822472D+06 0.13822472D+06 0.13822472D+06 0.11508739D+01  1  2  5  2  6  2       21 -.474748735009D-01 0.100000000000D+01
-.248775736194D-01 0.000000000000D+00 -.880172314722D-03 0.238836108863D-07 0.000000000000D+00  6 2 -1 25 24 1 -1 4 0.64848813D+00 0.79624106D-01 0.13822472D+06 0.13822472D+06 0.13822472D+06 0.11508739D+01  1  2  5  5  6  2       21 -.233801637708D-02 0.100000000000D+01
-.248775736194D-01 0.000000000000D+00 -.880172314722D-03 0.238836108863D-07 0.000000000000D+00  6 2 1 25 24 1 1 4 0.64848813D+00 0.79624106D-01 0.13822472D+06 0.13822472D+06 0.13822472D+06 0.11508739D+01  1  2  5  6  6  2       21 -.726884876941D-02 0.100000000000D+01
-.248775736194D-01 0.000000000000D+00 -.880172314722D-03 0.238836108863D-07 0.000000000000D+00  6 2 -2 25 24 1 -2 4 0.64848813D+00 0.79624106D-01 0.13822472D+06 0.13822472D+06 0.13822472D+06 0.11508739D+01  1  2  5  7  6  2       21 -.179947614986D-02 0.100000000000D+01
-.248775736194D-01 0.000000000000D+00 -.880172314722D-03 0.238836108863D-07 0.000000000000D+00  6 2 2 25 24 1 2 4 0.64848813D+00 0.79624106D-01 0.13822472D+06 0.13822472D+06 0.13822472D+06 0.11508739D+01  1  2  5  8  6  2       21 -.114990328584D-01 0.100000000000D+01
-.248775736194D-01 0.000000000000D+00 -.880172314722D-03 0.238836108863D-07 0.000000000000D+00  6 2 -3 25 24 1 -3 4 0.64848813D+00 0.79624106D-01 0.13822472D+06 0.13822472D+06 0.13822472D+06 0.11508739D+01  1  2  5  9  6  2       21 -.116222826764D-02 0.100000000000D+01
-.248775736194D-01 0.000000000000D+00 -.880172314722D-03 0.238836108863D-07 0.000000000000D+00  6 2 -4 25 24 1 -4 4 0.64848813D+00 0.79624106D-01 0.13822472D+06 0.13822472D+06 0.13822472D+06 0.11508739D+01  1  2  5  9  6  2       21 -.953789447875D-03 0.100000000000D+01
-.248775736194D-01 0.000000000000D+00 -.880172314722D-03 0.238836108863D-07 0.000000000000D+00  6 2 3 25 24 1 3 4 0.64848813D+00 0.79624106D-01 0.13822472D+06 0.13822472D+06 0.13822472D+06 0.11508739D+01  1  2  5 10  6  2       21 -.116372851388D-02 0.100000000000D+01
-.248775736194D-01 0.000000000000D+00 -.880172314722D-03 0.238836108863D-07 0.000000000000D+00  6 2 4 25 24 1 4 4 0.64848813D+00 0.79624106D-01 0.13822472D+06 0.13822472D+06 0.13822472D+06 0.11508739D+01  1  2  5 10  6  2       21 -.953789447875D-03 0.100000000000D+01
  </mgrwgt>
  </event>
  <event>
  5     66 0.43779995E-03 0.22520134E+02 0.75467711E-02 0.11246257E+00
        4 -1    0    0  502    0 0.00000000E+00 0.00000000E+00 0.41242791E+03 0.41243082E+03 0.15500000E+01 0.0000E+00 0.9000E+01
       21 -1    0    0  501  502 0.00000000E+00 0.00000000E+00 -.12558758E+03 0.12558981E+03 0.75000000E+00 0.0000E+00 0.9000E+01
       25  1    1    2    0    0 -.16295255E+03 0.67811396E+02 0.15234031E+03 0.26454582E+03 0.12500000E+03 0.0000E+00 0.9000E+01
       24  1    1    2    0    0 0.17836156E+03 -.84228322E+02 0.10842307E+03 0.23901890E+03 0.80419002E+02 0.0000E+00 0.9000E+01
        3  1    1    2  501    0 -.15409011E+02 0.16416926E+02 0.26076946E+02 0.34455917E+02 0.50000000E+00 0.0000E+00 0.9000E+01
#aMCatNLO 1  0  0  2  1 0.13781685D+02 0.00000000D+00  -5  6  0 0.00000000D+00 0.00000000D+00 0.00000000D+00 0.00000000D+00 0.00000000D+00
  <mgrwgt>
 0.1855113277D-01   23    2    0
 0.227589997007362D+03 0.000000000000000D+00 0.000000000000000D+00 0.227589997007362D+03
 0.227589997007362D+03 0.000000000000000D+00 0.000000000000000D+00 -.227589997007362D+03
 0.216690035019293D+03 -.162950994172268D+03 0.678097406103919D+02 0.133560418269488D+02
 0.214196384047417D+03 0.178363095447256D+03 -.842299592172804D+02 -.224676464576555D+02
 0.242935749480146D+02 -.154121012749877D+02 0.164202186068885D+02 0.911160463070668D+01
 0.000000000000000D+00 -.000000000000000D+00 0.000000000000000D+00 -.000000000000000D+00
 0.232214888097932D+03 0.000000000000000D+00 0.000000000000000D+00 0.232214888097932D+03
 0.238198150699925D+03 0.000000000000000D+00 0.000000000000000D+00 -.238198150699925D+03
 0.212438836192307D+03 -.159518279797404D+03 0.622960165655524D+02 0.133560418269488D+02
 0.219313718589165D+03 0.181830856441216D+03 -.897999761444554D+02 -.224676464576555D+02
 0.236360285003594D+02 -.150286998080246D+02 0.158043882008690D+02 0.911160463070668D+01
 0.150244555160257D+02 -.728387683578689D+01 0.116995713780340D+02 -.598326260199324D+01
0.508166055944D-05 0.000000000000D+00 0.000000000000D+00 0.205430245585D-06 0.000000000000D+00  6 4 21 25 24 3 21 2 0.63450843D-01 0.19321562D-01 0.51033734D+05 0.51033734D+05 0.51033734D+05 0.11914026D+01  1  2  2  2  6  2       21 0.176577590101D-02 0.100000000000D+01
0.512687725869D-06 0.268166595183D-06 -.102584085782D-07 0.205430245585D-06 0.000000000000D+00  6 4 21 25 24 3 21 4 0.63450843D-01 0.19321562D-01 0.51033734D+05 0.51033734D+05 0.51033734D+05 0.11914026D+01  1  2  3  2  6  2       21 0.252871530178D-03 0.100000000000D+01
0.507264126859D-06 0.000000000000D+00 0.000000000000D+00 0.205430245585D-06 0.000000000000D+00  6 4 21 25 24 3 21 4 0.63450843D-01 0.19321562D-01 0.51033734D+05 0.51033734D+05 0.51033734D+05 0.11914026D+01  1  2 15  2  6  2       21 0.250196463639D-03 0.100000000000D+01
0.181996806473D-04 0.000000000000D+00 0.000000000000D+00 0.204533843529D-06 0.000000000000D+00  6 4 21 25 24 3 21 4 0.63450843D-01 0.20411771D-01 0.54235254D+05 0.54235254D+05 0.54235254D+05 0.11888004D+01  1  2 12  2  6  2       21 0.803393332196D-02 0.100000000000D+01
-.109951149237D-05 0.000000000000D+00 0.000000000000D+00 0.205430245585D-06 0.000000000000D+00  6 4 21 25 24 3 21 4 0.63450843D-01 0.19321562D-01 0.51033734D+05 0.51033734D+05 0.51033734D+05 0.11914026D+01  1  2  4  2  6  2       21 -.542308971906D-03 0.100000000000D+01
-.162969173496D-03 0.000000000000D+00 -.254371257464D-04 0.205430245585D-06 0.000000000000D+00  6 4 21 25 24 3 21 4 0.63450843D-01 0.20608515D-01 0.51033734D+05 0.51033734D+05 0.51033734D+05 0.11914026D+01  1  2  5  2  6  2       21 -.712287918951D-01 0.100000000000D+01
0.163254238098D-03 0.000000000000D+00 0.252268295730D-04 0.205430245585D-06 0.000000000000D+00  6 4 21 25 24 3 21 4 0.63450843D-01 0.19321562D-01 0.51033734D+05 0.51033734D+05 0.51033734D+05 0.11914026D+01  1  2  6  2  6  2       21 0.805214303229D-01 0.100000000000D+01
0.319274247725D-06 0.000000000000D+00 0.000000000000D+00 0.204533843529D-06 0.000000000000D+00  6 4 -3 25 24 3 -3 4 0.63450843D-01 0.20411771D-01 0.54235254D+05 0.54235254D+05 0.54235254D+05 0.11888004D+01  1  2 12  5  6  2       21 0.688123142788D-05 0.100000000000D+01
-.220901307936D-05 0.000000000000D+00 -.399820812464D-06 0.205430245585D-06 0.000000000000D+00  6 4 -3 25 24 3 -3 4 0.63450843D-01 0.20608515D-01 0.51033734D+05 0.51033734D+05 0.51033734D+05 0.11914026D+01  1  2  5  5  6  2       21 -.470543744103D-04 0.100000000000D+01
0.319274247725D-06 0.000000000000D+00 0.000000000000D+00 0.204533843529D-06 0.000000000000D+00  6 4 3 25 24 3 3 4 0.63450843D-01 0.20411771D-01 0.54235254D+05 0.54235254D+05 0.54235254D+05 0.11888004D+01  1  2 12  6  6  2       21 0.688072068332D-05 0.100000000000D+01
-.220901307936D-05 0.000000000000D+00 -.399820812464D-06 0.205430245585D-06 0.000000000000D+00  6 4 3 25 24 3 3 4 0.63450843D-01 0.20608515D-01 0.51033734D+05 0.51033734D+05 0.51033734D+05 0.11914026D+01  1  2  5  6  6  2       21 -.470509180758D-04 0.100000000000D+01
0.319274247725D-06 0.000000000000D+00 0.000000000000D+00 0.204533843529D-06 0.000000000000D+00  6 4 -4 25 24 3 -4 4 0.63450843D-01 0.20411771D-01 0.54235254D+05 0.54235254D+05 0.54235254D+05 0.11888004D+01  1  2 12  7  6  2       21 0.591953078853D-05 0.100000000000D+01
-.220901307936D-05 0.000000000000D+00 -.399820812464D-06 0.205430245585D-06 0.000000000000D+00  6 4 -4 25 24 3 -4 4 0.63450843D-01 0.20608515D-01 0.51033734D+05 0.51033734D+05 0.51033734D+05 0.11914026D+01  1  2  5  7  6  2       21 -.404410286147D-04 0.100000000000D+01
0.319274247725D-06 0.000000000000D+00 0.000000000000D+00 0.204533843529D-06 0.000000000000D+00  6 4 4 25 24 3 4 4 0.63450843D-01 0.20411771D-01 0.54235254D+05 0.54235254D+05 0.54235254D+05 0.11888004D+01  1  2 12  8  6  2       21 0.591953078853D-05 0.100000000000D+01
-.220901307936D-05 0.000000000000D+00 -.399820812464D-06 0.205430245585D-06 0.000000000000D+00  6 4 4 25 24 3 4 4 0.63450843D-01 0.20608515D-01 0.51033734D+05 0.51033734D+05 0.51033734D+05 0.11914026D+01  1  2  5  8  6  2       21 -.404410286147D-04 0.100000000000D+01
0.319274247725D-06 0.000000000000D+00 0.000000000000D+00 0.204533843529D-06 0.000000000000D+00  6 4 -1 25 24 3 -1 4 0.63450843D-01 0.20411771D-01 0.54235254D+05 0.54235254D+05 0.54235254D+05 0.11888004D+01  1  2 12  9  6  2       21 0.113155908860D-04 0.100000000000D+01
0.319274247725D-06 0.000000000000D+00 0.000000000000D+00 0.204533843529D-06 0.000000000000D+00  6 4 -2 25 24 3 -2 4 0.63450843D-01 0.20411771D-01 0.54235254D+05 0.54235254D+05 0.54235254D+05 0.11888004D+01  1  2 12  9  6  2       21 0.103401941024D-04 0.100000000000D+01
-.220901307936D-05 0.000000000000D+00 -.399820812464D-06 0.205430245585D-06 0.000000000000D+00  6 4 -1 25 24 3 -1 4 0.63450843D-01 0.20608515D-01 0.51033734D+05 0.51033734D+05 0.51033734D+05 0.11914026D+01  1  2  5  9  6  2       21 -.775903307028D-04 0.100000000000D+01
-.220901307936D-05 0.000000000000D+00 -.399820812464D-06 0.205430245585D-06 0.000000000000D+00  6 4 -2 25 24 3 -2 4 0.63450843D-01 0.20608515D-01 0.51033734D+05 0.51033734D+05 0.51033734D+05 0.11914026D+01  1  2  5  9  6  2       21 -.708387188756D-04 0.100000000000D+01
0.319274247725D-06 0.000000000000D+00 0.000000000000D+00 0.204533843529D-06 0.000000000000D+00  6 4 1 25 24 3 1 4 0.63450843D-01 0.20411771D-01 0.54235254D+05 0.54235254D+05 0.54235254D+05 0.11888004D+01  1  2 12 10  6  2       21 0.171275076965D-04 0.100000000000D+01
0.319274247725D-06 0.000000000000D+00 0.000000000000D+00 0.204533843529D-06 0.000000000000D+00  6 4 2 25 24 3 2 4 0.63450843D-01 0.20411771D-01 0.54235254D+05 0.54235254D+05 0.54235254D+05 0.11888004D+01  1  2 12 10  6  2       21 0.212460339257D-04 0.100000000000D+01
-.220901307936D-05 0.000000000000D+00 -.399820812464D-06 0.205430245585D-06 0.000000000000D+00  6 4 1 25 24 3 1 4 0.63450843D-01 0.20608515D-01 0.51033734D+05 0.51033734D+05 0.51033734D+05 0.11914026D+01  1  2  5 10  6  2       21 -.117831703931D-03 0.100000000000D+01
-.220901307936D-05 0.000000000000D+00 -.399820812464D-06 0.205430245585D-06 0.000000000000D+00  6 4 2 25 24 3 2 4 0.63450843D-01 0.20608515D-01 0.51033734D+05 0.51033734D+05 0.51033734D+05 0.11914026D+01  1  2  5 10  6  2       21 -.146356135494D-03 0.100000000000D+01
  </mgrwgt>
  </event>
  <event>
  6     66 0.43779995E-03 0.42454318E+02 0.75467711E-02 0.11714541E+00
        2 -1    0    0  503    0 0.00000000E+00 0.00000000E+00 0.64311459E+02 0.64312255E+02 0.32000000E+00 0.0000E+00 0.9000E+01
       21 -1    0    0  501  502 0.00000000E+00 0.00000000E+00 -.95571555E+03 0.95571584E+03 0.75000000E+00 0.0000E+00 0.9000E+01
       25  1    1    2    0    0 -.10569796E+01 -.32060486E+02 -.21061632E+03 0.24700856E+03 0.12500000E+03 0.0000E+00 0.9000E+01
       24  1    1    2    0    0 0.31160182E+02 0.13083916E+02 -.56055070E+03 0.56729750E+03 0.80419002E+02 0.0000E+00 0.9000E+01
        1  1    1    2  501    0 0.36357632E+02 0.50894524E+02 0.24369134E+01 0.62595295E+02 0.32000000E+00 0.0000E+00 0.9000E+01
       21  1    1    2  503  502 -.66460834E+02 -.31917955E+02 -.12267397E+03 0.14312674E+03 0.75000000E+00 0.0000E+00 0.9000E+01
#aMCatNLO 2  0  0  1  2 0.72194067D+02 0.00000000D+00  -5  6  0 0.00000000D+00 0.00000000D+00 0.00000000D+00 0.00000000D+00 0.00000000D+00
  <mgrwgt>
 0.2424083191D-01    1    2    0
 0.207710252177300D+03 0.000000000000000D+00 0.000000000000000D+00 0.207710252177300D+03
 0.207710252177300D+03 0.000000000000000D+00 0.000000000000000D+00 -.207710252177300D+03
 0.134294244805078D+03 -.220056846202671D+02 -.421211796525386D+02 0.123085440584210D+02
 0.154213004464610D+03 0.639995240273352D+01 0.119272465607992D+01 -.131423182158890D+03
 0.126913255084913D+03 0.156057322175335D+02 0.409284549964587D+02 0.119114638100469D+03
 0.000000000000000D+00 -.000000000000000D+00 -.000000000000000D+00 0.000000000000000D+00
 0.250841332385547D+03 0.000000000000000D+00 0.000000000000000D+00 0.250841332385547D+03
 0.245027695152056D+03 0.000000000000000D+00 0.000000000000000D+00 -.245027695152056D+03
 0.129636009420734D+03 -.105699532532335D+01 -.320605277962921D+02 0.123085440584210D+02
 0.157738433979406D+03 0.311601822530154D+02 0.130838768373504D+02 -.131423182158890D+03
 0.134537862364618D+03 0.363576473071163D+02 0.508946056289506D+02 0.119114638100469D+03
 0.739567217728453D+02 -.664608342348084D+02 -.319179546700089D+02 0.581363723349024D+01
0.448764659406D-04 0.000000000000D+00 0.000000000000D+00 0.103864071358D-06 0.271206553276D-09  6 2 21 25 24 1 21 4 0.98940785D-02 0.14703212D+00 0.31074104D+05 0.31074104D+05 0.31074104D+05 0.12132982D+01  1  2  1  1  6  1        2 0.242408319121D-01 0.100000000000D+01
  </mgrwgt>
  </event>
  <event>
  5     66 0.43779995E-03 0.38446805E+02 0.75467711E-02 0.10964945E+00
        2 -1    0    0  502    0 0.00000000E+00 0.00000000E+00 0.22699108E+04 0.22699108E+04 0.32000000E+00 0.0000E+00 0.9000E+01
       21 -1    0    0  501  502 0.00000000E+00 0.00000000E+00 -.19403209E+03 0.19403354E+03 0.75000000E+00 0.0000E+00 0.9000E+01
       25  1    1    2    0    0 -.26352690E+02 -.12949804E+03 0.15770298E+04 0.15874861E+04 0.12500000E+03 0.0000E+00 0.9000E+01
       24  1    1    2    0    0 0.33654135E+02 0.16724517E+03 0.67258018E+03 0.69852335E+03 0.80419002E+02 0.0000E+00 0.9000E+01
        1  1    1    2  501    0 -.73014458E+01 -.37747125E+02 -.17373129E+03 0.17793488E+03 0.32000000E+00 0.0000E+00 0.9000E+01
#aMCatNLO 1  0  0  2  5 0.14305100D+01 0.00000000D+00  -5  6  0 0.00000000D+00 0.00000000D+00 0.00000000D+00 0.00000000D+00 0.00000000D+00
  <mgrwgt>
 0.4611443098D+00   14    2    0
 0.663654540955855D+03 0.000000000000000D+00 0.000000000000000D+00 0.663654540955855D+03
 0.663654540955855D+03 0.000000000000000D+00 0.000000000000000D+00 -.663654540955855D+03
 0.480487136626205D+03 -.263526892027376D+02 -.129498038731253D+03 0.444723152309155D+03
 0.244801906307664D+03 0.336541355752607D+02 0.167245166821343D+03 0.156067968241657D+03
 0.602020038977841D+03 -.730144637252311D+01 -.377471280900908D+02 -.600791120550813D+03
 0.000000000000000D+00 0.000000000000000D+00 0.000000000000000D+00 -.000000000000000D+00
 0.686422969333390D+03 0.000000000000000D+00 0.000000000000000D+00 0.686422969333390D+03
 0.770851878935669D+03 0.000000000000000D+00 0.000000000000000D+00 -.770851878935669D+03
 0.490957928480840D+03 -.273913016319509D+02 -.163968661436608D+03 0.444723152309155D+03
 0.233463668373258D+03 0.331428019052773D+02 0.150274457133329D+03 0.156067968241657D+03
 0.606237182494516D+03 -.859324455338020D+01 -.806207606900011D+02 -.600791120550813D+03
 0.126616068920445D+03 0.284174428005376D+01 0.943149649932811D+02 -.844289096022792D+02
0.196884702558D-02 0.000000000000D+00 0.000000000000D+00 0.153283428553D-04 0.000000000000D+00  6 2 21 25 24 1 21 2 0.34921716D+00 0.29851204D-01 0.41810705D+05 0.41810705D+05 0.41810705D+05 0.12000526D+01  1  2  2  2  6  2       21 0.210469597208D+00 0.100000000000D+01
0.787306820311D-03 0.103898912001D-03 -.397453489468D-05 0.153283428553D-04 0.000000000000D+00  6 2 21 25 24 1 21 4 0.34921716D+00 0.29851204D-01 0.41810705D+05 0.41810705D+05 0.41810705D+05 0.12000526D+01  1  2  3  2  6  2       21 0.121205401644D+00 0.100000000000D+01
0.186779402281D-03 0.000000000000D+00 0.000000000000D+00 0.153283428553D-04 0.000000000000D+00  6 2 21 25 24 1 21 4 0.34921716D+00 0.29851204D-01 0.41810705D+05 0.41810705D+05 0.41810705D+05 0.12000526D+01  1  2 15  2  6  2       21 0.287545743135D-01 0.100000000000D+01
-.264142867667D-02 0.000000000000D+00 0.000000000000D+00 0.153283428553D-04 0.000000000000D+00  6 2 21 25 24 1 21 4 0.34921716D+00 0.29851204D-01 0.41810705D+05 0.41810705D+05 0.41810705D+05 0.12000526D+01  1  2  4  2  6  2       21 -.406646323148D+00 0.100000000000D+01
-.117185808302D-01 0.000000000000D+00 -.384582370918D-02 0.153283428553D-04 0.000000000000D+00  6 2 21 25 24 1 21 4 0.34921716D+00 0.35870563D-01 0.41810705D+05 0.41810705D+05 0.41810705D+05 0.12000526D+01  1  2  5  2  6  2       21 -.125587544983D+01 0.100000000000D+01
0.116921358905D-01 0.000000000000D+00 0.359819480049D-02 0.153283428553D-04 0.000000000000D+00  6 2 21 25 24 1 21 4 0.34921716D+00 0.29851204D-01 0.41810705D+05 0.41810705D+05 0.41810705D+05 0.12000526D+01  1  2  6  2  6  2       21 0.179999714230D+01 0.100000000000D+01
-.444634690236D-03 0.000000000000D+00 -.199203663983D-03 0.153283428553D-04 0.000000000000D+00  6 2 -1 25 24 1 -1 4 0.34921716D+00 0.35870563D-01 0.41810705D+05 0.41810705D+05 0.41810705D+05 0.12000526D+01  1  2  5  5  6  2       21 -.438558707766D-02 0.100000000000D+01
-.444634690236D-03 0.000000000000D+00 -.199203663983D-03 0.153283428553D-04 0.000000000000D+00  6 2 1 25 24 1 1 4 0.34921716D+00 0.35870563D-01 0.41810705D+05 0.41810705D+05 0.41810705D+05 0.12000526D+01  1  2  5  6  6  2       21 -.837184515363D-02 0.100000000000D+01
-.444634690236D-03 0.000000000000D+00 -.199203663983D-03 0.153283428553D-04 0.000000000000D+00  6 2 -2 25 24 1 -2 4 0.34921716D+00 0.35870563D-01 0.41810705D+05 0.41810705D+05 0.41810705D+05 0.12000526D+01  1  2  5  7  6  2       21 -.376858080783D-02 0.100000000000D+01
-.444634690236D-03 0.000000000000D+00 -.199203663983D-03 0.153283428553D-04 0.000000000000D+00  6 2 2 25 24 1 2 4 0.34921716D+00 0.35870563D-01 0.41810705D+05 0.41810705D+05 0.41810705D+05 0.12000526D+01  1  2  5  8  6  2       21 -.113443967625D-01 0.100000000000D+01
-.444634690236D-03 0.000000000000D+00 -.199203663983D-03 0.153283428553D-04 0.000000000000D+00  6 2 -3 25 24 1 -3 4 0.34921716D+00 0.35870563D-01 0.41810705D+05 0.41810705D+05 0.41810705D+05 0.12000526D+01  1  2  5  9  6  2       21 -.241667620866D-02 0.100000000000D+01
-.444634690236D-03 0.000000000000D+00 -.199203663983D-03 0.153283428553D-04 0.000000000000D+00  6 2 -4 25 24 1 -4 4 0.34921716D+00 0.35870563D-01 0.41810705D+05 0.41810705D+05 0.41810705D+05 0.12000526D+01  1  2  5  9  6  2       21 -.202827876036D-02 0.100000000000D+01
-.444634690236D-03 0.000000000000D+00 -.199203663983D-03 0.153283428553D-04 0.000000000000D+00  6 2 3 25 24 1 3 4 0.34921716D+00 0.35870563D-01 0.41810705D+05 0.41810705D+05 0.41810705D+05 0.12000526D+01  1  2  5 10  6  2       21 -.241698919430D-02 0.100000000000D+01
-.444634690236D-03 0.000000000000D+00 -.199203663983D-03 0.153283428553D-04 0.000000000000D+00  6 2 4 25 24 1 4 4 0.34921716D+00 0.35870563D-01 0.41810705D+05 0.41810705D+05 0.41810705D+05 0.12000526D+01  1  2  5 10  6  2       21 -.202827876036D-02 0.100000000000D+01
  </mgrwgt>
  </event>
  <event>
  5     66 0.43779995E-03 0.51429841E+02 0.75467711E-02 0.12192158E+00
        2 -1    0    0  502    0 0.00000000E+00 0.00000000E+00 0.22491314E+02 0.22493591E+02 0.32000000E+00 0.0000E+00 0.9000E+01
       21 -1    0    0  501  502 0.00000000E+00 0.00000000E+00 -.89137961E+03 0.89137993E+03 0.75000000E+00 0.0000E+00 0.9000E+01
       25  1    1    2    0    0 0.40986202E+02 0.18368812E+02 -.38340727E+03 0.40576276E+03 0.12500000E+03 0.0000E+00 0.9000E+01
       24  1    1    2    0    0 0.96250994E+01 0.40432821E+01 -.38445488E+03 0.39291444E+03 0.80419002E+02 0.0000E+00 0.9000E+01
        1  1    1    2  501    0 -.50611302E+02 -.22412094E+02 -.10102615E+03 0.11519632E+03 0.32000000E+00 0.0000E+00 0.9000E+01
#aMCatNLO 1  0  0  2  5 0.21891916D+01 0.00000000D+00  -5  6  0 0.00000000D+00 0.00000000D+00 0.00000000D+00 0.00000000D+00 0.00000000D+00
  <mgrwgt>
 0.4085523931D+00   41    2    0
 0.141596198029984D+03 0.000000000000000D+00 0.000000000000000D+00 0.141596198029984D+03
 0.141596198029984D+03 0.000000000000000D+00 0.000000000000000D+00 -.141596198029984D+03
 0.133046582819878D+03 0.409865213286410D+02 0.183689528606104D+02 0.768634114701318D+01
 0.883702430484670D+02 0.962531129385978D+01 0.404337597496559D+01 -.351153583962340D+02
 0.617755701916225D+02 -.506118326225008D+02 -.224123288355760D+02 0.274290172492208D+02
 0.000000000000000D+00 -.000000000000000D+00 -.000000000000000D+00 -.000000000000000D+00
 0.142374307712092D+03 0.000000000000000D+00 0.000000000000000D+00 0.142374307712092D+03
 0.143148655504040D+03 0.000000000000000D+00 0.000000000000000D+00 -.143148655504040D+03
 0.133390759973378D+03 0.419914939042460D+02 0.185938012718446D+02 0.768634114701318D+01
 0.884523203768676D+02 0.102922667030665D+02 0.419259782217262D+01 -.351153583962340D+02
 0.613577772511545D+02 -.501473870758476D+02 -.223084157081886D+02 0.274290172492208D+02
 0.232210561473130D+01 -.213637353146488D+01 -.477983385828681D+00 -.774347791947933D+00
0.243648595345D-04 0.000000000000D+00 0.000000000000D+00 0.315333049237D-06 0.000000000000D+00  6 2 21 25 24 1 21 2 0.34604016D-02 0.13713552D+00 0.18126644D+05 0.18126644D+05 0.18126644D+05 0.12385562D+01  1  2  2  2  6  2       21 0.439322327219D-01 0.100000000000D+01
-.215461453515D-05 0.128576896214D-05 -.491856315730D-07 0.315333049237D-06 0.000000000000D+00  6 2 21 25 24 1 21 4 0.34604016D-02 0.13713552D+00 0.18126644D+05 0.18126644D+05 0.18126644D+05 0.12385562D+01  1  2  3  2  6  2       21 -.595964514932D-02 0.100000000000D+01
0.276864796306D-05 0.000000000000D+00 0.000000000000D+00 0.315333049237D-06 0.000000000000D+00  6 2 21 25 24 1 21 4 0.34604016D-02 0.13713552D+00 0.18126644D+05 0.18126644D+05 0.18126644D+05 0.12385562D+01  1  2 15  2  6  2       21 0.765805629454D-02 0.100000000000D+01
0.323988387934D-07 0.000000000000D+00 0.000000000000D+00 0.314940488401D-06 0.000000000000D+00  6 2 21 25 24 1 21 4 0.34604016D-02 0.13901276D+00 0.18418176D+05 0.18418176D+05 0.18418176D+05 0.12377850D+01  1  2 12  2  6  2       21 0.863388737119D-04 0.100000000000D+01
0.224724065636D-07 0.000000000000D+00 0.000000000000D+00 0.314940488401D-06 0.000000000000D+00  6 2 21 25 24 1 21 4 0.34604016D-02 0.13982741D+00 0.18418176D+05 0.18418176D+05 0.18418176D+05 0.12377850D+01  1  2 12  2  6  2       21 0.590015556122D-04 0.100000000000D+01
-.169661245445D-03 0.000000000000D+00 0.000000000000D+00 0.315333049237D-06 0.000000000000D+00  6 2 21 25 24 1 21 4 0.34604016D-02 0.13713552D+00 0.18126644D+05 0.18126644D+05 0.18126644D+05 0.12385562D+01  1  2  4  2  6  2       21 -.469281535953D+00 0.100000000000D+01
-.418322799396D-02 0.000000000000D+00 -.457283464654D-03 0.315333049237D-06 0.000000000000D+00  6 2 21 25 24 1 21 4 0.34604016D-02 0.13915884D+00 0.18126644D+05 0.18126644D+05 0.18126644D+05 0.12385562D+01  1  2  5  2  6  2       21 -.111482266813D+02 0.100000000000D+01
0.418814370493D-02 0.000000000000D+00 0.457087334675D-03 0.315333049237D-06 0.000000000000D+00  6 2 21 25 24 1 21 4 0.34604016D-02 0.13713552D+00 0.18126644D+05 0.18126644D+05 0.18126644D+05 0.12385562D+01  1  2  6  2  6  2       21 0.115843692264D+02 0.100000000000D+01
0.167304944779D-03 0.000000000000D+00 0.000000000000D+00 0.315333049237D-06 0.235903351558D-05  6 2 21 25 24 1 21 4 0.34794174D-02 0.13863908D+00 0.18418176D+05 0.18418176D+05 0.18418176D+05 0.12377850D+01  1  2 11  2  6  2       21 0.445639032771D+00 0.100000000000D+01
0.275269600843D-08 0.000000000000D+00 0.000000000000D+00 0.314940488401D-06 0.000000000000D+00  6 2 -1 25 24 1 -1 4 0.34604016D-02 0.13901276D+00 0.18418176D+05 0.18418176D+05 0.18418176D+05 0.12377850D+01  1  2 12  5  6  2       21 0.855331788682D-06 0.100000000000D+01
0.275339405838D-08 0.000000000000D+00 0.000000000000D+00 0.314940488401D-06 0.000000000000D+00  6 2 -1 25 24 1 -1 4 0.34604016D-02 0.13982741D+00 0.18418176D+05 0.18418176D+05 0.18418176D+05 0.12377850D+01  1  2 12  5  6  2       21 0.843112506167D-06 0.100000000000D+01
-.124313070310D-04 0.000000000000D+00 -.152108626365D-05 0.315333049237D-06 0.000000000000D+00  6 2 -1 25 24 1 -1 4 0.34604016D-02 0.13915884D+00 0.18126644D+05 0.18126644D+05 0.18126644D+05 0.12385562D+01  1  2  5  5  6  2       21 -.386108771500D-02 0.100000000000D+01
0.822710869836D-05 0.000000000000D+00 0.000000000000D+00 0.315333049237D-06 0.112524740181D-06  6 2 -1 25 24 1 -1 4 0.34794174D-02 0.13863908D+00 0.18418176D+05 0.18418176D+05 0.18418176D+05 0.12377850D+01  1  2 11  5  6  2       21 0.255488388666D-02 0.100000000000D+01
0.275269600843D-08 0.000000000000D+00 0.000000000000D+00 0.314940488401D-06 0.000000000000D+00  6 2 1 25 24 1 1 4 0.34604016D-02 0.13901276D+00 0.18418176D+05 0.18418176D+05 0.18418176D+05 0.12377850D+01  1  2 12  6  6  2       21 0.417510217641D-05 0.100000000000D+01
0.275339405838D-08 0.000000000000D+00 0.000000000000D+00 0.314940488401D-06 0.000000000000D+00  6 2 1 25 24 1 1 4 0.34604016D-02 0.13982741D+00 0.18418176D+05 0.18418176D+05 0.18418176D+05 0.12377850D+01  1  2 12  6  6  2       21 0.413734546461D-05 0.100000000000D+01
-.124313070310D-04 0.000000000000D+00 -.152108626365D-05 0.315333049237D-06 0.000000000000D+00  6 2 1 25 24 1 1 4 0.34604016D-02 0.13915884D+00 0.18126644D+05 0.18126644D+05 0.18126644D+05 0.12385562D+01  1  2  5  6  6  2       21 -.188642818495D-01 0.100000000000D+01
0.243763728335D-05 0.000000000000D+00 0.000000000000D+00 0.315333049237D-06 0.144070889013D-08  6 2 1 25 24 1 1 4 0.34794174D-02 0.13863908D+00 0.18418176D+05 0.18418176D+05 0.18418176D+05 0.12377850D+01  1  2 11  6  6  2       21 0.368608701320D-02 0.100000000000D+01
0.275269600843D-08 0.000000000000D+00 0.000000000000D+00 0.314940488401D-06 0.000000000000D+00  6 2 -2 25 24 1 -2 4 0.34604016D-02 0.13901276D+00 0.18418176D+05 0.18418176D+05 0.18418176D+05 0.12377850D+01  1  2 12  7  6  2       21 0.622345332880D-06 0.100000000000D+01
0.275339405838D-08 0.000000000000D+00 0.000000000000D+00 0.314940488401D-06 0.000000000000D+00  6 2 -2 25 24 1 -2 4 0.34604016D-02 0.13982741D+00 0.18418176D+05 0.18418176D+05 0.18418176D+05 0.12377850D+01  1  2 12  7  6  2       21 0.613459380411D-06 0.100000000000D+01
-.124313070310D-04 0.000000000000D+00 -.152108626365D-05 0.315333049237D-06 0.000000000000D+00  6 2 -2 25 24 1 -2 4 0.34604016D-02 0.13915884D+00 0.18126644D+05 0.18126644D+05 0.18126644D+05 0.12385562D+01  1  2  5  7  6  2       21 -.280899653874D-02 0.100000000000D+01
0.242914522388D-05 0.000000000000D+00 0.000000000000D+00 0.315333049237D-06 0.286478608778D-08  6 2 -2 25 24 1 -2 4 0.34794174D-02 0.13863908D+00 0.18418176D+05 0.18418176D+05 0.18418176D+05 0.12377850D+01  1  2 11  7  6  2       21 0.548876669090D-03 0.100000000000D+01
0.275269600843D-08 0.000000000000D+00 0.000000000000D+00 0.314940488401D-06 0.000000000000D+00  6 2 2 25 24 1 2 4 0.34604016D-02 0.13901276D+00 0.18418176D+05 0.18418176D+05 0.18418176D+05 0.12377850D+01  1  2 12  8  6  2       21 0.749356207357D-05 0.100000000000D+01
0.275339405838D-08 0.000000000000D+00 0.000000000000D+00 0.314940488401D-06 0.000000000000D+00  6 2 2 25 24 1 2 4 0.34604016D-02 0.13982741D+00 0.18418176D+05 0.18418176D+05 0.18418176D+05 0.12377850D+01  1  2 12  8  6  2       21 0.743827480471D-05 0.100000000000D+01
-.124313070310D-04 0.000000000000D+00 -.152108626365D-05 0.315333049237D-06 0.000000000000D+00  6 2 2 25 24 1 2 4 0.34604016D-02 0.13915884D+00 0.18126644D+05 0.18126644D+05 0.18126644D+05 0.12385562D+01  1  2  5  8  6  2       21 -.338650471541D-01 0.100000000000D+01
0.294930370404D-05 0.000000000000D+00 0.000000000000D+00 0.315333049237D-06 0.471745209571D-08  6 2 2 25 24 1 2 4 0.34794174D-02 0.13863908D+00 0.18418176D+05 0.18418176D+05 0.18418176D+05 0.12377850D+01  1  2 11  8  6  2       21 0.799838510218D-02 0.100000000000D+01
0.275269600843D-08 0.000000000000D+00 0.000000000000D+00 0.314940488401D-06 0.000000000000D+00  6 2 -3 25 24 1 -3 4 0.34604016D-02 0.13901276D+00 0.18418176D+05 0.18418176D+05 0.18418176D+05 0.12377850D+01  1  2 12  9  6  2       21 0.395902873627D-06 0.100000000000D+01
0.275269600843D-08 0.000000000000D+00 0.000000000000D+00 0.314940488401D-06 0.000000000000D+00  6 2 -4 25 24 1 -4 4 0.34604016D-02 0.13901276D+00 0.18418176D+05 0.18418176D+05 0.18418176D+05 0.12377850D+01  1  2 12  9  6  2       21 0.311301919229D-06 0.100000000000D+01
0.275339405838D-08 0.000000000000D+00 0.000000000000D+00 0.314940488401D-06 0.000000000000D+00  6 2 -3 25 24 1 -3 4 0.34604016D-02 0.13982741D+00 0.18418176D+05 0.18418176D+05 0.18418176D+05 0.12377850D+01  1  2 12  9  6  2       21 0.390379125713D-06 0.100000000000D+01
0.275339405838D-08 0.000000000000D+00 0.000000000000D+00 0.314940488401D-06 0.000000000000D+00  6 2 -4 25 24 1 -4 4 0.34604016D-02 0.13982741D+00 0.18418176D+05 0.18418176D+05 0.18418176D+05 0.12377850D+01  1  2 12  9  6  2       21 0.306866046298D-06 0.100000000000D+01
-.124313070310D-04 0.000000000000D+00 -.152108626365D-05 0.315333049237D-06 0.000000000000D+00  6 2 -3 25 24 1 -3 4 0.34604016D-02 0.13915884D+00 0.18126644D+05 0.18126644D+05 0.18126644D+05 0.12385562D+01  1  2  5  9  6  2       21 -.178655946143D-02 0.100000000000D+01
-.124313070310D-04 0.000000000000D+00 -.152108626365D-05 0.315333049237D-06 0.000000000000D+00  6 2 -4 25 24 1 -4 4 0.34604016D-02 0.13915884D+00 0.18126644D+05 0.18126644D+05 0.18126644D+05 0.12385562D+01  1  2  5  9  6  2       21 -.140449052375D-02 0.100000000000D+01
0.242584456474D-05 0.000000000000D+00 0.000000000000D+00 0.315333049237D-06 0.286089349121D-08  6 2 -3 25 24 1 -3 4 0.34794174D-02 0.13863908D+00 0.18418176D+05 0.18418176D+05 0.18418176D+05 0.12377850D+01  1  2 11  9  6  2       21 0.348638844264D-03 0.100000000000D+01
0.242584456474D-05 0.000000000000D+00 0.000000000000D+00 0.315333049237D-06 0.286089349121D-08  6 2 -4 25 24 1 -4 4 0.34794174D-02 0.13863908D+00 0.18418176D+05 0.18418176D+05 0.18418176D+05 0.12377850D+01  1  2 11  9  6  2       21 0.274175686284D-03 0.100000000000D+01
0.275269600843D-08 0.000000000000D+00 0.000000000000D+00 0.314940488401D-06 0.000000000000D+00  6 2 3 25 24 1 3 4 0.34604016D-02 0.13901276D+00 0.18418176D+05 0.18418176D+05 0.18418176D+05 0.12377850D+01  1  2 12 10  6  2       21 0.397267472472D-06 0.100000000000D+01
0.275269600843D-08 0.000000000000D+00 0.000000000000D+00 0.314940488401D-06 0.000000000000D+00  6 2 4 25 24 1 4 4 0.34604016D-02 0.13901276D+00 0.18418176D+05 0.18418176D+05 0.18418176D+05 0.12377850D+01  1  2 12 10  6  2       21 0.311301919229D-06 0.100000000000D+01
0.275339405838D-08 0.000000000000D+00 0.000000000000D+00 0.314940488401D-06 0.000000000000D+00  6 2 3 25 24 1 3 4 0.34604016D-02 0.13982741D+00 0.18418176D+05 0.18418176D+05 0.18418176D+05 0.12377850D+01  1  2 12 10  6  2       21 0.391737648617D-06 0.100000000000D+01
0.275339405838D-08 0.000000000000D+00 0.000000000000D+00 0.314940488401D-06 0.000000000000D+00  6 2 4 25 24 1 4 4 0.34604016D-02 0.13982741D+00 0.18418176D+05 0.18418176D+05 0.18418176D+05 0.12377850D+01  1  2 12 10  6  2       21 0.306866046298D-06 0.100000000000D+01
-.124313070310D-04 0.000000000000D+00 -.152108626365D-05 0.315333049237D-06 0.000000000000D+00  6 2 3 25 24 1 3 4 0.34604016D-02 0.13915884D+00 0.18126644D+05 0.18126644D+05 0.18126644D+05 0.12385562D+01  1  2  5 10  6  2       21 -.179272763017D-02 0.100000000000D+01
-.124313070310D-04 0.000000000000D+00 -.152108626365D-05 0.315333049237D-06 0.000000000000D+00  6 2 4 25 24 1 4 4 0.34604016D-02 0.13915884D+00 0.18126644D+05 0.18126644D+05 0.18126644D+05 0.12385562D+01  1  2  5 10  6  2       21 -.140449052375D-02 0.100000000000D+01
0.242584456474D-05 0.000000000000D+00 0.000000000000D+00 0.315333049237D-06 0.286089349121D-08  6 2 3 25 24 1 3 4 0.34794174D-02 0.13863908D+00 0.18418176D+05 0.18418176D+05 0.18418176D+05 0.12377850D+01  1  2 11 10  6  2       21 0.349835232479D-03 0.100000000000D+01
0.242584456474D-05 0.000000000000D+00 0.000000000000D+00 0.315333049237D-06 0.286089349121D-08  6 2 4 25 24 1 4 4 0.34794174D-02 0.13863908D+00 0.18418176D+05 0.18418176D+05 0.18418176D+05 0.12377850D+01  1  2 11 10  6  2       21 0.274175686284D-03 0.100000000000D+01
  </mgrwgt>
  </event>
  <event>
  5     66 0.43779995E-03 0.65886817E+02 0.75467711E-02 0.99455809E-01
        4 -1    0    0  502    0 0.00000000E+00 0.00000000E+00 0.67761172E+03 0.67761349E+03 0.15500000E+01 0.0000E+00 0.9000E+01
       21 -1    0    0  501  502 0.00000000E+00 0.00000000E+00 -.25354523E+03 0.25354634E+03 0.75000000E+00 0.0000E+00 0.9000E+01
       25  1    1    2    0    0 0.99632867E+02 0.17567165E+03 0.25260596E+03 0.34673045E+03 0.12500000E+03 0.0000E+00 0.9000E+01
       24  1    1    2    0    0 -.12609981E+03 -.23600873E+03 0.31826880E+03 0.42351331E+03 0.80419002E+02 0.0000E+00 0.9000E+01
        3  1    1    2  501    0 0.26466938E+02 0.60337073E+02 -.14680827E+03 0.16091606E+03 0.50000000E+00 0.0000E+00 0.9000E+01
#aMCatNLO 1  0  0  2  5 0.21891916D+01 0.00000000D+00  -5  6  0 0.00000000D+00 0.00000000D+00 0.00000000D+00 0.00000000D+00 0.00000000D+00
  <mgrwgt>
 0.2064958199D-01    3    2    0
 0.414495548307235D+03 0.000000000000000D+00 0.000000000000000D+00 0.414495548307235D+03
 0.414495548307235D+03 0.000000000000000D+00 0.000000000000000D+00 -.414495548307235D+03
 0.260243775107864D+03 0.996328509098055D+02 0.175671616093848D+03 0.106370112348123D+03
 0.312900284240219D+03 -.126099824337609D+03 -.236008768933146D+03 0.140847673789539D+03
 0.255847037266386D+03 0.264669734278038D+02 0.603371528392979D+02 -.247217786137662D+03
 0.000000000000000D+00 -.000000000000000D+00 0.000000000000000D+00 0.000000000000000D+00
 0.142980997059009D+04 0.000000000000000D+00 0.000000000000000D+00 0.142980997059009D+04
 0.512735177179520D+03 0.000000000000000D+00 0.000000000000000D+00 -.512735177179520D+03
 0.287217162936315D+03 0.211176366713895D+03 0.104683523181789D+03 0.106370112348123D+03
 0.362090802621672D+03 0.114275748481257D+02 -.323533424409290D+03 0.140847673789539D+03
 0.282377384673466D+03 0.136128576919138D+03 -.945326071733503D+01 -.247217786137662D+03
 0.101085979753816D+04 -.358732518481158D+03 0.228303161944836D+03 0.917074793410569D+03
0.553106414933D-03 0.000000000000D+00 0.000000000000D+00 0.518053470312D-06 0.000000000000D+00  6 4 21 25 24 3 21 2 0.10424818D+00 0.39007180D-01 0.84915952D+05 0.84915952D+05 0.84915952D+05 0.11701518D+01  1  2  2  2  6  2       21 0.154274881521D-01 0.100000000000D+01
0.860411887973D-04 0.291882274173D-04 -.111656249473D-05 0.518053470312D-06 0.000000000000D+00  6 4 21 25 24 3 21 4 0.10424818D+00 0.39007180D-01 0.84915952D+05 0.84915952D+05 0.84915952D+05 0.11701518D+01  1  2  3  2  6  2       21 0.328607387616D-02 0.100000000000D+01
0.506919397466D-04 0.000000000000D+00 0.000000000000D+00 0.518053470312D-06 0.000000000000D+00  6 4 21 25 24 3 21 4 0.10424818D+00 0.39007180D-01 0.84915952D+05 0.84915952D+05 0.84915952D+05 0.11701518D+01  1  2 15  2  6  2       21 0.193601996046D-02 0.100000000000D+01
  </mgrwgt>
  </event>
  <event>
  6     66 -.43779995E-03 0.28778212E+02 0.75467711E-02 0.11676281E+00
        2 -1    0    0  502    0 0.00000000E+00 0.00000000E+00 0.11930267E+04 0.11930267E+04 0.32000000E+00 0.0000E+00 0.9000E+01
       21 -1    0    0  503  502 0.00000000E+00 0.00000000E+00 -.12579672E+03 0.12579895E+03 0.75000000E+00 0.0000E+00 0.9000E+01
       25  1    1    2    0    0 -.44572470E+02 -.11244810E+03 0.80467545E+03 0.82326111E+03 0.12500000E+03 0.0000E+00 0.9000E+01
       24  1    1    2    0    0 0.46839503E+02 0.47795922E+02 0.35326264E+03 0.36842923E+03 0.80419002E+02 0.0000E+00 0.9000E+01
        1  1    1    2  501    0 -.26021522E+02 0.38478475E+02 -.75507499E+02 0.88652115E+02 0.32000000E+00 0.0000E+00 0.9000E+01
       21  1    1    2  503  501 0.23754489E+02 0.26173707E+02 -.15200607E+02 0.38483238E+02 0.75000000E+00 0.0000E+00 0.9000E+01
#aMCatNLO 2  0  0  2  1 0.35345985D+02 0.00000000D+00  -5  6  0 0.00000000D+00 0.00000000D+00 0.00000000D+00 0.00000000D+00 0.00000000D+00
  <mgrwgt>
 -.7230406001D-01    2    2    0
 0.341456985154359D+03 0.000000000000000D+00 0.000000000000000D+00 0.341456985154359D+03
 0.341456985154359D+03 0.000000000000000D+00 0.000000000000000D+00 -.341456985154359D+03
 0.262183675268517D+03 -.353631428411823D+02 -.102300891677713D+03 0.203468069405610D+03
 0.134273072094395D+03 0.514437422855818D+02 0.528690606188163D+02 0.782332777290748D+02
 0.286457222945805D+03 -.160805994443995D+02 0.494318310588966D+02 -.281701347134685D+03
 0.000000000000000D+00 0.000000000000000D+00 0.000000000000000D+00 -.000000000000000D+00
 0.345281786520090D+03 0.000000000000000D+00 0.000000000000000D+00 0.345281786520090D+03
 0.434656824630926D+03 0.000000000000000D+00 0.000000000000000D+00 -.434656824630926D+03
 0.267685523400420D+03 -.445724681187961D+02 -.112448118064775D+03 0.203468069405610D+03
 0.130637094211193D+03 0.468395043019747D+02 0.477959153284507D+02 0.782332777290748D+02
 0.285505452520396D+03 -.260215251261613D+02 0.384784962217615D+02 -.281701347134685D+03
 0.961105410190070D+02 0.237544889429827D+02 0.261737065145630D+02 -.893750381108364D+02
-.636115512648D-04 0.000000000000D+00 0.000000000000D+00 0.485288966730D-05 0.000000000000D+00  6 2 21 25 24 1 21 4 0.18150882D+00 0.19422538D-01 0.32465151D+05 0.32465151D+05 0.32465151D+05 0.12113153D+01  1  2 13  2  6  2       21 -.879527631534D-01 0.100000000000D+01
0.114372811147D-04 0.000000000000D+00 0.000000000000D+00 0.492549557138D-05 0.349947871110D-07  6 2 21 25 24 1 21 4 0.18354197D+00 0.19353435D-01 0.32465151D+05 0.32465151D+05 0.32465151D+05 0.12113153D+01  1  2  1  2  6  2       21 0.156487031411D-01 0.100000000000D+01
  </mgrwgt>
  </event>
  <event>
  6     66 0.43779995E-03 0.60966903E+02 0.75467711E-02 0.11996916E+00
        2 -1    0    0  502    0 0.00000000E+00 0.00000000E+00 0.22473051E+03 0.22473074E+03 0.32000000E+00 0.0000E+00 0.9000E+01
       21 -1    0    0  501  502 0.00000000E+00 0.00000000E+00 -.13362881E+03 0.13363092E+03 0.75000000E+00 0.0000E+00 0.9000E+01
       25  1    1    2    0    0 0.37285799E+02 0.10528618E+02 0.12312303E+03 0.17968128E+03 0.12500000E+03 0.0000E+00 0.9000E+01
       24  1    1    2    0    0 -.46949771E+02 0.52271152E+02 -.28988836E+01 0.10682778E+03 0.80419002E+02 0.0000E+00 0.9000E+01
        1  1    1    2  503    0 0.97187262E+01 -.56979530E+02 -.20315444E+02 0.61269406E+02 0.32000000E+00 0.0000E+00 0.9000E+01
       21  1    1    2  501  503 -.54754455E-01 -.58202411E+01 -.88070018E+01 0.10583194E+02 0.75000000E+00 0.0000E+00 0.9000E+01
#aMCatNLO 2  0  0  5  2 0.60384308D+01 0.00000000D+00  -5  6  0 0.00000000D+00 0.00000000D+00 0.00000000D+00 0.00000000D+00 0.00000000D+00
  <mgrwgt>
 0.1736396854D+00    3    2    0
 0.173294227641178D+03 0.000000000000000D+00 0.000000000000000D+00 0.173294227641178D+03
 0.173294227641178D+03 -.000000000000000D+00 -.000000000000000D+00 -.173294227641178D+03
 0.153684039849452D+03 0.371942804795704D+02 0.111233356419702D+02 0.805396859209861D+02
 0.111356451126459D+03 -.470160985813443D+02 0.527021740143937D+02 -.307410244047727D+02
 0.815479643064456D+02 0.982181810177389D+01 -.638255096563638D+02 -.497986615162134D+02
 0.000000000000000D+00 0.000000000000000D+00 0.000000000000000D+00 -.000000000000000D+00
 0.173294227641178D+03 0.000000000000000D+00 0.000000000000000D+00 0.173294227641178D+03
 0.173294227641178D+03 -.000000000000000D+00 -.000000000000000D+00 -.173294227641178D+03
 0.153420740636744D+03 0.372861095907505D+02 0.105265988910320D+02 0.800740932193493D+02
 0.111218105356344D+03 -.469495453233301D+02 0.522696883413710D+02 -.310784632714175D+02
 0.686561097455429D+02 0.972836477593965D+01 -.569822195710592D+02 -.370411524784784D+02
 0.132934995437254D+02 -.649290433600662D-01 -.581406766134392D+01 -.119544774694535D+02
-.540720850208D-05 0.000000000000D+00 0.000000000000D+00 0.369856037192D-06 0.000000000000D+00  6 2 21 25 24 1 21 4 0.34574104D-01 0.20558458D-01 0.22691707D+05 0.22691707D+05 0.22691707D+05 0.12278342D+01  1  2 13  3  6  5        1 -.498519579956D-01 0.100000000000D+01
-.253787675183D-05 0.000000000000D+00 0.000000000000D+00 0.369626758005D-06 0.000000000000D+00  6 2 21 25 24 1 21 4 0.34574104D-01 0.20558458D-01 0.22875929D+05 0.22875929D+05 0.22875929D+05 0.12274536D+01  1  2  8  3  6  5        1 -.233697625441D-01 0.100000000000D+01
0.267759010210D-04 0.000000000000D+00 0.000000000000D+00 0.369626758005D-06 0.366699280095D-06  6 2 21 25 24 1 21 4 0.34574104D-01 0.20558458D-01 0.22691707D+05 0.22691707D+05 0.22691707D+05 0.12278342D+01  1  2  1  3  6  5        1 0.246861405933D+00 0.100000000000D+01
  </mgrwgt>
  </event>
  <event>
  5     66 0.43779995E-03 0.33161924E+02 0.75467711E-02 0.10654212E+00
        2 -1    0    0  502    0 0.00000000E+00 0.00000000E+00 0.39081746E+03 0.39081759E+03 0.32000000E+00 0.0000E+00 0.9000E+01
       21 -1    0    0  501  502 0.00000000E+00 0.00000000E+00 -.36421140E+03 0.36421217E+03 0.75000000E+00 0.0000E+00 0.9000E+01
       25  1    1    2    0    0 -.45658133E+02 -.32146732E+03 0.60941876E+02 0.35322063E+03 0.12500000E+03 0.0000E+00 0.9000E+01
       24  1    1    2    0    0 0.28331635E+02 0.29319198E+03 0.51626165E+02 0.30967192E+03 0.80419002E+02 0.0000E+00 0.9000E+01
        1  1    1    2  501    0 0.17326499E+02 0.28275339E+02 -.85961977E+02 0.92137214E+02 0.32000000E+00 0.0000E+00 0.9000E+01
#aMCatNLO 1  0  0  5  2 0.17299206D+01 0.00000000D+00  -5  6  0 0.00000000D+00 0.00000000D+00 0.00000000D+00 0.00000000D+00 0.00000000D+00
  <mgrwgt>
 0.1529542210D+00    8    2    0
 0.377280418759405D+03 0.000000000000000D+00 0.000000000000000D+00 0.377280418759405D+03
 0.377280418759405D+03 -.000000000000000D+00 -.000000000000000D+00 -.377280418759405D+03
 0.351291416972221D+03 -.456581789040909D+02 -.321467393200803D+03 0.485253072756243D+02
 0.308043967640574D+03 0.283315948207094D+02 0.293191914278019D+03 0.407393198554196D+02
 0.952254529060144D+02 0.173265840833814D+02 0.282754789227837D+02 -.892646271310439D+02
 0.000000000000000D+00 0.000000000000000D+00 0.000000000000000D+00 0.000000000000000D+00
 0.377280418759405D+03 0.000000000000000D+00 0.000000000000000D+00 0.377280418759405D+03
 0.377280418759405D+03 -.000000000000000D+00 -.000000000000000D+00 -.377280418759405D+03
 0.351277629481208D+03 -.456522736458215D+02 -.321457756332686D+03 0.484948840441902D+02
 0.308048960167020D+03 0.283367732268391D+02 0.293200364986633D+03 0.407126412850752D+02
 0.625210231518506D+02 0.117929586818028D+02 0.169360799760826D+02 -.590167235326332D+02
 0.327132247187314D+02 0.552254173717957D+01 0.113213113699696D+02 -.301908017966321D+02
0.982971397292D-05 0.000000000000D+00 0.000000000000D+00 0.497709356123D-06 0.000000000000D+00  6 2 21 25 24 1 21 2 0.60125833D-01 0.56032592D-01 0.11779443D+06 0.11779443D+06 0.11779443D+06 0.11570940D+01  1  2  2  3  6  5        1 0.385265404389D-02 0.100000000000D+01
0.213078094446D-05 0.518728257605D-06 -.198433604452D-07 0.497709356123D-06 0.000000000000D+00  6 2 21 25 24 1 21 4 0.60125833D-01 0.56032592D-01 0.11779443D+06 0.11779443D+06 0.11779443D+06 0.11570940D+01  1  2  3  3  6  5        1 0.111813749039D-02 0.100000000000D+01
0.893166721442D-06 0.000000000000D+00 0.000000000000D+00 0.497709356123D-06 0.000000000000D+00  6 2 21 25 24 1 21 4 0.60125833D-01 0.56032592D-01 0.11779443D+06 0.11779443D+06 0.11779443D+06 0.11570940D+01  1  2 15  3  6  5        1 0.468693508363D-03 0.100000000000D+01
0.552207918322D-06 0.000000000000D+00 0.000000000000D+00 0.497702387595D-06 0.000000000000D+00  6 2 21 25 24 1 21 4 0.60125833D-01 0.56032592D-01 0.11781877D+06 0.11781877D+06 0.11781877D+06 0.11570859D+01  1  2 12  3  6  5        1 0.289763334882D-03 0.100000000000D+01
-.147878221281D-02 0.000000000000D+00 0.000000000000D+00 0.497709356123D-06 0.000000000000D+00  6 2 21 25 24 1 21 4 0.60125833D-01 0.56032592D-01 0.11779443D+06 0.11779443D+06 0.11779443D+06 0.11570940D+01  1  2  4  3  6  5        1 -.775998037979D+00 0.100000000000D+01
-.115984690478D-02 0.000000000000D+00 0.000000000000D+00 0.497709356123D-06 0.000000000000D+00  6 2 21 25 24 1 21 4 0.60125833D-01 0.56032592D-01 0.11779443D+06 0.11779443D+06 0.11779443D+06 0.11570940D+01  1  2  5  3  6  5        1 -.608635209884D+00 0.100000000000D+01
0.200178806130D-02 0.000000000000D+00 -.000000000000D+00 0.497709356123D-06 0.000000000000D+00  6 2 21 25 24 1 21 4 0.60125833D-01 0.56032592D-01 0.11779443D+06 0.11779443D+06 0.11779443D+06 0.11570940D+01  1  2  6  3  6  5        1 0.105044785808D+01 0.100000000000D+01
0.917433581481D-03 0.000000000000D+00 0.000000000000D+00 0.497709356123D-06 0.441666148101D-06  6 2 21 25 24 1 21 4 0.60125833D-01 0.56032592D-01 0.11781877D+06 0.11781877D+06 0.11781877D+06 0.11570859D+01  1  2 11  3  6  5        1 0.481410362442D+00 0.100000000000D+01
  </mgrwgt>
  </event>
  <event>
  5     66 0.43779995E-03 0.82937809E+02 0.75467711E-02 0.11098515E+00
        2 -1    0    0  502    0 0.00000000E+00 0.00000000E+00 0.15574357E+04 0.15574357E+04 0.32000000E+00 0.0000E+00 0.9000E+01
       21 -1    0    0  501  502 0.00000000E+00 0.00000000E+00 -.50761412E+02 0.50766953E+02 0.75000000E+00 0.0000E+00 0.9000E+01
       25  1    1    2    0    0 0.22734336E+03 0.14044447E+02 0.62373885E+03 0.67569031E+03 0.12500000E+03 0.0000E+00 0.9000E+01
       24  1    1    2    0    0 -.14467417E+03 -.73773603E+01 0.29156363E+03 0.33535296E+03 0.80419002E+02 0.0000E+00 0.9000E+01
        1  1    1    2  501    0 -.82669184E+02 -.66670862E+01 0.59137182E+03 0.59715943E+03 0.32000000E+00 0.0000E+00 0.9000E+01
#aMCatNLO 1  0  0  5  2 0.31516532D+01 0.00000000D+00  -5  6  0 0.00000000D+00 0.00000000D+00 0.00000000D+00 0.00000000D+00 0.00000000D+00
  <mgrwgt>
 0.4913365887D-01    6    2    0
 0.281179867992080D+03 0.000000000000000D+00 0.000000000000000D+00 0.281179867992080D+03
 0.281179867992080D+03 -.000000000000000D+00 -.000000000000000D+00 -.281179867992080D+03
 0.261177596830149D+03 0.227343486922288D+03 0.140444569558871D+02 -.265787371558897D+02
 0.177864951988675D+03 -.144674085369306D+03 -.737735322915082D+01 -.646815960954154D+02
 0.123317187165336D+03 -.826694015529818D+02 -.666710372673623D+01 0.912603332513050D+02
 0.000000000000000D+00 0.000000000000000D+00 0.000000000000000D+00 0.000000000000000D+00
 0.281179867992080D+03 0.000000000000000D+00 0.000000000000000D+00 0.281179867992080D+03
 0.281179867992080D+03 -.000000000000000D+00 -.000000000000000D+00 -.281179867992080D+03
 0.259746228417735D+03 0.225888295706201D+03 0.139270990145251D+02 -.249723237450062D+02
 0.178283821692333D+03 -.145668980480571D+03 -.745758931141852D+01 -.635833123568311D+02
 0.120943035819948D+03 -.820769542718553D+02 -.929311432326425D+01 0.883415503428351D+02
 0.338665005414534D+01 0.185763904622487D+01 0.282360462015768D+01 0.214085759002215D+00
0.183284525487D-04 0.000000000000D+00 0.000000000000D+00 0.455745148540D-07 0.000000000000D+00  6 2 21 25 24 1 21 2 0.23960592D+00 0.78098768D-02 0.64629498D+05 0.64629498D+05 0.64629498D+05 0.11813984D+01  1  2  2  3  6  5        1 0.515303466262D-01 0.100000000000D+01
-.190455599209D-05 0.967219013835D-06 -.369998650345D-07 0.455745148540D-07 0.000000000000D+00  6 2 21 25 24 1 21 4 0.23960592D+00 0.78098768D-02 0.64629498D+05 0.64629498D+05 0.64629498D+05 0.11813984D+01  1  2  3  3  6  5        1 -.747349512086D-02 0.100000000000D+01
0.179740976721D-05 0.000000000000D+00 0.000000000000D+00 0.455745148540D-07 0.000000000000D+00  6 2 21 25 24 1 21 4 0.23960592D+00 0.78098768D-02 0.64629498D+05 0.64629498D+05 0.64629498D+05 0.11813984D+01  1  2 15  3  6  5        1 0.705305235508D-02 0.100000000000D+01
0.740128904334D-07 0.000000000000D+00 0.000000000000D+00 0.455411557524D-07 0.000000000000D+00  6 2 21 25 24 1 21 4 0.23960592D+00 0.78098768D-02 0.65301820D+05 0.65301820D+05 0.65301820D+05 0.11809659D+01  1  2 12  3  6  5        1 0.289910808035D-03 0.100000000000D+01
-.220675421931D-03 0.000000000000D+00 0.000000000000D+00 0.455745148540D-07 0.000000000000D+00  6 2 21 25 24 1 21 4 0.23960592D+00 0.78098768D-02 0.64629498D+05 0.64629498D+05 0.64629498D+05 0.11813984D+01  1  2  4  3  6  5        1 -.865932372660D+00 0.100000000000D+01
0.220489996607D-03 0.000000000000D+00 0.000000000000D+00 0.455745148540D-07 0.530263776623D-07  6 2 21 25 24 1 21 4 0.23960592D+00 0.78098768D-02 0.65301820D+05 0.65301820D+05 0.65301820D+05 0.11809659D+01  1  2 11  3  6  5        1 0.863666216866D+00 0.100000000000D+01
  </mgrwgt>
  </event>
  <event>
  5     66 0.43779995E-03 0.43604860E+02 0.75467711E-02 0.11385106E+00
        2 -1    0    0  502    0 0.00000000E+00 0.00000000E+00 0.22412175E+04 0.22412176E+04 0.32000000E+00 0.0000E+00 0.9000E+01
       21 -1    0    0  501  502 0.00000000E+00 0.00000000E+00 -.83393738E+01 0.83730315E+01 0.75000000E+00 0.0000E+00 0.9000E+01
       25  1    1    2    0    0 -.28459376E+02 -.58207044E+01 0.74057061E+03 0.75160738E+03 0.12500000E+03 0.0000E+00 0.9000E+01
       24  1    1    2    0    0 -.12133593E+02 -.10102341E+02 0.76698096E+03 0.77134706E+03 0.80419002E+02 0.0000E+00 0.9000E+01
        1  1    1    2  501    0 0.40592969E+02 0.15923045E+02 0.72532659E+03 0.72663615E+03 0.32000000E+00 0.0000E+00 0.9000E+01
#aMCatNLO 1  0  0  1  1 0.14399621D+03 0.00000000D+00  -5  6  0 0.00000000D+00 0.00000000D+00 0.00000000D+00 0.00000000D+00 0.00000000D+00
  <mgrwgt>
 0.2016723194D+00    6    2    0
 0.136851139040899D+03 0.000000000000000D+00 0.000000000000000D+00 0.136851139040899D+03
 0.136851139040899D+03 0.000000000000000D+00 0.000000000000000D+00 -.136851139040899D+03
 0.135932301775695D+03 -.284597165105884D+02 -.582083803845592D+01 -.448191147470091D+02
 0.827178399935152D+02 -.121338002736000D+02 -.101024220380260D+02 0.112132537074770D+02
 0.550521363125883D+02 0.405935167841883D+02 0.159232600764819D+02 0.336058610395322D+02
 0.000000000000000D+00 0.000000000000000D+00 0.000000000000000D+00 0.000000000000000D+00
 0.231396062647361D+03 0.000000000000000D+00 0.000000000000000D+00 0.231396062647361D+03
 0.222165557930410D+03 0.000000000000000D+00 0.000000000000000D+00 -.222165557930410D+03
 0.168143839511339D+03 -.938892611453227D+02 -.427013390948669D+02 -.448191147470091D+02
 0.101637890132756D+03 -.518025208181022D+02 -.324623864564751D+02 0.112132537074770D+02
 0.394881311011722D+02 0.202508268896552D+02 0.445674903267300D+01 0.336058610395322D+02
 0.144291759832503D+03 0.125440955073770D+03 0.707069765186689D+02 0.923050471695152D+01
0.275819654547D-05 0.000000000000D+00 0.000000000000D+00 0.325239364132D-06 0.000000000000D+00  6 2 21 25 24 1 21 2 0.34480529D+00 0.12855714D-02 0.16115047D+05 0.16115047D+05 0.16115047D+05 0.12442881D+01  1  2  2  1  6  1        2 0.778069538928D-01 0.100000000000D+01
-.248186327930D-06 0.145554030576D-06 -.556800415366D-08 0.325239364132D-06 0.000000000000D+00  6 2 21 25 24 1 21 4 0.34480529D+00 0.12855714D-02 0.16115047D+05 0.16115047D+05 0.16115047D+05 0.12442881D+01  1  2  3  1  6  1        2 -.108395916768D-01 0.100000000000D+01
0.339862921487D-06 0.000000000000D+00 0.000000000000D+00 0.325239364132D-06 0.000000000000D+00  6 2 21 25 24 1 21 4 0.34480529D+00 0.12855714D-02 0.16115047D+05 0.16115047D+05 0.16115047D+05 0.12442881D+01  1  2 15  1  6  1        2 0.148435867750D-01 0.100000000000D+01
-.175355663627D-05 0.000000000000D+00 -.205237883371D-05 0.325239364132D-06 0.000000000000D+00  6 2 21 25 24 1 21 4 0.65955143D+00 0.12855714D-02 0.16115047D+05 0.16115047D+05 0.16115047D+05 0.12442881D+01  1  2  5  1  6  1        2 -.393163730731D-02 0.100000000000D+01
0.283440885874D-05 0.000000000000D+00 0.168530963472D-05 0.325239364132D-06 0.000000000000D+00  6 2 21 25 24 1 21 4 0.34480529D+00 0.12855714D-02 0.16115047D+05 0.16115047D+05 0.16115047D+05 0.12442881D+01  1  2  6  1  6  1        2 0.123793421378D+00 0.100000000000D+01
-.540492194609D-08 0.000000000000D+00 -.144523544917D-06 0.325239364132D-06 0.000000000000D+00  6 21 21 25 24 1 -2 4 0.65955143D+00 0.12855714D-02 0.16115047D+05 0.16115047D+05 0.16115047D+05 0.12442881D+01  1  2  5  4  6  1        2 -.413627424341D-06 0.100000000000D+01
  </mgrwgt>
  </event>
  <event>
  6     66 -.43779995E-03 0.72272614E+02 0.75467711E-02 0.11209092E+00
        2 -1    0    0  503    0 0.00000000E+00 0.00000000E+00 0.22191419E+04 0.22191419E+04 0.32000000E+00 0.0000E+00 0.9000E+01
       21 -1    0    0  501  502 0.00000000E+00 0.00000000E+00 -.28677961E+02 0.28687767E+02 0.75000000E+00 0.0000E+00 0.9000E+01
       25  1    1    2    0    0 -.91333756E+02 0.13137454E+03 0.67765686E+03 0.70742133E+03 0.12500000E+03 0.0000E+00 0.9000E+01
       24  1    1    2    0    0 0.24210492E+02 -.15069067E+03 0.10052841E+04 0.10199790E+04 0.80419002E+02 0.0000E+00 0.9000E+01
        1  1    1    2  501    0 0.81610634E+02 0.66811262E+01 0.27037912E+03 0.28250647E+03 0.32000000E+00 0.0000E+00 0.9000E+01
       21  1    1    2  503  502 -.14487370E+02 0.12635004E+02 0.23714378E+03 0.23792280E+03 0.75000000E+00 0.0000E+00 0.9000E+01
#aMCatNLO 2  0  0  1  2 0.19223091D+02 0.00000000D+00  -5  6  0 0.00000000D+00 0.00000000D+00 0.00000000D+00 0.00000000D+00 0.00000000D+00
  <mgrwgt>
 -.2556580173D-01    2    2    0
 0.236588515596186D+03 0.000000000000000D+00 0.000000000000000D+00 0.236588515596186D+03
 0.236588515596186D+03 0.000000000000000D+00 0.000000000000000D+00 -.236588515596186D+03
 0.213774857894524D+03 -.977774350188116D+02 0.136994058624086D+03 -.417958247994504D+02
 0.177875080568691D+03 0.186958535614030D+02 -.145881366900386D+03 0.595098326651440D+02
 0.815270927291572D+02 0.790815814574086D+02 0.888730827629962D+01 -.177140078656936D+02
 0.000000000000000D+00 -.000000000000000D+00 0.000000000000000D+00 0.000000000000000D+00
 0.265161749005546D+03 0.000000000000000D+00 0.000000000000000D+00 0.265161749005546D+03
 0.240039065948588D+03 0.000000000000000D+00 0.000000000000000D+00 -.240039065948588D+03
 0.207299439639351D+03 -.913340281899882D+02 0.131374510460413D+03 -.417958247994504D+02
 0.182489616760556D+03 0.242102636435129D+02 -.150690700514405D+03 0.595098326651440D+02
 0.837782884170339D+02 0.816111346216764D+02 0.668118561218561D+01 -.177140078656936D+02
 0.316334701371928D+02 -.144873700752011D+02 0.126350044418064D+02 0.251226830569581D+02
-.327912365076D-04 0.000000000000D+00 0.000000000000D+00 0.106984889436D-06 0.000000000000D+00  6 2 21 25 24 1 21 4 0.34345240D+00 0.43492373D-02 0.56802002D+05 0.56802002D+05 0.56802002D+05 0.11868345D+01  1  2 13  1  6  1        2 -.158963340034D+00 0.100000000000D+01
0.277442998796D-04 0.000000000000D+00 0.000000000000D+00 0.107637996753D-06 0.232777946406D-08  6 2 21 25 24 1 21 4 0.34140094D+00 0.44126692D-02 0.56802002D+05 0.56802002D+05 0.56802002D+05 0.11868345D+01  1  2  1  1  6  1        2 0.133397538306D+00 0.100000000000D+01
  </mgrwgt>
  </event>
  <event>
  5     66 0.43779995E-03 0.25225981E+02 0.75467711E-02 0.11109815E+00
        2 -1    0    0  502    0 0.00000000E+00 0.00000000E+00 0.74616574E+03 0.74616581E+03 0.32000000E+00 0.0000E+00 0.9000E+01
       21 -1    0    0  501  502 0.00000000E+00 0.00000000E+00 -.25134394E+02 0.25145581E+02 0.75000000E+00 0.0000E+00 0.9000E+01
       25  1    1    2    0    0 0.32816850E+02 0.38704549E+02 0.47340147E+03 0.49224886E+03 0.12500000E+03 0.0000E+00 0.9000E+01
       24  1    1    2    0    0 -.17568996E+02 -.58799146E+02 0.21670593E+03 0.23915410E+03 0.80419002E+02 0.0000E+00 0.9000E+01
        1  1    1    2  501    0 -.15247854E+02 0.20094597E+02 0.30923956E+02 0.39908437E+02 0.32000000E+00 0.0000E+00 0.9000E+01
#aMCatNLO 1  0  0  1  2 0.18818380D+03 0.00000000D+00  -5  6  0 0.00000000D+00 0.00000000D+00 0.00000000D+00 0.00000000D+00 0.00000000D+00
  <mgrwgt>
 0.3551299282D-01    5    2    0
 0.136962640126440D+03 0.000000000000000D+00 0.000000000000000D+00 0.136962640126440D+03
 0.136962640126440D+03 0.000000000000000D+00 0.000000000000000D+00 -.136962640126440D+03
 0.139964715530800D+03 0.328172654319444D+02 0.387040010268583D+02 0.372847017917530D+02
 0.102986281628550D+03 -.175686896387697D+02 -.587995490911983D+02 -.193109404316008D+02
 0.309742830935293D+02 -.152485757931747D+02 0.200955480643400D+02 -.179737613601522D+02
 0.000000000000000D+00 0.000000000000000D+00 0.000000000000000D+00 0.000000000000000D+00
 0.534588607653007D+03 0.000000000000000D+00 0.000000000000000D+00 0.534588607653007D+03
 0.190199163821973D+03 0.000000000000000D+00 0.000000000000000D+00 -.190199163821973D+03
 0.138259251444456D+03 0.102781100451576D+02 -.446635430321096D+02 0.372847017917530D+02
 0.167091891226126D+03 -.394479474565996D+02 -.139726272333665D+03 -.193109404316008D+02
 0.269863378850391D+02 -.199440139926696D+02 0.272812039213778D+01 -.179737613601522D+02
 0.392450290919358D+03 0.491138514041116D+02 0.181661694973637D+03 0.344389443831034D+03
0.988213716329D-06 0.000000000000D+00 0.000000000000D+00 0.107144107361D-05 0.000000000000D+00  6 2 21 25 24 1 21 2 0.11479560D+00 0.38676957D-02 0.17068487D+05 0.17068487D+05 0.17068487D+05 0.12414769D+01  1  2  2  1  6  1        2 0.305790259186D-01 0.100000000000D+01
0.527908977428D-07 0.521494705365D-07 -.199491877628D-08 0.107144107361D-05 0.000000000000D+00  6 2 21 25 24 1 21 4 0.11479560D+00 0.38676957D-02 0.17068487D+05 0.17068487D+05 0.17068487D+05 0.12414769D+01  1  2  3  1  6  1        2 0.251772980885D-02 0.100000000000D+01
0.103920045608D-06 0.000000000000D+00 0.000000000000D+00 0.107144107361D-05 0.000000000000D+00  6 2 21 25 24 1 21 4 0.11479560D+00 0.38676957D-02 0.17068487D+05 0.17068487D+05 0.17068487D+05 0.12414769D+01  1  2 15  1  6  1        2 0.495620661423D-02 0.100000000000D+01
-.111514677852D-05 0.000000000000D+00 -.114103969862D-05 0.107144107361D-05 0.000000000000D+00  6 2 21 25 24 1 21 4 0.48739159D+00 0.38676957D-02 0.17068487D+05 0.17068487D+05 0.17068487D+05 0.12414769D+01  1  2  5  1  6  1        2 -.249054051799D-02 0.100000000000D+01
-.192011807827D-06 0.000000000000D+00 -.198311765550D-06 0.107144107361D-05 0.000000000000D+00  6 21 21 25 24 1 -2 4 0.48739159D+00 0.38676957D-02 0.17068487D+05 0.17068487D+05 0.17068487D+05 0.12414769D+01  1  2  5  4  6  1        2 -.494289994732D-04 0.100000000000D+01
  </mgrwgt>
  </event>
  <event>
  5     66 0.43779995E-03 0.58228539E+03 0.75467711E-02 0.99119543E-01
        2 -1    0    0  502    0 0.00000000E+00 0.00000000E+00 0.28204906E+04 0.28204906E+04 0.32000000E+00 0.0000E+00 0.9000E+01
       21 -1    0    0  501  502 0.00000000E+00 0.00000000E+00 -.45384882E+03 0.45384944E+03 0.75000000E+00 0.0000E+00 0.9000E+01
       25  1    1    2    0    0 0.34633283E+03 0.22119990E+03 -.56711432E+02 0.43326321E+03 0.12500000E+03 0.0000E+00 0.9000E+01
       24  1    1    2    0    0 0.17670800E+03 0.34699611E+02 -.12070743E+03 0.23122993E+03 0.80419002E+02 0.0000E+00 0.9000E+01
        1  1    1    2  501    0 -.52304083E+03 -.25589951E+03 0.25440606E+04 0.26098469E+04 0.32000000E+00 0.0000E+00 0.9000E+01
#aMCatNLO 1  0  0  5  1 0.26575636D+03 0.00000000D+00  -5  6  0 0.00000000D+00 0.00000000D+00 0.00000000D+00 0.00000000D+00 0.00000000D+00
  <mgrwgt>
 0.3236277820D-02    3    2    0
 0.113140503962111D+04 0.000000000000000D+00 0.000000000000000D+00 0.113140503962111D+04
 0.113140503962111D+04 -.000000000000000D+00 -.000000000000000D+00 -.113140503962111D+04
 0.686255889599101D+03 0.346332832081379D+03 0.221199906263916D+03 -.535206798257253D+03
 0.460841455632339D+03 0.176708004365399D+03 0.346996129295055D+02 -.416506721831357D+03
 0.111571273401079D+04 -.523040836446778D+03 -.255899519193421D+03 0.951713520088610D+03
 0.000000000000000D+00 0.000000000000000D+00 0.000000000000000D+00 0.000000000000000D+00
 0.113140503962111D+04 0.000000000000000D+00 0.000000000000000D+00 0.113140503962111D+04
 0.113140503962111D+04 -.000000000000000D+00 -.000000000000000D+00 -.113140503962111D+04
 0.585805327136953D+03 0.297862986596867D+03 0.197485868486049D+03 -.447012141072184D+03
 0.393973993072399D+03 0.144136637381345D+03 0.187639601661098D+02 -.357240583957538D+03
 0.268253696208641D+03 -.205681868615590D+03 0.119896743811465D+03 -.123611428580875D+03
 0.101477706282423D+04 -.236317755362622D+03 -.336146572463623D+03 0.927864153610597D+03
0.494707741509D-03 0.000000000000D+00 0.000000000000D+00 0.903073728419D-07 0.000000000000D+00  6 2 21 25 24 1 21 2 0.43392167D+00 0.69822945D-01 0.36544698D+06 0.36544698D+06 0.36544698D+06 0.11151577D+01  1  2  2  3  6  5        1 0.313194077360D-02 0.100000000000D+01
-.446316795042D-04 0.261064447535D-04 -.998672398488D-06 0.903073728419D-07 0.000000000000D+00  6 2 21 25 24 1 21 4 0.43392167D+00 0.69822945D-01 0.36544698D+06 0.36544698D+06 0.36544698D+06 0.11151577D+01  1  2  3  3  6  5        1 -.351382885109D-03 0.100000000000D+01
0.578842817235D-04 0.000000000000D+00 0.000000000000D+00 0.903073728419D-07 0.000000000000D+00  6 2 21 25 24 1 21 4 0.43392167D+00 0.69822945D-01 0.36544698D+06 0.36544698D+06 0.36544698D+06 0.11151577D+01  1  2 15  3  6  5        1 0.455719931233D-03 0.100000000000D+01
  </mgrwgt>
  </event>
  <event>
  5     66 0.43779995E-03 0.28960631E+03 0.75467711E-02 0.10287312E+00
        4 -1    0    0  502    0 0.00000000E+00 0.00000000E+00 0.47347120E+03 0.47347374E+03 0.15500000E+01 0.0000E+00 0.9000E+01
       21 -1    0    0  501  502 0.00000000E+00 0.00000000E+00 -.42242849E+03 0.42242916E+03 0.75000000E+00 0.0000E+00 0.9000E+01
       25  1    1    2    0    0 -.31197184E+03 0.38641418E+02 0.46662426E+01 0.33832878E+03 0.12500000E+03 0.0000E+00 0.9000E+01
       24  1    1    2    0    0 -.96869503E+02 -.67431190E+02 -.13127070E+02 0.14342316E+03 0.80419002E+02 0.0000E+00 0.9000E+01
        3  1    1    2  501    0 0.40884135E+03 0.28789772E+02 0.59503543E+02 0.41415096E+03 0.50000000E+00 0.0000E+00 0.9000E+01
#aMCatNLO 1  0  0  2  1 0.22871767D+01 0.00000000D+00  -5  6  0 0.00000000D+00 0.00000000D+00 0.00000000D+00 0.00000000D+00 0.00000000D+00
  <mgrwgt>
 0.5444051538D-02   39    2    0
 0.447223837569236D+03 0.000000000000000D+00 0.000000000000000D+00 0.447223837569236D+03
 0.447223837569236D+03 0.000000000000000D+00 0.000000000000000D+00 -.447223837569236D+03
 0.338613044797675D+03 -.311971956793422D+03 0.386414102007756D+02 -.146333078738505D+02
 0.144405646148485D+03 -.968695515404252D+02 -.674311939178572D+02 -.213330437668931D+02
 0.411428984192312D+03 0.408841508333848D+03 0.287897837170817D+02 0.359663516407436D+02
 0.000000000000000D+00 -.000000000000000D+00 0.000000000000000D+00 -.000000000000000D+00
 0.448179129972249D+03 0.000000000000000D+00 0.000000000000000D+00 0.448179129972249D+03
 0.448596397247249D+03 0.000000000000000D+00 0.000000000000000D+00 -.448596397247249D+03
 0.338308221097227D+03 -.311743445556271D+03 0.378066517340984D+02 -.146333078738505D+02
 0.144507025222021D+03 -.967720220413687D+02 -.677874721302694D+02 -.213330437668931D+02
 0.411635353064575D+03 0.409119353719179D+03 0.277748061136865D+02 0.359663516407436D+02
 0.232492783567554D+01 -.603886121538793D+00 0.220601428248455D+01 -.417267275000007D+00
0.296653190758D-04 0.000000000000D+00 0.000000000000D+00 0.118669782381D-06 0.000000000000D+00  6 4 21 25 24 3 21 2 0.72841970D-01 0.64989245D-01 0.19845769D+06 0.19845769D+06 0.19845769D+06 0.11371790D+01  1  2  2  2  6  2       21 0.590956175406D-03 0.100000000000D+01
-.331486448639D-05 0.156548189682D-05 -.598857322568D-07 0.118669782381D-06 0.000000000000D+00  6 4 21 25 24 3 21 4 0.72841970D-01 0.64989245D-01 0.19845769D+06 0.19845769D+06 0.19845769D+06 0.11371790D+01  1  2  3  2  6  2       21 -.853944554901D-04 0.100000000000D+01
0.326462883494D-05 0.000000000000D+00 0.000000000000D+00 0.118669782381D-06 0.000000000000D+00  6 4 21 25 24 3 21 4 0.72841970D-01 0.64989245D-01 0.19845769D+06 0.19845769D+06 0.19845769D+06 0.11371790D+01  1  2 15  2  6  2       21 0.841003313656D-04 0.100000000000D+01
-.125038699175D-02 0.000000000000D+00 0.000000000000D+00 0.118669782381D-06 0.000000000000D+00  6 4 21 25 24 3 21 4 0.72841970D-01 0.64989245D-01 0.19845769D+06 0.19845769D+06 0.19845769D+06 0.11371790D+01  1  2  4  2  6  2       21 -.322113066011D-01 0.100000000000D+01
-.200621315042D-01 0.000000000000D+00 -.179790216998D-02 0.118669782381D-06 0.000000000000D+00  6 4 21 25 24 3 21 4 0.72841970D-01 0.65307761D-01 0.19845769D+06 0.19845769D+06 0.19845769D+06 0.11371790D+01  1  2  5  2  6  2       21 -.511236318616D+00 0.100000000000D+01
0.200699487849D-01 0.000000000000D+00 0.179781622170D-02 0.118669782381D-06 0.000000000000D+00  6 4 21 25 24 3 21 4 0.72841970D-01 0.64989245D-01 0.19845769D+06 0.19845769D+06 0.19845769D+06 0.11371790D+01  1  2  6  2  6  2       21 0.517023352006D+00 0.100000000000D+01
0.124966568023D-02 0.000000000000D+00 0.000000000000D+00 0.118669782381D-06 0.263104824797D-06  6 4 21 25 24 3 21 4 0.72997564D-01 0.65188701D-01 0.19947994D+06 0.19947994D+06 0.19947994D+06 0.11369880D+01  1  2 11  2  6  2       21 0.317970141841D-01 0.100000000000D+01
0.364859295132D-08 0.000000000000D+00 0.000000000000D+00 0.118629936405D-06 0.000000000000D+00  6 4 -3 25 24 3 -3 4 0.72841970D-01 0.65257931D-01 0.19947994D+06 0.19947994D+06 0.19947994D+06 0.11369880D+01  1  2 12  5  6  2       21 0.532249502187D-08 0.100000000000D+01
0.364864104224D-08 0.000000000000D+00 0.000000000000D+00 0.118629936405D-06 0.000000000000D+00  6 4 -3 25 24 3 -3 4 0.72841970D-01 0.65327173D-01 0.19947994D+06 0.19947994D+06 0.19947994D+06 0.11369880D+01  1  2 12  5  6  2       21 0.531050045944D-08 0.100000000000D+01
-.200141365479D-04 0.000000000000D+00 -.196768887347D-05 0.118669782381D-06 0.000000000000D+00  6 4 -3 25 24 3 -3 4 0.72841970D-01 0.65307761D-01 0.19845769D+06 0.19845769D+06 0.19845769D+06 0.11371790D+01  1  2  5  5  6  2       21 -.291655519047D-04 0.100000000000D+01
0.319290970446D-05 0.000000000000D+00 0.000000000000D+00 0.118669782381D-06 0.495948613087D-09  6 4 -3 25 24 3 -3 4 0.72997564D-01 0.65188701D-01 0.19947994D+06 0.19947994D+06 0.19947994D+06 0.11369880D+01  1  2 11  5  6  2       21 0.464622209527D-05 0.100000000000D+01
0.364859295132D-08 0.000000000000D+00 0.000000000000D+00 0.118629936405D-06 0.000000000000D+00  6 4 3 25 24 3 3 4 0.72841970D-01 0.65257931D-01 0.19947994D+06 0.19947994D+06 0.19947994D+06 0.11369880D+01  1  2 12  6  6  2       21 0.532706324195D-08 0.100000000000D+01
0.364864104224D-08 0.000000000000D+00 0.000000000000D+00 0.118629936405D-06 0.000000000000D+00  6 4 3 25 24 3 3 4 0.72841970D-01 0.65327173D-01 0.19947994D+06 0.19947994D+06 0.19947994D+06 0.11369880D+01  1  2 12  6  6  2       21 0.531506896584D-08 0.100000000000D+01
-.200141365479D-04 0.000000000000D+00 -.196768887347D-05 0.118669782381D-06 0.000000000000D+00  6 4 3 25 24 3 3 4 0.72841970D-01 0.65307761D-01 0.19845769D+06 0.19845769D+06 0.19845769D+06 0.11371790D+01  1  2  5  6  6  2       21 -.291906236838D-04 0.100000000000D+01
0.257026125831D-05 0.000000000000D+00 0.000000000000D+00 0.118669782381D-06 0.122091047840D-09  6 4 3 25 24 3 3 4 0.72997564D-01 0.65188701D-01 0.19947994D+06 0.19947994D+06 0.19947994D+06 0.11369880D+01  1  2 11  6  6  2       21 0.374336628014D-05 0.100000000000D+01
0.364859295132D-08 0.000000000000D+00 0.000000000000D+00 0.118629936405D-06 0.000000000000D+00  6 4 -4 25 24 3 -4 4 0.72841970D-01 0.65257931D-01 0.19947994D+06 0.19947994D+06 0.19947994D+06 0.11369880D+01  1  2 12  7  6  2       21 0.441640095358D-08 0.100000000000D+01
0.364864104224D-08 0.000000000000D+00 0.000000000000D+00 0.118629936405D-06 0.000000000000D+00  6 4 -4 25 24 3 -4 4 0.72841970D-01 0.65327173D-01 0.19947994D+06 0.19947994D+06 0.19947994D+06 0.11369880D+01  1  2 12  7  6  2       21 0.440625432957D-08 0.100000000000D+01
-.200141365479D-04 0.000000000000D+00 -.196768887347D-05 0.118669782381D-06 0.000000000000D+00  6 4 -4 25 24 3 -4 4 0.72841970D-01 0.65307761D-01 0.19845769D+06 0.19845769D+06 0.19845769D+06 0.11371790D+01  1  2  5  7  6  2       21 -.241987762293D-04 0.100000000000D+01
0.254580094668D-05 0.000000000000D+00 0.000000000000D+00 0.118669782381D-06 0.241791021751D-09  6 4 -4 25 24 3 -4 4 0.72997564D-01 0.65188701D-01 0.19947994D+06 0.19947994D+06 0.19947994D+06 0.11369880D+01  1  2 11  7  6  2       21 0.307404443148D-05 0.100000000000D+01
0.364859295132D-08 0.000000000000D+00 0.000000000000D+00 0.118629936405D-06 0.000000000000D+00  6 4 4 25 24 3 4 4 0.72841970D-01 0.65257931D-01 0.19947994D+06 0.19947994D+06 0.19947994D+06 0.11369880D+01  1  2 12  8  6  2       21 0.441640095358D-08 0.100000000000D+01
0.364864104224D-08 0.000000000000D+00 0.000000000000D+00 0.118629936405D-06 0.000000000000D+00  6 4 4 25 24 3 4 4 0.72841970D-01 0.65327173D-01 0.19947994D+06 0.19947994D+06 0.19947994D+06 0.11369880D+01  1  2 12  8  6  2       21 0.440625432957D-08 0.100000000000D+01
-.200141365479D-04 0.000000000000D+00 -.196768887347D-05 0.118669782381D-06 0.000000000000D+00  6 4 4 25 24 3 4 4 0.72841970D-01 0.65307761D-01 0.19845769D+06 0.19845769D+06 0.19845769D+06 0.11371790D+01  1  2  5  8  6  2       21 -.241987762293D-04 0.100000000000D+01
0.295372084586D-05 0.000000000000D+00 0.000000000000D+00 0.118669782381D-06 0.443536760684D-09  6 4 4 25 24 3 4 4 0.72997564D-01 0.65188701D-01 0.19947994D+06 0.19947994D+06 0.19947994D+06 0.11369880D+01  1  2 11  8  6  2       21 0.356660607349D-05 0.100000000000D+01
0.364859295132D-08 0.000000000000D+00 0.000000000000D+00 0.118629936405D-06 0.000000000000D+00  6 4 -1 25 24 3 -1 4 0.72841970D-01 0.65257931D-01 0.19947994D+06 0.19947994D+06 0.19947994D+06 0.11369880D+01  1  2 12  9  6  2       21 0.103481036199D-07 0.100000000000D+01
0.364859295132D-08 0.000000000000D+00 0.000000000000D+00 0.118629936405D-06 0.000000000000D+00  6 4 -2 25 24 3 -2 4 0.72841970D-01 0.65257931D-01 0.19947994D+06 0.19947994D+06 0.19947994D+06 0.11369880D+01  1  2 12  9  6  2       21 0.819874145780D-08 0.100000000000D+01
0.364864104224D-08 0.000000000000D+00 0.000000000000D+00 0.118629936405D-06 0.000000000000D+00  6 4 -1 25 24 3 -1 4 0.72841970D-01 0.65327173D-01 0.19947994D+06 0.19947994D+06 0.19947994D+06 0.11369880D+01  1  2 12  9  6  2       21 0.103264160826D-07 0.100000000000D+01
0.364864104224D-08 0.000000000000D+00 0.000000000000D+00 0.118629936405D-06 0.000000000000D+00  6 4 -2 25 24 3 -2 4 0.72841970D-01 0.65327173D-01 0.19947994D+06 0.19947994D+06 0.19947994D+06 0.11369880D+01  1  2 12  9  6  2       21 0.818031880683D-08 0.100000000000D+01
-.200141365479D-04 0.000000000000D+00 -.196768887347D-05 0.118669782381D-06 0.000000000000D+00  6 4 -1 25 24 3 -1 4 0.72841970D-01 0.65307761D-01 0.19845769D+06 0.19845769D+06 0.19845769D+06 0.11371790D+01  1  2  5  9  6  2       21 -.567159035714D-04 0.100000000000D+01
-.200141365479D-04 0.000000000000D+00 -.196768887347D-05 0.118669782381D-06 0.000000000000D+00  6 4 -2 25 24 3 -2 4 0.72841970D-01 0.65307761D-01 0.19845769D+06 0.19845769D+06 0.19845769D+06 0.11371790D+01  1  2  5  9  6  2       21 -.449300352839D-04 0.100000000000D+01
0.253914450749D-05 0.000000000000D+00 0.000000000000D+00 0.118669782381D-06 0.241158817086D-09  6 4 -1 25 24 3 -1 4 0.72997564D-01 0.65188701D-01 0.19947994D+06 0.19947994D+06 0.19947994D+06 0.11369880D+01  1  2 11  9  6  2       21 0.718253050945D-05 0.100000000000D+01
0.253914450749D-05 0.000000000000D+00 0.000000000000D+00 0.118669782381D-06 0.241158817086D-09  6 4 -2 25 24 3 -2 4 0.72997564D-01 0.65188701D-01 0.19947994D+06 0.19947994D+06 0.19947994D+06 0.11369880D+01  1  2 11  9  6  2       21 0.569153991204D-05 0.100000000000D+01
0.364859295132D-08 0.000000000000D+00 0.000000000000D+00 0.118629936405D-06 0.000000000000D+00  6 4 1 25 24 3 1 4 0.72841970D-01 0.65257931D-01 0.19947994D+06 0.19947994D+06 0.19947994D+06 0.11369880D+01  1  2 12 10  6  2       21 0.280006165516D-07 0.100000000000D+01
0.364859295132D-08 0.000000000000D+00 0.000000000000D+00 0.118629936405D-06 0.000000000000D+00  6 4 2 25 24 3 2 4 0.72841970D-01 0.65257931D-01 0.19947994D+06 0.19947994D+06 0.19947994D+06 0.11369880D+01  1  2 12 10  6  2       21 0.425711777817D-07 0.100000000000D+01
0.364864104224D-08 0.000000000000D+00 0.000000000000D+00 0.118629936405D-06 0.000000000000D+00  6 4 1 25 24 3 1 4 0.72841970D-01 0.65327173D-01 0.19947994D+06 0.19947994D+06 0.19947994D+06 0.11369880D+01  1  2 12 10  6  2       21 0.279618806416D-07 0.100000000000D+01
0.364864104224D-08 0.000000000000D+00 0.000000000000D+00 0.118629936405D-06 0.000000000000D+00  6 4 2 25 24 3 2 4 0.72841970D-01 0.65327173D-01 0.19947994D+06 0.19947994D+06 0.19947994D+06 0.11369880D+01  1  2 12 10  6  2       21 0.425213281487D-07 0.100000000000D+01
-.200141365479D-04 0.000000000000D+00 -.196768887347D-05 0.118669782381D-06 0.000000000000D+00  6 4 1 25 24 3 1 4 0.72841970D-01 0.65307761D-01 0.19845769D+06 0.19845769D+06 0.19845769D+06 0.11371790D+01  1  2  5 10  6  2       21 -.153542669989D-03 0.100000000000D+01
-.200141365479D-04 0.000000000000D+00 -.196768887347D-05 0.118669782381D-06 0.000000000000D+00  6 4 2 25 24 3 2 4 0.72841970D-01 0.65307761D-01 0.19845769D+06 0.19845769D+06 0.19845769D+06 0.11371790D+01  1  2  5 10  6  2       21 -.233472527129D-03 0.100000000000D+01
0.253914450749D-05 0.000000000000D+00 0.000000000000D+00 0.118669782381D-06 0.241158817086D-09  6 4 1 25 24 3 1 4 0.72997564D-01 0.65188701D-01 0.19947994D+06 0.19947994D+06 0.19947994D+06 0.11369880D+01  1  2 11 10  6  2       21 0.194211190457D-04 0.100000000000D+01
0.253914450749D-05 0.000000000000D+00 0.000000000000D+00 0.118669782381D-06 0.241158817086D-09  6 4 2 25 24 3 2 4 0.72997564D-01 0.65188701D-01 0.19947994D+06 0.19947994D+06 0.19947994D+06 0.11369880D+01  1  2 11 10  6  2       21 0.295209205599D-04 0.100000000000D+01
  </mgrwgt>
  </event>
  <event>
  5     66 0.43779995E-03 0.72515779E+02 0.75467711E-02 0.11549511E+00
        2 -1    0    0  502    0 0.00000000E+00 0.00000000E+00 0.12070978E+04 0.12070979E+04 0.32000000E+00 0.0000E+00 0.9000E+01
       21 -1    0    0  501  502 0.00000000E+00 0.00000000E+00 -.39614840E+02 0.39621939E+02 0.75000000E+00 0.0000E+00 0.9000E+01
       25  1    1    2    0    0 0.95562666E+02 0.91734960E+00 0.41523028E+03 0.44404307E+03 0.12500000E+03 0.0000E+00 0.9000E+01
       24  1    1    2    0    0 -.88301240E+02 -.73068436E+02 0.69854263E+03 0.71243605E+03 0.80419002E+02 0.0000E+00 0.9000E+01
        1  1    1    2  501    0 -.72614262E+01 0.72151086E+02 0.53710092E+02 0.90240700E+02 0.32000000E+00 0.0000E+00 0.9000E+01
#aMCatNLO 1  0  0  1  2 0.19066936D+02 0.00000000D+00  -5  6  0 0.00000000D+00 0.00000000D+00 0.00000000D+00 0.00000000D+00 0.00000000D+00
  <mgrwgt>
 0.1937989433D+00    9    2    0
 0.218685709479929D+03 0.000000000000000D+00 0.000000000000000D+00 0.218685709479929D+03
 0.218685709479929D+03 0.000000000000000D+00 0.000000000000000D+00 -.218685709479929D+03
 0.157355981384556D+03 0.955626764978994D+02 0.917247077000056D+00 -.168475394474287D+01
 0.166155234357220D+03 -.883012290935068D+02 -.730685437545213D+02 0.894663445330237D+02
 0.113860203218082D+03 -.726144740439257D+01 0.721512966775213D+02 -.877815905882808D+02
 0.000000000000000D+00 -.000000000000000D+00 0.000000000000000D+00 0.000000000000000D+00
 0.229968944976918D+03 0.000000000000000D+00 0.000000000000000D+00 0.229968944976918D+03
 0.227099522412885D+03 0.000000000000000D+00 0.000000000000000D+00 -.227099522412885D+03
 0.160213390578862D+03 0.100110066048217D+03 -.429730156521884D+01 -.168475394474287D+01
 0.166183749110903D+03 -.835423481874469D+02 -.785256121874297D+02 0.894663445330237D+02
 0.111389687636775D+03 -.403601356122723D+01 0.684526512280084D+02 -.877815905882808D+02
 0.192816400632632D+02 -.125317042995429D+02 0.143702625246401D+02 0.286942256403259D+01
0.219459278411D-05 0.000000000000D+00 0.000000000000D+00 0.328682001136D-06 0.000000000000D+00  6 2 21 25 24 1 21 2 0.18570791D+00 0.60951401D-02 0.34201815D+05 0.34201815D+05 0.34201815D+05 0.12089686D+01  1  2  2  1  6  1        2 0.155945610136D-01 0.100000000000D+01
0.102524013504D-08 0.115811842968D-06 -.443025054092D-08 0.328682001136D-06 0.000000000000D+00  6 2 21 25 24 1 21 4 0.18570791D+00 0.60951401D-02 0.34201815D+05 0.34201815D+05 0.34201815D+05 0.12089686D+01  1  2  3  1  6  1        2 0.106481673192D-04 0.100000000000D+01
0.215482847842D-06 0.000000000000D+00 0.000000000000D+00 0.328682001136D-06 0.000000000000D+00  6 2 21 25 24 1 21 4 0.18570791D+00 0.60951401D-02 0.34201815D+05 0.34201815D+05 0.34201815D+05 0.12089686D+01  1  2 15  1  6  1        2 0.223800974993D-02 0.100000000000D+01
0.155444863188D-04 0.000000000000D+00 0.000000000000D+00 0.326376829988D-06 0.000000000000D+00  6 2 21 25 24 1 21 4 0.19870207D+00 0.60951401D-02 0.37614420D+05 0.37614420D+05 0.37614420D+05 0.12047217D+01  1  2 12  1  6  1        2 0.142742197032D+00 0.100000000000D+01
-.383991411795D-05 0.000000000000D+00 0.000000000000D+00 0.328682001136D-06 0.000000000000D+00  6 2 21 25 24 1 21 4 0.18570791D+00 0.60951401D-02 0.34201815D+05 0.34201815D+05 0.34201815D+05 0.12089686D+01  1  2  4  1  6  1        2 -.398814352090D-01 0.100000000000D+01
-.591136177511D-04 0.000000000000D+00 -.110976690016D-04 0.328682001136D-06 0.000000000000D+00  6 2 21 25 24 1 21 4 0.20008672D+00 0.60951401D-02 0.34201815D+05 0.34201815D+05 0.34201815D+05 0.12089686D+01  1  2  5  1  6  1        2 -.545084839179D+00 0.100000000000D+01
0.598056411866D-04 0.000000000000D+00 0.110668802056D-04 0.328682001136D-06 0.000000000000D+00  6 2 21 25 24 1 21 4 0.18570791D+00 0.60951401D-02 0.34201815D+05 0.34201815D+05 0.34201815D+05 0.12089686D+01  1  2  6  1  6  1        2 0.621142747168D+00 0.100000000000D+01
0.184798540340D-06 0.000000000000D+00 0.000000000000D+00 0.326376829988D-06 0.000000000000D+00  6 21 21 25 24 1 -2 4 0.19870207D+00 0.60951401D-02 0.37614420D+05 0.37614420D+05 0.37614420D+05 0.12047217D+01  1  2 12  4  6  1        2 0.102171460106D-02 0.100000000000D+01
-.720597259551D-06 0.000000000000D+00 -.139232050037D-06 0.328682001136D-06 0.000000000000D+00  6 21 21 25 24 1 -2 4 0.20008672D+00 0.60951401D-02 0.34201815D+05 0.34201815D+05 0.34201815D+05 0.12089686D+01  1  2  5  4  6  1        2 -.398466006991D-02 0.100000000000D+01
  </mgrwgt>
  </event>
  <event>
  5     66 -.43779995E-03 0.11138141E+03 0.75467711E-02 0.11761580E+00
        2 -1    0    0  502    0 0.00000000E+00 0.00000000E+00 0.55605233E+03 0.55605242E+03 0.32000000E+00 0.0000E+00 0.9000E+01
       21 -1    0    0  501  502 0.00000000E+00 0.00000000E+00 -.57857969E+02 0.57862830E+02 0.75000000E+00 0.0000E+00 0.9000E+01
       25  1    1    2    0    0 -.38076796E+02 -.40344969E+02 0.18563893E+03 0.23057401E+03 0.12500000E+03 0.0000E+00 0.9000E+01
       24  1    1    2    0    0 -.18568960E+02 -.55556094E+02 0.88625445E+02 0.13324028E+03 0.80419002E+02 0.0000E+00 0.9000E+01
        1  1    1    2  501    0 0.56645756E+02 0.95901062E+02 0.22392998E+03 0.25010097E+03 0.32000000E+00 0.0000E+00 0.9000E+01
#aMCatNLO 1  0  0  5  2 0.12186933D+02 0.00000000D+00  -5  6  0 0.00000000D+00 0.00000000D+00 0.00000000D+00 0.00000000D+00 0.00000000D+00
  <mgrwgt>
 -.1707695936D+00    7    2    0
 0.179369949935786D+03 0.000000000000000D+00 0.000000000000000D+00 0.179369949935786D+03
 0.179369949935786D+03 -.000000000000000D+00 -.000000000000000D+00 -.179369949935786D+03
 0.136780582340530D+03 -.380768763423334D+02 -.403451052557865D+02 -.252025302790116D+01
 0.104938339470420D+03 -.185690224469318D+02 -.555561986048458D+02 -.333697368641536D+02
 0.117020978060623D+03 0.566458987892652D+02 0.959013038606323D+02 0.358899898920547D+02
 0.000000000000000D+00 0.000000000000000D+00 0.000000000000000D+00 0.000000000000000D+00
 0.179369949935786D+03 0.000000000000000D+00 0.000000000000000D+00 0.179369949935786D+03
 0.179369949935786D+03 -.000000000000000D+00 -.000000000000000D+00 -.179369949935786D+03
 0.136003768969995D+03 -.370758416137659D+02 -.386503570439780D+02 -.188601247284281D+01
 0.103968570467861D+03 -.178023982953584D+02 -.542583066607096D+02 -.328840153266891D+02
 0.100491745091141D+03 0.504458291883199D+02 0.764452226313940D+02 0.413513855366709D+02
 0.182758153425753D+02 0.443241072080434D+01 0.164634410732936D+02 -.658135773713892D+01
0.226325079949D-05 0.000000000000D+00 0.000000000000D+00 0.241932854216D-06 0.000000000000D+00  6 2 21 25 24 1 21 2 0.85546893D-01 0.89016071D-02 0.30211664D+05 0.30211664D+05 0.30211664D+05 0.12145781D+01  1  2  2  3  6  5        1 0.230000531885D-01 0.100000000000D+01
-.245796361446D-06 0.119435025981D-06 -.456885129270D-08 0.241932854216D-06 0.000000000000D+00  6 2 21 25 24 1 21 4 0.85546893D-01 0.89016071D-02 0.30211664D+05 0.30211664D+05 0.30211664D+05 0.12145781D+01  1  2  3  3  6  5        1 -.368487258153D-02 0.100000000000D+01
0.241714076092D-06 0.000000000000D+00 0.000000000000D+00 0.241932854216D-06 0.000000000000D+00  6 2 21 25 24 1 21 4 0.85546893D-01 0.89016071D-02 0.30211664D+05 0.30211664D+05 0.30211664D+05 0.12145781D+01  1  2 15  3  6  5        1 0.362367272778D-02 0.100000000000D+01
0.742449487315D-05 0.000000000000D+00 0.000000000000D+00 0.242392690152D-06 0.000000000000D+00  6 2 21 25 24 1 21 4 0.85546893D-01 0.89016071D-02 0.29457047D+05 0.29457047D+05 0.29457047D+05 0.12157318D+01  1  2 12  3  6  5        1 0.111725480085D+00 0.100000000000D+01
-.214980129667D-04 0.000000000000D+00 0.000000000000D+00 0.241932854216D-06 0.000000000000D+00  6 2 21 25 24 1 21 4 0.85546893D-01 0.89016071D-02 0.30211664D+05 0.30211664D+05 0.30211664D+05 0.12145781D+01  1  2  4  3  6  5        1 -.322288898307D+00 0.100000000000D+01
-.668439670466D-05 0.000000000000D+00 0.000000000000D+00 0.241932854216D-06 0.000000000000D+00  6 2 21 25 24 1 21 4 0.85546893D-01 0.89016071D-02 0.30211664D+05 0.30211664D+05 0.30211664D+05 0.12145781D+01  1  2  5  3  6  5        1 -.100209579980D+00 0.100000000000D+01
0.780869354859D-05 0.000000000000D+00 -.000000000000D+00 0.241932854216D-06 0.000000000000D+00  6 2 21 25 24 1 21 4 0.85546893D-01 0.89016071D-02 0.30211664D+05 0.30211664D+05 0.30211664D+05 0.12145781D+01  1  2  6  3  6  5        1 0.117064551263D+00 0.100000000000D+01
  </mgrwgt>
  </event>
  <event>
  5     66 0.43779995E-03 0.10822046E+03 0.75467711E-02 0.10936395E+00
        2 -1    0    0  502    0 0.00000000E+00 0.00000000E+00 0.38692283E+04 0.38692284E+04 0.32000000E+00 0.0000E+00 0.9000E+01
       21 -1    0    0  501  502 0.00000000E+00 0.00000000E+00 -.13346717E+02 0.13367773E+02 0.75000000E+00 0.0000E+00 0.9000E+01
       25  1    1    2    0    0 -.69143412E+02 0.89345808E+02 0.18842518E+04 0.18917699E+04 0.12500000E+03 0.0000E+00 0.9000E+01
       24  1    1    2    0    0 0.16934789E+02 0.59496423E+02 0.11298141E+04 0.11343605E+04 0.80419002E+02 0.0000E+00 0.9000E+01
        1  1    1    2  501    0 0.52208623E+02 -.14884223E+03 0.84181570E+03 0.85646572E+03 0.32000000E+00 0.0000E+00 0.9000E+01
#aMCatNLO 1  0  0  1  2 0.12178051D+03 0.00000000D+00  -5  6  0 0.00000000D+00 0.00000000D+00 0.00000000D+00 0.00000000D+00 0.00000000D+00
  <mgrwgt>
 0.8735113049D-01    9    2    0
 0.227337632096438D+03 0.000000000000000D+00 0.000000000000000D+00 0.227337632096438D+03
 0.227337632096438D+03 0.000000000000000D+00 0.000000000000000D+00 -.227337632096438D+03
 0.174908587554461D+03 -.691434461801745D+02 0.893459042840213D+02 0.469521803359176D+02
 0.105205301740136D+03 0.169347691414720D+02 0.594964811620595D+02 0.278266398136811D+02
 0.174561374898278D+03 0.522086770387026D+02 -.148842385446081D+03 -.747788201495986D+02
 0.000000000000000D+00 -.000000000000000D+00 0.000000000000000D+00 0.000000000000000D+00
 0.327409072498766D+03 0.000000000000000D+00 0.000000000000000D+00 0.327409072498766D+03
 0.275625613249430D+03 0.000000000000000D+00 0.000000000000000D+00 -.275625613249430D+03
 0.156374596877383D+03 -.274456916698355D+02 0.766175000834134D+02 0.469521803359176D+02
 0.108599325041405D+03 0.438458025402877D+02 0.512817819635390D+02 0.278266398136811D+02
 0.205727776382451D+03 0.100074685391177D+03 -.163453673486277D+03 -.747788201495986D+02
 0.132332987446957D+03 -.116474796261629D+03 0.355543914393249D+02 0.517834592493357D+02
0.276732861184D-04 0.000000000000D+00 0.000000000000D+00 0.324058021983D-06 0.000000000000D+00  6 2 21 25 24 1 21 2 0.59526752D+00 0.20549619D-02 0.45727706D+05 0.45727706D+05 0.45727706D+05 0.11961426D+01  1  2  2  1  6  1        2 0.345462540797D-01 0.100000000000D+01
-.196098843956D-05 0.146035942958D-05 -.558643916459D-07 0.324058021983D-06 0.000000000000D+00  6 2 21 25 24 1 21 4 0.59526752D+00 0.20549619D-02 0.45727706D+05 0.45727706D+05 0.45727706D+05 0.11961426D+01  1  2  3  1  6  1        2 -.350252464462D-02 0.100000000000D+01
0.276272234871D-05 0.000000000000D+00 0.000000000000D+00 0.324058021983D-06 0.000000000000D+00  6 2 21 25 24 1 21 4 0.59526752D+00 0.20549619D-02 0.45727706D+05 0.45727706D+05 0.45727706D+05 0.11961426D+01  1  2 15  1  6  1        2 0.493450288508D-02 0.100000000000D+01
0.124433283482D-04 0.000000000000D+00 0.000000000000D+00 0.311272598779D-06 0.000000000000D+00  6 2 21 25 24 1 21 4 0.89812677D+00 0.20549619D-02 0.80533834D+05 0.80533834D+05 0.80533834D+05 0.11723088D+01  1  2 12  1  6  1        2 0.656753771705D-04 0.100000000000D+01
-.235478737460D-04 0.000000000000D+00 0.000000000000D+00 0.324058021983D-06 0.000000000000D+00  6 2 21 25 24 1 21 4 0.59526752D+00 0.20549619D-02 0.45727706D+05 0.45727706D+05 0.45727706D+05 0.11961426D+01  1  2  4  1  6  1        2 -.420588956365D-01 0.100000000000D+01
-.426558798331D-04 0.000000000000D+00 -.169776747932D-04 0.324058021983D-06 0.000000000000D+00  6 2 21 25 24 1 21 4 0.86878713D+00 0.20549619D-02 0.45727706D+05 0.45727706D+05 0.45727706D+05 0.11961426D+01  1  2  5  1  6  1        2 -.716804616537D-03 0.100000000000D+01
0.526750793213D-04 0.000000000000D+00 0.184358019144D-04 0.324058021983D-06 0.000000000000D+00  6 2 21 25 24 1 21 4 0.59526752D+00 0.20549619D-02 0.45727706D+05 0.45727706D+05 0.45727706D+05 0.11961426D+01  1  2  6  1  6  1        2 0.940830449372D-01 0.100000000000D+01
0.604572450957D-06 0.000000000000D+00 0.000000000000D+00 0.311272598779D-06 0.000000000000D+00  6 21 21 25 24 1 -2 4 0.89812677D+00 0.20549619D-02 0.80533834D+05 0.80533834D+05 0.80533834D+05 0.11723088D+01  1  2 12  4  6  1        2 0.120546443981D-07 0.100000000000D+01
-.141240665101D-05 0.000000000000D+00 -.775560970313D-06 0.324058021983D-06 0.000000000000D+00  6 21 21 25 24 1 -2 4 0.86878713D+00 0.20549619D-02 0.45727706D+05 0.45727706D+05 0.45727706D+05 0.11961426D+01  1  2  5  4  6  1        2 -.133942455654D-06 0.100000000000D+01
  </mgrwgt>
  </event>
  <event>
  5     66 0.43779995E-03 0.30110728E+02 0.75467711E-02 0.11984088E+00
        2 -1    0    0  502    0 0.00000000E+00 0.00000000E+00 0.13722870E+04 0.13722870E+04 0.32000000E+00 0.0000E+00 0.9000E+01
       21 -1    0    0  501  502 0.00000000E+00 0.00000000E+00 -.17464909E+02 0.17481005E+02 0.75000000E+00 0.0000E+00 0.9000E+01
       25  1    1    2    0    0 0.56744798E+02 0.90187976E+01 0.77804889E+03 0.79011796E+03 0.12500000E+03 0.0000E+00 0.9000E+01
       24  1    1    2    0    0 -.83666137E+02 0.44670527E+01 0.53886638E+03 0.55123876E+03 0.80419002E+02 0.0000E+00 0.9000E+01
        1  1    1    2  501    0 0.26921339E+02 -.13485850E+02 0.37906798E+02 0.48411305E+02 0.32000000E+00 0.0000E+00 0.9000E+01
#aMCatNLO 1  0  0  2  1 0.20023144D+02 0.00000000D+00  -5  6  0 0.00000000D+00 0.00000000D+00 0.00000000D+00 0.00000000D+00 0.00000000D+00
  <mgrwgt>
 0.1854026690D+00   23    2    0
 0.154848564601476D+03 0.000000000000000D+00 0.000000000000000D+00 0.154848564601476D+03
 0.154848564601476D+03 0.000000000000000D+00 0.000000000000000D+00 -.154848564601476D+03
 0.141954377149695D+03 0.567445585517370D+02 0.901891732381247D+01 0.349965626459583D+02
 0.116326502587741D+03 -.836663324124627D+02 0.446715082931905D+01 0.668046660351219D+01
 0.514162494655160D+02 0.269217738607257D+02 -.134860681531315D+02 -.416770292494705D+02
 0.000000000000000D+00 0.000000000000000D+00 -.000000000000000D+00 -.000000000000000D+00
 0.162678367364571D+03 0.000000000000000D+00 0.000000000000000D+00 0.162678367364571D+03
 0.168524514419529D+03 0.000000000000000D+00 0.000000000000000D+00 -.168524514419529D+03
 0.141191732269017D+03 0.527944388279937D+02 0.172653726554175D+02 0.349965626459583D+02
 0.119166721347772D+03 -.869516554232054D+02 0.113257453410596D+02 0.668046660351219D+01
 0.499852882550900D+02 0.255071395046670D+02 -.105328110764733D+02 -.416770292494705D+02
 0.208591399122212D+02 0.865007709054478D+01 -.180583069200038D+02 -.584614705495781D+01
0.115492130781D-05 0.000000000000D+00 0.000000000000D+00 0.117884091094D-05 0.000000000000D+00  6 2 21 25 24 1 21 2 0.21112232D+00 0.26881501D-02 0.20138176D+05 0.20138176D+05 0.20138176D+05 0.12334970D+01  1  2  2  2  6  2       21 0.273499978752D-01 0.100000000000D+01
0.783568942322D-07 0.609468718337D-07 -.233145337288D-08 0.117884091094D-05 0.000000000000D+00  6 2 21 25 24 1 21 4 0.21112232D+00 0.26881501D-02 0.20138176D+05 0.20138176D+05 0.20138176D+05 0.12334970D+01  1  2  3  2  6  2       21 0.282330831226D-02 0.100000000000D+01
0.102339524739D-06 0.000000000000D+00 0.000000000000D+00 0.117884091094D-05 0.000000000000D+00  6 2 21 25 24 1 21 4 0.21112232D+00 0.26881501D-02 0.20138176D+05 0.20138176D+05 0.20138176D+05 0.12334970D+01  1  2 15  2  6  2       21 0.368743597738D-02 0.100000000000D+01
0.233767706405D-05 0.000000000000D+00 0.000000000000D+00 0.116679317509D-05 0.000000000000D+00  6 2 21 25 24 1 21 4 0.21112232D+00 0.29887341D-02 0.23010539D+05 0.23010539D+05 0.23010539D+05 0.12271776D+01  1  2 12  2  6  2       21 0.693730697262D-01 0.100000000000D+01
-.190786834668D-06 0.000000000000D+00 0.000000000000D+00 0.117884091094D-05 0.000000000000D+00  6 2 21 25 24 1 21 4 0.21112232D+00 0.26881501D-02 0.20138176D+05 0.20138176D+05 0.20138176D+05 0.12334970D+01  1  2  4  2  6  2       21 -.687431605689D-02 0.100000000000D+01
-.131011041413D-04 0.000000000000D+00 -.294247462486D-05 0.117884091094D-05 0.000000000000D+00  6 2 21 25 24 1 21 4 0.21112232D+00 0.30844152D-02 0.20138176D+05 0.20138176D+05 0.20138176D+05 0.12334970D+01  1  2  5  2  6  2       21 -.376707886645D+00 0.100000000000D+01
0.130225975722D-04 0.000000000000D+00 0.283411060672D-05 0.117884091094D-05 0.000000000000D+00  6 2 21 25 24 1 21 4 0.21112232D+00 0.26881501D-02 0.20138176D+05 0.20138176D+05 0.20138176D+05 0.12334970D+01  1  2  6  2  6  2       21 0.469222374535D+00 0.100000000000D+01
0.637933512497D-07 0.000000000000D+00 0.000000000000D+00 0.116679317509D-05 0.000000000000D+00  6 2 -1 25 24 1 -1 4 0.21112232D+00 0.29887341D-02 0.23010539D+05 0.23010539D+05 0.23010539D+05 0.12271776D+01  1  2 12  5  6  2       21 0.982565298598D-04 0.100000000000D+01
-.395178399420D-06 0.000000000000D+00 -.108284314007D-06 0.117884091094D-05 0.000000000000D+00  6 2 -1 25 24 1 -1 4 0.21112232D+00 0.30844152D-02 0.20138176D+05 0.20138176D+05 0.20138176D+05 0.12334970D+01  1  2  5  5  6  2       21 -.592079958391D-03 0.100000000000D+01
0.637933512497D-07 0.000000000000D+00 0.000000000000D+00 0.116679317509D-05 0.000000000000D+00  6 2 1 25 24 1 1 4 0.21112232D+00 0.29887341D-02 0.23010539D+05 0.23010539D+05 0.23010539D+05 0.12271776D+01  1  2 12  6  6  2       21 0.105708023949D-03 0.100000000000D+01
-.395178399420D-06 0.000000000000D+00 -.108284314007D-06 0.117884091094D-05 0.000000000000D+00  6 2 1 25 24 1 1 4 0.21112232D+00 0.30844152D-02 0.20138176D+05 0.20138176D+05 0.20138176D+05 0.12334970D+01  1  2  5  6  6  2       21 -.638533379646D-03 0.100000000000D+01
0.637933512497D-07 0.000000000000D+00 0.000000000000D+00 0.116679317509D-05 0.000000000000D+00  6 2 -2 25 24 1 -2 4 0.21112232D+00 0.29887341D-02 0.23010539D+05 0.23010539D+05 0.23010539D+05 0.12271776D+01  1  2 12  7  6  2       21 0.969223965099D-04 0.100000000000D+01
-.395178399420D-06 0.000000000000D+00 -.108284314007D-06 0.117884091094D-05 0.000000000000D+00  6 2 -2 25 24 1 -2 4 0.21112232D+00 0.30844152D-02 0.20138176D+05 0.20138176D+05 0.20138176D+05 0.12334970D+01  1  2  5  7  6  2       21 -.583765684647D-03 0.100000000000D+01
0.637933512497D-07 0.000000000000D+00 0.000000000000D+00 0.116679317509D-05 0.000000000000D+00  6 2 2 25 24 1 2 4 0.21112232D+00 0.29887341D-02 0.23010539D+05 0.23010539D+05 0.23010539D+05 0.12271776D+01  1  2 12  8  6  2       21 0.110776032646D-03 0.100000000000D+01
-.395178399420D-06 0.000000000000D+00 -.108284314007D-06 0.117884091094D-05 0.000000000000D+00  6 2 2 25 24 1 2 4 0.21112232D+00 0.30844152D-02 0.20138176D+05 0.20138176D+05 0.20138176D+05 0.12334970D+01  1  2  5  8  6  2       21 -.670087886505D-03 0.100000000000D+01
0.637933512497D-07 0.000000000000D+00 0.000000000000D+00 0.116679317509D-05 0.000000000000D+00  6 2 -3 25 24 1 -3 4 0.21112232D+00 0.29887341D-02 0.23010539D+05 0.23010539D+05 0.23010539D+05 0.12271776D+01  1  2 12  9  6  2       21 0.736810187836D-04 0.100000000000D+01
0.637933512497D-07 0.000000000000D+00 0.000000000000D+00 0.116679317509D-05 0.000000000000D+00  6 2 -4 25 24 1 -4 4 0.21112232D+00 0.29887341D-02 0.23010539D+05 0.23010539D+05 0.23010539D+05 0.12271776D+01  1  2 12  9  6  2       21 0.665512100573D-04 0.100000000000D+01
-.395178399420D-06 0.000000000000D+00 -.108284314007D-06 0.117884091094D-05 0.000000000000D+00  6 2 -3 25 24 1 -3 4 0.21112232D+00 0.30844152D-02 0.20138176D+05 0.20138176D+05 0.20138176D+05 0.12334970D+01  1  2  5  9  6  2       21 -.441498969220D-03 0.100000000000D+01
-.395178399420D-06 0.000000000000D+00 -.108284314007D-06 0.117884091094D-05 0.000000000000D+00  6 2 -4 25 24 1 -4 4 0.21112232D+00 0.30844152D-02 0.20138176D+05 0.20138176D+05 0.20138176D+05 0.12334970D+01  1  2  5  9  6  2       21 -.398002570198D-03 0.100000000000D+01
0.637933512497D-07 0.000000000000D+00 0.000000000000D+00 0.116679317509D-05 0.000000000000D+00  6 2 3 25 24 1 3 4 0.21112232D+00 0.29887341D-02 0.23010539D+05 0.23010539D+05 0.23010539D+05 0.12271776D+01  1  2 12 10  6  2       21 0.736756388313D-04 0.100000000000D+01
0.637933512497D-07 0.000000000000D+00 0.000000000000D+00 0.116679317509D-05 0.000000000000D+00  6 2 4 25 24 1 4 4 0.21112232D+00 0.29887341D-02 0.23010539D+05 0.23010539D+05 0.23010539D+05 0.12271776D+01  1  2 12 10  6  2       21 0.665512100573D-04 0.100000000000D+01
-.395178399420D-06 0.000000000000D+00 -.108284314007D-06 0.117884091094D-05 0.000000000000D+00  6 2 3 25 24 1 3 4 0.21112232D+00 0.30844152D-02 0.20138176D+05 0.20138176D+05 0.20138176D+05 0.12334970D+01  1  2  5 10  6  2       21 -.441465744845D-03 0.100000000000D+01
-.395178399420D-06 0.000000000000D+00 -.108284314007D-06 0.117884091094D-05 0.000000000000D+00  6 2 4 25 24 1 4 4 0.21112232D+00 0.30844152D-02 0.20138176D+05 0.20138176D+05 0.20138176D+05 0.12334970D+01  1  2  5 10  6  2       21 -.398002570198D-03 0.100000000000D+01
  </mgrwgt>
  </event>
  <event>
  5     66 -.43779995E-03 0.26694094E+03 0.75467711E-02 0.10671999E+00
        2 -1    0    0  502    0 0.00000000E+00 0.00000000E+00 0.47018124E+03 0.47018135E+03 0.32000000E+00 0.0000E+00 0.9000E+01
       21 -1    0    0  501  502 0.00000000E+00 0.00000000E+00 -.27470501E+03 0.27470603E+03 0.75000000E+00 0.0000E+00 0.9000E+01
       25  1    1    2    0    0 -.11317059E+03 0.40081300E+02 0.10845187E+03 0.20445269E+03 0.12500000E+03 0.0000E+00 0.9000E+01
       24  1    1    2    0    0 0.21092300E+02 0.22007845E+03 0.11716482E+03 0.26281975E+03 0.80419002E+02 0.0000E+00 0.9000E+01
        1  1    1    2  501    0 0.92078289E+02 -.26015975E+03 -.30140464E+02 0.27761494E+03 0.32000000E+00 0.0000E+00 0.9000E+01
#aMCatNLO 1  0  0  5  2 0.29766374D+02 0.00000000D+00  -5  6  0 0.00000000D+00 0.00000000D+00 0.00000000D+00 0.00000000D+00 0.00000000D+00
  <mgrwgt>
 -.2704459270D-01    7    2    0
 0.359390542088926D+03 0.000000000000000D+00 0.000000000000000D+00 0.359390542088926D+03
 0.359390542088926D+03 -.000000000000000D+00 -.000000000000000D+00 -.359390542088926D+03
 0.182384431345827D+03 -.113170603264686D+03 0.400813391019271D+02 0.567889215414762D+02
 0.240501890158182D+03 0.210922822877132D+02 0.220078497954573D+03 0.499451056785541D+02
 0.295894762673842D+03 0.920783209769730D+02 -.260159837056501D+03 -.106734027220030D+03
 0.000000000000000D+00 0.000000000000000D+00 0.000000000000000D+00 -.000000000000000D+00
 0.359390542088926D+03 0.000000000000000D+00 0.000000000000000D+00 0.359390542088926D+03
 0.359390542088926D+03 -.000000000000000D+00 -.000000000000000D+00 -.359390542088926D+03
 0.181479367108427D+03 -.112601448341853D+03 0.384732379722240D+02 0.561291767027176D+02
 0.238453579288298D+03 0.218414633395559D+02 0.217961747580488D+03 0.490766807340973D+02
 0.208701493306833D+03 0.715807546621405D+02 -.190325008191161D+03 -.469989375149604D+02
 0.901466444742937D+02 0.191792303401564D+02 -.661099773615508D+02 -.582069199218545D+02
0.424477440278D-05 0.000000000000D+00 0.000000000000D+00 0.104836540307D-06 0.000000000000D+00  6 2 21 25 24 1 21 2 0.72335662D-01 0.42262396D-01 0.11715232D+06 0.11715232D+06 0.11715232D+06 0.11573084D+01  1  2  2  3  6  5        1 0.245585462523D-02 0.100000000000D+01
-.337429879096D-06 0.224002899367D-06 -.856897654549D-08 0.104836540307D-06 0.000000000000D+00  6 2 21 25 24 1 21 4 0.72335662D-01 0.42262396D-01 0.11715232D+06 0.11715232D+06 0.11715232D+06 0.11573084D+01  1  2  3  3  6  5        1 -.261474767045D-03 0.100000000000D+01
0.416720450712D-06 0.000000000000D+00 0.000000000000D+00 0.104836540307D-06 0.000000000000D+00  6 2 21 25 24 1 21 4 0.72335662D-01 0.42262396D-01 0.11715232D+06 0.11715232D+06 0.11715232D+06 0.11573084D+01  1  2 15  3  6  5        1 0.322917114112D-03 0.100000000000D+01
0.168808911966D-04 0.000000000000D+00 0.000000000000D+00 0.104971187450D-06 0.000000000000D+00  6 2 21 25 24 1 21 4 0.72335662D-01 0.42262396D-01 0.11495705D+06 0.11495705D+06 0.11495705D+06 0.11580514D+01  1  2 12  3  6  5        1 0.131232938016D-01 0.100000000000D+01
-.609469105534D-04 0.000000000000D+00 0.000000000000D+00 0.104836540307D-06 0.000000000000D+00  6 2 21 25 24 1 21 4 0.72335662D-01 0.42262396D-01 0.11715232D+06 0.11715232D+06 0.11715232D+06 0.11573084D+01  1  2  4  3  6  5        1 -.472278248795D-01 0.100000000000D+01
-.168376053314D-04 0.000000000000D+00 0.000000000000D+00 0.104836540307D-06 0.000000000000D+00  6 2 21 25 24 1 21 4 0.72335662D-01 0.42262396D-01 0.11715232D+06 0.11715232D+06 0.11715232D+06 0.11573084D+01  1  2  5  3  6  5        1 -.130474780224D-01 0.100000000000D+01
0.226998265946D-04 0.000000000000D+00 -.000000000000D+00 0.104836540307D-06 0.000000000000D+00  6 2 21 25 24 1 21 4 0.72335662D-01 0.42262396D-01 0.11715232D+06 0.11715232D+06 0.11715232D+06 0.11573084D+01  1  2  6  3  6  5        1 0.175901194247D-01 0.100000000000D+01
  </mgrwgt>
  </event>
  <event>
  5     66 0.43779995E-03 0.25200158E+02 0.75467711E-02 0.10793503E+00
        2 -1    0    0  502    0 0.00000000E+00 0.00000000E+00 0.96432281E+03 0.96432286E+03 0.32000000E+00 0.0000E+00 0.9000E+01
       21 -1    0    0  501  502 0.00000000E+00 0.00000000E+00 -.68399058E+02 0.68403170E+02 0.75000000E+00 0.0000E+00 0.9000E+01
       25  1    1    2    0    0 0.20970209E+02 -.68604573E+02 0.31313355E+03 0.34470851E+03 0.12500000E+03 0.0000E+00 0.9000E+01
       24  1    1    2    0    0 0.55330818E-01 0.54713086E+02 0.62841336E+03 0.63589629E+03 0.80419002E+02 0.0000E+00 0.9000E+01
        1  1    1    2  501    0 -.21025540E+02 0.13891487E+02 -.45623165E+02 0.52121227E+02 0.32000000E+00 0.0000E+00 0.9000E+01
#aMCatNLO 1  0  0  2  2 0.93780608D+02 0.00000000D+00  -5  6  0 0.00000000D+00 0.00000000D+00 0.00000000D+00 0.00000000D+00 0.00000000D+00
  <mgrwgt>
 0.1915079324D+00    3    2    0
 0.256828585901903D+03 0.000000000000000D+00 0.000000000000000D+00 0.256828585901903D+03
 0.256828585901903D+03 0.000000000000000D+00 0.000000000000000D+00 -.256828585901903D+03
 0.146879440093495D+03 0.209702180520044D+02 -.686045790389185D+02 0.283236934724776D+02
 0.182410067626658D+03 0.553420644633604D-01 0.547130788839890D+02 0.154313618172479D+03
 0.184367664083653D+03 -.210255601164677D+02 0.138915001549295D+02 -.182637311644957D+03
 0.000000000000000D+00 -.000000000000000D+00 0.000000000000000D+00 0.000000000000000D+00
 0.111088812485513D+04 0.000000000000000D+00 0.000000000000000D+00 0.111088812485513D+04
 0.308606194335243D+03 0.000000000000000D+00 0.000000000000000D+00 -.308606194335243D+03
 0.195460148998533D+03 0.830135234774054D+02 -.122008988006917D+03 0.283236934724776D+02
 0.186451698765359D+03 0.669053470338296D+02 -.282874582084261D+01 0.154313618172479D+03
 0.194050836346439D+03 0.475564425174578D+02 -.451411592334436D+02 -.182637311644957D+03
 0.843531635080044D+03 -.197475313028693D+03 0.169978893061203D+03 0.802281930519889D+03
0.301995927480D-04 0.000000000000D+00 0.000000000000D+00 0.778959806949D-05 0.000000000000D+00  6 2 21 25 24 1 21 2 0.14835768D+00 0.10523252D-01 0.17767443D+05 0.17767443D+05 0.17767443D+05 0.12395258D+01  1  2  2  2  6  2       21 0.122029404740D+00 0.100000000000D+01
0.787074098778D-05 0.159367629310D-05 -.609642768700D-07 0.778959806949D-05 0.000000000000D+00  6 2 21 25 24 1 21 4 0.14835768D+00 0.10523252D-01 0.17767443D+05 0.17767443D+05 0.17767443D+05 0.12395258D+01  1  2  3  2  6  2       21 0.488641262939D-01 0.100000000000D+01
0.332044438583D-05 0.000000000000D+00 0.000000000000D+00 0.778959806949D-05 0.000000000000D+00  6 2 21 25 24 1 21 4 0.14835768D+00 0.10523252D-01 0.17767443D+05 0.17767443D+05 0.17767443D+05 0.12395258D+01  1  2 15  2  6  2       21 0.206144013725D-01 0.100000000000D+01
  </mgrwgt>
  </event>
  <event>
  5     66 -.43779995E-03 0.27430886E+02 0.75467711E-02 0.12325909E+00
        2 -1    0    0  502    0 0.00000000E+00 0.00000000E+00 0.13417815E+03 0.13417853E+03 0.32000000E+00 0.0000E+00 0.9000E+01
       21 -1    0    0  501  502 0.00000000E+00 0.00000000E+00 -.29918910E+03 0.29919004E+03 0.75000000E+00 0.0000E+00 0.9000E+01
       25  1    1    2    0    0 -.72734938E+01 -.92754685E+00 0.81769279E+02 0.14954925E+03 0.12500000E+03 0.0000E+00 0.9000E+01
       24  1    1    2    0    0 -.17402770E+02 -.11052904E+02 -.81709669E+02 0.11648480E+03 0.80419002E+02 0.0000E+00 0.9000E+01
        1  1    1    2  501    0 0.24676264E+02 0.11980451E+02 -.16507056E+03 0.16733452E+03 0.32000000E+00 0.0000E+00 0.9000E+01
#aMCatNLO 1  0  0  2  5 0.15942976D+02 0.00000000D+00  -5  6  0 0.00000000D+00 0.00000000D+00 0.00000000D+00 0.00000000D+00 0.00000000D+00
  <mgrwgt>
 -.8355779496D-01   30    2    0
 0.200361989818414D+03 0.000000000000000D+00 0.000000000000000D+00 0.200361989818414D+03
 0.200361989818414D+03 0.000000000000000D+00 0.000000000000000D+00 -.200361989818414D+03
 0.195403429352494D+03 -.727354206359261D+01 -.927570280974432D+00 0.150012450823050D+03
 0.923275091718827D+02 -.174027926038836D+02 -.110529149551069D+02 -.403996148013189D+02
 0.112993041112452D+03 0.246763346674762D+02 0.119804852360813D+02 -.109612836021731D+03
 0.000000000000000D+00 0.000000000000000D+00 -.000000000000000D+00 -.000000000000000D+00
 0.200835191682168D+03 0.000000000000000D+00 0.000000000000000D+00 0.200835191682168D+03
 0.402448156266626D+03 0.000000000000000D+00 0.000000000000000D+00 -.402448156266626D+03
 0.195568169746701D+03 -.852478596511852D+01 0.674549037396123D+01 0.150012450823050D+03
 0.920779736518291D+02 -.179929537212709D+02 -.743384273075829D+01 -.403996148013189D+02
 0.113394859908610D+03 0.239518153387461D+02 0.164234885132514D+02 -.109612836021731D+03
 0.202242344641654D+03 0.256592434764332D+01 -.157351361564544D+02 -.201612964584457D+03
0.281121300653D-05 0.000000000000D+00 0.000000000000D+00 0.242524575438D-05 0.000000000000D+00  6 2 21 25 24 1 21 2 0.20642894D-01 0.46029194D-01 0.13884531D+05 0.13884531D+05 0.13884531D+05 0.12516667D+01  1  2  2  2  6  2       21 0.658930033845D-02 0.100000000000D+01
0.374234634823D-06 0.148351786090D-06 -.567502911382D-08 0.242524575438D-05 0.000000000000D+00  6 2 21 25 24 1 21 4 0.20642894D-01 0.46029194D-01 0.13884531D+05 0.13884531D+05 0.13884531D+05 0.12516667D+01  1  2  3  2  6  2       21 0.137425364360D-02 0.100000000000D+01
0.268669455657D-06 0.000000000000D+00 0.000000000000D+00 0.242524575438D-05 0.000000000000D+00  6 2 21 25 24 1 21 4 0.20642894D-01 0.46029194D-01 0.13884531D+05 0.13884531D+05 0.13884531D+05 0.12516667D+01  1  2 15  2  6  2       21 0.986600234200D-03 0.100000000000D+01
0.410625914758D-03 0.000000000000D+00 0.000000000000D+00 0.239776833850D-05 0.000000000000D+00  6 2 21 25 24 1 21 4 0.20642894D-01 0.92453946D-01 0.16027357D+05 0.16027357D+05 0.16027357D+05 0.12445559D+01  1  2 12  2  6  2       21 0.327046389906D+00 0.100000000000D+01
0.400310163073D-03 0.000000000000D+00 0.000000000000D+00 0.239776833850D-05 0.000000000000D+00  6 2 21 25 24 1 21 4 0.20642894D-01 0.10030850D+00 0.16027357D+05 0.16027357D+05 0.16027357D+05 0.12445559D+01  1  2 12  2  6  2       21 0.263919323253D+00 0.100000000000D+01
-.819386853539D-03 0.000000000000D+00 -.383433530559D-05 0.242524575438D-05 0.000000000000D+00  6 2 21 25 24 1 21 4 0.20642894D-01 0.92522533D-01 0.13884531D+05 0.13884531D+05 0.13884531D+05 0.12516667D+01  1  2  5  2  6  2       21 -.669315668781D+00 0.100000000000D+01
0.122277236369D-03 0.000000000000D+00 0.000000000000D+00 0.239776833850D-05 0.000000000000D+00  6 2 -1 25 24 1 -1 4 0.20642894D-01 0.92453946D-01 0.16027357D+05 0.16027357D+05 0.16027357D+05 0.12445559D+01  1  2 12  5  6  2       21 0.108268583683D-01 0.100000000000D+01
0.129131419922D-03 0.000000000000D+00 0.000000000000D+00 0.239776833850D-05 0.000000000000D+00  6 2 -1 25 24 1 -1 4 0.20642894D-01 0.10030850D+00 0.16027357D+05 0.16027357D+05 0.16027357D+05 0.12445559D+01  1  2 12  5  6  2       21 0.958292284951D-02 0.100000000000D+01
-.244215229047D-03 0.000000000000D+00 -.953396976015D-06 0.242524575438D-05 0.000000000000D+00  6 2 -1 25 24 1 -1 4 0.20642894D-01 0.92522533D-01 0.13884531D+05 0.13884531D+05 0.13884531D+05 0.12516667D+01  1  2  5  5  6  2       21 -.220944349870D-01 0.100000000000D+01
0.122277236369D-03 0.000000000000D+00 0.000000000000D+00 0.239776833850D-05 0.000000000000D+00  6 2 1 25 24 1 1 4 0.20642894D-01 0.92453946D-01 0.16027357D+05 0.16027357D+05 0.16027357D+05 0.12445559D+01  1  2 12  6  6  2       21 0.374698207885D-01 0.100000000000D+01
0.129131419922D-03 0.000000000000D+00 0.000000000000D+00 0.239776833850D-05 0.000000000000D+00  6 2 1 25 24 1 1 4 0.20642894D-01 0.10030850D+00 0.16027357D+05 0.16027357D+05 0.16027357D+05 0.12445559D+01  1  2 12  6  6  2       21 0.353750146266D-01 0.100000000000D+01
-.244215229047D-03 0.000000000000D+00 -.953396976015D-06 0.242524575438D-05 0.000000000000D+00  6 2 1 25 24 1 1 4 0.20642894D-01 0.92522533D-01 0.13884531D+05 0.13884531D+05 0.13884531D+05 0.12516667D+01  1  2  5  6  6  2       21 -.764826657065D-01 0.100000000000D+01
0.122277236369D-03 0.000000000000D+00 0.000000000000D+00 0.239776833850D-05 0.000000000000D+00  6 2 -2 25 24 1 -2 4 0.20642894D-01 0.92453946D-01 0.16027357D+05 0.16027357D+05 0.16027357D+05 0.12445559D+01  1  2 12  7  6  2       21 0.808688279389D-02 0.100000000000D+01
0.129131419922D-03 0.000000000000D+00 0.000000000000D+00 0.239776833850D-05 0.000000000000D+00  6 2 -2 25 24 1 -2 4 0.20642894D-01 0.10030850D+00 0.16027357D+05 0.16027357D+05 0.16027357D+05 0.12445559D+01  1  2 12  7  6  2       21 0.709273812165D-02 0.100000000000D+01
-.244215229047D-03 0.000000000000D+00 -.953396976015D-06 0.242524575438D-05 0.000000000000D+00  6 2 -2 25 24 1 -2 4 0.20642894D-01 0.92522533D-01 0.13884531D+05 0.13884531D+05 0.13884531D+05 0.12516667D+01  1  2  5  7  6  2       21 -.164861029042D-01 0.100000000000D+01
0.122277236369D-03 0.000000000000D+00 0.000000000000D+00 0.239776833850D-05 0.000000000000D+00  6 2 2 25 24 1 2 4 0.20642894D-01 0.92453946D-01 0.16027357D+05 0.16027357D+05 0.16027357D+05 0.12445559D+01  1  2 12  8  6  2       21 0.606576557037D-01 0.100000000000D+01
0.129131419922D-03 0.000000000000D+00 0.000000000000D+00 0.239776833850D-05 0.000000000000D+00  6 2 2 25 24 1 2 4 0.20642894D-01 0.10030850D+00 0.16027357D+05 0.16027357D+05 0.16027357D+05 0.12445559D+01  1  2 12  8  6  2       21 0.583389081658D-01 0.100000000000D+01
-.244215229047D-03 0.000000000000D+00 -.953396976015D-06 0.242524575438D-05 0.000000000000D+00  6 2 2 25 24 1 2 4 0.20642894D-01 0.92522533D-01 0.13884531D+05 0.13884531D+05 0.13884531D+05 0.12516667D+01  1  2  5  8  6  2       21 -.123744697662D+00 0.100000000000D+01
0.122277236369D-03 0.000000000000D+00 0.000000000000D+00 0.239776833850D-05 0.000000000000D+00  6 2 -3 25 24 1 -3 4 0.20642894D-01 0.92453946D-01 0.16027357D+05 0.16027357D+05 0.16027357D+05 0.12445559D+01  1  2 12  9  6  2       21 0.504549728081D-02 0.100000000000D+01
0.122277236369D-03 0.000000000000D+00 0.000000000000D+00 0.239776833850D-05 0.000000000000D+00  6 2 -4 25 24 1 -4 4 0.20642894D-01 0.92453946D-01 0.16027357D+05 0.16027357D+05 0.16027357D+05 0.12445559D+01  1  2 12  9  6  2       21 0.403257119669D-02 0.100000000000D+01
0.129131419922D-03 0.000000000000D+00 0.000000000000D+00 0.239776833850D-05 0.000000000000D+00  6 2 -3 25 24 1 -3 4 0.20642894D-01 0.10030850D+00 0.16027357D+05 0.16027357D+05 0.16027357D+05 0.12445559D+01  1  2 12  9  6  2       21 0.443619657778D-02 0.100000000000D+01
0.129131419922D-03 0.000000000000D+00 0.000000000000D+00 0.239776833850D-05 0.000000000000D+00  6 2 -4 25 24 1 -4 4 0.20642894D-01 0.10030850D+00 0.16027357D+05 0.16027357D+05 0.16027357D+05 0.12445559D+01  1  2 12  9  6  2       21 0.353398665379D-02 0.100000000000D+01
-.244215229047D-03 0.000000000000D+00 -.953396976015D-06 0.242524575438D-05 0.000000000000D+00  6 2 -3 25 24 1 -3 4 0.20642894D-01 0.92522533D-01 0.13884531D+05 0.13884531D+05 0.13884531D+05 0.12516667D+01  1  2  5  9  6  2       21 -.102558791429D-01 0.100000000000D+01
-.244215229047D-03 0.000000000000D+00 -.953396976015D-06 0.242524575438D-05 0.000000000000D+00  6 2 -4 25 24 1 -4 4 0.20642894D-01 0.92522533D-01 0.13884531D+05 0.13884531D+05 0.13884531D+05 0.12516667D+01  1  2  5  9  6  2       21 -.818277329782D-02 0.100000000000D+01
0.122277236369D-03 0.000000000000D+00 0.000000000000D+00 0.239776833850D-05 0.000000000000D+00  6 2 3 25 24 1 3 4 0.20642894D-01 0.92453946D-01 0.16027357D+05 0.16027357D+05 0.16027357D+05 0.12445559D+01  1  2 12 10  6  2       21 0.505402519414D-02 0.100000000000D+01
0.122277236369D-03 0.000000000000D+00 0.000000000000D+00 0.239776833850D-05 0.000000000000D+00  6 2 4 25 24 1 4 4 0.20642894D-01 0.92453946D-01 0.16027357D+05 0.16027357D+05 0.16027357D+05 0.12445559D+01  1  2 12 10  6  2       21 0.403257119669D-02 0.100000000000D+01
0.129131419922D-03 0.000000000000D+00 0.000000000000D+00 0.239776833850D-05 0.000000000000D+00  6 2 3 25 24 1 3 4 0.20642894D-01 0.10030850D+00 0.16027357D+05 0.16027357D+05 0.16027357D+05 0.12445559D+01  1  2 12 10  6  2       21 0.444492166930D-02 0.100000000000D+01
0.129131419922D-03 0.000000000000D+00 0.000000000000D+00 0.239776833850D-05 0.000000000000D+00  6 2 4 25 24 1 4 4 0.20642894D-01 0.10030850D+00 0.16027357D+05 0.16027357D+05 0.16027357D+05 0.12445559D+01  1  2 12 10  6  2       21 0.353398665379D-02 0.100000000000D+01
-.244215229047D-03 0.000000000000D+00 -.953396976015D-06 0.242524575438D-05 0.000000000000D+00  6 2 3 25 24 1 3 4 0.20642894D-01 0.92522533D-01 0.13884531D+05 0.13884531D+05 0.13884531D+05 0.12516667D+01  1  2  5 10  6  2       21 -.102732243974D-01 0.100000000000D+01
-.244215229047D-03 0.000000000000D+00 -.953396976015D-06 0.242524575438D-05 0.000000000000D+00  6 2 4 25 24 1 4 4 0.20642894D-01 0.92522533D-01 0.13884531D+05 0.13884531D+05 0.13884531D+05 0.12516667D+01  1  2  5 10  6  2       21 -.818277329782D-02 0.100000000000D+01
  </mgrwgt>
  </event>
  <event>
  6     66 0.43779995E-03 0.33637669E+02 0.75467711E-02 0.11139807E+00
        2 -1    0    0  502    0 0.00000000E+00 0.00000000E+00 0.17353080E+04 0.17353080E+04 0.32000000E+00 0.0000E+00 0.9000E+01
       21 -1    0    0  501  502 0.00000000E+00 0.00000000E+00 -.69526301E+02 0.69530346E+02 0.75000000E+00 0.0000E+00 0.9000E+01
       25  1    1    2    0    0 -.17912237E+03 0.11098702E+03 0.32277635E+03 0.40523143E+03 0.12500000E+03 0.0000E+00 0.9000E+01
       24  1    1    2    0    0 0.10252604E+03 -.11389421E+03 0.12664358E+04 0.12782059E+04 0.80419002E+02 0.0000E+00 0.9000E+01
        1  1    1    2  503    0 0.29092482E+02 0.11872437E+02 0.64227368E+02 0.71502339E+02 0.32000000E+00 0.0000E+00 0.9000E+01
       21  1    1    2  501  503 0.47503851E+02 -.89652523E+01 0.12342224E+02 0.49898744E+02 0.75000000E+00 0.0000E+00 0.9000E+01
#aMCatNLO 2  0  0  5  2 0.22123224D+02 0.00000000D+00  -5  6  0 0.00000000D+00 0.00000000D+00 0.00000000D+00 0.00000000D+00 0.00000000D+00
  <mgrwgt>
 0.6155328345D-01    2    2    0
 0.347351729278344D+03 0.000000000000000D+00 0.000000000000000D+00 0.347351729278344D+03
 0.347351729278344D+03 -.000000000000000D+00 -.000000000000000D+00 -.347351729278344D+03
 0.279032082116606D+03 -.182206677579657D+03 0.110869957517489D+03 -.129392743288723D+03
 0.286031642243821D+03 0.993740059280575D+02 -.114013840152547D+03 0.229068844694791D+03
 0.129639734196262D+03 0.828326716515995D+02 0.314388263505787D+01 -.996761014060683D+02
 0.000000000000000D+00 0.000000000000000D+00 0.000000000000000D+00 -.000000000000000D+00
 0.347351729278344D+03 0.000000000000000D+00 0.000000000000000D+00 0.347351729278344D+03
 0.347351729278344D+03 -.000000000000000D+00 -.000000000000000D+00 -.347351729278344D+03
 0.278830185462309D+03 -.179176264310105D+03 0.110984975703734D+03 -.133039369364345D+03
 0.284110727455398D+03 0.102471127033181D+03 -.113896290095705D+03 0.225341946223622D+03
 0.310755372652595D+02 0.284712333084864D+02 0.116665580560516D+02 -.435537752015109D+01
 0.100687008373722D+03 0.482339039684375D+02 -.875524366408132D+01 -.879471993391263D+02
-.906860744348D-05 0.000000000000D+00 0.000000000000D+00 0.770595478892D-07 0.000000000000D+00  6 2 21 25 24 1 21 4 0.26697077D+00 0.10696667D-01 0.61967864D+05 0.61967864D+05 0.61967864D+05 0.11831608D+01  1  2 13  3  6  5        1 -.165697086709D-01 0.100000000000D+01
0.427567413471D-04 0.000000000000D+00 0.000000000000D+00 0.769821711344D-07 0.756042592676D-09  6 2 21 25 24 1 21 4 0.26697077D+00 0.10696667D-01 0.61967864D+05 0.61967864D+05 0.61967864D+05 0.11831608D+01  1  2  1  3  6  5        1 0.781229921192D-01 0.100000000000D+01
  </mgrwgt>
  </event>
  <event>
  5     66 -.43779995E-03 0.10418013E+03 0.75467711E-02 0.11742592E+00
        2 -1    0    0  502    0 0.00000000E+00 0.00000000E+00 0.14089824E+04 0.14089825E+04 0.32000000E+00 0.0000E+00 0.9000E+01
       21 -1    0    0  501  502 0.00000000E+00 0.00000000E+00 -.42181210E+02 0.42187877E+02 0.75000000E+00 0.0000E+00 0.9000E+01
       25  1    1    2    0    0 0.47636204E+02 0.89612153E+02 0.10824258E+04 0.10943355E+04 0.12500000E+03 0.0000E+00 0.9000E+01
       24  1    1    2    0    0 0.13824992E+02 -.54931935E+01 0.21916874E+03 0.23393045E+03 0.80419002E+02 0.0000E+00 0.9000E+01
        1  1    1    2  501    0 -.61461196E+02 -.84118959E+02 0.65206679E+02 0.12290440E+03 0.32000000E+00 0.0000E+00 0.9000E+01
#aMCatNLO 1  0  0  2  5 0.15942976D+02 0.00000000D+00  -5  6  0 0.00000000D+00 0.00000000D+00 0.00000000D+00 0.00000000D+00 0.00000000D+00
  <mgrwgt>
 -.6701518967D-02    1    2    0
 0.243797965281449D+03 0.000000000000000D+00 0.000000000000000D+00 0.243797965281449D+03
 0.243797965281449D+03 0.000000000000000D+00 0.000000000000000D+00 -.243797965281449D+03
 0.222738431841635D+03 0.476362466573453D+02 0.896122115764409D+02 0.153908572081123D+03
 0.818563814796020D+02 0.138250078049158D+02 -.549317192916309D+01 -.345621988800915D+01
 0.183001117241660D+03 -.614612544622611D+02 -.841190396472778D+02 -.150452352193114D+03
 0.000000000000000D+00 -.000000000000000D+00 -.000000000000000D+00 -.000000000000000D+00
 0.323791532496149D+03 0.000000000000000D+00 0.000000000000000D+00 0.323791532496149D+03
 0.675336350234457D+03 0.000000000000000D+00 0.000000000000000D+00 -.675336350234457D+03
 0.309811004797076D+03 0.969392272544247D+02 0.217423081462476D+03 0.153908572081123D+03
 0.933745246008908D+02 0.300477382560538D+02 0.365619181643036D+02 -.345621988800915D+01
 0.153511254817654D+03 -.303072210357396D+02 -.335669902444336D+01 -.150452352193114D+03
 0.442431098514985D+03 -.966797444747389D+02 -.250628300602336D+03 -.351544817738308D+03
-.906583929005D-06 0.000000000000D+00 0.000000000000D+00 0.542361110108D-06 0.000000000000D+00  6 2 21 25 24 1 21 4 0.21676705D+00 0.64899325D-02 0.30097837D+05 0.30097837D+05 0.30097837D+05 0.12147500D+01  1  2 14  2  6  2       21 -.670151896664D-02 0.100000000000D+01
  </mgrwgt>
  </event>
  <event>
  5     66 0.43779995E-03 0.35637785E+02 0.75467711E-02 0.12077093E+00
        2 -1    0    0  502    0 0.00000000E+00 0.00000000E+00 0.23137820E+03 0.23137843E+03 0.32000000E+00 0.0000E+00 0.9000E+01
       21 -1    0    0  501  502 0.00000000E+00 0.00000000E+00 -.12237743E+03 0.12237972E+03 0.75000000E+00 0.0000E+00 0.9000E+01
       25  1    1    2    0    0 0.58520652E+02 -.43178048E+02 -.16880518E+02 0.14559863E+03 0.12500000E+03 0.0000E+00 0.9000E+01
       24  1    1    2    0    0 -.10889951E+02 0.50688855E+02 0.12809799E+03 0.15988828E+03 0.80419002E+02 0.0000E+00 0.9000E+01
        1  1    1    2  501    0 -.47630701E+02 -.75108065E+01 -.22166967E+01 0.48271234E+02 0.32000000E+00 0.0000E+00 0.9000E+01
#aMCatNLO 1  0  0  5  2 0.22123224D+02 0.00000000D+00  -5  6  0 0.00000000D+00 0.00000000D+00 0.00000000D+00 0.00000000D+00 0.00000000D+00
  <mgrwgt>
 0.1488788360D-02    1    2    0
 0.168273333697878D+03 0.000000000000000D+00 0.000000000000000D+00 0.168273333697878D+03
 0.168273333697878D+03 -.000000000000000D+00 -.000000000000000D+00 -.168273333697878D+03
 0.158512098160552D+03 0.585210861469934D+02 -.431779798843572D+02 -.649001524847414D+02
 0.126576882733011D+03 -.108896050269056D+02 0.506889093797188D+02 0.828646019497382D+02
 0.514576865021932D+02 -.476314811200878D+02 -.751092949536158D+01 -.179644494649968D+02
 0.000000000000000D+00 0.000000000000000D+00 0.000000000000000D+00 0.000000000000000D+00
 0.168273333697878D+03 0.000000000000000D+00 0.000000000000000D+00 0.168273333697878D+03
 0.168273333697878D+03 -.000000000000000D+00 -.000000000000000D+00 -.168273333697878D+03
 0.157200796491199D+03 0.489633243428012D+02 -.446851275387364D+02 -.685049097774446D+02
 0.125129228922863D+03 -.185096519132387D+02 0.494873167865701D+02 0.799906634537819D+02
 0.413356476292777D+02 -.338607678172039D+02 -.153222843106194D+02 -.180917597614429D+02
 0.128809943524165D+02 0.340709538764133D+01 0.105200950627857D+02 0.660600608510553D+01
0.139745407687D-06 0.000000000000D+00 0.000000000000D+00 0.265474928173D-06 0.000000000000D+00  6 2 21 25 24 1 21 4 0.35596841D-01 0.18827490D-01 0.20810889D+05 0.20810889D+05 0.20810889D+05 0.12319303D+01  1  2 14  3  6  5        1 0.148878835967D-02 0.100000000000D+01
  </mgrwgt>
  </event>
  <event>
  6     66 -.43779995E-03 0.44480470E+02 0.75467711E-02 0.11905480E+00
        2 -1    0    0  503    0 0.00000000E+00 0.00000000E+00 0.54782978E+03 0.54782988E+03 0.32000000E+00 0.0000E+00 0.9000E+01
       21 -1    0    0  501  502 0.00000000E+00 0.00000000E+00 -.67584240E+02 0.67588402E+02 0.75000000E+00 0.0000E+00 0.9000E+01
       25  1    1    2    0    0 -.52298103E+01 0.27223281E+01 0.12820445E+03 0.17915396E+03 0.12500000E+03 0.0000E+00 0.9000E+01
       24  1    1    2    0    0 0.43832210E+02 0.20524333E+02 0.24194678E+03 0.25951487E+03 0.80419002E+02 0.0000E+00 0.9000E+01
        1  1    1    2  501    0 -.62144999E+02 0.33352224E+01 0.12400267E+01 0.62247608E+02 0.32000000E+00 0.0000E+00 0.9000E+01
       21  1    1    2  503  502 0.23542600E+02 -.26581883E+02 0.10885429E+03 0.11450184E+03 0.75000000E+00 0.0000E+00 0.9000E+01
#aMCatNLO 2  0  0  1  2 0.35508457D+02 0.00000000D+00  -5  6  0 0.00000000D+00 0.00000000D+00 0.00000000D+00 0.00000000D+00 0.00000000D+00
  <mgrwgt>
 -.6373961562D-01    2    2    0
 0.167126428474030D+03 0.000000000000000D+00 0.000000000000000D+00 0.167126428474030D+03
 0.167126428474030D+03 0.000000000000000D+00 0.000000000000000D+00 -.167126428474030D+03
 0.125448938143679D+03 0.357712389281805D+01 -.722138777978838D+01 -.689143124219006D+01
 0.121538986889039D+03 0.522940416138028D+02 0.109702655172342D+02 0.738207007946874D+02
 0.872649319153426D+02 -.558711655066209D+02 -.374887773744580D+01 -.669292695524973D+02
 0.000000000000000D+00 0.000000000000000D+00 -.000000000000000D+00 0.000000000000000D+00
 0.211097400156020D+03 0.000000000000000D+00 0.000000000000000D+00 0.211097400156020D+03
 0.175392135919951D+03 0.000000000000000D+00 0.000000000000000D+00 -.175392135919951D+03
 0.125328577648534D+03 -.522966857996416D+01 0.272233675036753D+01 -.689143124219006D+01
 0.119412036911103D+03 0.438323354037832D+02 0.205243541218636D+02 0.738207007946874D+02
 0.913930239056998D+02 -.621452668173265D+02 0.333519234831578D+01 -.669292695524973D+02
 0.503558976106337D+02 0.235425999935075D+02 -.265818832205470D+02 0.357052642360693D+02
-.105215297217D-04 0.000000000000D+00 0.000000000000D+00 0.656262992948D-06 0.000000000000D+00  6 2 21 25 24 1 21 4 0.85616995D-01 0.99077274D-02 0.25081426D+05 0.25081426D+05 0.25081426D+05 0.12231463D+01  1  2 13  1  6  1        2 -.134330514176D+00 0.100000000000D+01
0.591391381043D-05 0.000000000000D+00 0.000000000000D+00 0.669637597934D-06 0.392679432462D-08  6 2 21 25 24 1 21 4 0.84280529D-01 0.10397742D-01 0.25081426D+05 0.25081426D+05 0.25081426D+05 0.12231463D+01  1  2  1  1  6  1        2 0.705908985587D-01 0.100000000000D+01
  </mgrwgt>
  </event>
  <event>
  5     66 -.43779995E-03 0.53428127E+02 0.75467711E-02 0.11715767E+00
        2 -1    0    0  502    0 0.00000000E+00 0.00000000E+00 0.85429423E+02 0.85430022E+02 0.32000000E+00 0.0000E+00 0.9000E+01
       21 -1    0    0  501  502 0.00000000E+00 0.00000000E+00 -.33198399E+03 0.33198484E+03 0.75000000E+00 0.0000E+00 0.9000E+01
       25  1    1    2    0    0 -.47114138E+02 -.60241978E+02 -.29804024E+02 0.14953969E+03 0.12500000E+03 0.0000E+00 0.9000E+01
       24  1    1    2    0    0 0.61556690E+01 0.25935403E+02 -.64376203E+02 0.10640512E+03 0.80419002E+02 0.0000E+00 0.9000E+01
        1  1    1    2  501    0 0.40958469E+02 0.34306575E+02 -.15237434E+03 0.16147006E+03 0.32000000E+00 0.0000E+00 0.9000E+01
#aMCatNLO 1  0  0  2  1 0.15921911D+02 0.00000000D+00  -5  6  0 0.00000000D+00 0.00000000D+00 0.00000000D+00 0.00000000D+00 0.00000000D+00
  <mgrwgt>
 -.1084481946D+00   12    2    0
 0.168408737370748D+03 0.000000000000000D+00 0.000000000000000D+00 0.168408737370748D+03
 0.168408737370748D+03 0.000000000000000D+00 0.000000000000000D+00 -.168408737370748D+03
 0.163506447521996D+03 -.471142681907016D+02 -.602420863131537D+02 0.725292709928656D+02
 0.847426985953993D+02 0.615560176161277D+01 0.259353465154207D+02 -.189086724484886D+01
 0.885683286240999D+02 0.409586664290888D+02 0.343067397977330D+02 -.706384037480168D+02
 0.000000000000000D+00 -.000000000000000D+00 0.000000000000000D+00 -.000000000000000D+00
 0.174261722176543D+03 0.000000000000000D+00 0.000000000000000D+00 0.174261722176543D+03
 0.466474645885111D+03 0.000000000000000D+00 0.000000000000000D+00 -.466474645885111D+03
 0.169497984102303D+03 -.287801929008243D+02 -.837602051130451D+02 0.725292709928656D+02
 0.831031453109867D+02 0.153966149345081D+02 0.140813946691823D+02 -.189086724484886D+01
 0.896618774397599D+02 0.507714067610007D+02 0.217194023274976D+02 -.706384037480168D+02
 0.298473361208604D+03 -.373878287946845D+02 0.479594081163652D+02 -.292212923708568D+03
0.253704398869D-05 0.000000000000D+00 0.000000000000D+00 0.775497892353D-06 0.000000000000D+00  6 2 21 25 24 1 21 2 0.13143099D-01 0.51074572D-01 0.20262008D+05 0.20262008D+05 0.20262008D+05 0.12332042D+01  1  2  2  2  6  2       21 0.784144548195D-02 0.100000000000D+01
0.252840186027D-07 0.133883489524D-06 -.512156085839D-08 0.775497892353D-06 0.000000000000D+00  6 2 21 25 24 1 21 4 0.13143099D-01 0.51074572D-01 0.20262008D+05 0.20262008D+05 0.20262008D+05 0.12332042D+01  1  2  3  2  6  2       21 0.118845912992D-03 0.100000000000D+01
0.245637083460D-06 0.000000000000D+00 0.000000000000D+00 0.775497892353D-06 0.000000000000D+00  6 2 21 25 24 1 21 4 0.13143099D-01 0.51074572D-01 0.20262008D+05 0.20262008D+05 0.20262008D+05 0.12332042D+01  1  2 15  2  6  2       21 0.115460140681D-02 0.100000000000D+01
-.148526576129D-03 0.000000000000D+00 -.550772872346D-05 0.775497892353D-06 0.000000000000D+00  6 2 21 25 24 1 21 4 0.13143099D-01 0.14299392D+00 0.20262008D+05 0.20262008D+05 0.20262008D+05 0.12332042D+01  1  2  5  2  6  2       21 -.663207781851D-01 0.100000000000D+01
-.561059911988D-04 0.000000000000D+00 -.187339182908D-05 0.775497892353D-06 0.000000000000D+00  6 2 -1 25 24 1 -1 4 0.13143099D-01 0.14299392D+00 0.20262008D+05 0.20262008D+05 0.20262008D+05 0.12332042D+01  1  2  5  5  6  2       21 -.293319953893D-02 0.100000000000D+01
-.561059911988D-04 0.000000000000D+00 -.187339182908D-05 0.775497892353D-06 0.000000000000D+00  6 2 1 25 24 1 1 4 0.13143099D-01 0.14299392D+00 0.20262008D+05 0.20262008D+05 0.20262008D+05 0.12332042D+01  1  2  5  6  6  2       21 -.146938435316D-01 0.100000000000D+01
-.561059911988D-04 0.000000000000D+00 -.187339182908D-05 0.775497892353D-06 0.000000000000D+00  6 2 -2 25 24 1 -2 4 0.13143099D-01 0.14299392D+00 0.20262008D+05 0.20262008D+05 0.20262008D+05 0.12332042D+01  1  2  5  7  6  2       21 -.213624362760D-02 0.100000000000D+01
-.561059911988D-04 0.000000000000D+00 -.187339182908D-05 0.775497892353D-06 0.000000000000D+00  6 2 2 25 24 1 2 4 0.13143099D-01 0.14299392D+00 0.20262008D+05 0.20262008D+05 0.20262008D+05 0.12332042D+01  1  2  5  8  6  2       21 -.266045614642D-01 0.100000000000D+01
-.561059911988D-04 0.000000000000D+00 -.187339182908D-05 0.775497892353D-06 0.000000000000D+00  6 2 -3 25 24 1 -3 4 0.13143099D-01 0.14299392D+00 0.20262008D+05 0.20262008D+05 0.20262008D+05 0.12332042D+01  1  2  5  9  6  2       21 -.136334304227D-02 0.100000000000D+01
-.561059911988D-04 0.000000000000D+00 -.187339182908D-05 0.775497892353D-06 0.000000000000D+00  6 2 -4 25 24 1 -4 4 0.13143099D-01 0.14299392D+00 0.20262008D+05 0.20262008D+05 0.20262008D+05 0.12332042D+01  1  2  5  9  6  2       21 -.107142573850D-02 0.100000000000D+01
-.561059911988D-04 0.000000000000D+00 -.187339182908D-05 0.775497892353D-06 0.000000000000D+00  6 2 3 25 24 1 3 4 0.13143099D-01 0.14299392D+00 0.20262008D+05 0.20262008D+05 0.20262008D+05 0.12332042D+01  1  2  5 10  6  2       21 -.136826650081D-02 0.100000000000D+01
-.561059911988D-04 0.000000000000D+00 -.187339182908D-05 0.775497892353D-06 0.000000000000D+00  6 2 4 25 24 1 4 4 0.13143099D-01 0.14299392D+00 0.20262008D+05 0.20262008D+05 0.20262008D+05 0.12332042D+01  1  2  5 10  6  2       21 -.107142573850D-02 0.100000000000D+01
  </mgrwgt>
  </event>
</LesHouchesEvents>
