<event>
 5    0  0.1911311E+001  0.3832907E+03  0.7546771E-02  0.1049724E+00
         21   -1    0    0  502  501  0.00000000000E+00  0.00000000000E+00  0.16851562884E+04  0.16851562884E+04  0.00000000000E+00 0. -1.
         21   -1    0    0  504  502 -0.00000000000E+00 -0.00000000000E+00 -0.27375637636E+03  0.27375637636E+03  0.00000000000E+00 0. -1.
         25    1    1    2    0    0  0.28068108379E+03 -0.20475415976E+03 -0.43609731397E+02  0.37179691420E+03  0.12500000000E+03 0.  0.
         21    1    1    2  503  501 -0.30364002650E+03  0.20062991543E+03  0.14961744884E+04  0.15398011977E+04  0.00000000000E+00 0. -1.
         21    1    1    2  504  503  0.22958942714E+02  0.41242443283E+01 -0.41164845029E+02  0.47314552815E+02  0.00000000000E+00 0.  1.
<mgrwt>
<rscale>  4 0.38329065E+03</rscale>
<asrwt>0</asrwt>
<pdfrwt beam="1">  1       21 0.25925481E+00 0.38329065E+03</pdfrwt>
<pdfrwt beam="2">  1       21 0.42116366E-01 0.38329065E+03</pdfrwt>
<totfact> 0.26475883E+02</totfact>
</mgrwt>
</event>
<event>
 5    0  0.1911311E+001  0.2525142E+03  0.7546771E-02  0.1111726E+00
         21   -1    0    0  504  501  0.00000000000E+00  0.00000000000E+00  0.10396849304E+04  0.10396849304E+04  0.00000000000E+00 0. -1.
         21   -1    0    0  503  502 -0.00000000000E+00 -0.00000000000E+00 -0.17469056245E+03  0.17469056245E+03  0.00000000000E+00 0. -1.
         25    1    1    2    0    0  0.16680175054E+03  0.12637873415E+03  0.80465266292E+03  0.84076472118E+03  0.12500000000E+03 0.  0.
         21    1    1    2  503  501 -0.15775784721E+03 -0.15407316194E+03 -0.76726753960E+02  0.23348034684E+03  0.00000000000E+00 0. -1.
         21    1    1    2  504  502 -0.90439033242E+01  0.27694427787E+02  0.13706845902E+03  0.14013042487E+03  0.00000000000E+00 0. -1.
<mgrwt>
<rscale>  4 0.25251418E+03</rscale>
<asrwt>0</asrwt>
<pdfrwt beam="1">  1       21 0.15995152E+00 0.25251418E+03</pdfrwt>
<pdfrwt beam="2">  1       21 0.26875472E-01 0.25251418E+03</pdfrwt>
<totfact> 0.31636835E+03</totfact>
</mgrwt>
</event>
<event>
 5    0  0.1911311E+001  0.2639577E+03  0.7546771E-02  0.1104788E+00
         21   -1    0    0  502  501  0.00000000000E+00  0.00000000000E+00  0.58675483829E+03  0.58675483829E+03  0.00000000000E+00 0. -1.
         21   -1    0    0  504  502 -0.00000000000E+00 -0.00000000000E+00 -0.12508329146E+03  0.12508329146E+03  0.00000000000E+00 0. -1.
         25    1    1    2    0    0  0.24491406069E+03  0.12275696641E+02  0.22127101186E+03  0.35315641088E+03  0.12500000000E+03 0.  0.
         21    1    1    2  503  501 -0.22372358713E+03 -0.14548890360E+02  0.24956773404E+03  0.33548169477E+03  0.00000000000E+00 0. -1.
         21    1    1    2  504  503 -0.21190473565E+02  0.22731937188E+01 -0.91671990706E+01  0.23200024104E+02  0.00000000000E+00 0. -1.
<mgrwt>
<rscale>  4 0.26395767E+03</rscale>
<asrwt>0</asrwt>
<pdfrwt beam="1">  1       21 0.90269974E-01 0.26395767E+03</pdfrwt>
<pdfrwt beam="2">  1       21 0.19243584E-01 0.26395767E+03</pdfrwt>
<totfact> 0.24938150E+04</totfact>
</mgrwt>
</event>
<event>
 5    0  0.1911311E+001  0.2917174E+03  0.7546771E-02  0.1089456E+00
         21   -1    0    0  504  501  0.00000000000E+00  0.00000000000E+00  0.37691204926E+03  0.37691204926E+03  0.00000000000E+00 0.  1.
         21   -1    0    0  501  502 -0.00000000000E+00 -0.00000000000E+00 -0.68573097103E+03  0.68573097103E+03  0.00000000000E+00 0.  1.
         25    1    1    2    0    0  0.11558423278E+03  0.19847938334E+03 -0.13511215044E+03  0.29433666723E+03  0.12500000000E+03 0.  0.
         21    1    1    2  503  502  0.70955259738E+02 -0.28710346426E+03  0.18896368457E+03  0.35095629666E+03  0.00000000000E+00 0.  1.
         21    1    1    2  504  503 -0.18653949251E+03  0.88624080919E+02 -0.36267045591E+03  0.41735005640E+03  0.00000000000E+00 0.  1.
<mgrwt>
<rscale>  4 0.29171742E+03</rscale>
<asrwt>0</asrwt>
<pdfrwt beam="1">  1       21 0.57986470E-01 0.29171742E+03</pdfrwt>
<pdfrwt beam="2">  1       21 0.10549707E+00 0.29171742E+03</pdfrwt>
<totfact> 0.18682598E+03</totfact>
</mgrwt>
</event>
<event>
 5    0  0.1911311E+001  0.2644335E+03  0.7546771E-02  0.1104508E+00
         21   -1    0    0  504  501  0.00000000000E+00  0.00000000000E+00  0.53646041330E+03  0.53646041330E+03  0.00000000000E+00 0. -1.
         21   -1    0    0  503  502 -0.00000000000E+00 -0.00000000000E+00 -0.10417158026E+04  0.10417158026E+04  0.00000000000E+00 0. -1.
         25    1    1    2    0    0 -0.16493685510E+03  0.20774203966E+03 -0.96026063458E+03  0.10040350629E+04  0.12500000000E+03 0.  0.
         21    1    1    2  503  501  0.72984466235E+01 -0.37298783496E+02 -0.21801614669E+02  0.43815259620E+02  0.00000000000E+00 0. -1.
         21    1    1    2  504  502  0.15763840848E+03 -0.17044325617E+03  0.47680685999E+03  0.53032589333E+03  0.00000000000E+00 0. -1.
<mgrwt>
<rscale>  4 0.26443346E+03</rscale>
<asrwt>0</asrwt>
<pdfrwt beam="1">  1       21 0.82532372E-01 0.26443346E+03</pdfrwt>
<pdfrwt beam="2">  1       21 0.16026397E+00 0.26443346E+03</pdfrwt>
<totfact> 0.29778328E+02</totfact>
</mgrwt>
</event>
<event>
 5    0  0.1911311E+001  0.2264242E+03  0.7546771E-02  0.1129182E+00
         21   -1    0    0  502  501  0.00000000000E+00  0.00000000000E+00  0.46073831274E+03  0.46073831274E+03  0.00000000000E+00 0. -1.
         21   -1    0    0  504  502 -0.00000000000E+00 -0.00000000000E+00 -0.12246734589E+03  0.12246734589E+03  0.00000000000E+00 0. -1.
         25    1    1    2    0    0 -0.56878119180E+02  0.19820230751E+03  0.24961457874E+03  0.34706154075E+03  0.12500000000E+03 0.  0.
         21    1    1    2  503  501  0.16208912925E+02 -0.20853155704E+02  0.39765467787E+02  0.47737567903E+02  0.00000000000E+00 0. -1.
         21    1    1    2  504  503  0.40669206256E+02 -0.17734915181E+03  0.48890920322E+02  0.18840654998E+03  0.00000000000E+00 0. -1.
<mgrwt>
<rscale>  4 0.22642423E+03</rscale>
<asrwt>0</asrwt>
<pdfrwt beam="1">  1       21 0.70882816E-01 0.22642423E+03</pdfrwt>
<pdfrwt beam="2">  1       21 0.18841130E-01 0.22642423E+03</pdfrwt>
<totfact> 0.45741789E+04</totfact>
</mgrwt>
</event>
<event>
 5    0  0.1911311E+001  0.3813839E+03  0.7546771E-02  0.1050423E+00
         21   -1    0    0  502  501  0.00000000000E+00  0.00000000000E+00  0.36755726232E+03  0.36755726232E+03  0.00000000000E+00 0.  1.
         21   -1    0    0  504  502 -0.00000000000E+00 -0.00000000000E+00 -0.43013629023E+03  0.43013629023E+03  0.00000000000E+00 0.  1.
         25    1    1    2    0    0 -0.23854046269E+03 -0.26404832536E+03  0.59845121541E+02  0.38187630070E+03  0.12500000000E+03 0.  0.
         21    1    1    2  503  501  0.22604012489E+03  0.29029893534E+03 -0.11815783128E+03  0.38643095504E+03  0.00000000000E+00 0.  1.
         21    1    1    2  504  503  0.12500337799E+02 -0.26250609980E+02 -0.42663181673E+01  0.29386296808E+02  0.00000000000E+00 0.  1.
<mgrwt>
<rscale>  4 0.38138393E+03</rscale>
<asrwt>0</asrwt>
<pdfrwt beam="1">  1       21 0.56547271E-01 0.38138393E+03</pdfrwt>
<pdfrwt beam="2">  1       21 0.66174814E-01 0.38138393E+03</pdfrwt>
<totfact> 0.55676929E+03</totfact>
</mgrwt>
</event>
