<event>
 5    0  0.1972558E-002  0.2642355E+03  0.7546771E-02  0.1104625E+00
         21   -1    0    0  501  502  0.00000000000E+00  0.00000000000E+00  0.26449381296E+03  0.26449381296E+03  0.00000000000E+00 0.  1.
         21   -1    0    0  502  503 -0.00000000000E+00 -0.00000000000E+00 -0.45646372721E+03  0.45646372721E+03  0.00000000000E+00 0.  1.
         25    1    1    2    0    0  0.69364665863E+02 -0.21170136762E+03 -0.27476355504E+03  0.37516521308E+03  0.12500000000E+03 0.  0.
          2    1    1    2  501    0 -0.43492559495E+02  0.26001509239E+03  0.22918154345E+02  0.26462179200E+03  0.00000000000E+00 0.  1.
         -2    1    1    2    0  503 -0.25872106368E+02 -0.48313724771E+02  0.59875486448E+02  0.81170535089E+02  0.00000000000E+00 0. -1.
<mgrwt>
<rscale>  4 0.26423545E+03</rscale>
<asrwt>0</asrwt>
<pdfrwt beam="1">  1       21 0.40691356E-01 0.26423545E+03</pdfrwt>
<pdfrwt beam="2">  1       21 0.70225188E-01 0.26423545E+03</pdfrwt>
<totfact> 0.10252319E+04</totfact>
</mgrwt>
</event>
<event>
 5    0  0.1972558E-002  0.2293680E+03  0.7546771E-02  0.1127085E+00
         21   -1    0    0  501  502  0.00000000000E+00  0.00000000000E+00  0.34289034302E+03  0.34289034302E+03  0.00000000000E+00 0.  1.
         21   -1    0    0  502  503 -0.00000000000E+00 -0.00000000000E+00 -0.66235265107E+03  0.66235265107E+03  0.00000000000E+00 0.  1.
         25    1    1    2    0    0  0.11001646896E+03 -0.17997790939E+03 -0.55661360106E+03  0.60822641524E+03  0.12500000000E+03 0.  0.
          1    1    1    2  501    0  0.34675629156E+02  0.13327822235E+03  0.19592824535E+03  0.23948561781E+03  0.00000000000E+00 0.  1.
         -1    1    1    2    0  503 -0.14469209812E+03  0.46699687040E+02  0.41223047652E+02  0.15753096104E+03  0.00000000000E+00 0. -1.
<mgrwt>
<rscale>  4 0.22936801E+03</rscale>
<asrwt>0</asrwt>
<pdfrwt beam="1">  1       21 0.52752361E-01 0.22936801E+03</pdfrwt>
<pdfrwt beam="2">  1       21 0.10190041E+00 0.22936801E+03</pdfrwt>
<totfact> 0.25936081E+03</totfact>
</mgrwt>
</event>
<event>
 5    0  0.1972558E-002  0.2451154E+03  0.7546771E-02  0.1116431E+00
         21   -1    0    0  501  502  0.00000000000E+00  0.00000000000E+00  0.49295501313E+03  0.49295501313E+03  0.00000000000E+00 0.  1.
         21   -1    0    0  502  503 -0.00000000000E+00 -0.00000000000E+00 -0.43192129809E+03  0.43192129809E+03  0.00000000000E+00 0.  1.
         25    1    1    2    0    0 -0.16190070409E+03  0.12955067532E+03 -0.33823144955E+03  0.41595760472E+03  0.12500000000E+03 0.  0.
          3    1    1    2  501    0  0.20939986533E+03 -0.11501139321E+03  0.22669953607E+03  0.32934572082E+03  0.00000000000E+00 0. -1.
         -3    1    1    2    0  503 -0.47499161236E+02 -0.14539282110E+02  0.17256562852E+03  0.17957298569E+03  0.00000000000E+00 0.  1.
<mgrwt>
<rscale>  4 0.24511543E+03</rscale>
<asrwt>0</asrwt>
<pdfrwt beam="1">  1       21 0.75839233E-01 0.24511543E+03</pdfrwt>
<pdfrwt beam="2">  1       21 0.66449430E-01 0.24511543E+03</pdfrwt>
<totfact> 0.30943391E+03</totfact>
</mgrwt>
</event>
<event>
 5    0  0.1972558E-002  0.2654362E+03  0.7546771E-02  0.1103920E+00
         21   -1    0    0  501  502  0.00000000000E+00  0.00000000000E+00  0.63963652284E+02  0.63963652284E+02  0.00000000000E+00 0. -1.
         21   -1    0    0  502  503 -0.00000000000E+00 -0.00000000000E+00 -0.23083207168E+04  0.23083207168E+04  0.00000000000E+00 0.  1.
         25    1    1    2    0    0 -0.17088435141E+03 -0.17326008876E+03 -0.18937031976E+04  0.19133628303E+04  0.12500000000E+03 0.  0.
          3    1    1    2  501    0  0.21617132024E+01  0.49402283380E+02  0.12637342353E+01  0.49465701566E+02  0.00000000000E+00 0.  1.
         -3    1    1    2    0  503  0.16872263821E+03  0.12385780538E+03 -0.35191760112E+03  0.40945583715E+03  0.00000000000E+00 0. -1.
<mgrwt>
<rscale>  4 0.26543618E+03</rscale>
<asrwt>0</asrwt>
<pdfrwt beam="1">  1       21 0.98405639E-02 0.26543618E+03</pdfrwt>
<pdfrwt beam="2">  1       21 0.35512619E+00 0.26543618E+03</pdfrwt>
<totfact> 0.12455126E+03</totfact>
</mgrwt>
</event>
<event>
 5    0  0.1972558E-002  0.1911738E+03  0.7546771E-02  0.1157407E+00
         21   -1    0    0  503  502  0.00000000000E+00  0.00000000000E+00  0.20890381707E+04  0.20890381707E+04  0.00000000000E+00 0.  1.
         21   -1    0    0  501  503 -0.00000000000E+00 -0.00000000000E+00 -0.27707939416E+03  0.27707939416E+03  0.00000000000E+00 0.  1.
         25    1    1    2    0    0  0.20147568523E+03 -0.35346767414E+02 -0.18392389032E+03  0.30215036511E+03  0.12500000000E+03 0.  0.
          4    1    1    2  501    0 -0.61581276432E+02  0.11584529309E+01 -0.12933619124E+01  0.61605749774E+02  0.00000000000E+00 0. -1.
         -4    1    1    2    0  502 -0.13989440880E+03  0.34188314483E+02  0.19971760288E+04  0.20023614500E+04  0.00000000000E+00 0.  1.
<mgrwt>
<rscale>  4 0.19117377E+03</rscale>
<asrwt>0</asrwt>
<pdfrwt beam="1">  1       21 0.32139048E+00 0.19117377E+03</pdfrwt>
<pdfrwt beam="2">  1       21 0.42627600E-01 0.19117377E+03</pdfrwt>
<totfact> 0.13634809E+02</totfact>
</mgrwt>
</event>
<event>
 5    0  0.1972558E-002  0.2543582E+03  0.7546771E-02  0.1110581E+00
         21   -1    0    0  501  502  0.00000000000E+00  0.00000000000E+00  0.70384474956E+03  0.70384474956E+03  0.00000000000E+00 0.  1.
         21   -1    0    0  502  503 -0.00000000000E+00 -0.00000000000E+00 -0.27992844437E+03  0.27992844437E+03  0.00000000000E+00 0. -1.
         25    1    1    2    0    0 -0.69555934257E+02 -0.21351246571E+03 -0.19251046605E+03  0.32110882975E+03  0.12500000000E+03 0.  0.
          3    1    1    2  501    0  0.47878414868E+01  0.23913077644E+02  0.18948402766E+03  0.19104699801E+03  0.00000000000E+00 0.  1.
         -3    1    1    2    0  503  0.64768092770E+02  0.18959938806E+03  0.42694274357E+03  0.47161736618E+03  0.00000000000E+00 0. -1.
<mgrwt>
<rscale>  4 0.25435817E+03</rscale>
<asrwt>0</asrwt>
<pdfrwt beam="1">  1       21 0.10828381E+00 0.25435817E+03</pdfrwt>
<pdfrwt beam="2">  1       21 0.43065915E-01 0.25435817E+03</pdfrwt>
<totfact> 0.33571491E+03</totfact>
</mgrwt>
</event>
<event>
 5    0  0.1972558E-002  0.2562453E+03  0.7546771E-02  0.1109420E+00
         21   -1    0    0  501  502  0.00000000000E+00  0.00000000000E+00  0.60508481711E+03  0.60508481711E+03  0.00000000000E+00 0.  1.
         21   -1    0    0  502  503 -0.00000000000E+00 -0.00000000000E+00 -0.21374951192E+03  0.21374951192E+03  0.00000000000E+00 0. -1.
         25    1    1    2    0    0 -0.32594710184E+01 -0.21993576886E+03 -0.72521792500E+02  0.26318582212E+03  0.12500000000E+03 0.  0.
          1    1    1    2  501    0 -0.22593723370E+02  0.23598633438E+03  0.26952424748E+03  0.35894755374E+03  0.00000000000E+00 0.  1.
         -1    1    1    2    0  503  0.25853194388E+02 -0.16050565525E+02  0.19433285021E+03  0.19670095319E+03  0.00000000000E+00 0. -1.
<mgrwt>
<rscale>  4 0.25624530E+03</rscale>
<asrwt>0</asrwt>
<pdfrwt beam="1">  1       21 0.93089971E-01 0.25624530E+03</pdfrwt>
<pdfrwt beam="2">  1       21 0.32884541E-01 0.25624530E+03</pdfrwt>
<totfact> 0.82992911E+03</totfact>
</mgrwt>
</event>
<event>
 5    0  0.1972558E-002  0.2780117E+03  0.7546771E-02  0.1096780E+00
         21   -1    0    0  503  502  0.00000000000E+00  0.00000000000E+00  0.54162799066E+03  0.54162799066E+03  0.00000000000E+00 0. -1.
         21   -1    0    0  501  503 -0.00000000000E+00 -0.00000000000E+00 -0.22915290713E+03  0.22915290713E+03  0.00000000000E+00 0.  1.
         25    1    1    2    0    0 -0.20105018168E+03 -0.14575442895E+03 -0.92016115037E+02  0.29284380570E+03  0.12500000000E+03 0.  0.
          3    1    1    2  501    0  0.13590102654E+03  0.11373304989E+03  0.24180868996E+03  0.29979282545E+03  0.00000000000E+00 0. -1.
         -3    1    1    2    0  502  0.65149155131E+02  0.32021379064E+02  0.16268250861E+03  0.17814426664E+03  0.00000000000E+00 0.  1.
<mgrwt>
<rscale>  4 0.27801174E+03</rscale>
<asrwt>0</asrwt>
<pdfrwt beam="1">  1       21 0.83327383E-01 0.27801174E+03</pdfrwt>
<pdfrwt beam="2">  1       21 0.35254294E-01 0.27801174E+03</pdfrwt>
<totfact> 0.92395778E+03</totfact>
</mgrwt>
</event>
<event>
 5    0  0.1972558E-002  0.2145208E+03  0.7546771E-02  0.1138035E+00
         21   -1    0    0  501  502  0.00000000000E+00  0.00000000000E+00  0.22530706523E+03  0.22530706523E+03  0.00000000000E+00 0. -1.
         21   -1    0    0  502  503 -0.00000000000E+00 -0.00000000000E+00 -0.10927280574E+04  0.10927280574E+04  0.00000000000E+00 0. -1.
         25    1    1    2    0    0  0.75932353912E+02  0.19402490006E+03 -0.91502464729E+03  0.94673464569E+03  0.12500000000E+03 0.  0.
          2    1    1    2  501    0 -0.77630531401E+01 -0.92008028815E+02  0.17285154484E+03  0.19596785173E+03  0.00000000000E+00 0. -1.
         -2    1    1    2    0  503 -0.68169300772E+02 -0.10201687124E+03 -0.12524788974E+03  0.17533262523E+03  0.00000000000E+00 0.  1.
<mgrwt>
<rscale>  4 0.21452081E+03</rscale>
<asrwt>0</asrwt>
<pdfrwt beam="1">  1       21 0.34662626E-01 0.21452081E+03</pdfrwt>
<pdfrwt beam="2">  1       21 0.16811200E+00 0.21452081E+03</pdfrwt>
<totfact> 0.17280241E+03</totfact>
</mgrwt>
</event>
<event>
 5    0  0.1972558E-002  0.2528429E+03  0.7546771E-02  0.1111521E+00
         21   -1    0    0  501  502  0.00000000000E+00  0.00000000000E+00  0.27408113568E+03  0.27408113568E+03  0.00000000000E+00 0.  1.
         21   -1    0    0  502  503 -0.00000000000E+00 -0.00000000000E+00 -0.13875354119E+04  0.13875354119E+04  0.00000000000E+00 0.  1.
         25    1    1    2    0    0  0.17916898253E+03 -0.12729112212E+03 -0.13251904030E+04  0.13490956817E+04  0.12500000000E+03 0.  0.
          2    1    1    2  501    0 -0.12798646214E+03  0.71417313038E+02  0.99673401415E+02  0.17724489849E+03  0.00000000000E+00 0.  1.
         -2    1    1    2    0  503 -0.51182520391E+02  0.55873809077E+02  0.11206272539E+03  0.13527596740E+03  0.00000000000E+00 0. -1.
<mgrwt>
<rscale>  4 0.25284294E+03</rscale>
<asrwt>0</asrwt>
<pdfrwt beam="1">  1       21 0.42166328E-01 0.25284294E+03</pdfrwt>
<pdfrwt beam="2">  1       21 0.21346699E+00 0.25284294E+03</pdfrwt>
<totfact> 0.55993951E+02</totfact>
</mgrwt>
</event>
<event>
 5    0  0.1972558E-002  0.2662120E+03  0.7546771E-02  0.1103467E+00
         21   -1    0    0  501  502  0.00000000000E+00  0.00000000000E+00  0.49244358565E+03  0.49244358565E+03  0.00000000000E+00 0.  1.
         21   -1    0    0  502  503 -0.00000000000E+00 -0.00000000000E+00 -0.30682416559E+03  0.30682416559E+03  0.00000000000E+00 0. -1.
         25    1    1    2    0    0 -0.23270323389E+03 -0.49363612860E+02  0.23947055189E+02  0.26978884853E+03  0.12500000000E+03 0.  0.
          4    1    1    2  501    0  0.23285273439E+03  0.23703516458E+02 -0.10857702380E+03  0.25801399710E+03  0.00000000000E+00 0. -1.
         -4    1    1    2    0  503 -0.14950049844E+00  0.25660096402E+02  0.27024938868E+03  0.27146490561E+03  0.00000000000E+00 0.  1.
<mgrwt>
<rscale>  4 0.26621201E+03</rscale>
<asrwt>0</asrwt>
<pdfrwt beam="1">  1       21 0.75760551E-01 0.26621201E+03</pdfrwt>
<pdfrwt beam="2">  1       21 0.47203718E-01 0.26621201E+03</pdfrwt>
<totfact> 0.63619183E+03</totfact>
</mgrwt>
</event>
<event>
 5    0  0.1972558E-002  0.2704606E+03  0.7546771E-02  0.1101016E+00
         21   -1    0    0  501  502  0.00000000000E+00  0.00000000000E+00  0.39711591874E+03  0.39711591874E+03  0.00000000000E+00 0. -1.
         21   -1    0    0  502  503 -0.00000000000E+00 -0.00000000000E+00 -0.55913129244E+03  0.55913129244E+03  0.00000000000E+00 0.  1.
         25    1    1    2    0    0 -0.23845905838E+03 -0.37196562734E+02 -0.45629172490E+03  0.53110586988E+03  0.12500000000E+03 0.  0.
          3    1    1    2  501    0  0.23167185318E+03  0.15797244355E+02  0.14408166807E+03  0.27327811394E+03  0.00000000000E+00 0. -1.
         -3    1    1    2    0  503  0.67872051961E+01  0.21399318379E+02  0.15019468314E+03  0.15186322736E+03  0.00000000000E+00 0.  1.
<mgrwt>
<rscale>  4 0.27046057E+03</rscale>
<asrwt>0</asrwt>
<pdfrwt beam="1">  1       21 0.61094757E-01 0.27046057E+03</pdfrwt>
<pdfrwt beam="2">  1       21 0.86020198E-01 0.27046057E+03</pdfrwt>
<totfact> 0.27431935E+03</totfact>
</mgrwt>
</event>
<event>
 5    0  0.1972558E-002  0.2820682E+03  0.7546771E-02  0.1094565E+00
         21   -1    0    0  501  502  0.00000000000E+00  0.00000000000E+00  0.35274707781E+03  0.35274707781E+03  0.00000000000E+00 0.  1.
         21   -1    0    0  502  503 -0.00000000000E+00 -0.00000000000E+00 -0.65971894774E+03  0.65971894774E+03  0.00000000000E+00 0. -1.
         25    1    1    2    0    0  0.55142445339E+02 -0.20490223246E+03 -0.25981926218E+03  0.35798975285E+03  0.12500000000E+03 0.  0.
          4    1    1    2  501    0 -0.12441178819E+03 -0.15795269585E+03  0.13541791572E+03  0.24241567413E+03  0.00000000000E+00 0.  1.
         -4    1    1    2    0  503  0.69269342849E+02  0.36285492831E+03 -0.18257052347E+03  0.41206059857E+03  0.00000000000E+00 0. -1.
<mgrwt>
<rscale>  4 0.28206816E+03</rscale>
<asrwt>0</asrwt>
<pdfrwt beam="1">  1       21 0.54268782E-01 0.28206816E+03</pdfrwt>
<pdfrwt beam="2">  1       21 0.10149522E+00 0.28206816E+03</pdfrwt>
<totfact> 0.23788349E+03</totfact>
</mgrwt>
</event>
<event>
 5    0  0.1972558E-002  0.4880640E+03  0.7546771E-02  0.1016942E+00
         21   -1    0    0  501  502  0.00000000000E+00  0.00000000000E+00  0.33310487933E+03  0.33310487933E+03  0.00000000000E+00 0.  1.
         21   -1    0    0  502  503 -0.00000000000E+00 -0.00000000000E+00 -0.13262519416E+04  0.13262519416E+04  0.00000000000E+00 0.  1.
         25    1    1    2    0    0  0.45203362622E+03 -0.26219468913E+03 -0.86748807391E+03  0.10204121778E+04  0.12500000000E+03 0.  0.
          1    1    1    2  501    0 -0.33760536581E+03  0.21058883593E+03 -0.24372958372E+03  0.46661456345E+03  0.00000000000E+00 0.  1.
         -1    1    1    2    0  503 -0.11442826041E+03  0.51605853204E+02  0.11807059538E+03  0.17233007966E+03  0.00000000000E+00 0. -1.
<mgrwt>
<rscale>  4 0.48806402E+03</rscale>
<asrwt>0</asrwt>
<pdfrwt beam="1">  1       21 0.51246904E-01 0.48806402E+03</pdfrwt>
<pdfrwt beam="2">  1       21 0.20403876E+00 0.48806402E+03</pdfrwt>
<totfact> 0.36753676E+02</totfact>
</mgrwt>
</event>
<event>
 5    0  0.1972558E-002  0.2693029E+03  0.7546771E-02  0.1101679E+00
         21   -1    0    0  501  502  0.00000000000E+00  0.00000000000E+00  0.23710898128E+03  0.23710898128E+03  0.00000000000E+00 0. -1.
         21   -1    0    0  502  503 -0.00000000000E+00 -0.00000000000E+00 -0.65139208291E+03  0.65139208291E+03  0.00000000000E+00 0. -1.
         25    1    1    2    0    0 -0.22444418874E+03  0.11314425646E+03 -0.23477739781E+03  0.36595388118E+03  0.12500000000E+03 0.  0.
          1    1    1    2  501    0  0.11485069740E+02 -0.22969019056E+02  0.13205861869E+03  0.13453238062E+03  0.00000000000E+00 0. -1.
         -1    1    1    2    0  503  0.21295911900E+03 -0.90175237407E+02 -0.31156432252E+03  0.38801480239E+03  0.00000000000E+00 0.  1.
<mgrwt>
<rscale>  4 0.26930290E+03</rscale>
<asrwt>0</asrwt>
<pdfrwt beam="1">  1       21 0.36478305E-01 0.26930290E+03</pdfrwt>
<pdfrwt beam="2">  1       21 0.10021417E+00 0.26930290E+03</pdfrwt>
<totfact> 0.56224508E+03</totfact>
</mgrwt>
</event>
<event>
 5    0  0.1972558E-002  0.3016454E+03  0.7546771E-02  0.1084421E+00
         21   -1    0    0  501  502  0.00000000000E+00  0.00000000000E+00  0.90287034680E+03  0.90287034680E+03  0.00000000000E+00 0. -1.
         21   -1    0    0  502  503 -0.00000000000E+00 -0.00000000000E+00 -0.44623469833E+03  0.44623469833E+03  0.00000000000E+00 0. -1.
         25    1    1    2    0    0  0.28187230873E+03 -0.25170567796E+02 -0.35702336076E+03  0.47241532155E+03  0.12500000000E+03 0.  0.
          3    1    1    2  501    0 -0.74926709980E+02 -0.36541209108E+02  0.41508331621E+03  0.42337150498E+03  0.00000000000E+00 0.  1.
         -3    1    1    2    0  503 -0.20694559875E+03  0.61711776904E+02  0.39857569302E+03  0.45331821860E+03  0.00000000000E+00 0. -1.
<mgrwt>
<rscale>  4 0.30164541E+03</rscale>
<asrwt>0</asrwt>
<pdfrwt beam="1">  1       21 0.13890313E+00 0.30164541E+03</pdfrwt>
<pdfrwt beam="2">  1       21 0.68651492E-01 0.30164541E+03</pdfrwt>
<totfact> 0.64217226E+02</totfact>
</mgrwt>
</event>
<event>
 5    0  0.1972558E-002  0.3682060E+03  0.7546771E-02  0.1055381E+00
         21   -1    0    0  501  502  0.00000000000E+00  0.00000000000E+00  0.18681364313E+04  0.18681364313E+04  0.00000000000E+00 0. -1.
         21   -1    0    0  502  503 -0.00000000000E+00 -0.00000000000E+00 -0.10963645824E+03  0.10963645824E+03  0.00000000000E+00 0. -1.
         25    1    1    2    0    0  0.26004262331E+03 -0.25997421322E+03  0.38507051389E+03  0.54691229475E+03  0.12500000000E+03 0.  0.
          1    1    1    2  501    0 -0.24423694108E+03  0.18515813621E+03  0.88702351126E+03  0.93848064888E+03  0.00000000000E+00 0. -1.
         -1    1    1    2    0  503 -0.15805682227E+02  0.74816077017E+02  0.48640594790E+03  0.49237994590E+03  0.00000000000E+00 0.  1.
<mgrwt>
<rscale>  4 0.36820604E+03</rscale>
<asrwt>0</asrwt>
<pdfrwt beam="1">  1       21 0.28740558E+00 0.36820604E+03</pdfrwt>
<pdfrwt beam="2">  1       21 0.16867149E-01 0.36820604E+03</pdfrwt>
<totfact> 0.10870041E+03</totfact>
</mgrwt>
</event>
<event>
 5    0  0.1972558E-002  0.2574069E+03  0.7546771E-02  0.1108711E+00
         21   -1    0    0  501  502  0.00000000000E+00  0.00000000000E+00  0.10966871209E+04  0.10966871209E+04  0.00000000000E+00 0.  1.
         21   -1    0    0  502  503 -0.00000000000E+00 -0.00000000000E+00 -0.31159801506E+03  0.31159801506E+03  0.00000000000E+00 0. -1.
         25    1    1    2    0    0  0.20065332546E+03 -0.44131734693E+02 -0.10227985506E+03  0.26133414583E+03  0.12500000000E+03 0.  0.
          4    1    1    2  501    0  0.54310565545E+02  0.10975750178E+02  0.88811246385E+03  0.88983922878E+03  0.00000000000E+00 0.  1.
         -4    1    1    2    0  503 -0.25496389101E+03  0.33155984515E+02 -0.74350295248E+00  0.25711176135E+03  0.00000000000E+00 0. -1.
<mgrwt>
<rscale>  4 0.25740690E+03</rscale>
<asrwt>0</asrwt>
<pdfrwt beam="1">  1       21 0.16872109E+00 0.25740690E+03</pdfrwt>
<pdfrwt beam="2">  1       21 0.47938157E-01 0.25740690E+03</pdfrwt>
<totfact> 0.85161026E+02</totfact>
</mgrwt>
</event>
<event>
 5    0  0.1972558E-002  0.2592562E+03  0.7546771E-02  0.1107591E+00
         21   -1    0    0  501  502  0.00000000000E+00  0.00000000000E+00  0.12058846354E+04  0.12058846354E+04  0.00000000000E+00 0. -1.
         21   -1    0    0  502  503 -0.00000000000E+00 -0.00000000000E+00 -0.61931294437E+02  0.61931294437E+02  0.00000000000E+00 0. -1.
         25    1    1    2    0    0  0.10289499652E+03  0.19008203895E+03  0.45794492476E+03  0.52159094696E+03  0.12500000000E+03 0.  0.
          3    1    1    2  501    0 -0.89243992440E+02 -0.22172220911E+03  0.46788747428E+03  0.52539881689E+03  0.00000000000E+00 0. -1.
         -3    1    1    2    0  503 -0.13651004078E+02  0.31640170161E+02  0.21812094194E+03  0.22082616601E+03  0.00000000000E+00 0.  1.
<mgrwt>
<rscale>  4 0.25925621E+03</rscale>
<asrwt>0</asrwt>
<pdfrwt beam="1">  1       21 0.18552070E+00 0.25925621E+03</pdfrwt>
<pdfrwt beam="2">  1       21 0.95278923E-02 0.25925621E+03</pdfrwt>
<totfact> 0.14102107E+04</totfact>
</mgrwt>
</event>
<event>
 5    0  0.1972558E-002  0.2365380E+03  0.7546771E-02  0.1122121E+00
         21   -1    0    0  501  502  0.00000000000E+00  0.00000000000E+00  0.49069713788E+03  0.49069713788E+03  0.00000000000E+00 0.  1.
         21   -1    0    0  502  503 -0.00000000000E+00 -0.00000000000E+00 -0.25956992266E+03  0.25956992266E+03  0.00000000000E+00 0.  1.
         25    1    1    2    0    0 -0.22594363192E+02  0.20502747693E+03 -0.16634484558E+03  0.29298870148E+03  0.12500000000E+03 0.  0.
          3    1    1    2  501    0  0.26933464596E+02 -0.17507315818E+03  0.24793732886E+03  0.30471124244E+03  0.00000000000E+00 0.  1.
         -3    1    1    2    0  503 -0.43391014039E+01 -0.29954318749E+02  0.14953473195E+03  0.15256711661E+03  0.00000000000E+00 0. -1.
<mgrwt>
<rscale>  4 0.23653795E+03</rscale>
<asrwt>0</asrwt>
<pdfrwt beam="1">  1       21 0.75491867E-01 0.23653795E+03</pdfrwt>
<pdfrwt beam="2">  1       21 0.39933834E-01 0.23653795E+03</pdfrwt>
<totfact> 0.92011723E+03</totfact>
</mgrwt>
</event>
<event>
 5    0  0.1972558E-002  0.2469142E+03  0.7546771E-02  0.1115271E+00
         21   -1    0    0  501  502  0.00000000000E+00  0.00000000000E+00  0.10054013060E+04  0.10054013060E+04  0.00000000000E+00 0.  1.
         21   -1    0    0  502  503 -0.00000000000E+00 -0.00000000000E+00 -0.18428873645E+03  0.18428873645E+03  0.00000000000E+00 0. -1.
         25    1    1    2    0    0  0.23746565823E+03  0.64108998146E+02 -0.43302351234E+02  0.27928479390E+03  0.12500000000E+03 0.  0.
          1    1    1    2  501    0 -0.13869142525E+03 -0.11198818806E+02  0.25235807184E+03  0.28817585152E+03  0.00000000000E+00 0. -1.
         -1    1    1    2    0  503 -0.98774232977E+02 -0.52910179340E+02  0.61205684899E+03  0.62222939707E+03  0.00000000000E+00 0.  1.
<mgrwt>
<rscale>  4 0.24691423E+03</rscale>
<asrwt>0</asrwt>
<pdfrwt beam="1">  1       21 0.15467712E+00 0.24691423E+03</pdfrwt>
<pdfrwt beam="2">  1       21 0.28352114E-01 0.24691423E+03</pdfrwt>
<totfact> 0.31351506E+03</totfact>
</mgrwt>
</event>
<event>
 5    0  0.1972558E-002  0.2792864E+03  0.7546771E-02  0.1096079E+00
         21   -1    0    0  501  502  0.00000000000E+00  0.00000000000E+00  0.56009147796E+03  0.56009147796E+03  0.00000000000E+00 0. -1.
         21   -1    0    0  502  503 -0.00000000000E+00 -0.00000000000E+00 -0.44768363609E+03  0.44768363609E+03  0.00000000000E+00 0.  1.
         25    1    1    2    0    0  0.25637590860E+03 -0.47225989793E+02 -0.31282842646E+03  0.42596422975E+03  0.12500000000E+03 0.  0.
          1    1    1    2  501    0 -0.37202264947E+02  0.28038797603E+02  0.34421761244E+03  0.34735564973E+03  0.00000000000E+00 0. -1.
         -1    1    1    2    0  503 -0.21917364365E+03  0.19187192190E+02  0.81018655895E+02  0.23445523457E+03  0.00000000000E+00 0.  1.
<mgrwt>
<rscale>  4 0.27928638E+03</rscale>
<asrwt>0</asrwt>
<pdfrwt beam="1">  1       21 0.86167920E-01 0.27928638E+03</pdfrwt>
<pdfrwt beam="2">  1       21 0.68874406E-01 0.27928638E+03</pdfrwt>
<totfact> 0.20883981E+03</totfact>
</mgrwt>
</event>
<event>
 5    0  0.1972558E-002  0.2601514E+03  0.7546771E-02  0.1107052E+00
         21   -1    0    0  501  502  0.00000000000E+00  0.00000000000E+00  0.12414824862E+03  0.12414824862E+03  0.00000000000E+00 0.  1.
         21   -1    0    0  502  503 -0.00000000000E+00 -0.00000000000E+00 -0.81523617036E+03  0.81523617036E+03  0.00000000000E+00 0. -1.
         25    1    1    2    0    0  0.23352553850E+03 -0.80704235054E+01 -0.42790128549E+03  0.50331284405E+03  0.12500000000E+03 0.  0.
          3    1    1    2  501    0 -0.22171855812E+03 -0.39393610567E+02 -0.29981460258E+03  0.37496636048E+03  0.00000000000E+00 0.  1.
         -3    1    1    2    0  503 -0.11806980375E+02  0.47464034073E+02  0.36627966321E+02  0.61105214449E+02  0.00000000000E+00 0. -1.
<mgrwt>
<rscale>  4 0.26015136E+03</rscale>
<asrwt>0</asrwt>
<pdfrwt beam="1">  1       21 0.19099730E-01 0.26015136E+03</pdfrwt>
<pdfrwt beam="2">  1       21 0.12542095E+00 0.26015136E+03</pdfrwt>
<totfact> 0.11402838E+04</totfact>
</mgrwt>
</event>
<event>
 5    0  0.1972558E-002  0.2371128E+03  0.7546771E-02  0.1121731E+00
         21   -1    0    0  501  502  0.00000000000E+00  0.00000000000E+00  0.53293997950E+03  0.53293997950E+03  0.00000000000E+00 0.  1.
         21   -1    0    0  502  503 -0.00000000000E+00 -0.00000000000E+00 -0.72661307085E+03  0.72661307085E+03  0.00000000000E+00 0.  1.
         25    1    1    2    0    0 -0.86315716126E+02 -0.19012938860E+03 -0.62587034849E+03  0.67151938199E+03  0.12500000000E+03 0.  0.
          2    1    1    2  501    0  0.51856397538E+02  0.16371190893E+03  0.19243351596E+02  0.17280330341E+03  0.00000000000E+00 0. -1.
         -2    1    1    2    0  503  0.34459318588E+02  0.26417479668E+02  0.41295390554E+03  0.41523036495E+03  0.00000000000E+00 0.  1.
<mgrwt>
<rscale>  4 0.23711275E+03</rscale>
<asrwt>0</asrwt>
<pdfrwt beam="1">  1       21 0.81990767E-01 0.23711275E+03</pdfrwt>
<pdfrwt beam="2">  1       21 0.11178663E+00 0.23711275E+03</pdfrwt>
<totfact> 0.78282897E+02</totfact>
</mgrwt>
</event>
<event>
 5    0  0.1972558E-002  0.2403080E+03  0.7546771E-02  0.1119588E+00
         21   -1    0    0  501  502  0.00000000000E+00  0.00000000000E+00  0.61276892198E+03  0.61276892198E+03  0.00000000000E+00 0.  1.
         21   -1    0    0  502  503 -0.00000000000E+00 -0.00000000000E+00 -0.29285470287E+03  0.29285470287E+03  0.00000000000E+00 0. -1.
         25    1    1    2    0    0 -0.18860408970E+03  0.10250124975E+03 -0.20459698358E+03  0.32181195525E+03  0.12500000000E+03 0.  0.
          4    1    1    2  501    0  0.13979743334E+03 -0.88715379152E+02  0.22127055781E+03  0.27635918769E+03  0.00000000000E+00 0. -1.
         -4    1    1    2    0  503  0.48806656352E+02 -0.13785870594E+02  0.30324064487E+03  0.30745248192E+03  0.00000000000E+00 0.  1.
<mgrwt>
<rscale>  4 0.24030803E+03</rscale>
<asrwt>0</asrwt>
<pdfrwt beam="1">  1       21 0.94272141E-01 0.24030803E+03</pdfrwt>
<pdfrwt beam="2">  1       21 0.45054570E-01 0.24030803E+03</pdfrwt>
<totfact> 0.43029816E+03</totfact>
</mgrwt>
</event>
<event>
 5    0  0.1972558E-002  0.2507418E+03  0.7546771E-02  0.1112837E+00
         21   -1    0    0  503  502  0.00000000000E+00  0.00000000000E+00  0.73699511590E+03  0.73699511590E+03  0.00000000000E+00 0.  1.
         21   -1    0    0  501  503 -0.00000000000E+00 -0.00000000000E+00 -0.13646632622E+03  0.13646632622E+03  0.00000000000E+00 0.  1.
         25    1    1    2    0    0 -0.21697076223E+03 -0.13043796910E+02  0.20916605360E+02  0.25161271168E+03  0.12500000000E+03 0.  0.
          2    1    1    2  501    0  0.66590944458E+02  0.18133321799E+02  0.12243178497E+03  0.14054434608E+03  0.00000000000E+00 0. -1.
         -2    1    1    2    0  502  0.15037981777E+03 -0.50895248883E+01  0.45718039935E+03  0.48130438436E+03  0.00000000000E+00 0.  1.
<mgrwt>
<rscale>  4 0.25074180E+03</rscale>
<asrwt>0</asrwt>
<pdfrwt beam="1">  1       21 0.11338386E+00 0.25074180E+03</pdfrwt>
<pdfrwt beam="2">  1       21 0.20994820E-01 0.25074180E+03</pdfrwt>
<totfact> 0.12335158E+04</totfact>
</mgrwt>
</event>
<event>
 5    0  0.1972558E-002  0.2868057E+03  0.7546771E-02  0.1092029E+00
         21   -1    0    0  501  502  0.00000000000E+00  0.00000000000E+00  0.10504893040E+04  0.10504893040E+04  0.00000000000E+00 0. -1.
         21   -1    0    0  502  503 -0.00000000000E+00 -0.00000000000E+00 -0.29134404880E+03  0.29134404880E+03  0.00000000000E+00 0.  1.
         25    1    1    2    0    0  0.22248171945E+03  0.12456960994E+03 -0.15602076237E+03  0.32401108237E+03  0.12500000000E+03 0.  0.
          2    1    1    2  501    0 -0.22611329080E+03 -0.15211435770E+03  0.31298524828E+03  0.41500092016E+03  0.00000000000E+00 0.  1.
         -2    1    1    2    0  503  0.36315713499E+01  0.27544747764E+02  0.60218076930E+03  0.60282135028E+03  0.00000000000E+00 0. -1.
<mgrwt>
<rscale>  4 0.28680566E+03</rscale>
<asrwt>0</asrwt>
<pdfrwt beam="1">  1       21 0.16161374E+00 0.28680566E+03</pdfrwt>
<pdfrwt beam="2">  1       21 0.44822162E-01 0.28680566E+03</pdfrwt>
<totfact> 0.10784588E+03</totfact>
</mgrwt>
</event>
<event>
 5    0  0.1972558E-002  0.3143822E+03  0.7546771E-02  0.1078264E+00
         21   -1    0    0  501  502  0.00000000000E+00  0.00000000000E+00  0.14337383193E+03  0.14337383193E+03  0.00000000000E+00 0.  1.
         21   -1    0    0  502  503 -0.00000000000E+00 -0.00000000000E+00 -0.14670302920E+04  0.14670302920E+04  0.00000000000E+00 0.  1.
         25    1    1    2    0    0 -0.14418729860E+03  0.25550208235E+03 -0.57398330984E+03  0.65662251799E+03  0.12500000000E+03 0.  0.
          2    1    1    2  501    0  0.64565965620E+02  0.21797339572E+02  0.62142290670E+02  0.92225550791E+02  0.00000000000E+00 0. -1.
         -2    1    1    2    0  503  0.79621332983E+02 -0.27729942192E+03 -0.81181544093E+03  0.86155605517E+03  0.00000000000E+00 0.  1.
<mgrwt>
<rscale>  4 0.31438217E+03</rscale>
<asrwt>0</asrwt>
<pdfrwt beam="1">  1       21 0.22057513E-01 0.31438217E+03</pdfrwt>
<pdfrwt beam="2">  1       21 0.22569696E+00 0.31438217E+03</pdfrwt>
<totfact> 0.16044155E+03</totfact>
</mgrwt>
</event>
<event>
 5    0  0.1972558E-002  0.2353160E+03  0.7546771E-02  0.1122953E+00
         21   -1    0    0  501  502  0.00000000000E+00  0.00000000000E+00  0.59527074877E+03  0.59527074877E+03  0.00000000000E+00 0.  1.
         21   -1    0    0  502  503 -0.00000000000E+00 -0.00000000000E+00 -0.12727209070E+03  0.12727209070E+03  0.00000000000E+00 0.  1.
         25    1    1    2    0    0  0.19848813162E+03  0.10682247127E+03  0.90696404628E+02  0.27323875379E+03  0.12500000000E+03 0.  0.
          4    1    1    2  501    0 -0.16697840196E+03 -0.96015504031E+02  0.36693314854E+03  0.41441609432E+03  0.00000000000E+00 0.  1.
         -4    1    1    2    0  503 -0.31509729661E+02 -0.10806967238E+02  0.10369104903E+02  0.34887991354E+02  0.00000000000E+00 0. -1.
<mgrwt>
<rscale>  4 0.23531600E+03</rscale>
<asrwt>0</asrwt>
<pdfrwt beam="1">  1       21 0.91580114E-01 0.23531600E+03</pdfrwt>
<pdfrwt beam="2">  1       21 0.19580322E-01 0.23531600E+03</pdfrwt>
<totfact> 0.23660698E+04</totfact>
</mgrwt>
</event>
<event>
 5    0  0.1972558E-002  0.2895093E+03  0.7546771E-02  0.1090606E+00
         21   -1    0    0  501  502  0.00000000000E+00  0.00000000000E+00  0.75407962925E+03  0.75407962925E+03  0.00000000000E+00 0. -1.
         21   -1    0    0  502  503 -0.00000000000E+00 -0.00000000000E+00 -0.75285845390E+03  0.75285845390E+03  0.00000000000E+00 0.  1.
         25    1    1    2    0    0  0.19499798574E+03  0.17392002299E+03 -0.67304340013E+03  0.73272423687E+03  0.12500000000E+03 0.  0.
          2    1    1    2  501    0  0.24520984022E+02 -0.30840818007E+02  0.37243051255E+03  0.37450890696E+03  0.00000000000E+00 0. -1.
         -2    1    1    2    0  503 -0.21951896976E+03 -0.14307920498E+03  0.30183406292E+03  0.39970493933E+03  0.00000000000E+00 0.  1.
<mgrwt>
<rscale>  4 0.28950928E+03</rscale>
<asrwt>0</asrwt>
<pdfrwt beam="1">  1       21 0.11601225E+00 0.28950928E+03</pdfrwt>
<pdfrwt beam="2">  1       21 0.11582438E+00 0.28950928E+03</pdfrwt>
<totfact> 0.30085585E+02</totfact>
</mgrwt>
</event>
<event>
 5    0  0.1972558E-002  0.2505500E+03  0.7546771E-02  0.1112958E+00
         21   -1    0    0  501  502  0.00000000000E+00  0.00000000000E+00  0.57995713212E+03  0.57995713212E+03  0.00000000000E+00 0. -1.
         21   -1    0    0  502  503 -0.00000000000E+00 -0.00000000000E+00 -0.13975204082E+03  0.13975204082E+03  0.00000000000E+00 0. -1.
         25    1    1    2    0    0  0.20832902121E+03  0.61231795656E+02  0.33295711640E+02  0.25275268206E+03  0.12500000000E+03 0.  0.
          2    1    1    2  501    0 -0.16986976724E+03 -0.65599831651E+02  0.27773903103E+03  0.33211149497E+03  0.00000000000E+00 0. -1.
         -2    1    1    2    0  503 -0.38459253967E+02  0.43680359949E+01  0.12917034863E+03  0.13484499590E+03  0.00000000000E+00 0.  1.
<mgrwt>
<rscale>  4 0.25055002E+03</rscale>
<asrwt>0</asrwt>
<pdfrwt beam="1">  1       21 0.89224173E-01 0.25055002E+03</pdfrwt>
<pdfrwt beam="2">  1       21 0.21500314E-01 0.25055002E+03</pdfrwt>
<totfact> 0.20925073E+04</totfact>
</mgrwt>
</event>
<event>
 5    0  0.1972558E-002  0.2454505E+03  0.7546771E-02  0.1116214E+00
         21   -1    0    0  501  502  0.00000000000E+00  0.00000000000E+00  0.28965317437E+03  0.28965317437E+03  0.00000000000E+00 0. -1.
         21   -1    0    0  502  503 -0.00000000000E+00 -0.00000000000E+00 -0.22153112710E+04  0.22153112710E+04  0.00000000000E+00 0. -1.
         25    1    1    2    0    0  0.21277176417E+03  0.94543454680E+01 -0.21267932978E+04  0.21410828895E+04  0.12500000000E+03 0.  0.
          1    1    1    2  501    0 -0.59866295796E+02  0.86888571434E+02  0.18840960343E+02  0.10718478905E+03  0.00000000000E+00 0.  1.
         -1    1    1    2    0  503 -0.15290546838E+03 -0.96342916902E+02  0.18229424077E+03  0.25669676685E+03  0.00000000000E+00 0. -1.
<mgrwt>
<rscale>  4 0.24545050E+03</rscale>
<asrwt>0</asrwt>
<pdfrwt beam="1">  1       21 0.44562024E-01 0.24545050E+03</pdfrwt>
<pdfrwt beam="2">  1       21 0.34081714E+00 0.24545050E+03</pdfrwt>
<totfact> 0.88253150E+01</totfact>
</mgrwt>
</event>
<event>
 5    0  0.1972558E-002  0.2594641E+03  0.7546771E-02  0.1107466E+00
         21   -1    0    0  501  502  0.00000000000E+00  0.00000000000E+00  0.42845298617E+03  0.42845298617E+03  0.00000000000E+00 0.  1.
         21   -1    0    0  502  503 -0.00000000000E+00 -0.00000000000E+00 -0.40300850861E+03  0.40300850861E+03  0.00000000000E+00 0.  1.
         25    1    1    2    0    0  0.32324542995E+02 -0.23496218623E+03 -0.24133012702E+03  0.36071780555E+03  0.12500000000E+03 0.  0.
          4    1    1    2  501    0 -0.14976204919E+03  0.15515647446E+03  0.24617737442E+03  0.32726977041E+03  0.00000000000E+00 0.  1.
         -4    1    1    2    0  503  0.11743750620E+03  0.79805711761E+02  0.20597230156E+02  0.14347391882E+03  0.00000000000E+00 0. -1.
<mgrwt>
<rscale>  4 0.25946415E+03</rscale>
<asrwt>0</asrwt>
<pdfrwt beam="1">  1       21 0.65915844E-01 0.25946415E+03</pdfrwt>
<pdfrwt beam="2">  1       21 0.62001309E-01 0.25946415E+03</pdfrwt>
<totfact> 0.48742131E+03</totfact>
</mgrwt>
</event>
<event>
 5    0  0.1972558E-002  0.3974385E+03  0.7546771E-02  0.1044829E+00
         21   -1    0    0  501  502  0.00000000000E+00  0.00000000000E+00  0.10779532367E+03  0.10779532367E+03  0.00000000000E+00 0.  1.
         21   -1    0    0  502  503 -0.00000000000E+00 -0.00000000000E+00 -0.15702314311E+04  0.15702314311E+04  0.00000000000E+00 0. -1.
         25    1    1    2    0    0  0.26863412658E+03 -0.26216854423E+03 -0.95329581494E+03  0.10321310723E+04  0.12500000000E+03 0.  0.
          4    1    1    2  501    0 -0.26733565748E+03  0.20088415762E+03 -0.40679374742E+03  0.52659657375E+03  0.00000000000E+00 0.  1.
         -4    1    1    2    0  503 -0.12984691045E+01  0.61284386608E+02 -0.10234654511E+03  0.11929910879E+03  0.00000000000E+00 0. -1.
<mgrwt>
<rscale>  4 0.39698517E+03</rscale>
<asrwt>0</asrwt>
<pdfrwt beam="1">  1       21 0.16583896E-01 0.39743854E+03</pdfrwt>
<pdfrwt beam="2">  1       21 0.24157406E+00 0.39743854E+03</pdfrwt>
<totfact> 0.20850196E+03</totfact>
</mgrwt>
</event>
<event>
 5    0  0.1972558E-002  0.2885317E+03  0.7546771E-02  0.1091118E+00
         21   -1    0    0  501  502  0.00000000000E+00  0.00000000000E+00  0.14267692919E+04  0.14267692919E+04  0.00000000000E+00 0. -1.
         21   -1    0    0  502  503 -0.00000000000E+00 -0.00000000000E+00 -0.10854174228E+03  0.10854174228E+03  0.00000000000E+00 0. -1.
         25    1    1    2    0    0  0.64096631283E+02  0.25487943908E+03  0.17416913896E+03  0.33916337594E+03  0.12500000000E+03 0.  0.
          4    1    1    2  501    0 -0.33735221141E+02 -0.20246267790E+01  0.53397168100E+03  0.53504011099E+03  0.00000000000E+00 0.  1.
         -4    1    1    2    0  503 -0.30361410142E+02 -0.25285481230E+03  0.61008672970E+03  0.66110754729E+03  0.00000000000E+00 0. -1.
<mgrwt>
<rscale>  4 0.28853167E+03</rscale>
<asrwt>0</asrwt>
<pdfrwt beam="1">  1       21 0.21950295E+00 0.28853167E+03</pdfrwt>
<pdfrwt beam="2">  1       21 0.16698731E-01 0.28853167E+03</pdfrwt>
<totfact> 0.30119657E+03</totfact>
</mgrwt>
</event>
<event>
 5    0  0.1972558E-002  0.3134449E+03  0.7546771E-02  0.1078706E+00
         21   -1    0    0  503  502  0.00000000000E+00  0.00000000000E+00  0.55773239900E+03  0.55773239900E+03  0.00000000000E+00 0.  1.
         21   -1    0    0  501  503 -0.00000000000E+00 -0.00000000000E+00 -0.21484686307E+03  0.21484686307E+03  0.00000000000E+00 0.  1.
         25    1    1    2    0    0 -0.61272673731E+02  0.29135166431E+03  0.49251176942E+02  0.32663559401E+03  0.12500000000E+03 0.  0.
          2    1    1    2  501    0  0.46930157129E+02 -0.17036488824E+02  0.93784557001E+02  0.10624605749E+03  0.00000000000E+00 0. -1.
         -2    1    1    2    0  502  0.14342516603E+02 -0.27431517548E+03  0.19984980198E+03  0.33969761058E+03  0.00000000000E+00 0.  1.
<mgrwt>
<rscale>  4 0.31344494E+03</rscale>
<asrwt>0</asrwt>
<pdfrwt beam="1">  1       21 0.85804984E-01 0.31344494E+03</pdfrwt>
<pdfrwt beam="2">  1       21 0.33053364E-01 0.31344494E+03</pdfrwt>
<totfact> 0.96605822E+03</totfact>
</mgrwt>
</event>
<event>
 5    0  0.1972558E-002  0.2609103E+03  0.7546771E-02  0.1106598E+00
         21   -1    0    0  501  502  0.00000000000E+00  0.00000000000E+00  0.12155854369E+03  0.12155854369E+03  0.00000000000E+00 0.  1.
         21   -1    0    0  502  503 -0.00000000000E+00 -0.00000000000E+00 -0.14125032677E+04  0.14125032677E+04  0.00000000000E+00 0.  1.
         25    1    1    2    0    0 -0.22309215956E+03  0.11807442901E+03 -0.94206901780E+03  0.98327550398E+03  0.12500000000E+03 0.  0.
          3    1    1    2  501    0  0.12049603143E+03  0.73893393207E+02 -0.21070867197E+01  0.14136465953E+03  0.00000000000E+00 0.  1.
         -3    1    1    2    0  503  0.10259612812E+03 -0.19196782221E+03 -0.34676861947E+03  0.40942164784E+03  0.00000000000E+00 0. -1.
<mgrwt>
<rscale>  4 0.26091034E+03</rscale>
<asrwt>0</asrwt>
<pdfrwt beam="1">  1       21 0.18701314E-01 0.26091034E+03</pdfrwt>
<pdfrwt beam="2">  1       21 0.21730820E+00 0.26091034E+03</pdfrwt>
<totfact> 0.25696380E+03</totfact>
</mgrwt>
</event>
<event>
 5    0  0.1972558E-002  0.2756764E+03  0.7546771E-02  0.1098074E+00
         21   -1    0    0  501  502  0.00000000000E+00  0.00000000000E+00  0.88899402611E+03  0.88899402611E+03  0.00000000000E+00 0. -1.
         21   -1    0    0  502  503 -0.00000000000E+00 -0.00000000000E+00 -0.22389524586E+03  0.22389524586E+03  0.00000000000E+00 0.  1.
         25    1    1    2    0    0 -0.85283686310E+02  0.34171938367E+03  0.14546396163E+03  0.40103641787E+03  0.12500000000E+03 0.  0.
          2    1    1    2  501    0  0.14448736060E+03 -0.17805122369E+03  0.48202966925E+03  0.53378969423E+03  0.00000000000E+00 0. -1.
         -2    1    1    2    0  503 -0.59203674289E+02 -0.16366815998E+03  0.37605149368E+02  0.17806315986E+03  0.00000000000E+00 0.  1.
<mgrwt>
<rscale>  4 0.27567645E+03</rscale>
<asrwt>0</asrwt>
<pdfrwt beam="1">  1       21 0.13676831E+00 0.27567645E+03</pdfrwt>
<pdfrwt beam="2">  1       21 0.34445423E-01 0.27567645E+03</pdfrwt>
<totfact> 0.28982343E+03</totfact>
</mgrwt>
</event>
<event>
 5    0  0.1972558E-002  0.3134794E+03  0.7546771E-02  0.1078690E+00
         21   -1    0    0  501  502  0.00000000000E+00  0.00000000000E+00  0.46243478828E+03  0.46243478828E+03  0.00000000000E+00 0. -1.
         21   -1    0    0  502  503 -0.00000000000E+00 -0.00000000000E+00 -0.30668815199E+03  0.30668815199E+03  0.00000000000E+00 0. -1.
         25    1    1    2    0    0 -0.27903680782E+03  0.80433433117E+01 -0.87331641435E+02  0.31808497463E+03  0.12500000000E+03 0.  0.
          2    1    1    2  501    0  0.30318699605E+03 -0.20723060987E+02  0.12290335227E+03  0.32780639688E+03  0.00000000000E+00 0. -1.
         -2    1    1    2    0  503 -0.24150188234E+02  0.12679717676E+02  0.12017492545E+03  0.12323156876E+03  0.00000000000E+00 0.  1.
<mgrwt>
<rscale>  4 0.31347937E+03</rscale>
<asrwt>0</asrwt>
<pdfrwt beam="1">  1       21 0.71143814E-01 0.31347937E+03</pdfrwt>
<pdfrwt beam="2">  1       21 0.47182793E-01 0.31347937E+03</pdfrwt>
<totfact> 0.71619752E+03</totfact>
</mgrwt>
</event>
<event>
 5    0  0.1972558E-002  0.2731500E+03  0.7546771E-02  0.1099490E+00
         21   -1    0    0  503  502  0.00000000000E+00  0.00000000000E+00  0.31403605990E+03  0.31403605990E+03  0.00000000000E+00 0. -1.
         21   -1    0    0  501  503 -0.00000000000E+00 -0.00000000000E+00 -0.33339096210E+03  0.33339096210E+03  0.00000000000E+00 0. -1.
         25    1    1    2    0    0  0.71646924677E+02  0.23544644776E+03 -0.16504711196E+03  0.32161135046E+03  0.12500000000E+03 0.  0.
          3    1    1    2  501    0 -0.34321894275E+02  0.41768273704E+01 -0.11935308756E+02  0.36577177428E+02  0.00000000000E+00 0.  1.
         -3    1    1    2    0  502 -0.37325030403E+02 -0.23962327513E+03  0.15762751852E+03  0.28923849411E+03  0.00000000000E+00 0. -1.
<mgrwt>
<rscale>  4 0.27315002E+03</rscale>
<asrwt>0</asrwt>
<pdfrwt beam="1">  1       21 0.48313240E-01 0.27315002E+03</pdfrwt>
<pdfrwt beam="2">  1       21 0.51290917E-01 0.27315002E+03</pdfrwt>
<totfact> 0.14137735E+04</totfact>
</mgrwt>
</event>
<event>
 5    0  0.1972558E-002  0.1902010E+03  0.7546771E-02  0.1158280E+00
         21   -1    0    0  501  502  0.00000000000E+00  0.00000000000E+00  0.10806530519E+03  0.10806530519E+03  0.00000000000E+00 0.  1.
         21   -1    0    0  502  503 -0.00000000000E+00 -0.00000000000E+00 -0.94448992006E+03  0.94448992006E+03  0.00000000000E+00 0. -1.
         25    1    1    2    0    0 -0.20827226960E+03 -0.97055124512E+02 -0.62597290194E+03  0.67842767444E+03  0.12500000000E+03 0.  0.
          3    1    1    2  501    0  0.13219151300E+03  0.28504412717E+02  0.52694749917E+01  0.13533242412E+03  0.00000000000E+00 0.  1.
         -3    1    1    2    0  503  0.76080756607E+02  0.68550711795E+02 -0.21572118791E+03  0.23879512668E+03  0.00000000000E+00 0. -1.
<mgrwt>
<rscale>  4 0.19020104E+03</rscale>
<asrwt>0</asrwt>
<pdfrwt beam="1">  1       21 0.16625432E-01 0.19020104E+03</pdfrwt>
<pdfrwt beam="2">  1       21 0.14530614E+00 0.19020104E+03</pdfrwt>
<totfact> 0.10578245E+04</totfact>
</mgrwt>
</event>
<event>
 5    0  0.1972558E-002  0.2335064E+03  0.7546771E-02  0.1124196E+00
         21   -1    0    0  501  502  0.00000000000E+00  0.00000000000E+00  0.74567122634E+03  0.74567122634E+03  0.00000000000E+00 0.  1.
         21   -1    0    0  502  503 -0.00000000000E+00 -0.00000000000E+00 -0.14022869432E+03  0.14022869432E+03  0.00000000000E+00 0.  1.
         25    1    1    2    0    0  0.16124820651E+03 -0.12703922153E+03  0.60792152366E+02  0.24791255252E+03  0.12500000000E+03 0.  0.
          1    1    1    2  501    0 -0.43631889912E+02 -0.22035121517E+02  0.39011428494E+03  0.39316465217E+03  0.00000000000E+00 0.  1.
         -1    1    1    2    0  503 -0.11761631659E+03  0.14907434305E+03  0.15453609472E+03  0.24482271597E+03  0.00000000000E+00 0. -1.
<mgrwt>
<rscale>  4 0.23350640E+03</rscale>
<asrwt>0</asrwt>
<pdfrwt beam="1">  1       21 0.11471865E+00 0.23350640E+03</pdfrwt>
<pdfrwt beam="2">  1       21 0.21573646E-01 0.23350640E+03</pdfrwt>
<totfact> 0.11498210E+04</totfact>
</mgrwt>
</event>
<event>
 5    0  0.1972558E-002  0.2472031E+03  0.7546771E-02  0.1115085E+00
         21   -1    0    0  501  502  0.00000000000E+00  0.00000000000E+00  0.42716964417E+03  0.42716964417E+03  0.00000000000E+00 0. -1.
         21   -1    0    0  502  503 -0.00000000000E+00 -0.00000000000E+00 -0.34172986382E+03  0.34172986382E+03  0.00000000000E+00 0. -1.
         25    1    1    2    0    0  0.14992287940E+03 -0.14996140487E+03 -0.10582518586E+03  0.26793518373E+03  0.12500000000E+03 0.  0.
          4    1    1    2  501    0 -0.16555073664E+03  0.13694593007E+03 -0.79758964309E+02  0.22917837279E+03  0.00000000000E+00 0.  1.
         -4    1    1    2    0  503  0.15627857243E+02  0.13015474796E+02  0.27102393052E+03  0.27178595148E+03  0.00000000000E+00 0. -1.
<mgrwt>
<rscale>  4 0.24720313E+03</rscale>
<asrwt>0</asrwt>
<pdfrwt beam="1">  1       21 0.65718407E-01 0.24720313E+03</pdfrwt>
<pdfrwt beam="2">  1       21 0.52573825E-01 0.24720313E+03</pdfrwt>
<totfact> 0.70387776E+03</totfact>
</mgrwt>
</event>
<event>
 5    0  0.1972558E-002  0.2418046E+03  0.7546771E-02  0.1118596E+00
         21   -1    0    0  501  502  0.00000000000E+00  0.00000000000E+00  0.32580893804E+03  0.32580893804E+03  0.00000000000E+00 0.  1.
         21   -1    0    0  502  503 -0.00000000000E+00 -0.00000000000E+00 -0.23043819799E+03  0.23043819799E+03  0.00000000000E+00 0.  1.
         25    1    1    2    0    0  0.10671159574E+03 -0.19356369238E+03  0.15291339074E+03  0.29641486592E+03  0.12500000000E+03 0.  0.
          4    1    1    2  501    0 -0.24121951411E+02  0.81389476754E+01  0.29503999364E+02  0.38969179971E+02  0.00000000000E+00 0. -1.
         -4    1    1    2    0  503 -0.82589644332E+02  0.18542474470E+03 -0.87046650046E+02  0.22086309013E+03  0.00000000000E+00 0.  1.
<mgrwt>
<rscale>  4 0.24180460E+03</rscale>
<asrwt>0</asrwt>
<pdfrwt beam="1">  1       21 0.50124452E-01 0.24180460E+03</pdfrwt>
<pdfrwt beam="2">  1       21 0.35452030E-01 0.24180460E+03</pdfrwt>
<totfact> 0.28351920E+04</totfact>
</mgrwt>
</event>
<event>
 5    0  0.1972558E-002  0.3570461E+03  0.7546771E-02  0.1059760E+00
         21   -1    0    0  501  502  0.00000000000E+00  0.00000000000E+00  0.10171889272E+04  0.10171889272E+04  0.00000000000E+00 0.  1.
         21   -1    0    0  502  503 -0.00000000000E+00 -0.00000000000E+00 -0.24500060315E+03  0.24500060315E+03  0.00000000000E+00 0. -1.
         25    1    1    2    0    0 -0.89843879656E+02 -0.33237363515E+03 -0.36563271160E+02  0.36811143537E+03  0.12500000000E+03 0.  0.
          4    1    1    2  501    0  0.10544700947E+03  0.28287690288E+03  0.52491812536E+03  0.60553897672E+03  0.00000000000E+00 0.  1.
         -4    1    1    2    0  503 -0.15603129814E+02  0.49496732262E+02  0.28383346983E+03  0.28853911825E+03  0.00000000000E+00 0. -1.
<mgrwt>
<rscale>  4 0.35704608E+03</rscale>
<asrwt>0</asrwt>
<pdfrwt beam="1">  1       21 0.15649060E+00 0.35704608E+03</pdfrwt>
<pdfrwt beam="2">  1       21 0.37692401E-01 0.35704608E+03</pdfrwt>
<totfact> 0.16109724E+03</totfact>
</mgrwt>
</event>
<event>
 5    0  0.1972558E-002  0.3289449E+03  0.7546771E-02  0.1071605E+00
         21   -1    0    0  501  502  0.00000000000E+00  0.00000000000E+00  0.75841881444E+03  0.75841881444E+03  0.00000000000E+00 0.  1.
         21   -1    0    0  502  503 -0.00000000000E+00 -0.00000000000E+00 -0.14638658787E+04  0.14638658787E+04  0.00000000000E+00 0. -1.
         25    1    1    2    0    0 -0.28680623708E+03  0.11232263979E+03 -0.13901535599E+04  0.14293446446E+04  0.12500000000E+03 0.  0.
          3    1    1    2  501    0  0.63351830222E+02 -0.43752512290E+01  0.43951874578E+03  0.44408256564E+03  0.00000000000E+00 0.  1.
         -3    1    1    2    0  503  0.22345440686E+03 -0.10794738856E+03  0.24518774988E+03  0.34885748284E+03  0.00000000000E+00 0. -1.
<mgrwt>
<rscale>  4 0.32894492E+03</rscale>
<asrwt>0</asrwt>
<pdfrwt beam="1">  1       21 0.11667982E+00 0.32894492E+03</pdfrwt>
<pdfrwt beam="2">  1       21 0.22521013E+00 0.32894492E+03</pdfrwt>
<totfact> 0.44923645E+01</totfact>
</mgrwt>
</event>
<event>
 5    0  0.1972558E-002  0.2475205E+03  0.7546771E-02  0.1114882E+00
         21   -1    0    0  501  502  0.00000000000E+00  0.00000000000E+00  0.78005100863E+02  0.78005100863E+02  0.00000000000E+00 0.  1.
         21   -1    0    0  502  503 -0.00000000000E+00 -0.00000000000E+00 -0.11616603481E+04  0.11616603481E+04  0.00000000000E+00 0.  1.
         25    1    1    2    0    0  0.21413792309E+03 -0.85475309042E+02 -0.28387001953E+03  0.38648190973E+03  0.12500000000E+03 0.  0.
          4    1    1    2  501    0 -0.86090754830E+01  0.43386511873E+02 -0.25665357741E+02  0.51139184401E+02  0.00000000000E+00 0. -1.
         -4    1    1    2    0  503 -0.20552884761E+03  0.42088797169E+02 -0.77411986999E+03  0.80204435485E+03  0.00000000000E+00 0.  1.
<mgrwt>
<rscale>  4 0.24752053E+03</rscale>
<asrwt>0</asrwt>
<pdfrwt beam="1">  1       21 0.12000786E-01 0.24752053E+03</pdfrwt>
<pdfrwt beam="2">  1       21 0.17871696E+00 0.24752053E+03</pdfrwt>
<totfact> 0.10470841E+04</totfact>
</mgrwt>
</event>
<event>
 5    0  0.1972558E-002  0.2427991E+03  0.7546771E-02  0.1117942E+00
         21   -1    0    0  501  502  0.00000000000E+00  0.00000000000E+00  0.23246395406E+03  0.23246395406E+03  0.00000000000E+00 0.  1.
         21   -1    0    0  502  503 -0.00000000000E+00 -0.00000000000E+00 -0.53860561303E+03  0.53860561303E+03  0.00000000000E+00 0. -1.
         25    1    1    2    0    0  0.14794341070E+03 -0.14058699275E+03 -0.35076855216E+03  0.42463576449E+03  0.12500000000E+03 0.  0.
          1    1    1    2  501    0 -0.91664383622E+01 -0.27500664068E+02  0.11404642223E+03  0.11767283689E+03  0.00000000000E+00 0.  1.
         -1    1    1    2    0  503 -0.13877697234E+03  0.16808765682E+03 -0.69419529043E+02  0.22876096572E+03  0.00000000000E+00 0. -1.
<mgrwt>
<rscale>  4 0.24279907E+03</rscale>
<asrwt>0</asrwt>
<pdfrwt beam="1">  1       21 0.35763686E-01 0.24279907E+03</pdfrwt>
<pdfrwt beam="2">  1       21 0.82862400E-01 0.24279907E+03</pdfrwt>
<totfact> 0.92681890E+03</totfact>
</mgrwt>
</event>
<event>
 5    0  0.1972558E-002  0.2498898E+03  0.7546771E-02  0.1113375E+00
         21   -1    0    0  501  502  0.00000000000E+00  0.00000000000E+00  0.20063763991E+03  0.20063763991E+03  0.00000000000E+00 0.  1.
         21   -1    0    0  502  503 -0.00000000000E+00 -0.00000000000E+00 -0.39564495585E+03  0.39564495585E+03  0.00000000000E+00 0.  1.
         25    1    1    2    0    0 -0.37117957512E+01  0.21634720030E+03 -0.26277688082E+03  0.36262456839E+03  0.12500000000E+03 0.  0.
          2    1    1    2  501    0  0.13814397911E+02 -0.19219522576E+03  0.74557867190E+02  0.20661248257E+03  0.00000000000E+00 0.  1.
         -2    1    1    2    0  503 -0.10102602160E+02 -0.24151974542E+02 -0.67883023098E+01  0.27045544789E+02  0.00000000000E+00 0. -1.
<mgrwt>
<rscale>  4 0.24988975E+03</rscale>
<asrwt>0</asrwt>
<pdfrwt beam="1">  1       21 0.30867330E-01 0.24988975E+03</pdfrwt>
<pdfrwt beam="2">  1       21 0.60868454E-01 0.24988975E+03</pdfrwt>
<totfact> 0.24575021E+04</totfact>
</mgrwt>
</event>
<event>
 5    0  0.1972558E-002  0.2785746E+03  0.7546771E-02  0.1096470E+00
         21   -1    0    0  503  502  0.00000000000E+00  0.00000000000E+00  0.12050344475E+04  0.12050344475E+04  0.00000000000E+00 0.  1.
         21   -1    0    0  501  503 -0.00000000000E+00 -0.00000000000E+00 -0.26038413483E+03  0.26038413483E+03  0.00000000000E+00 0. -1.
         25    1    1    2    0    0 -0.16730850609E+03 -0.23596519667E+03 -0.12599405294E+03  0.33936884304E+03  0.12500000000E+03 0.  0.
          1    1    1    2  501    0  0.24426870419E+02  0.35119703630E+02  0.20631169802E+02  0.47494323334E+02  0.00000000000E+00 0. -1.
         -1    1    1    2    0  502  0.14288163567E+03  0.20084549304E+03  0.10500131958E+04  0.10785554160E+04  0.00000000000E+00 0.  1.
<mgrwt>
<rscale>  4 0.27857461E+03</rscale>
<asrwt>0</asrwt>
<pdfrwt beam="1">  1       21 0.18538991E+00 0.27857461E+03</pdfrwt>
<pdfrwt beam="2">  1       21 0.40059098E-01 0.27857461E+03</pdfrwt>
<totfact> 0.92796013E+02</totfact>
</mgrwt>
</event>
<event>
 5    0  0.1972558E-002  0.3444730E+03  0.7546771E-02  0.1064907E+00
         21   -1    0    0  501  502  0.00000000000E+00  0.00000000000E+00  0.13769560228E+04  0.13769560228E+04  0.00000000000E+00 0. -1.
         21   -1    0    0  502  503 -0.00000000000E+00 -0.00000000000E+00 -0.28439232938E+03  0.28439232938E+03  0.00000000000E+00 0. -1.
         25    1    1    2    0    0 -0.12066623721E+03 -0.17358590190E+03 -0.11914580269E+03  0.27297092965E+03  0.12500000000E+03 0.  0.
          3    1    1    2  501    0  0.25338942094E+03  0.21833454669E+03  0.12023434281E+04  0.12480007580E+04  0.00000000000E+00 0. -1.
         -3    1    1    2    0  503 -0.13272318373E+03 -0.44748644797E+02  0.93660680240E+01  0.14037666452E+03  0.00000000000E+00 0.  1.
<mgrwt>
<rscale>  4 0.34447300E+03</rscale>
<asrwt>0</asrwt>
<pdfrwt beam="1">  1       21 0.21183938E+00 0.34447300E+03</pdfrwt>
<pdfrwt beam="2">  1       21 0.43752667E-01 0.34447300E+03</pdfrwt>
<totfact> 0.49413196E+02</totfact>
</mgrwt>
</event>
<event>
 5    0  0.1972558E-002  0.1845032E+03  0.7546771E-02  0.1163515E+00
         21   -1    0    0  501  502  0.00000000000E+00  0.00000000000E+00  0.30308729884E+03  0.30308729884E+03  0.00000000000E+00 0. -1.
         21   -1    0    0  502  503 -0.00000000000E+00 -0.00000000000E+00 -0.73354999351E+03  0.73354999351E+03  0.00000000000E+00 0. -1.
         25    1    1    2    0    0 -0.21332173255E+03 -0.79299806711E+02 -0.39213414130E+03  0.47030713975E+03  0.12500000000E+03 0.  0.
          1    1    1    2  501    0  0.80758913328E+02  0.83668536019E+02 -0.27301976815E+03  0.29675279241E+03  0.00000000000E+00 0. -1.
         -1    1    1    2    0  503  0.13256281923E+03 -0.43687293083E+01  0.23469121477E+03  0.26957736019E+03  0.00000000000E+00 0.  1.
<mgrwt>
<rscale>  4 0.18450319E+03</rscale>
<asrwt>0</asrwt>
<pdfrwt beam="1">  1       21 0.46628816E-01 0.18450319E+03</pdfrwt>
<pdfrwt beam="2">  1       21 0.11285384E+00 0.18450319E+03</pdfrwt>
<totfact> 0.27228697E+03</totfact>
</mgrwt>
</event>
<event>
 5    0  0.1972558E-002  0.3459199E+03  0.7546771E-02  0.1064302E+00
         21   -1    0    0  501  502  0.00000000000E+00  0.00000000000E+00  0.32355213884E+03  0.32355213884E+03  0.00000000000E+00 0. -1.
         21   -1    0    0  502  503 -0.00000000000E+00 -0.00000000000E+00 -0.12680583331E+04  0.12680583331E+04  0.00000000000E+00 0.  1.
         25    1    1    2    0    0  0.18297531950E+03 -0.28903531063E+03 -0.96706475198E+03  0.10333734140E+04  0.12500000000E+03 0.  0.
          4    1    1    2  501    0 -0.15617670161E+03  0.23124243691E+03 -0.18917869146E+03  0.33712431544E+03  0.00000000000E+00 0.  1.
         -4    1    1    2    0  503 -0.26798617888E+02  0.57792873723E+02  0.21173724920E+03  0.22111274245E+03  0.00000000000E+00 0. -1.
<mgrwt>
<rscale>  4 0.34591985E+03</rscale>
<asrwt>0</asrwt>
<pdfrwt beam="1">  1       21 0.49777251E-01 0.34591985E+03</pdfrwt>
<pdfrwt beam="2">  1       21 0.19508590E+00 0.34591985E+03</pdfrwt>
<totfact> 0.48500501E+02</totfact>
</mgrwt>
</event>
<event>
 5    0  0.1972558E-002  0.2379839E+03  0.7546771E-02  0.1121143E+00
         21   -1    0    0  501  502  0.00000000000E+00  0.00000000000E+00  0.13327966800E+04  0.13327966800E+04  0.00000000000E+00 0.  1.
         21   -1    0    0  502  503 -0.00000000000E+00 -0.00000000000E+00 -0.68518677807E+02  0.68518677807E+02  0.00000000000E+00 0. -1.
         25    1    1    2    0    0 -0.84559563964E+02  0.18669349266E+03  0.31822474244E+03  0.39861857303E+03  0.12500000000E+03 0.  0.
          3    1    1    2  501    0  0.42706213940E+02  0.11353462986E+02  0.60121767596E+03  0.60283946098E+03  0.00000000000E+00 0.  1.
         -3    1    1    2    0  503  0.41853350024E+02 -0.19804695565E+03  0.34483558381E+03  0.39985732382E+03  0.00000000000E+00 0. -1.
<mgrwt>
<rscale>  4 0.23798394E+03</rscale>
<asrwt>0</asrwt>
<pdfrwt beam="1">  1       21 0.20504562E+00 0.23798394E+03</pdfrwt>
<pdfrwt beam="2">  1       21 0.10541336E-01 0.23798394E+03</pdfrwt>
<totfact> 0.88876638E+03</totfact>
</mgrwt>
</event>
<event>
 5    0  0.1972558E-002  0.3040969E+03  0.7546771E-02  0.1083210E+00
         21   -1    0    0  501  502  0.00000000000E+00  0.00000000000E+00  0.16150938686E+04  0.16150938686E+04  0.00000000000E+00 0. -1.
         21   -1    0    0  502  503 -0.00000000000E+00 -0.00000000000E+00 -0.91945127066E+02  0.91945127066E+02  0.00000000000E+00 0. -1.
         25    1    1    2    0    0  0.12957340614E+03 -0.25559831996E+03  0.44794760025E+03  0.54626167842E+03  0.12500000000E+03 0.  0.
          3    1    1    2  501    0 -0.39529451118E+02  0.86938763206E+00  0.68517183826E+03  0.68631172312E+03  0.00000000000E+00 0.  1.
         -3    1    1    2    0  503 -0.90043955018E+02  0.25472893232E+03  0.39002930304E+03  0.47446559415E+03  0.00000000000E+00 0. -1.
<mgrwt>
<rscale>  4 0.30409689E+03</rscale>
<asrwt>0</asrwt>
<pdfrwt beam="1">  1       21 0.24847596E+00 0.30409689E+03</pdfrwt>
<pdfrwt beam="2">  1       21 0.14145405E-01 0.30409689E+03</pdfrwt>
<totfact> 0.26863387E+03</totfact>
</mgrwt>
</event>
<event>
 5    0  0.1972558E-002  0.2827946E+03  0.7546771E-02  0.1094172E+00
         21   -1    0    0  503  502  0.00000000000E+00  0.00000000000E+00  0.15648354102E+04  0.15648354102E+04  0.00000000000E+00 0.  1.
         21   -1    0    0  501  503 -0.00000000000E+00 -0.00000000000E+00 -0.17573851081E+03  0.17573851081E+03  0.00000000000E+00 0. -1.
         25    1    1    2    0    0 -0.26025630269E+03  0.69582084611E+02 -0.10869542011E+01  0.29698685335E+03  0.12500000000E+03 0.  0.
          2    1    1    2  501    0  0.19383135151E+03 -0.79239817423E+02  0.40330046149E+03  0.45442359504E+03  0.00000000000E+00 0.  1.
         -2    1    1    2    0  502  0.66424951180E+02  0.96577328114E+01  0.98688339208E+03  0.98916347259E+03  0.00000000000E+00 0. -1.
<mgrwt>
<rscale>  4 0.28279464E+03</rscale>
<asrwt>0</asrwt>
<pdfrwt beam="1">  1       21 0.24074390E+00 0.28279464E+03</pdfrwt>
<pdfrwt beam="2">  1       21 0.27036695E-01 0.28279464E+03</pdfrwt>
<totfact> 0.89734084E+02</totfact>
</mgrwt>
</event>
<event>
 5    0  0.1972558E-002  0.2926423E+03  0.7546771E-02  0.1088978E+00
         21   -1    0    0  501  502  0.00000000000E+00  0.00000000000E+00  0.82199820111E+02  0.82199820111E+02  0.00000000000E+00 0. -1.
         21   -1    0    0  502  503 -0.00000000000E+00 -0.00000000000E+00 -0.22723616530E+04  0.22723616530E+04  0.00000000000E+00 0.  1.
         25    1    1    2    0    0  0.25101641588E+03 -0.59491208045E+02 -0.63386437193E+03  0.69567053041E+03  0.12500000000E+03 0.  0.
          4    1    1    2  501    0 -0.26530169436E+03  0.33401157313E+02 -0.15909261998E+04  0.16132410853E+04  0.00000000000E+00 0.  1.
         -4    1    1    2    0  503  0.14285278477E+02  0.26090050732E+02  0.34628738788E+02  0.45649857375E+02  0.00000000000E+00 0. -1.
<mgrwt>
<rscale>  4 0.29264230E+03</rscale>
<asrwt>0</asrwt>
<pdfrwt beam="1">  1       21 0.12646128E-01 0.29264230E+03</pdfrwt>
<pdfrwt beam="2">  1       21 0.34959406E+00 0.29264230E+03</pdfrwt>
<totfact> 0.83445716E+02</totfact>
</mgrwt>
</event>
<event>
 5    0  0.1972558E-002  0.2274025E+03  0.7546771E-02  0.1128481E+00
         21   -1    0    0  501  502  0.00000000000E+00  0.00000000000E+00  0.86904352232E+02  0.86904352232E+02  0.00000000000E+00 0. -1.
         21   -1    0    0  502  503 -0.00000000000E+00 -0.00000000000E+00 -0.11192971665E+04  0.11192971665E+04  0.00000000000E+00 0. -1.
         25    1    1    2    0    0  0.59881613210E+02 -0.21083858715E+03 -0.59168994969E+03  0.64324234468E+03  0.12500000000E+03 0.  0.
          4    1    1    2  501    0 -0.19416205123E+02  0.17231301428E+03 -0.46921591254E+03  0.50023228254E+03  0.00000000000E+00 0. -1.
         -4    1    1    2    0  503 -0.40465408087E+02  0.38525572866E+02  0.28513047951E+02  0.62726891520E+02  0.00000000000E+00 0.  1.
<mgrwt>
<rscale>  4 0.22740252E+03</rscale>
<asrwt>0</asrwt>
<pdfrwt beam="1">  1       21 0.13369900E-01 0.22740252E+03</pdfrwt>
<pdfrwt beam="2">  1       21 0.17219957E+00 0.22740252E+03</pdfrwt>
<totfact> 0.96945695E+03</totfact>
</mgrwt>
</event>
<event>
 5    0  0.1972558E-002  0.2006392E+03  0.7546771E-02  0.1149201E+00
         21   -1    0    0  501  502  0.00000000000E+00  0.00000000000E+00  0.15328702944E+03  0.15328702944E+03  0.00000000000E+00 0.  1.
         21   -1    0    0  502  503 -0.00000000000E+00 -0.00000000000E+00 -0.45245173300E+03  0.45245173300E+03  0.00000000000E+00 0.  1.
         25    1    1    2    0    0 -0.11678143216E+03  0.18284855487E+03 -0.88868787380E+02  0.26569561209E+03  0.12500000000E+03 0.  0.
          4    1    1    2  501    0  0.46230491040E+02 -0.72656456744E+02 -0.18871129401E+03  0.20743232992E+03  0.00000000000E+00 0.  1.
         -4    1    1    2    0  503  0.70550941119E+02 -0.11019209812E+03 -0.21584622169E+02  0.13261082043E+03  0.00000000000E+00 0. -1.
<mgrwt>
<rscale>  4 0.20063915E+03</rscale>
<asrwt>0</asrwt>
<pdfrwt beam="1">  1       21 0.23582620E-01 0.20063915E+03</pdfrwt>
<pdfrwt beam="2">  1       21 0.69607958E-01 0.20063915E+03</pdfrwt>
<totfact> 0.31614607E+04</totfact>
</mgrwt>
</event>
<event>
 5    0  0.1972558E-002  0.4425450E+03  0.7546771E-02  0.1029969E+00
         21   -1    0    0  503  502  0.00000000000E+00  0.00000000000E+00  0.15067353099E+03  0.15067353099E+03  0.00000000000E+00 0.  1.
         21   -1    0    0  501  503 -0.00000000000E+00 -0.00000000000E+00 -0.19295622708E+04  0.19295622708E+04  0.00000000000E+00 0.  1.
         25    1    1    2    0    0  0.24877360891E+03  0.32346476298E+03 -0.11545467144E+04  0.12309024645E+04  0.12500000000E+03 0.  0.
          2    1    1    2  501    0 -0.35775668194E+02  0.96795707936E+02 -0.13648562928E+03  0.17110708492E+03  0.00000000000E+00 0. -1.
         -2    1    1    2    0  502 -0.21299794072E+03 -0.42026047092E+03 -0.48785639611E+03  0.67822625236E+03  0.00000000000E+00 0.  1.
<mgrwt>
<rscale>  4 0.44254504E+03</rscale>
<asrwt>0</asrwt>
<pdfrwt beam="1">  1       21 0.23180545E-01 0.44254504E+03</pdfrwt>
<pdfrwt beam="2">  1       21 0.29685572E+00 0.44254504E+03</pdfrwt>
<totfact> 0.49869515E+02</totfact>
</mgrwt>
</event>
<event>
 5    0  0.1972558E-002  0.2370059E+03  0.7546771E-02  0.1121804E+00
         21   -1    0    0  501  502  0.00000000000E+00  0.00000000000E+00  0.10426152089E+04  0.10426152089E+04  0.00000000000E+00 0. -1.
         21   -1    0    0  502  503 -0.00000000000E+00 -0.00000000000E+00 -0.91788821716E+02  0.91788821716E+02  0.00000000000E+00 0.  1.
         25    1    1    2    0    0  0.13472764601E+02 -0.20932948781E+03  0.13615052067E+03  0.27957523876E+03  0.12500000000E+03 0.  0.
          4    1    1    2  501    0 -0.63565924224E+02  0.16721164379E+03  0.70286638571E+03  0.72527340825E+03  0.00000000000E+00 0. -1.
         -4    1    1    2    0  503  0.50093159622E+02  0.42117844011E+02  0.11180948081E+03  0.12955538362E+03  0.00000000000E+00 0.  1.
<mgrwt>
<rscale>  4 0.23700591E+03</rscale>
<asrwt>0</asrwt>
<pdfrwt beam="1">  1       21 0.16040233E+00 0.23700591E+03</pdfrwt>
<pdfrwt beam="2">  1       21 0.14121358E-01 0.23700591E+03</pdfrwt>
<totfact> 0.10603075E+04</totfact>
</mgrwt>
</event>
<event>
 5    0  0.1972558E-002  0.2375822E+03  0.7546771E-02  0.1121414E+00
         21   -1    0    0  501  502  0.00000000000E+00  0.00000000000E+00  0.56620778993E+02  0.56620778993E+02  0.00000000000E+00 0.  1.
         21   -1    0    0  502  503 -0.00000000000E+00 -0.00000000000E+00 -0.13717961749E+04  0.13717961749E+04  0.00000000000E+00 0.  1.
         25    1    1    2    0    0 -0.27631427536E+02  0.21962233390E+03 -0.60570460008E+03  0.65688699781E+03  0.12500000000E+03 0.  0.
          3    1    1    2  501    0  0.10306099870E+03 -0.16809538449E+03 -0.58357181993E+03  0.61598189645E+03  0.00000000000E+00 0.  1.
         -3    1    1    2    0  503 -0.75429571160E+02 -0.51526949417E+02 -0.12589897587E+03  0.15554805961E+03  0.00000000000E+00 0. -1.
<mgrwt>
<rscale>  4 0.23758217E+03</rscale>
<asrwt>0</asrwt>
<pdfrwt beam="1">  1       21 0.87108902E-02 0.23758217E+03</pdfrwt>
<pdfrwt beam="2">  1       21 0.21104554E+00 0.23758217E+03</pdfrwt>
<totfact> 0.11412827E+04</totfact>
</mgrwt>
</event>
<event>
 5    0  0.1972558E-002  0.2867560E+03  0.7546771E-02  0.1092055E+00
         21   -1    0    0  501  502  0.00000000000E+00  0.00000000000E+00  0.14526357965E+03  0.14526357965E+03  0.00000000000E+00 0.  1.
         21   -1    0    0  502  503 -0.00000000000E+00 -0.00000000000E+00 -0.95721431471E+03  0.95721431471E+03  0.00000000000E+00 0. -1.
         25    1    1    2    0    0  0.28657226801E+03 -0.24609204657E+02 -0.63110013099E+03  0.70472807031E+03  0.12500000000E+03 0.  0.
          2    1    1    2  501    0 -0.21417477086E+03  0.61084218919E+02 -0.21520697274E+03  0.30970333449E+03  0.00000000000E+00 0.  1.
         -2    1    1    2    0  503 -0.72397497143E+02 -0.36475014262E+02  0.34356368673E+02  0.88046489575E+02  0.00000000000E+00 0. -1.
<mgrwt>
<rscale>  4 0.28675601E+03</rscale>
<asrwt>0</asrwt>
<pdfrwt beam="1">  1       21 0.22348243E-01 0.28675601E+03</pdfrwt>
<pdfrwt beam="2">  1       21 0.14726374E+00 0.28675601E+03</pdfrwt>
<totfact> 0.55096969E+03</totfact>
</mgrwt>
</event>
<event>
 5    0  0.1972558E-002  0.2963196E+03  0.7546771E-02  0.1087095E+00
         21   -1    0    0  501  502  0.00000000000E+00  0.00000000000E+00  0.10693818236E+04  0.10693818236E+04  0.00000000000E+00 0.  1.
         21   -1    0    0  502  503 -0.00000000000E+00 -0.00000000000E+00 -0.24655076353E+03  0.24655076353E+03  0.00000000000E+00 0. -1.
         25    1    1    2    0    0 -0.18728451247E+03 -0.14784803859E+03  0.12997142323E+03  0.29908544262E+03  0.12500000000E+03 0.  0.
          1    1    1    2  501    0 -0.50274004985E+02 -0.12851550162E+02  0.72625118400E+03  0.72810261652E+03  0.00000000000E+00 0.  1.
         -1    1    1    2    0  503  0.23755851746E+03  0.16069958876E+03 -0.33391547132E+02  0.28874452802E+03  0.00000000000E+00 0. -1.
<mgrwt>
<rscale>  4 0.29631956E+03</rscale>
<asrwt>0</asrwt>
<pdfrwt beam="1">  1       21 0.16452028E+00 0.29631956E+03</pdfrwt>
<pdfrwt beam="2">  1       21 0.37930887E-01 0.29631956E+03</pdfrwt>
<totfact> 0.14361675E+03</totfact>
</mgrwt>
</event>
<event>
 5    0  0.1972558E-002  0.3136798E+03  0.7546771E-02  0.1078595E+00
         21   -1    0    0  503  502  0.00000000000E+00  0.00000000000E+00  0.52716155501E+03  0.52716155501E+03  0.00000000000E+00 0. -1.
         21   -1    0    0  501  503 -0.00000000000E+00 -0.00000000000E+00 -0.27839947464E+03  0.27839947464E+03  0.00000000000E+00 0.  1.
         25    1    1    2    0    0  0.22081447957E+03  0.21156919835E+03 -0.35490527390E+02  0.33227268562E+03  0.12500000000E+03 0.  0.
          2    1    1    2  501    0  0.57091633994E+01 -0.42191116092E+02 -0.28785976407E+02  0.51393747300E+02  0.00000000000E+00 0.  1.
         -2    1    1    2    0  502 -0.22652364297E+03 -0.16937808226E+03  0.31303858416E+03  0.42189459673E+03  0.00000000000E+00 0. -1.
<mgrwt>
<rscale>  4 0.31367978E+03</rscale>
<asrwt>0</asrwt>
<pdfrwt beam="1">  1       21 0.81101778E-01 0.31367978E+03</pdfrwt>
<pdfrwt beam="2">  1       21 0.42830688E-01 0.31367978E+03</pdfrwt>
<totfact> 0.65063937E+03</totfact>
</mgrwt>
</event>
<event>
 5    0  0.1972558E-002  0.2886398E+03  0.7546771E-02  0.1091061E+00
         21   -1    0    0  501  502  0.00000000000E+00  0.00000000000E+00  0.15237859498E+03  0.15237859498E+03  0.00000000000E+00 0. -1.
         21   -1    0    0  502  503 -0.00000000000E+00 -0.00000000000E+00 -0.87133851851E+03  0.87133851851E+03  0.00000000000E+00 0.  1.
         25    1    1    2    0    0 -0.19644349553E+03  0.17531901655E+03 -0.62743582782E+03  0.69182911367E+03  0.12500000000E+03 0.  0.
          2    1    1    2  501    0 -0.19595921910E+02 -0.30776770907E+02 -0.59764293105E+02  0.70021286144E+02  0.00000000000E+00 0.  1.
         -2    1    1    2    0  503  0.21603941744E+03 -0.14454224564E+03 -0.31759802609E+02  0.26186671367E+03  0.00000000000E+00 0. -1.
<mgrwt>
<rscale>  4 0.28863976E+03</rscale>
<asrwt>0</asrwt>
<pdfrwt beam="1">  1       21 0.23442861E-01 0.28863976E+03</pdfrwt>
<pdfrwt beam="2">  1       21 0.13405208E+00 0.28863976E+03</pdfrwt>
<totfact> 0.64273502E+03</totfact>
</mgrwt>
</event>
<event>
 5    0  0.1972558E-002  0.2413579E+03  0.7546771E-02  0.1118892E+00
         21   -1    0    0  503  502  0.00000000000E+00  0.00000000000E+00  0.21984825499E+03  0.21984825499E+03  0.00000000000E+00 0. -1.
         21   -1    0    0  501  503 -0.00000000000E+00 -0.00000000000E+00 -0.31032035594E+03  0.31032035594E+03  0.00000000000E+00 0. -1.
         25    1    1    2    0    0 -0.11864106698E+03  0.19747426196E+03 -0.46224782656E+01  0.26214147748E+03  0.12500000000E+03 0.  0.
          1    1    1    2  501    0  0.11913308083E+02 -0.33210413193E+02  0.24723925253E+02  0.43082838043E+02  0.00000000000E+00 0.  1.
         -1    1    1    2    0  502  0.10672775890E+03 -0.16426384877E+03 -0.11057354793E+03  0.22494429540E+03  0.00000000000E+00 0. -1.
<mgrwt>
<rscale>  4 0.24135792E+03</rscale>
<asrwt>0</asrwt>
<pdfrwt beam="1">  1       21 0.33822808E-01 0.24135792E+03</pdfrwt>
<pdfrwt beam="2">  1       21 0.47741593E-01 0.24135792E+03</pdfrwt>
<totfact> 0.34483043E+04</totfact>
</mgrwt>
</event>
<event>
 5    0  0.1972558E-002  0.2556441E+03  0.7546771E-02  0.1109789E+00
         21   -1    0    0  501  502  0.00000000000E+00  0.00000000000E+00  0.14541992060E+04  0.14541992060E+04  0.00000000000E+00 0. -1.
         21   -1    0    0  502  503 -0.00000000000E+00 -0.00000000000E+00 -0.15642761931E+03  0.15642761931E+03  0.00000000000E+00 0.  1.
         25    1    1    2    0    0  0.38825177229E+02 -0.22060493421E+03 -0.25367331793E+02  0.25776429719E+03  0.12500000000E+03 0.  0.
          1    1    1    2  501    0 -0.21350066364E+02  0.43642485639E+01  0.53404373337E+03  0.53448814875E+03  0.00000000000E+00 0. -1.
         -1    1    1    2    0  503 -0.17475110865E+02  0.21624068565E+03  0.78909518515E+03  0.81837437940E+03  0.00000000000E+00 0.  1.
<mgrwt>
<rscale>  4 0.25564406E+03</rscale>
<asrwt>0</asrwt>
<pdfrwt beam="1">  1       21 0.22372295E+00 0.25564406E+03</pdfrwt>
<pdfrwt beam="2">  1       21 0.24065789E-01 0.25564406E+03</pdfrwt>
<totfact> 0.14609667E+03</totfact>
</mgrwt>
</event>
<event>
 5    0  0.1972558E-002  0.2826684E+03  0.7546771E-02  0.1094240E+00
         21   -1    0    0  501  502  0.00000000000E+00  0.00000000000E+00  0.79272465440E+03  0.79272465440E+03  0.00000000000E+00 0.  1.
         21   -1    0    0  502  503 -0.00000000000E+00 -0.00000000000E+00 -0.34813449742E+03  0.34813449742E+03  0.00000000000E+00 0. -1.
         25    1    1    2    0    0  0.14186419914E+03 -0.20742412907E+03 -0.16136045234E+03  0.32374745698E+03  0.12500000000E+03 0.  0.
          3    1    1    2  501    0  0.45762419863E+02  0.25289015031E+02  0.54643976282E+03  0.54893546774E+03  0.00000000000E+00 0.  1.
         -3    1    1    2    0  503 -0.18762661900E+03  0.18213511404E+03  0.59510846498E+02  0.26817622709E+03  0.00000000000E+00 0. -1.
<mgrwt>
<rscale>  4 0.28266840E+03</rscale>
<asrwt>0</asrwt>
<pdfrwt beam="1">  1       21 0.12195764E+00 0.28266840E+03</pdfrwt>
<pdfrwt beam="2">  1       21 0.53559154E-01 0.28266840E+03</pdfrwt>
<totfact> 0.15571776E+03</totfact>
</mgrwt>
</event>
<event>
 5    0  0.1972558E-002  0.2290900E+03  0.7546771E-02  0.1127282E+00
         21   -1    0    0  501  502  0.00000000000E+00  0.00000000000E+00  0.24293637524E+03  0.24293637524E+03  0.00000000000E+00 0. -1.
         21   -1    0    0  502  503 -0.00000000000E+00 -0.00000000000E+00 -0.36011227559E+03  0.36011227559E+03  0.00000000000E+00 0.  1.
         25    1    1    2    0    0 -0.45866104134E+01 -0.22465319484E+03 -0.17696235823E+03  0.31213902540E+03  0.12500000000E+03 0.  0.
          2    1    1    2  501    0 -0.15875992438E+02  0.63542565033E+02  0.10371890272E+03  0.12266749972E+03  0.00000000000E+00 0. -1.
         -2    1    1    2    0  503  0.20462602852E+02  0.16111062981E+03 -0.43932444844E+02  0.16824212571E+03  0.00000000000E+00 0.  1.
<mgrwt>
<rscale>  4 0.22909000E+03</rscale>
<asrwt>0</asrwt>
<pdfrwt beam="1">  1       21 0.37374827E-01 0.22909000E+03</pdfrwt>
<pdfrwt beam="2">  1       21 0.55401888E-01 0.22909000E+03</pdfrwt>
<totfact> 0.20772424E+04</totfact>
</mgrwt>
</event>
<event>
 5    0  0.1972558E-002  0.3295033E+03  0.7546771E-02  0.1071357E+00
         21   -1    0    0  501  502  0.00000000000E+00  0.00000000000E+00  0.39091881134E+03  0.39091881134E+03  0.00000000000E+00 0. -1.
         21   -1    0    0  502  503 -0.00000000000E+00 -0.00000000000E+00 -0.38661565731E+03  0.38661565731E+03  0.00000000000E+00 0. -1.
         25    1    1    2    0    0 -0.16991342465E+03 -0.26056822140E+03 -0.18437685008E+03  0.38260448602E+03  0.12500000000E+03 0.  0.
          4    1    1    2  501    0  0.12539955348E+03  0.26455143460E+03  0.12789467410E+03  0.31948326595E+03  0.00000000000E+00 0. -1.
         -4    1    1    2    0  503  0.44513871163E+02 -0.39832131971E+01  0.60785330008E+02  0.75446716678E+02  0.00000000000E+00 0.  1.
<mgrwt>
<rscale>  4 0.32950327E+03</rscale>
<asrwt>0</asrwt>
<pdfrwt beam="1">  1       21 0.60141356E-01 0.32950327E+03</pdfrwt>
<pdfrwt beam="2">  1       21 0.59479332E-01 0.32950327E+03</pdfrwt>
<totfact> 0.62900083E+03</totfact>
</mgrwt>
</event>
<event>
 5    0  0.1972558E-002  0.2275546E+03  0.7546771E-02  0.1128373E+00
         21   -1    0    0  501  502  0.00000000000E+00  0.00000000000E+00  0.10277734187E+04  0.10277734187E+04  0.00000000000E+00 0. -1.
         21   -1    0    0  502  503 -0.00000000000E+00 -0.00000000000E+00 -0.66840871744E+02  0.66840871744E+02  0.00000000000E+00 0. -1.
         25    1    1    2    0    0 -0.30151338224E+02 -0.22533772999E+03  0.45430366468E+03  0.52316633635E+03  0.12500000000E+03 0.  0.
          1    1    1    2  501    0 -0.27401298228E+01  0.17393799481E+03  0.46785274636E+03  0.49914739970E+03  0.00000000000E+00 0. -1.
         -1    1    1    2    0  503  0.32891468047E+02  0.51399735180E+02  0.38776135891E+02  0.72300554365E+02  0.00000000000E+00 0.  1.
<mgrwt>
<rscale>  4 0.22755457E+03</rscale>
<asrwt>0</asrwt>
<pdfrwt beam="1">  1       21 0.15811898E+00 0.22755457E+03</pdfrwt>
<pdfrwt beam="2">  1       21 0.10283212E-01 0.22755457E+03</pdfrwt>
<totfact> 0.19613911E+04</totfact>
</mgrwt>
</event>
<event>
 5    0  0.1972558E-002  0.2393331E+03  0.7546771E-02  0.1120238E+00
         21   -1    0    0  501  502  0.00000000000E+00  0.00000000000E+00  0.53230619400E+02  0.53230619400E+02  0.00000000000E+00 0. -1.
         21   -1    0    0  502  503 -0.00000000000E+00 -0.00000000000E+00 -0.10311308990E+04  0.10311308990E+04  0.00000000000E+00 0. -1.
         25    1    1    2    0    0 -0.20606704935E+02  0.20305340988E+03 -0.59483254508E+03  0.64117554557E+03  0.12500000000E+03 0.  0.
          2    1    1    2  501    0 -0.25592017151E+02 -0.11785021057E+03 -0.16338016221E+03  0.20306821730E+03  0.00000000000E+00 0. -1.
         -2    1    1    2    0  503  0.46198722087E+02 -0.85203199304E+02 -0.21968757235E+03  0.24011775557E+03  0.00000000000E+00 0.  1.
<mgrwt>
<rscale>  4 0.23933308E+03</rscale>
<asrwt>0</asrwt>
<pdfrwt beam="1">  1       21 0.81893256E-02 0.23933308E+03</pdfrwt>
<pdfrwt beam="2">  1       21 0.15863553E+00 0.23933308E+03</pdfrwt>
<totfact> 0.28855887E+04</totfact>
</mgrwt>
</event>
<event>
 5    0  0.1972558E-002  0.2814781E+03  0.7546771E-02  0.1094884E+00
         21   -1    0    0  501  502  0.00000000000E+00  0.00000000000E+00  0.17086713688E+03  0.17086713688E+03  0.00000000000E+00 0.  1.
         21   -1    0    0  502  503 -0.00000000000E+00 -0.00000000000E+00 -0.27587606573E+04  0.27587606573E+04  0.00000000000E+00 0. -1.
         25    1    1    2    0    0  0.17829772913E+02 -0.24640482871E+03 -0.22678491450E+04  0.22846877215E+04  0.12500000000E+03 0.  0.
          1    1    1    2  501    0 -0.11641128619E+02  0.27641812715E+03 -0.44075976988E+03  0.52039568756E+03  0.00000000000E+00 0. -1.
         -1    1    1    2    0  503 -0.61886442945E+01 -0.30013298438E+02  0.12071539445E+03  0.12454438510E+03  0.00000000000E+00 0.  1.
<mgrwt>
<rscale>  4 0.28147808E+03</rscale>
<asrwt>0</asrwt>
<pdfrwt beam="1">  1       21 0.26287255E-01 0.28147808E+03</pdfrwt>
<pdfrwt beam="2">  1       21 0.42442466E+00 0.28147808E+03</pdfrwt>
<totfact> 0.73301661E+01</totfact>
</mgrwt>
</event>
<event>
 5    0  0.1972558E-002  0.2376484E+03  0.7546771E-02  0.1121369E+00
         21   -1    0    0  501  502  0.00000000000E+00  0.00000000000E+00  0.50494461487E+03  0.50494461487E+03  0.00000000000E+00 0. -1.
         21   -1    0    0  502  503 -0.00000000000E+00 -0.00000000000E+00 -0.31906600184E+03  0.31906600184E+03  0.00000000000E+00 0. -1.
         25    1    1    2    0    0  0.18914907416E+03  0.82765863952E+02 -0.19936744980E+03  0.31304942187E+03  0.12500000000E+03 0.  0.
          4    1    1    2  501    0 -0.47139358794E+02  0.56593215496E+02  0.27248324359E+03  0.28226234114E+03  0.00000000000E+00 0.  1.
         -4    1    1    2    0  503 -0.14200971537E+03 -0.13935907945E+03  0.11276281925E+03  0.22869885371E+03  0.00000000000E+00 0. -1.
<mgrwt>
<rscale>  4 0.23764836E+03</rscale>
<asrwt>0</asrwt>
<pdfrwt beam="1">  1       21 0.77683787E-01 0.23764836E+03</pdfrwt>
<pdfrwt beam="2">  1       21 0.49087077E-01 0.23764836E+03</pdfrwt>
<totfact> 0.56353310E+03</totfact>
</mgrwt>
</event>
<event>
 5    0  0.1972558E-002  0.2228900E+03  0.7546771E-02  0.1131747E+00
         21   -1    0    0  501  502  0.00000000000E+00  0.00000000000E+00  0.29852084495E+03  0.29852084495E+03  0.00000000000E+00 0. -1.
         21   -1    0    0  502  503 -0.00000000000E+00 -0.00000000000E+00 -0.25020653420E+03  0.25020653420E+03  0.00000000000E+00 0. -1.
         25    1    1    2    0    0 -0.86798456513E+01  0.21296939660E+03 -0.10045773275E+03  0.26673593623E+03  0.12500000000E+03 0.  0.
          1    1    1    2  501    0  0.52740271095E+01 -0.17839607048E+03  0.16553040886E+03  0.24341998600E+03  0.00000000000E+00 0. -1.
         -1    1    1    2    0  503  0.34058185418E+01 -0.34573326114E+02 -0.16758365367E+02  0.38571456912E+02  0.00000000000E+00 0.  1.
<mgrwt>
<rscale>  4 0.22288996E+03</rscale>
<asrwt>0</asrwt>
<pdfrwt beam="1">  1       21 0.45926284E-01 0.22288996E+03</pdfrwt>
<pdfrwt beam="2">  1       21 0.38493313E-01 0.22288996E+03</pdfrwt>
<totfact> 0.29099414E+04</totfact>
</mgrwt>
</event>
<event>
 5    0  0.1972558E-002  0.2284753E+03  0.7546771E-02  0.1127718E+00
         21   -1    0    0  503  502  0.00000000000E+00  0.00000000000E+00  0.14088570517E+03  0.14088570517E+03  0.00000000000E+00 0.  1.
         21   -1    0    0  501  503 -0.00000000000E+00 -0.00000000000E+00 -0.76977485776E+03  0.76977485776E+03  0.00000000000E+00 0.  1.
         25    1    1    2    0    0 -0.17808250180E+02 -0.22091680181E+03 -0.57764721569E+03  0.63120731372E+03  0.12500000000E+03 0.  0.
          2    1    1    2  501    0 -0.70471792064E+02  0.11977319987E+03 -0.11495346111E+02  0.13944187272E+03  0.00000000000E+00 0. -1.
         -2    1    1    2    0  502  0.88280042244E+02  0.10114360193E+03 -0.39746590785E+02  0.14001137650E+03  0.00000000000E+00 0.  1.
<mgrwt>
<rscale>  4 0.22847527E+03</rscale>
<asrwt>0</asrwt>
<pdfrwt beam="1">  1       21 0.21674724E-01 0.22847527E+03</pdfrwt>
<pdfrwt beam="2">  1       21 0.11842690E+00 0.22847527E+03</pdfrwt>
<totfact> 0.10572380E+04</totfact>
</mgrwt>
</event>
<event>
 5    0  0.1972558E-002  0.2373611E+03  0.7546771E-02  0.1121563E+00
         21   -1    0    0  501  502  0.00000000000E+00  0.00000000000E+00  0.24989215820E+03  0.24989215820E+03  0.00000000000E+00 0. -1.
         21   -1    0    0  502  503 -0.00000000000E+00 -0.00000000000E+00 -0.70059480119E+03  0.70059480119E+03  0.00000000000E+00 0.  1.
         25    1    1    2    0    0  0.18560339898E+03  0.92553538808E+02 -0.58637798138E+03  0.63441226053E+03  0.12500000000E+03 0.  0.
          4    1    1    2  501    0 -0.77007345771E+02  0.39317974095E+02 -0.15637745064E+02  0.87866793844E+02  0.00000000000E+00 0.  1.
         -4    1    1    2    0  503 -0.10859605321E+03 -0.13187151290E+03  0.15131308345E+03  0.22820790502E+03  0.00000000000E+00 0. -1.
<mgrwt>
<rscale>  4 0.23736113E+03</rscale>
<asrwt>0</asrwt>
<pdfrwt beam="1">  1       21 0.38444948E-01 0.23736113E+03</pdfrwt>
<pdfrwt beam="2">  1       21 0.10778381E+00 0.23736113E+03</pdfrwt>
<totfact> 0.43269959E+03</totfact>
</mgrwt>
</event>
<event>
 5    0  0.1972558E-002  0.2299401E+03  0.7546771E-02  0.1126682E+00
         21   -1    0    0  501  502  0.00000000000E+00  0.00000000000E+00  0.22045625473E+03  0.22045625473E+03  0.00000000000E+00 0. -1.
         21   -1    0    0  502  503 -0.00000000000E+00 -0.00000000000E+00 -0.29281920266E+03  0.29281920266E+03  0.00000000000E+00 0. -1.
         25    1    1    2    0    0 -0.17246375300E+03  0.13253525135E+03 -0.25580375963E+02  0.25216798882E+03  0.12500000000E+03 0.  0.
          1    1    1    2  501    0  0.42610607047E+02 -0.88555140179E+01 -0.67785182840E+02  0.80553801736E+02  0.00000000000E+00 0.  1.
         -1    1    1    2    0  503  0.12985314596E+03 -0.12367973734E+03  0.21002610877E+02  0.18055366683E+03  0.00000000000E+00 0. -1.
<mgrwt>
<rscale>  4 0.22994010E+03</rscale>
<asrwt>0</asrwt>
<pdfrwt beam="1">  1       21 0.33916347E-01 0.22994010E+03</pdfrwt>
<pdfrwt beam="2">  1       21 0.45049108E-01 0.22994010E+03</pdfrwt>
<totfact> 0.38877920E+04</totfact>
</mgrwt>
</event>
<event>
 5    0  0.1972558E-002  0.3152738E+03  0.7546771E-02  0.1077845E+00
         21   -1    0    0  501  502  0.00000000000E+00  0.00000000000E+00  0.72520971577E+03  0.72520971577E+03  0.00000000000E+00 0.  1.
         21   -1    0    0  502  503 -0.00000000000E+00 -0.00000000000E+00 -0.80077318355E+03  0.80077318355E+03  0.00000000000E+00 0. -1.
         25    1    1    2    0    0  0.20775992011E+03 -0.21442530546E+03 -0.59867399848E+03  0.68057178349E+03  0.12500000000E+03 0.  0.
          1    1    1    2  501    0 -0.55609220889E+02 -0.52460716479E+01  0.57117962408E+03  0.57390423390E+03  0.00000000000E+00 0.  1.
         -1    1    1    2    0  503 -0.15215069922E+03  0.21967137711E+03 -0.48069093382E+02  0.27150688193E+03  0.00000000000E+00 0. -1.
<mgrwt>
<rscale>  4 0.31527378E+03</rscale>
<asrwt>0</asrwt>
<pdfrwt beam="1">  1       21 0.11157073E+00 0.31527378E+03</pdfrwt>
<pdfrwt beam="2">  1       21 0.12319587E+00 0.31527378E+03</pdfrwt>
<totfact> 0.27835917E+02</totfact>
</mgrwt>
</event>
<event>
 5    0  0.1972558E-002  0.2356768E+03  0.7546771E-02  0.1122707E+00
         21   -1    0    0  501  502  0.00000000000E+00  0.00000000000E+00  0.19797663058E+03  0.19797663058E+03  0.00000000000E+00 0.  1.
         21   -1    0    0  502  503 -0.00000000000E+00 -0.00000000000E+00 -0.41689896361E+03  0.41689896361E+03  0.00000000000E+00 0.  1.
         25    1    1    2    0    0  0.25057217226E+02 -0.20593587711E+03 -0.27033730462E+03  0.36296653825E+03  0.12500000000E+03 0.  0.
          2    1    1    2  501    0  0.50372898791E+01  0.22976794696E+02  0.61876268600E+02  0.66196525586E+02  0.00000000000E+00 0. -1.
         -2    1    1    2    0  503 -0.30094507105E+02  0.18295908242E+03 -0.10461297004E+02  0.18571253036E+03  0.00000000000E+00 0.  1.
<mgrwt>
<rscale>  4 0.23567681E+03</rscale>
<asrwt>0</asrwt>
<pdfrwt beam="1">  1       21 0.30457943E-01 0.23567681E+03</pdfrwt>
<pdfrwt beam="2">  1       21 0.64138302E-01 0.23567681E+03</pdfrwt>
<totfact> 0.22668589E+04</totfact>
</mgrwt>
</event>
<event>
 5    0  0.1972558E-002  0.2282616E+03  0.7546771E-02  0.1127869E+00
         21   -1    0    0  501  502  0.00000000000E+00  0.00000000000E+00  0.29471878388E+03  0.29471878388E+03  0.00000000000E+00 0. -1.
         21   -1    0    0  502  503 -0.00000000000E+00 -0.00000000000E+00 -0.24562136571E+03  0.24562136571E+03  0.00000000000E+00 0. -1.
         25    1    1    2    0    0 -0.15737619607E+03  0.16952115366E+03  0.51541408277E+02  0.26792947840E+03  0.12500000000E+03 0.  0.
          2    1    1    2  501    0  0.95151826125E+02 -0.14801626473E+03 -0.59029088708E+02  0.18559934793E+03  0.00000000000E+00 0. -1.
         -2    1    1    2    0  503  0.62224369945E+02 -0.21504888935E+02  0.56585098602E+02  0.86811323265E+02  0.00000000000E+00 0.  1.
<mgrwt>
<rscale>  4 0.22826162E+03</rscale>
<asrwt>0</asrwt>
<pdfrwt beam="1">  1       21 0.45341351E-01 0.22826162E+03</pdfrwt>
<pdfrwt beam="2">  1       21 0.37787902E-01 0.22826162E+03</pdfrwt>
<totfact> 0.30932390E+04</totfact>
</mgrwt>
</event>
<event>
 5    0  0.1972558E-002  0.2369352E+03  0.7546771E-02  0.1121852E+00
         21   -1    0    0  503  502  0.00000000000E+00  0.00000000000E+00  0.36834848317E+03  0.36834848317E+03  0.00000000000E+00 0.  1.
         21   -1    0    0  501  503 -0.00000000000E+00 -0.00000000000E+00 -0.60729671052E+03  0.60729671052E+03  0.00000000000E+00 0.  1.
         25    1    1    2    0    0 -0.13318297700E+03 -0.14979567840E+03 -0.46524046973E+03  0.52177595317E+03  0.12500000000E+03 0.  0.
          3    1    1    2  501    0  0.53791769129E+02 -0.35891573720E+02 -0.70001189467E+02  0.95299139644E+02  0.00000000000E+00 0. -1.
         -3    1    1    2    0  502  0.79391207874E+02  0.18568725212E+03  0.29629343185E+03  0.35857010088E+03  0.00000000000E+00 0.  1.
<mgrwt>
<rscale>  4 0.23693517E+03</rscale>
<asrwt>0</asrwt>
<pdfrwt beam="1">  1       21 0.56668998E-01 0.23693517E+03</pdfrwt>
<pdfrwt beam="2">  1       21 0.93430262E-01 0.23693517E+03</pdfrwt>
<totfact> 0.27211473E+03</totfact>
</mgrwt>
</event>
<event>
 5    0  0.1972558E-002  0.2401572E+03  0.7546771E-02  0.1119688E+00
         21   -1    0    0  501  502  0.00000000000E+00  0.00000000000E+00  0.23562163216E+04  0.23562163216E+04  0.00000000000E+00 0. -1.
         21   -1    0    0  502  503 -0.00000000000E+00 -0.00000000000E+00 -0.31077881969E+02  0.31077881969E+02  0.00000000000E+00 0.  1.
         25    1    1    2    0    0 -0.21102125224E+03 -0.77758257568E+00  0.65144437841E+03  0.69608573587E+03  0.12500000000E+03 0.  0.
          4    1    1    2  501    0  0.19508094121E+03 -0.12592947815E+02  0.11066953440E+04  0.11238281632E+04  0.00000000000E+00 0. -1.
         -4    1    1    2    0  503  0.15940311026E+02  0.13370530391E+02  0.56699871726E+03  0.56738030453E+03  0.00000000000E+00 0.  1.
<mgrwt>
<rscale>  4 0.24015724E+03</rscale>
<asrwt>0</asrwt>
<pdfrwt beam="1">  1       21 0.36249468E+00 0.24015724E+03</pdfrwt>
<pdfrwt beam="2">  1       21 0.47812145E-02 0.24015724E+03</pdfrwt>
<totfact> 0.40425794E+03</totfact>
</mgrwt>
</event>
<event>
 5    0  0.1972558E-002  0.2820890E+03  0.7546771E-02  0.1094553E+00
         21   -1    0    0  501  502  0.00000000000E+00  0.00000000000E+00  0.22147643416E+03  0.22147643416E+03  0.00000000000E+00 0. -1.
         21   -1    0    0  502  503 -0.00000000000E+00 -0.00000000000E+00 -0.55030008027E+03  0.55030008027E+03  0.00000000000E+00 0.  1.
         25    1    1    2    0    0 -0.56131819463E+02 -0.25341129526E+03 -0.38563169593E+03  0.48135732116E+03  0.12500000000E+03 0.  0.
          1    1    1    2  501    0 -0.13738650413E+00  0.24314659648E+02  0.48632075446E+02  0.54371870587E+02  0.00000000000E+00 0.  1.
         -1    1    1    2    0  503  0.56269205967E+02  0.22909663561E+03  0.81759743788E+01  0.23604732268E+03  0.00000000000E+00 0. -1.
<mgrwt>
<rscale>  4 0.28208902E+03</rscale>
<asrwt>0</asrwt>
<pdfrwt beam="1">  1       21 0.34073298E-01 0.28208902E+03</pdfrwt>
<pdfrwt beam="2">  1       21 0.84661550E-01 0.28208902E+03</pdfrwt>
<totfact> 0.95161421E+03</totfact>
</mgrwt>
</event>
<event>
 5    0  0.1972558E-002  0.9219095E+03  0.7546771E-02  0.9398600E-01
         21   -1    0    0  501  502  0.00000000000E+00  0.00000000000E+00  0.10157853507E+04  0.10157853507E+04  0.00000000000E+00 0.  1.
         21   -1    0    0  502  503 -0.00000000000E+00 -0.00000000000E+00 -0.21394303085E+04  0.21394303085E+04  0.00000000000E+00 0.  1.
         25    1    1    2    0    0 -0.45914709566E+03  0.78215080074E+03 -0.13844003895E+04  0.16597485860E+04  0.12500000000E+03 0.  0.
          2    1    1    2  501    0 -0.26508526993E+02  0.10841791163E+02  0.52733996383E+03  0.52811711191E+03  0.00000000000E+00 0. -1.
         -2    1    1    2    0  503  0.48565562265E+03 -0.79299259190E+03 -0.26658453216E+03  0.96734996119E+03  0.00000000000E+00 0.  1.
<mgrwt>
<rscale>  4 0.92190946E+03</rscale>
<asrwt>0</asrwt>
<pdfrwt beam="1">  1       21 0.15627467E+00 0.92190946E+03</pdfrwt>
<pdfrwt beam="2">  1       21 0.32914312E+00 0.92190946E+03</pdfrwt>
<totfact> 0.34044883E+00</totfact>
</mgrwt>
</event>
<event>
 5    0  0.1972558E-002  0.2847243E+03  0.7546771E-02  0.1093136E+00
         21   -1    0    0  501  502  0.00000000000E+00  0.00000000000E+00  0.15925343210E+03  0.15925343210E+03  0.00000000000E+00 0.  1.
         21   -1    0    0  502  503 -0.00000000000E+00 -0.00000000000E+00 -0.60574781339E+03  0.60574781339E+03  0.00000000000E+00 0.  1.
         25    1    1    2    0    0  0.17798056861E+03  0.18375489800E+03 -0.40772224667E+03  0.49729807537E+03  0.12500000000E+03 0.  0.
          3    1    1    2  501    0 -0.15869723007E+02 -0.22158393486E+02  0.16984634971E+02  0.32114176547E+02  0.00000000000E+00 0. -1.
         -3    1    1    2    0  503 -0.16211084561E+03 -0.16159650452E+03 -0.55756769587E+02  0.23558899357E+03  0.00000000000E+00 0.  1.
<mgrwt>
<rscale>  4 0.28472433E+03</rscale>
<asrwt>0</asrwt>
<pdfrwt beam="1">  1       21 0.24500528E-01 0.28472433E+03</pdfrwt>
<pdfrwt beam="2">  1       21 0.93191970E-01 0.28472433E+03</pdfrwt>
<totfact> 0.14493866E+04</totfact>
</mgrwt>
</event>
<event>
 5    0  0.1972558E-002  0.2591994E+03  0.7546771E-02  0.1107625E+00
         21   -1    0    0  501  502  0.00000000000E+00  0.00000000000E+00  0.45027031703E+03  0.45027031703E+03  0.00000000000E+00 0. -1.
         21   -1    0    0  502  503 -0.00000000000E+00 -0.00000000000E+00 -0.35999929810E+03  0.35999929810E+03  0.00000000000E+00 0. -1.
         25    1    1    2    0    0 -0.12467818901E+03  0.18939553175E+03 -0.26615618292E+03  0.37132119784E+03  0.12500000000E+03 0.  0.
          3    1    1    2  501    0 -0.17834534959E+02 -0.91018478327E+01  0.63778600652E+02  0.66847768641E+02  0.00000000000E+00 0.  1.
         -3    1    1    2    0  503  0.14251272396E+03 -0.18029368391E+03  0.29264860119E+03  0.37210064866E+03  0.00000000000E+00 0. -1.
<mgrwt>
<rscale>  4 0.25919938E+03</rscale>
<asrwt>0</asrwt>
<pdfrwt beam="1">  1       21 0.69272357E-01 0.25919938E+03</pdfrwt>
<pdfrwt beam="2">  1       21 0.55384507E-01 0.25919938E+03</pdfrwt>
<totfact> 0.55711972E+03</totfact>
</mgrwt>
</event>
<event>
 5    0  0.1972558E-002  0.3188403E+03  0.7546771E-02  0.1076184E+00
         21   -1    0    0  501  502  0.00000000000E+00  0.00000000000E+00  0.25542848982E+04  0.25542848982E+04  0.00000000000E+00 0. -1.
         21   -1    0    0  502  503 -0.00000000000E+00 -0.00000000000E+00 -0.51238561481E+02  0.51238561481E+02  0.00000000000E+00 0.  1.
         25    1    1    2    0    0 -0.13093023900E+03 -0.26437720056E+03  0.71577428411E+03  0.78421671588E+03  0.12500000000E+03 0.  0.
          2    1    1    2  501    0  0.17615452248E+03  0.23455674685E+03  0.14122937211E+04  0.14424357309E+04  0.00000000000E+00 0. -1.
         -2    1    1    2    0  503 -0.45224283484E+02  0.29820453718E+02  0.37497833159E+03  0.37887101293E+03  0.00000000000E+00 0.  1.
<mgrwt>
<rscale>  4 0.31884031E+03</rscale>
<asrwt>0</asrwt>
<pdfrwt beam="1">  1       21 0.39296681E+00 0.31884031E+03</pdfrwt>
<pdfrwt beam="2">  1       21 0.78828576E-02 0.31884031E+03</pdfrwt>
<totfact> 0.10247725E+03</totfact>
</mgrwt>
</event>
<event>
 5    0  0.1972558E-002  0.2274870E+03  0.7546771E-02  0.1128421E+00
         21   -1    0    0  501  502  0.00000000000E+00  0.00000000000E+00  0.43411885549E+03  0.43411885549E+03  0.00000000000E+00 0.  1.
         21   -1    0    0  502  503 -0.00000000000E+00 -0.00000000000E+00 -0.63571034602E+03  0.63571034602E+03  0.00000000000E+00 0. -1.
         25    1    1    2    0    0 -0.21498455697E+03  0.80258863475E+02 -0.18783470641E+03  0.32181783952E+03  0.12500000000E+03 0.  0.
          1    1    1    2  501    0  0.18110742884E+03  0.40234014841E+02 -0.34620569975E+03  0.39278119007E+03  0.00000000000E+00 0. -1.
         -1    1    1    2    0  503  0.33877128134E+02 -0.12049287832E+03  0.33244891563E+03  0.35523017192E+03  0.00000000000E+00 0.  1.
<mgrwt>
<rscale>  4 0.22748696E+03</rscale>
<asrwt>0</asrwt>
<pdfrwt beam="1">  1       21 0.66787517E-01 0.22748696E+03</pdfrwt>
<pdfrwt beam="2">  1       21 0.97801591E-01 0.22748696E+03</pdfrwt>
<totfact> 0.17238228E+03</totfact>
</mgrwt>
</event>
<event>
 5    0  0.1972558E-002  0.2627855E+03  0.7546771E-02  0.1105481E+00
         21   -1    0    0  501  502  0.00000000000E+00  0.00000000000E+00  0.22558324589E+04  0.22558324589E+04  0.00000000000E+00 0.  1.
         21   -1    0    0  502  503 -0.00000000000E+00 -0.00000000000E+00 -0.50634761926E+02  0.50634761926E+02  0.00000000000E+00 0. -1.
         25    1    1    2    0    0 -0.17675045815E+03 -0.17083983828E+03  0.49985403144E+03  0.57088179823E+03  0.12500000000E+03 0.  0.
          4    1    1    2  501    0  0.64126143206E+01  0.45733442876E+02  0.95305905080E+03  0.95417724964E+03  0.00000000000E+00 0.  1.
         -4    1    1    2    0  503  0.17033784383E+03  0.12510639540E+03  0.75228461476E+03  0.78140817299E+03  0.00000000000E+00 0. -1.
<mgrwt>
<rscale>  4 0.26278551E+03</rscale>
<asrwt>0</asrwt>
<pdfrwt beam="1">  1       21 0.34705107E+00 0.26278551E+03</pdfrwt>
<pdfrwt beam="2">  1       21 0.77899651E-02 0.26278551E+03</pdfrwt>
<totfact> 0.21082993E+03</totfact>
</mgrwt>
</event>
<event>
 5    0  0.1972558E-002  0.4503046E+03  0.7546771E-02  0.1027631E+00
         21   -1    0    0  501  502  0.00000000000E+00  0.00000000000E+00  0.12796249529E+04  0.12796249529E+04  0.00000000000E+00 0.  1.
         21   -1    0    0  502  503 -0.00000000000E+00 -0.00000000000E+00 -0.44767477156E+03  0.44767477156E+03  0.00000000000E+00 0.  1.
         25    1    1    2    0    0  0.35189345886E+03 -0.24925788766E+03 -0.25977393774E+03  0.51871572145E+03  0.12500000000E+03 0.  0.
          4    1    1    2  501    0 -0.37792304897E+03  0.23031703932E+03  0.79309111831E+03  0.90822094860E+03  0.00000000000E+00 0.  1.
         -4    1    1    2    0  503  0.26029590115E+02  0.18940848338E+02  0.29863300079E+03  0.30036305441E+03  0.00000000000E+00 0. -1.
<mgrwt>
<rscale>  4 0.45030456E+03</rscale>
<asrwt>0</asrwt>
<pdfrwt beam="1">  1       21 0.19686538E+00 0.45030456E+03</pdfrwt>
<pdfrwt beam="2">  1       21 0.68873042E-01 0.45030456E+03</pdfrwt>
<totfact> 0.21888054E+02</totfact>
</mgrwt>
</event>
<event>
 5    0  0.1972558E-002  0.1863304E+03  0.7546771E-02  0.1161813E+00
         21   -1    0    0  501  502  0.00000000000E+00  0.00000000000E+00  0.11276342254E+03  0.11276342254E+03  0.00000000000E+00 0.  1.
         21   -1    0    0  502  503 -0.00000000000E+00 -0.00000000000E+00 -0.57158113809E+03  0.57158113809E+03  0.00000000000E+00 0.  1.
         25    1    1    2    0    0  0.20422292240E+03  0.19862755058E+02 -0.20030844441E+03  0.31280985274E+03  0.12500000000E+03 0.  0.
          4    1    1    2  501    0 -0.82149410032E+02 -0.18002715288E+02  0.16909889039E+01  0.84115888926E+02  0.00000000000E+00 0.  1.
         -4    1    1    2    0  503 -0.12207351236E+03 -0.18600397700E+01 -0.26020026005E+03  0.28741881897E+03  0.00000000000E+00 0. -1.
<mgrwt>
<rscale>  4 0.18633043E+03</rscale>
<asrwt>0</asrwt>
<pdfrwt beam="1">  1       21 0.17348219E-01 0.18633043E+03</pdfrwt>
<pdfrwt beam="2">  1       21 0.87935560E-01 0.18633043E+03</pdfrwt>
<totfact> 0.33425343E+04</totfact>
</mgrwt>
</event>
<event>
 5    0  0.1972558E-002  0.2329327E+03  0.7546771E-02  0.1124592E+00
         21   -1    0    0  501  502  0.00000000000E+00  0.00000000000E+00  0.18407401837E+04  0.18407401837E+04  0.00000000000E+00 0. -1.
         21   -1    0    0  502  503 -0.00000000000E+00 -0.00000000000E+00 -0.39954115657E+02  0.39954115657E+02  0.00000000000E+00 0.  1.
         25    1    1    2    0    0 -0.11427292613E+03  0.16419723871E+03  0.52542686452E+03  0.57594915124E+03  0.12500000000E+03 0.  0.
          2    1    1    2  501    0 -0.11468902076E+02 -0.17749168948E+02  0.64842202333E+03  0.64876628230E+03  0.00000000000E+00 0.  1.
         -2    1    1    2    0  503  0.12574182821E+03 -0.14644806977E+03  0.62693718023E+03  0.65597886586E+03  0.00000000000E+00 0. -1.
<mgrwt>
<rscale>  4 0.23293273E+03</rscale>
<asrwt>0</asrwt>
<pdfrwt beam="1">  1       21 0.28319073E+00 0.23293273E+03</pdfrwt>
<pdfrwt beam="2">  1       21 0.61467885E-02 0.23293273E+03</pdfrwt>
<totfact> 0.77548748E+03</totfact>
</mgrwt>
</event>
<event>
 5    0  0.1972558E-002  0.2646246E+03  0.7546771E-02  0.1104396E+00
         21   -1    0    0  501  502  0.00000000000E+00  0.00000000000E+00  0.31244703886E+02  0.31244703886E+02  0.00000000000E+00 0.  1.
         21   -1    0    0  502  503 -0.00000000000E+00 -0.00000000000E+00 -0.29750199464E+04  0.29750199464E+04  0.00000000000E+00 0.  1.
         25    1    1    2    0    0  0.20700929966E+03  0.12979073127E+03 -0.16331795419E+04  0.16560793761E+04  0.12500000000E+03 0.  0.
          2    1    1    2  501    0 -0.21045884440E+02 -0.47804907126E+01 -0.10504178958E+01  0.21607538525E+02  0.00000000000E+00 0. -1.
         -2    1    1    2    0  503 -0.18596341522E+03 -0.12501024056E+03 -0.13095452828E+04  0.13285777357E+04  0.00000000000E+00 0.  1.
<mgrwt>
<rscale>  4 0.26462465E+03</rscale>
<asrwt>0</asrwt>
<pdfrwt beam="1">  1       21 0.48068770E-02 0.26462465E+03</pdfrwt>
<pdfrwt beam="2">  1       21 0.45769542E+00 0.26462465E+03</pdfrwt>
<totfact> 0.96482206E+02</totfact>
</mgrwt>
</event>
<event>
 5    0  0.1972558E-002  0.2392589E+03  0.7546771E-02  0.1120288E+00
         21   -1    0    0  501  502  0.00000000000E+00  0.00000000000E+00  0.52537382778E+03  0.52537382778E+03  0.00000000000E+00 0.  1.
         21   -1    0    0  502  503 -0.00000000000E+00 -0.00000000000E+00 -0.33710892489E+03  0.33710892489E+03  0.00000000000E+00 0. -1.
         25    1    1    2    0    0 -0.20847299764E+03 -0.16584176758E+02 -0.24500560429E+03  0.34552680330E+03  0.12500000000E+03 0.  0.
          3    1    1    2  501    0  0.17874253184E+03  0.46549840582E+02  0.17229701016E+03  0.25259065710E+03  0.00000000000E+00 0.  1.
         -3    1    1    2    0  503  0.29730465801E+02 -0.29965663824E+02  0.26097349702E+03  0.26436529227E+03  0.00000000000E+00 0. -1.
<mgrwt>
<rscale>  4 0.23925886E+03</rscale>
<asrwt>0</asrwt>
<pdfrwt beam="1">  1       21 0.80826742E-01 0.23925886E+03</pdfrwt>
<pdfrwt beam="2">  1       21 0.51862912E-01 0.23925886E+03</pdfrwt>
<totfact> 0.45839293E+03</totfact>
</mgrwt>
</event>
<event>
 5    0  0.1972558E-002  0.2318268E+03  0.7546771E-02  0.1125361E+00
         21   -1    0    0  501  502  0.00000000000E+00  0.00000000000E+00  0.10487049203E+04  0.10487049203E+04  0.00000000000E+00 0.  1.
         21   -1    0    0  502  503 -0.00000000000E+00 -0.00000000000E+00 -0.11577951385E+03  0.11577951385E+03  0.00000000000E+00 0. -1.
         25    1    1    2    0    0  0.12411354775E+03 -0.18198628702E+03  0.80078024507E+03  0.83987926649E+03  0.12500000000E+03 0.  0.
          3    1    1    2  501    0  0.14276425233E+02  0.15046716225E+03  0.43557804210E+02  0.15729420059E+03  0.00000000000E+00 0. -1.
         -3    1    1    2    0  503 -0.13838997298E+03  0.31519124768E+02  0.88587357160E+02  0.16731096705E+03  0.00000000000E+00 0.  1.
<mgrwt>
<rscale>  4 0.23182677E+03</rscale>
<asrwt>0</asrwt>
<pdfrwt beam="1">  1       21 0.16133921E+00 0.23182677E+03</pdfrwt>
<pdfrwt beam="2">  1       21 0.17812234E-01 0.23182677E+03</pdfrwt>
<totfact> 0.68347657E+03</totfact>
</mgrwt>
</event>
<event>
 5    0  0.1972558E-002  0.2217678E+03  0.7546771E-02  0.1132572E+00
         21   -1    0    0  501  502  0.00000000000E+00  0.00000000000E+00  0.31126865830E+03  0.31126865830E+03  0.00000000000E+00 0. -1.
         21   -1    0    0  502  503 -0.00000000000E+00 -0.00000000000E+00 -0.74049200256E+03  0.74049200256E+03  0.00000000000E+00 0.  1.
         25    1    1    2    0    0  0.15541785481E+03  0.18028311529E+03 -0.17748744371E+03  0.32215447215E+03  0.12500000000E+03 0.  0.
          3    1    1    2  501    0 -0.57855622090E+02 -0.38788644834E+02  0.21829478662E+03  0.22913848616E+03  0.00000000000E+00 0. -1.
         -3    1    1    2    0  503 -0.97562232717E+02 -0.14149447046E+03 -0.47003068716E+03  0.50046770255E+03  0.00000000000E+00 0.  1.
<mgrwt>
<rscale>  4 0.22176782E+03</rscale>
<asrwt>0</asrwt>
<pdfrwt beam="1">  1       21 0.47887486E-01 0.22176782E+03</pdfrwt>
<pdfrwt beam="2">  1       21 0.11392185E+00 0.22176782E+03</pdfrwt>
<totfact> 0.24387929E+03</totfact>
</mgrwt>
</event>
<event>
 5    0  0.1972558E-002  0.2583130E+03  0.7546771E-02  0.1108161E+00
         21   -1    0    0  501  502  0.00000000000E+00  0.00000000000E+00  0.92924999694E+03  0.92924999694E+03  0.00000000000E+00 0.  1.
         21   -1    0    0  502  503 -0.00000000000E+00 -0.00000000000E+00 -0.10840690446E+04  0.10840690446E+04  0.00000000000E+00 0. -1.
         25    1    1    2    0    0 -0.21688776292E+03  0.55952331808E+02 -0.88867835853E+03  0.92495685848E+03  0.12500000000E+03 0.  0.
          2    1    1    2  501    0  0.21664175256E+03 -0.98923393906E+02 -0.96445631666E+02  0.25694599955E+03  0.00000000000E+00 0. -1.
         -2    1    1    2    0  503  0.24601036015E+00  0.42971062098E+02  0.83030494250E+03  0.83141618353E+03  0.00000000000E+00 0.  1.
<mgrwt>
<rscale>  4 0.25831297E+03</rscale>
<asrwt>0</asrwt>
<pdfrwt beam="1">  1       21 0.14296154E+00 0.25831297E+03</pdfrwt>
<pdfrwt beam="2">  1       21 0.16677985E+00 0.25831297E+03</pdfrwt>
<totfact> 0.70111976E+01</totfact>
</mgrwt>
</event>
<event>
 5    0  0.1972558E-002  0.2553114E+03  0.7546771E-02  0.1109993E+00
         21   -1    0    0  503  502  0.00000000000E+00  0.00000000000E+00  0.64079281673E+03  0.64079281673E+03  0.00000000000E+00 0.  1.
         21   -1    0    0  501  503 -0.00000000000E+00 -0.00000000000E+00 -0.45813750277E+03  0.45813750277E+03  0.00000000000E+00 0.  1.
         25    1    1    2    0    0 -0.14682804465E+03  0.20404104375E+03  0.62000271030E+01  0.28081072374E+03  0.12500000000E+03 0.  0.
          4    1    1    2  501    0 -0.75701436344E+02 -0.15588536505E+03 -0.26776521161E+03  0.31895009492E+03  0.00000000000E+00 0. -1.
         -4    1    1    2    0  502  0.22252948100E+03 -0.48155678704E+02  0.44422049847E+03  0.49916950083E+03  0.00000000000E+00 0.  1.
<mgrwt>
<rscale>  4 0.25531144E+03</rscale>
<asrwt>0</asrwt>
<pdfrwt beam="1">  1       21 0.98583510E-01 0.25531144E+03</pdfrwt>
<pdfrwt beam="2">  1       21 0.70482693E-01 0.25531144E+03</pdfrwt>
<totfact> 0.14701257E+03</totfact>
</mgrwt>
</event>
<event>
 5    0  0.1972558E-002  0.2480000E+03  0.7546771E-02  0.1114575E+00
         21   -1    0    0  501  502  0.00000000000E+00  0.00000000000E+00  0.19247494776E+03  0.19247494776E+03  0.00000000000E+00 0.  1.
         21   -1    0    0  502  503 -0.00000000000E+00 -0.00000000000E+00 -0.58771465379E+03  0.58771465379E+03  0.00000000000E+00 0. -1.
         25    1    1    2    0    0 -0.16087614773E+03  0.14771521584E+03 -0.36783631804E+03  0.44567866986E+03  0.12500000000E+03 0.  0.
          4    1    1    2  501    0 -0.17771747697E+02 -0.37674580404E+02  0.86326371633E+02  0.95851194380E+02  0.00000000000E+00 0.  1.
         -4    1    1    2    0  503  0.17864789543E+03 -0.11004063544E+03 -0.11372975963E+03  0.23865973731E+03  0.00000000000E+00 0. -1.
<mgrwt>
<rscale>  4 0.24799996E+03</rscale>
<asrwt>0</asrwt>
<pdfrwt beam="1">  1       21 0.29611531E-01 0.24799996E+03</pdfrwt>
<pdfrwt beam="2">  1       21 0.90417638E-01 0.24799996E+03</pdfrwt>
<totfact> 0.10974258E+04</totfact>
</mgrwt>
</event>
<event>
 5    0  0.1972558E-002  0.3404456E+03  0.7546771E-02  0.1066606E+00
         21   -1    0    0  501  502  0.00000000000E+00  0.00000000000E+00  0.12557886992E+03  0.12557886992E+03  0.00000000000E+00 0. -1.
         21   -1    0    0  502  503 -0.00000000000E+00 -0.00000000000E+00 -0.21325386315E+04  0.21325386315E+04  0.00000000000E+00 0. -1.
         25    1    1    2    0    0  0.29706813775E+03  0.15819262772E+03 -0.16274229540E+04  0.16665547867E+04  0.12500000000E+03 0.  0.
          4    1    1    2  501    0 -0.15479115522E+03  0.65660990528E+02 -0.23659434670E+03  0.29025601166E+03  0.00000000000E+00 0.  1.
         -4    1    1    2    0  503 -0.14227698253E+03 -0.22385361825E+03 -0.14294246084E+03  0.30130670300E+03  0.00000000000E+00 0. -1.
<mgrwt>
<rscale>  4 0.34044555E+03</rscale>
<asrwt>0</asrwt>
<pdfrwt beam="1">  1       21 0.19319827E-01 0.34044555E+03</pdfrwt>
<pdfrwt beam="2">  1       21 0.32808286E+00 0.34044555E+03</pdfrwt>
<totfact> 0.49203176E+02</totfact>
</mgrwt>
</event>
<event>
 5    0  0.1972558E-002  0.2197443E+03  0.7546771E-02  0.1134074E+00
         21   -1    0    0  503  502  0.00000000000E+00  0.00000000000E+00  0.20391992027E+03  0.20391992027E+03  0.00000000000E+00 0.  1.
         21   -1    0    0  501  503 -0.00000000000E+00 -0.00000000000E+00 -0.35371790428E+03  0.35371790428E+03  0.00000000000E+00 0. -1.
         25    1    1    2    0    0 -0.21893454643E+03  0.53929486851E+02 -0.11982443806E+03  0.28429495446E+03  0.12500000000E+03 0.  0.
          3    1    1    2  501    0  0.64433269764E+02 -0.82519142229E+02  0.23626557231E+02  0.10732785889E+03  0.00000000000E+00 0. -1.
         -3    1    1    2    0  502  0.15450127667E+03  0.28589655377E+02 -0.53600103174E+02  0.16601501121E+03  0.00000000000E+00 0.  1.
<mgrwt>
<rscale>  4 0.21974429E+03</rscale>
<asrwt>0</asrwt>
<pdfrwt beam="1">  1       21 0.31372296E-01 0.21974429E+03</pdfrwt>
<pdfrwt beam="2">  1       21 0.54418138E-01 0.21974429E+03</pdfrwt>
<totfact> 0.30703248E+04</totfact>
</mgrwt>
</event>
<event>
 5    0  0.1972558E-002  0.2946852E+03  0.7546771E-02  0.1087928E+00
         21   -1    0    0  501  502  0.00000000000E+00  0.00000000000E+00  0.72577622760E+03  0.72577622760E+03  0.00000000000E+00 0.  1.
         21   -1    0    0  502  503 -0.00000000000E+00 -0.00000000000E+00 -0.14586215753E+04  0.14586215753E+04  0.00000000000E+00 0.  1.
         25    1    1    2    0    0 -0.24969139521E+02 -0.28046939364E+03 -0.13068851269E+04  0.13427063244E+04  0.12500000000E+03 0.  0.
          1    1    1    2  501    0 -0.10079617552E+03  0.10445619810E+03  0.60588650707E+03  0.62303244360E+03  0.00000000000E+00 0.  1.
         -1    1    1    2    0  503  0.12576531504E+03  0.17601319555E+03 -0.31846727898E+02  0.21865903492E+03  0.00000000000E+00 0. -1.
<mgrwt>
<rscale>  4 0.29468518E+03</rscale>
<asrwt>0</asrwt>
<pdfrwt beam="1">  1       21 0.11165788E+00 0.29468518E+03</pdfrwt>
<pdfrwt beam="2">  1       21 0.22440332E+00 0.29468518E+03</pdfrwt>
<totfact> 0.52357246E+01</totfact>
</mgrwt>
</event>
<event>
 5    0  0.1972558E-002  0.3134084E+03  0.7546771E-02  0.1078724E+00
         21   -1    0    0  501  502  0.00000000000E+00  0.00000000000E+00  0.95268017937E+02  0.95268017937E+02  0.00000000000E+00 0.  1.
         21   -1    0    0  502  503 -0.00000000000E+00 -0.00000000000E+00 -0.19581000158E+04  0.19581000158E+04  0.00000000000E+00 0. -1.
         25    1    1    2    0    0 -0.93922341276E+02  0.18481675502E+03 -0.47608181765E+03  0.53409506291E+03  0.12500000000E+03 0.  0.
          3    1    1    2  501    0  0.15992049912E+03 -0.31282823516E+03 -0.13095569625E+04  0.13558670690E+04  0.00000000000E+00 0. -1.
         -3    1    1    2    0  503 -0.65998157842E+02  0.12801148014E+03 -0.77193217674E+02  0.16340590179E+03  0.00000000000E+00 0.  1.
<mgrwt>
<rscale>  4 0.31340845E+03</rscale>
<asrwt>0</asrwt>
<pdfrwt beam="1">  1       21 0.14656617E-01 0.31340845E+03</pdfrwt>
<pdfrwt beam="2">  1       21 0.30124617E+00 0.31340845E+03</pdfrwt>
<totfact> 0.12140562E+03</totfact>
</mgrwt>
</event>
<event>
 5    0  0.1972558E-002  0.2796469E+03  0.7546771E-02  0.1095882E+00
         21   -1    0    0  501  502  0.00000000000E+00  0.00000000000E+00  0.37126992176E+03  0.37126992176E+03  0.00000000000E+00 0.  1.
         21   -1    0    0  502  503 -0.00000000000E+00 -0.00000000000E+00 -0.57309369007E+03  0.57309369007E+03  0.00000000000E+00 0.  1.
         25    1    1    2    0    0 -0.16620744120E+03 -0.19738667951E+03 -0.46618805657E+03  0.54730495964E+03  0.12500000000E+03 0.  0.
          4    1    1    2  501    0  0.27536402980E+02  0.33499446318E+02  0.14516554594E+03  0.15150413235E+03  0.00000000000E+00 0. -1.
         -4    1    1    2    0  503  0.13867103822E+03  0.16388723319E+03  0.11919874232E+03  0.24555451984E+03  0.00000000000E+00 0.  1.
<mgrwt>
<rscale>  4 0.27964692E+03</rscale>
<asrwt>0</asrwt>
<pdfrwt beam="1">  1       21 0.57118450E-01 0.27964692E+03</pdfrwt>
<pdfrwt beam="2">  1       21 0.88168259E-01 0.27964692E+03</pdfrwt>
<totfact> 0.29791400E+03</totfact>
</mgrwt>
</event>
<event>
 5    0  0.1972558E-002  0.2483417E+03  0.7546771E-02  0.1114357E+00
         21   -1    0    0  501  502  0.00000000000E+00  0.00000000000E+00  0.50462203736E+02  0.50462203736E+02  0.00000000000E+00 0.  1.
         21   -1    0    0  502  503 -0.00000000000E+00 -0.00000000000E+00 -0.15791896462E+04  0.15791896462E+04  0.00000000000E+00 0.  1.
         25    1    1    2    0    0 -0.24029826437E+02  0.22498367044E+03 -0.75659846366E+03  0.79953819155E+03  0.12500000000E+03 0.  0.
          4    1    1    2  501    0  0.15957060159E+02 -0.17742456007E+02  0.61764271633E+01  0.24648950618E+02  0.00000000000E+00 0. -1.
         -4    1    1    2    0  503  0.80727662788E+01 -0.20724121443E+03 -0.77830540594E+03  0.80546470775E+03  0.00000000000E+00 0.  1.
<mgrwt>
<rscale>  4 0.24834172E+03</rscale>
<asrwt>0</asrwt>
<pdfrwt beam="1">  1       21 0.77634152E-02 0.24834172E+03</pdfrwt>
<pdfrwt beam="2">  1       21 0.24295228E+00 0.24834172E+03</pdfrwt>
<totfact> 0.88227896E+03</totfact>
</mgrwt>
</event>
<event>
 5    0  0.1972558E-002  0.1956521E+03  0.7546771E-02  0.1153460E+00
         21   -1    0    0  501  502  0.00000000000E+00  0.00000000000E+00  0.46003143138E+03  0.46003143138E+03  0.00000000000E+00 0. -1.
         21   -1    0    0  502  503 -0.00000000000E+00 -0.00000000000E+00 -0.56151314010E+03  0.56151314010E+03  0.00000000000E+00 0. -1.
         25    1    1    2    0    0 -0.20354851222E+03 -0.23833958223E+02  0.10783606609E+03  0.26316092328E+03  0.12500000000E+03 0.  0.
          3    1    1    2  501    0  0.56549758001E+02  0.15624438753E+02  0.25998834367E+03  0.26652567805E+03  0.00000000000E+00 0.  1.
         -3    1    1    2    0  503  0.14699875422E+03  0.82095194699E+01 -0.46930611848E+03  0.49185797014E+03  0.00000000000E+00 0. -1.
<mgrwt>
<rscale>  4 0.19565208E+03</rscale>
<asrwt>0</asrwt>
<pdfrwt beam="1">  1       21 0.70774066E-01 0.19565208E+03</pdfrwt>
<pdfrwt beam="2">  1       21 0.86386637E-01 0.19565208E+03</pdfrwt>
<totfact> 0.20825540E+03</totfact>
</mgrwt>
</event>
<event>
 5    0  0.1972558E-002  0.2377763E+03  0.7546771E-02  0.1121283E+00
         21   -1    0    0  501  502  0.00000000000E+00  0.00000000000E+00  0.79347880064E+02  0.79347880064E+02  0.00000000000E+00 0.  1.
         21   -1    0    0  502  503 -0.00000000000E+00 -0.00000000000E+00 -0.27789532004E+04  0.27789532004E+04  0.00000000000E+00 0.  1.
         25    1    1    2    0    0  0.10058796868E+03  0.18711941325E+03 -0.25600375466E+04  0.25718765239E+04  0.12500000000E+03 0.  0.
          1    1    1    2  501    0 -0.80042417468E+02 -0.18519036851E+03 -0.69503625063E+02  0.21338466459E+03  0.00000000000E+00 0.  1.
         -1    1    1    2    0  503 -0.20545551216E+02 -0.19290447372E+01 -0.70064148641E+02  0.73039891929E+02  0.00000000000E+00 0. -1.
<mgrwt>
<rscale>  4 0.23777633E+03</rscale>
<asrwt>0</asrwt>
<pdfrwt beam="1">  1       21 0.12207367E-01 0.23777633E+03</pdfrwt>
<pdfrwt beam="2">  1       21 0.42753124E+00 0.23777633E+03</pdfrwt>
<totfact> 0.30959370E+02</totfact>
</mgrwt>
</event>
<event>
 5    0  0.1972558E-002  0.2228043E+03  0.7546771E-02  0.1131809E+00
         21   -1    0    0  501  502  0.00000000000E+00  0.00000000000E+00  0.76925408089E+03  0.76925408089E+03  0.00000000000E+00 0.  1.
         21   -1    0    0  502  503 -0.00000000000E+00 -0.00000000000E+00 -0.36686491648E+03  0.36686491648E+03  0.00000000000E+00 0. -1.
         25    1    1    2    0    0  0.22021857908E+03 -0.94822017213E+02  0.25111432863E+02  0.27155666367E+03  0.12500000000E+03 0.  0.
          4    1    1    2  501    0 -0.16907975164E+03 -0.78076213747E+02  0.57059162853E+03  0.60021551472E+03  0.00000000000E+00 0.  1.
         -4    1    1    2    0  503 -0.51138827444E+02  0.17289823096E+03 -0.19331389698E+03  0.26434681898E+03  0.00000000000E+00 0. -1.
<mgrwt>
<rscale>  4 0.22280426E+03</rscale>
<asrwt>0</asrwt>
<pdfrwt beam="1">  1       21 0.11834678E+00 0.22280426E+03</pdfrwt>
<pdfrwt beam="2">  1       21 0.56440756E-01 0.22280426E+03</pdfrwt>
<totfact> 0.15701835E+03</totfact>
</mgrwt>
</event>
<event>
 5    0  0.1972558E-002  0.2573842E+03  0.7546771E-02  0.1108725E+00
         21   -1    0    0  501  502  0.00000000000E+00  0.00000000000E+00  0.10730930843E+04  0.10730930843E+04  0.00000000000E+00 0. -1.
         21   -1    0    0  502  503 -0.00000000000E+00 -0.00000000000E+00 -0.12122472888E+03  0.12122472888E+03  0.00000000000E+00 0. -1.
         25    1    1    2    0    0 -0.35245789293E+02 -0.23127116079E+03  0.10801163984E+03  0.28639156730E+03  0.12500000000E+03 0.  0.
          1    1    1    2  501    0  0.65504835737E+02  0.20028112808E+03  0.32544603992E+03  0.38770934818E+03  0.00000000000E+00 0. -1.
         -1    1    1    2    0  503 -0.30259046444E+02  0.30990032711E+02  0.51841067563E+03  0.52021689767E+03  0.00000000000E+00 0.  1.
<mgrwt>
<rscale>  4 0.25738423E+03</rscale>
<asrwt>0</asrwt>
<pdfrwt beam="1">  1       21 0.16509124E+00 0.25738423E+03</pdfrwt>
<pdfrwt beam="2">  1       21 0.18649959E-01 0.25738423E+03</pdfrwt>
<totfact> 0.57911829E+03</totfact>
</mgrwt>
</event>
<event>
 5    0  0.1972558E-002  0.3534002E+03  0.7546771E-02  0.1061228E+00
         21   -1    0    0  501  502  0.00000000000E+00  0.00000000000E+00  0.18973124070E+04  0.18973124070E+04  0.00000000000E+00 0.  1.
         21   -1    0    0  502  503 -0.00000000000E+00 -0.00000000000E+00 -0.32178216545E+03  0.32178216545E+03  0.00000000000E+00 0. -1.
         25    1    1    2    0    0 -0.51535860775E+02  0.32231225288E+03 -0.17232400377E+03  0.38969436174E+03  0.12500000000E+03 0.  0.
          1    1    1    2  501    0 -0.69480518795E+02 -0.39171712152E+03  0.12086022935E+04  0.12723951232E+04  0.00000000000E+00 0.  1.
         -1    1    1    2    0  503  0.12101637957E+03  0.69404868639E+02  0.53925195187E+03  0.55700508751E+03  0.00000000000E+00 0. -1.
<mgrwt>
<rscale>  4 0.35340022E+03</rscale>
<asrwt>0</asrwt>
<pdfrwt beam="1">  1       21 0.29189421E+00 0.35340022E+03</pdfrwt>
<pdfrwt beam="2">  1       21 0.49504950E-01 0.35340022E+03</pdfrwt>
<totfact> 0.12316397E+02</totfact>
</mgrwt>
</event>
<event>
 5    0  0.1972558E-002  0.2929310E+03  0.7546771E-02  0.1088829E+00
         21   -1    0    0  501  502  0.00000000000E+00  0.00000000000E+00  0.11812059878E+04  0.11812059878E+04  0.00000000000E+00 0.  1.
         21   -1    0    0  502  503 -0.00000000000E+00 -0.00000000000E+00 -0.10431108734E+03  0.10431108734E+03  0.00000000000E+00 0.  1.
         25    1    1    2    0    0 -0.24643858212E+03 -0.72271275726E+02  0.19987645847E+03  0.34861255098E+03  0.12500000000E+03 0.  0.
          2    1    1    2  501    0  0.28217841397E+03  0.57317263330E+02  0.72651762848E+03  0.78149714682E+03  0.00000000000E+00 0.  1.
         -2    1    1    2    0  503 -0.35739831852E+02  0.14954012396E+02  0.15050081347E+03  0.15540737732E+03  0.00000000000E+00 0. -1.
<mgrwt>
<rscale>  4 0.29293100E+03</rscale>
<asrwt>0</asrwt>
<pdfrwt beam="1">  1       21 0.18172399E+00 0.29293100E+03</pdfrwt>
<pdfrwt beam="2">  1       21 0.16047860E-01 0.29293100E+03</pdfrwt>
<totfact> 0.57152591E+03</totfact>
</mgrwt>
</event>
<event>
 5    0  0.1972558E-002  0.2710063E+03  0.7546771E-02  0.1100705E+00
         21   -1    0    0  501  502  0.00000000000E+00  0.00000000000E+00  0.27347598675E+03  0.27347598675E+03  0.00000000000E+00 0.  1.
         21   -1    0    0  502  503 -0.00000000000E+00 -0.00000000000E+00 -0.33136652823E+03  0.33136652823E+03  0.00000000000E+00 0. -1.
         25    1    1    2    0    0 -0.23868031647E+03 -0.95806429826E+02 -0.12705205586E+03  0.31291275200E+03  0.12500000000E+03 0.  0.
          2    1    1    2  501    0  0.19073601628E+03  0.11000820657E+03  0.18843154134E+02  0.22099117150E+03  0.00000000000E+00 0.  1.
         -2    1    1    2    0  503  0.47944300187E+02 -0.14201776748E+02  0.50318360250E+02  0.70938591482E+02  0.00000000000E+00 0. -1.
<mgrwt>
<rscale>  4 0.27100634E+03</rscale>
<asrwt>0</asrwt>
<pdfrwt beam="1">  1       21 0.42073229E-01 0.27100634E+03</pdfrwt>
<pdfrwt beam="2">  1       21 0.50979466E-01 0.27100634E+03</pdfrwt>
<totfact> 0.19090523E+04</totfact>
</mgrwt>
</event>
<event>
 5    0  0.1972558E-002  0.2419074E+03  0.7546771E-02  0.1118529E+00
         21   -1    0    0  501  502  0.00000000000E+00  0.00000000000E+00  0.24733954466E+03  0.24733954466E+03  0.00000000000E+00 0.  1.
         21   -1    0    0  502  503 -0.00000000000E+00 -0.00000000000E+00 -0.73870107309E+03  0.73870107309E+03  0.00000000000E+00 0.  1.
         25    1    1    2    0    0  0.67292405978E+02  0.19294513817E+03 -0.62601846284E+03  0.67028367880E+03  0.12500000000E+03 0.  0.
          2    1    1    2  501    0 -0.59162862450E+02 -0.21765126503E+03  0.55275826842E+02  0.23222345811E+03  0.00000000000E+00 0.  1.
         -2    1    1    2    0  503 -0.81295435276E+01  0.24706126861E+02  0.79381107577E+02  0.83533480848E+02  0.00000000000E+00 0. -1.
<mgrwt>
<rscale>  4 0.24190742E+03</rscale>
<asrwt>0</asrwt>
<pdfrwt beam="1">  1       21 0.38052238E-01 0.24190742E+03</pdfrwt>
<pdfrwt beam="2">  1       21 0.11364632E+00 0.24190742E+03</pdfrwt>
<totfact> 0.38703319E+03</totfact>
</mgrwt>
</event>
<event>
 5    0  0.1972558E-002  0.2714304E+03  0.7546771E-02  0.1100464E+00
         21   -1    0    0  501  502  0.00000000000E+00  0.00000000000E+00  0.80964788532E+03  0.80964788532E+03  0.00000000000E+00 0.  1.
         21   -1    0    0  502  503 -0.00000000000E+00 -0.00000000000E+00 -0.24131985209E+03  0.24131985209E+03  0.00000000000E+00 0.  1.
         25    1    1    2    0    0 -0.21406063215E+03 -0.11271248894E+03  0.10754851650E+03  0.29277592593E+03  0.12500000000E+03 0.  0.
          3    1    1    2  501    0  0.34880172988E+02 -0.51612350871E+02  0.50691752600E+03  0.51073069165E+03  0.00000000000E+00 0. -1.
         -3    1    1    2    0  503  0.17918045916E+03  0.16432483981E+03 -0.46138009277E+02  0.24746111983E+03  0.00000000000E+00 0.  1.
<mgrwt>
<rscale>  4 0.27143044E+03</rscale>
<asrwt>0</asrwt>
<pdfrwt beam="1">  1       21 0.12456121E+00 0.27143044E+03</pdfrwt>
<pdfrwt beam="2">  1       21 0.37126131E-01 0.27143044E+03</pdfrwt>
<totfact> 0.31752457E+03</totfact>
</mgrwt>
</event>
<event>
 5    0  0.1972558E-002  0.2763625E+03  0.7546771E-02  0.1097692E+00
         21   -1    0    0  501  502  0.00000000000E+00  0.00000000000E+00  0.15140860821E+03  0.15140860821E+03  0.00000000000E+00 0.  1.
         21   -1    0    0  502  503 -0.00000000000E+00 -0.00000000000E+00 -0.90351702579E+03  0.90351702579E+03  0.00000000000E+00 0. -1.
         25    1    1    2    0    0 -0.12479361278E+03  0.21178131138E+03 -0.63041823264E+03  0.68809659038E+03  0.12500000000E+03 0.  0.
          4    1    1    2  501    0  0.23943536228E+02  0.15997020270E+02  0.54549177943E+02  0.61683145177E+02  0.00000000000E+00 0.  1.
         -4    1    1    2    0  503  0.10085007656E+03 -0.22777833165E+03 -0.17623936288E+03  0.30514589845E+03  0.00000000000E+00 0. -1.
<mgrwt>
<rscale>  4 0.27636249E+03</rscale>
<asrwt>0</asrwt>
<pdfrwt beam="1">  1       21 0.23293632E-01 0.27636249E+03</pdfrwt>
<pdfrwt beam="2">  1       21 0.13900262E+00 0.27636249E+03</pdfrwt>
<totfact> 0.59627173E+03</totfact>
</mgrwt>
</event>
<event>
 5    0  0.1972558E-002  0.3028451E+03  0.7546771E-02  0.1083827E+00
         21   -1    0    0  503  502  0.00000000000E+00  0.00000000000E+00  0.24198720047E+03  0.24198720047E+03  0.00000000000E+00 0.  1.
         21   -1    0    0  501  503 -0.00000000000E+00 -0.00000000000E+00 -0.46775338796E+03  0.46775338796E+03  0.00000000000E+00 0.  1.
         25    1    1    2    0    0  0.11014093139E+03 -0.25290144477E+03 -0.28669052273E+03  0.41702112820E+03  0.12500000000E+03 0.  0.
          1    1    1    2  501    0 -0.10220857599E+02  0.39653460139E+02  0.38417719012E+02  0.56149656857E+02  0.00000000000E+00 0. -1.
         -1    1    1    2    0  502 -0.99920073790E+02  0.21324798463E+03  0.22506616229E+02  0.23656980338E+03  0.00000000000E+00 0.  1.
<mgrwt>
<rscale>  4 0.30284512E+03</rscale>
<asrwt>0</asrwt>
<pdfrwt beam="1">  1       21 0.37228801E-01 0.30284512E+03</pdfrwt>
<pdfrwt beam="2">  1       21 0.71962059E-01 0.30284512E+03</pdfrwt>
<totfact> 0.11418262E+04</totfact>
</mgrwt>
</event>
<event>
 5    0  0.1972558E-002  0.2413413E+03  0.7546771E-02  0.1118903E+00
         21   -1    0    0  501  502  0.00000000000E+00  0.00000000000E+00  0.66733001203E+02  0.66733001203E+02  0.00000000000E+00 0.  1.
         21   -1    0    0  502  503 -0.00000000000E+00 -0.00000000000E+00 -0.13899405114E+04  0.13899405114E+04  0.00000000000E+00 0.  1.
         25    1    1    2    0    0 -0.19001525673E+03 -0.96252548766E+02 -0.11322166829E+04  0.11588399233E+04  0.12500000000E+03 0.  0.
          4    1    1    2  501    0  0.17145663012E+03  0.76948079516E+02 -0.19492714194E+03  0.27076737916E+03  0.00000000000E+00 0.  1.
         -4    1    1    2    0  503  0.18558626605E+02  0.19304469250E+02  0.39363146527E+01  0.27066210069E+02  0.00000000000E+00 0. -1.
<mgrwt>
<rscale>  4 0.24134130E+03</rscale>
<asrwt>0</asrwt>
<pdfrwt beam="1">  1       21 0.10266617E-01 0.24134130E+03</pdfrwt>
<pdfrwt beam="2">  1       21 0.21383698E+00 0.24134130E+03</pdfrwt>
<totfact> 0.81734694E+03</totfact>
</mgrwt>
</event>
<event>
 5    0  0.1972558E-002  0.3664469E+03  0.7546771E-02  0.1056060E+00
         21   -1    0    0  501  502  0.00000000000E+00  0.00000000000E+00  0.16377741981E+03  0.16377741981E+03  0.00000000000E+00 0. -1.
         21   -1    0    0  502  503 -0.00000000000E+00 -0.00000000000E+00 -0.16032369005E+04  0.16032369005E+04  0.00000000000E+00 0.  1.
         25    1    1    2    0    0  0.33803292200E+03  0.66272561737E+02 -0.13493262953E+04  0.13982005435E+04  0.12500000000E+03 0.  0.
          1    1    1    2  501    0 -0.29243275458E+03 -0.63987269666E+02 -0.11013319204E+03  0.31896803385E+03  0.00000000000E+00 0.  1.
         -1    1    1    2    0  503 -0.45600167418E+02 -0.22852920708E+01  0.20000006583E+02  0.49845742965E+02  0.00000000000E+00 0. -1.
<mgrwt>
<rscale>  4 0.36644687E+03</rscale>
<asrwt>0</asrwt>
<pdfrwt beam="1">  1       21 0.25196527E-01 0.36644687E+03</pdfrwt>
<pdfrwt beam="2">  1       21 0.24665182E+00 0.36644687E+03</pdfrwt>
<totfact> 0.89209672E+02</totfact>
</mgrwt>
</event>
<event>
 5    0  0.1972558E-002  0.3004787E+03  0.7546771E-02  0.1085002E+00
         21   -1    0    0  501  502  0.00000000000E+00  0.00000000000E+00  0.31607164026E+04  0.31607164026E+04  0.00000000000E+00 0. -1.
         21   -1    0    0  502  503 -0.00000000000E+00 -0.00000000000E+00 -0.32495713633E+02  0.32495713633E+02  0.00000000000E+00 0.  1.
         25    1    1    2    0    0  0.74631312151E+02 -0.25569727822E+03  0.10403032804E+04  0.10811137064E+04  0.12500000000E+03 0.  0.
          2    1    1    2  501    0 -0.56654486196E+02  0.27983573944E+03  0.17850529516E+04  0.18077421862E+04  0.00000000000E+00 0. -1.
         -2    1    1    2    0  503 -0.17976825955E+02 -0.24138461223E+02  0.30286445698E+03  0.30435622367E+03  0.00000000000E+00 0.  1.
<mgrwt>
<rscale>  4 0.30047871E+03</rscale>
<asrwt>0</asrwt>
<pdfrwt beam="1">  1       21 0.48626382E+00 0.30047871E+03</pdfrwt>
<pdfrwt beam="2">  1       21 0.49993430E-02 0.30047871E+03</pdfrwt>
<totfact> 0.55245085E+02</totfact>
</mgrwt>
</event>
<event>
 5    0  0.1972558E-002  0.2812744E+03  0.7546771E-02  0.1094995E+00
         21   -1    0    0  501  502  0.00000000000E+00  0.00000000000E+00  0.16884952540E+04  0.16884952540E+04  0.00000000000E+00 0. -1.
         21   -1    0    0  502  503 -0.00000000000E+00 -0.00000000000E+00 -0.87563229312E+02  0.87563229312E+02  0.00000000000E+00 0.  1.
         25    1    1    2    0    0  0.18120496039E+03  0.18359248266E+03  0.20532726261E+03  0.35259852826E+03  0.12500000000E+03 0.  0.
          2    1    1    2  501    0 -0.30478593319E+02 -0.86506486159E+01  0.40756863637E+03  0.40879820416E+03  0.00000000000E+00 0.  1.
         -2    1    1    2    0  503 -0.15072636707E+03 -0.17494183404E+03  0.98803612575E+03  0.10146617509E+04  0.00000000000E+00 0. -1.
<mgrwt>
<rscale>  4 0.28127438E+03</rscale>
<asrwt>0</asrwt>
<pdfrwt beam="1">  1       21 0.25976848E+00 0.28127438E+03</pdfrwt>
<pdfrwt beam="2">  1       21 0.13471267E-01 0.28127438E+03</pdfrwt>
<totfact> 0.25549584E+03</totfact>
</mgrwt>
</event>
<event>
 5    0  0.1972558E-002  0.2509365E+03  0.7546771E-02  0.1112714E+00
         21   -1    0    0  503  502  0.00000000000E+00  0.00000000000E+00  0.17105959268E+03  0.17105959268E+03  0.00000000000E+00 0. -1.
         21   -1    0    0  501  503 -0.00000000000E+00 -0.00000000000E+00 -0.13949761269E+04  0.13949761269E+04  0.00000000000E+00 0.  1.
         25    1    1    2    0    0 -0.21554394608E+03  0.15652060560E+02 -0.12688316181E+04  0.12931600268E+04  0.12500000000E+03 0.  0.
          2    1    1    2  501    0 -0.20354272511E+02 -0.12025581042E+01 -0.19185466679E+02  0.27996869238E+02  0.00000000000E+00 0.  1.
         -2    1    1    2    0  502  0.23589821859E+03 -0.14449502456E+02  0.64100550569E+02  0.24487882358E+03  0.00000000000E+00 0. -1.
<mgrwt>
<rscale>  4 0.25093645E+03</rscale>
<asrwt>0</asrwt>
<pdfrwt beam="1">  1       21 0.26316861E-01 0.25093645E+03</pdfrwt>
<pdfrwt beam="2">  1       21 0.21461171E+00 0.25093645E+03</pdfrwt>
<totfact> 0.14077617E+03</totfact>
</mgrwt>
</event>
<event>
 5    0  0.1972558E-002  0.2287562E+03  0.7546771E-02  0.1127518E+00
         21   -1    0    0  503  502  0.00000000000E+00  0.00000000000E+00  0.12973220552E+04  0.12973220552E+04  0.00000000000E+00 0. -1.
         21   -1    0    0  501  503 -0.00000000000E+00 -0.00000000000E+00 -0.63160565863E+02  0.63160565863E+02  0.00000000000E+00 0.  1.
         25    1    1    2    0    0 -0.18404387627E+03 -0.10610168569E+03  0.25503133037E+03  0.35467688897E+03  0.12500000000E+03 0.  0.
          1    1    1    2  501    0  0.23187773870E+02  0.93215877287E+01  0.33910692975E+02  0.42124813981E+02  0.00000000000E+00 0.  1.
         -1    1    1    2    0  502  0.16085610240E+03  0.96780097963E+02  0.94521946595E+03  0.96368091807E+03  0.00000000000E+00 0. -1.
<mgrwt>
<rscale>  4 0.22875623E+03</rscale>
<asrwt>0</asrwt>
<pdfrwt beam="1">  1       21 0.19958799E+00 0.22875623E+03</pdfrwt>
<pdfrwt beam="2">  1       21 0.97170111E-02 0.22875623E+03</pdfrwt>
<totfact> 0.11210224E+04</totfact>
</mgrwt>
</event>
<event>
 5    0  0.1972558E-002  0.2766889E+03  0.7546771E-02  0.1097511E+00
         21   -1    0    0  501  502  0.00000000000E+00  0.00000000000E+00  0.13447474268E+04  0.13447474268E+04  0.00000000000E+00 0.  1.
         21   -1    0    0  502  503 -0.00000000000E+00 -0.00000000000E+00 -0.27210076949E+03  0.27210076949E+03  0.00000000000E+00 0. -1.
         25    1    1    2    0    0  0.25560855054E+03 -0.22421133243E+02 -0.10476247297E+03  0.30403719191E+03  0.12500000000E+03 0.  0.
          1    1    1    2  501    0 -0.17751288254E+03 -0.23757513036E+03  0.74963898005E+03  0.80617080475E+03  0.00000000000E+00 0. -1.
         -1    1    1    2    0  503 -0.78095667996E+02  0.25999626360E+03  0.42777015019E+03  0.50664019959E+03  0.00000000000E+00 0.  1.
<mgrwt>
<rscale>  4 0.27668890E+03</rscale>
<asrwt>0</asrwt>
<pdfrwt beam="1">  1       21 0.20688422E+00 0.27668890E+03</pdfrwt>
<pdfrwt beam="2">  1       21 0.41861657E-01 0.27668890E+03</pdfrwt>
<totfact> 0.61270223E+02</totfact>
</mgrwt>
</event>
<event>
 5    0  0.1972558E-002  0.2426285E+03  0.7546771E-02  0.1118054E+00
         21   -1    0    0  501  502  0.00000000000E+00  0.00000000000E+00  0.45893246941E+03  0.45893246941E+03  0.00000000000E+00 0.  1.
         21   -1    0    0  502  503 -0.00000000000E+00 -0.00000000000E+00 -0.19034723092E+03  0.19034723092E+03  0.00000000000E+00 0. -1.
         25    1    1    2    0    0 -0.11455297318E+03 -0.17846512498E+03 -0.56524427129E+02  0.25257116890E+03  0.12500000000E+03 0.  0.
          2    1    1    2  501    0  0.28992446224E+02  0.15079853258E+01  0.60280378753E+02  0.66907099925E+02  0.00000000000E+00 0. -1.
         -2    1    1    2    0  503  0.85560526954E+02  0.17695713965E+03  0.26482928687E+03  0.32980143151E+03  0.00000000000E+00 0.  1.
<mgrwt>
<rscale>  4 0.24262850E+03</rscale>
<asrwt>0</asrwt>
<pdfrwt beam="1">  1       21 0.70604995E-01 0.24262850E+03</pdfrwt>
<pdfrwt beam="2">  1       21 0.29284189E-01 0.24262850E+03</pdfrwt>
<totfact> 0.19745950E+04</totfact>
</mgrwt>
</event>
<event>
 5    0  0.1972558E-002  0.2433533E+03  0.7546771E-02  0.1117579E+00
         21   -1    0    0  501  502  0.00000000000E+00  0.00000000000E+00  0.73354224042E+03  0.73354224042E+03  0.00000000000E+00 0. -1.
         21   -1    0    0  502  503 -0.00000000000E+00 -0.00000000000E+00 -0.15507079046E+03  0.15507079046E+03  0.00000000000E+00 0. -1.
         25    1    1    2    0    0 -0.90350313134E+02  0.19422643619E+03  0.15903873489E+02  0.24852569443E+03  0.12500000000E+03 0.  0.
          3    1    1    2  501    0  0.51763931812E+02  0.35912506169E+01  0.32243719499E+03  0.32658558822E+03  0.00000000000E+00 0. -1.
         -3    1    1    2    0  503  0.38586381321E+02 -0.19781768681E+03  0.24013038147E+03  0.31350174823E+03  0.00000000000E+00 0.  1.
<mgrwt>
<rscale>  4 0.24335329E+03</rscale>
<asrwt>0</asrwt>
<pdfrwt beam="1">  1       21 0.11285265E+00 0.24335329E+03</pdfrwt>
<pdfrwt beam="2">  1       21 0.23857045E-01 0.24335329E+03</pdfrwt>
<totfact> 0.98297035E+03</totfact>
</mgrwt>
</event>
<event>
 5    0  0.1972558E-002  0.2653656E+03  0.7546771E-02  0.1103962E+00
         21   -1    0    0  501  502  0.00000000000E+00  0.00000000000E+00  0.13776315619E+04  0.13776315619E+04  0.00000000000E+00 0. -1.
         21   -1    0    0  502  503 -0.00000000000E+00 -0.00000000000E+00 -0.22783952640E+03  0.22783952640E+03  0.00000000000E+00 0.  1.
         25    1    1    2    0    0 -0.20278110911E+03  0.11317973403E+03 -0.12375354312E+03  0.29132416625E+03  0.12500000000E+03 0.  0.
          4    1    1    2  501    0 -0.24124259766E+02 -0.34881250042E+01  0.49971356094E+03  0.50030769523E+03  0.00000000000E+00 0.  1.
         -4    1    1    2    0  503  0.22690536887E+03 -0.10969160903E+03  0.77383201765E+03  0.81383922678E+03  0.00000000000E+00 0. -1.
<mgrwt>
<rscale>  4 0.26536564E+03</rscale>
<asrwt>0</asrwt>
<pdfrwt beam="1">  1       21 0.21194331E+00 0.26536564E+03</pdfrwt>
<pdfrwt beam="2">  1       21 0.35052236E-01 0.26536564E+03</pdfrwt>
<totfact> 0.82283066E+02</totfact>
</mgrwt>
</event>
<event>
 5    0  0.1972558E-002  0.2732256E+03  0.7546771E-02  0.1099448E+00
         21   -1    0    0  501  502  0.00000000000E+00  0.00000000000E+00  0.92744699186E+03  0.92744699186E+03  0.00000000000E+00 0. -1.
         21   -1    0    0  502  503 -0.00000000000E+00 -0.00000000000E+00 -0.28544735739E+03  0.28544735739E+03  0.00000000000E+00 0. -1.
         25    1    1    2    0    0  0.23946237416E+03  0.46323090187E+02 -0.18374984245E+03  0.32996524351E+03  0.12500000000E+03 0.  0.
          1    1    1    2  501    0 -0.23979265427E+03 -0.65842895380E+00  0.50609919096E+03  0.56003333977E+03  0.00000000000E+00 0. -1.
         -1    1    1    2    0  503  0.33028011033E+00 -0.45664661234E+02  0.31965028595E+03  0.32289576597E+03  0.00000000000E+00 0.  1.
<mgrwt>
<rscale>  4 0.27322560E+03</rscale>
<asrwt>0</asrwt>
<pdfrwt beam="1">  1       21 0.14268415E+00 0.27322560E+03</pdfrwt>
<pdfrwt beam="2">  1       21 0.43914979E-01 0.27322560E+03</pdfrwt>
<totfact> 0.15870909E+03</totfact>
</mgrwt>
</event>
<event>
 5    0  0.1972558E-002  0.2473493E+03  0.7546771E-02  0.1114992E+00
         21   -1    0    0  501  502  0.00000000000E+00  0.00000000000E+00  0.32856939520E+03  0.32856939520E+03  0.00000000000E+00 0. -1.
         21   -1    0    0  502  503 -0.00000000000E+00 -0.00000000000E+00 -0.40751431558E+03  0.40751431558E+03  0.00000000000E+00 0.  1.
         25    1    1    2    0    0 -0.17676896349E+03  0.10069263363E+03 -0.20613600367E+03  0.31544147623E+03  0.12500000000E+03 0.  0.
          3    1    1    2  501    0 -0.37881209101E+02 -0.13592655405E+02  0.17883411099E+03  0.18330680712E+03  0.00000000000E+00 0. -1.
         -3    1    1    2    0  503  0.21465017259E+03 -0.87099978222E+02 -0.51643027697E+02  0.23733542742E+03  0.00000000000E+00 0.  1.
<mgrwt>
<rscale>  4 0.24734930E+03</rscale>
<asrwt>0</asrwt>
<pdfrwt beam="1">  1       21 0.50549138E-01 0.24734930E+03</pdfrwt>
<pdfrwt beam="2">  1       21 0.62694510E-01 0.24734930E+03</pdfrwt>
<totfact> 0.84747045E+03</totfact>
</mgrwt>
</event>
<event>
 5    0  0.1972558E-002  0.3152733E+03  0.7546771E-02  0.1077845E+00
         21   -1    0    0  501  502  0.00000000000E+00  0.00000000000E+00  0.14758495649E+04  0.14758495649E+04  0.00000000000E+00 0. -1.
         21   -1    0    0  502  503 -0.00000000000E+00 -0.00000000000E+00 -0.47896348673E+03  0.47896348673E+03  0.00000000000E+00 0.  1.
         25    1    1    2    0    0 -0.31101406408E+03 -0.20478803996E+02 -0.12354782877E+03  0.35782425220E+03  0.12500000000E+03 0.  0.
          1    1    1    2  501    0  0.37146599679E+02  0.60664123209E+02  0.12769985389E+04  0.12789782148E+04  0.00000000000E+00 0. -1.
         -1    1    1    2    0  503  0.27386746440E+03 -0.40185319213E+02 -0.15656463194E+03  0.31801058459E+03  0.00000000000E+00 0.  1.
<mgrwt>
<rscale>  4 0.31527328E+03</rscale>
<asrwt>0</asrwt>
<pdfrwt beam="1">  1       21 0.22705378E+00 0.31527328E+03</pdfrwt>
<pdfrwt beam="2">  1       21 0.73686691E-01 0.31527328E+03</pdfrwt>
<totfact> 0.13149055E+02</totfact>
</mgrwt>
</event>
<event>
 5    0  0.1972558E-002  0.2367428E+03  0.7546771E-02  0.1121982E+00
         21   -1    0    0  501  502  0.00000000000E+00  0.00000000000E+00  0.15221422808E+04  0.15221422808E+04  0.00000000000E+00 0.  1.
         21   -1    0    0  502  503 -0.00000000000E+00 -0.00000000000E+00 -0.17903846911E+03  0.17903846911E+03  0.00000000000E+00 0. -1.
         25    1    1    2    0    0 -0.18390951187E+03  0.98603923191E+02 -0.43336477928E+02  0.24707993149E+03  0.12500000000E+03 0.  0.
          4    1    1    2  501    0  0.66940180657E+02  0.54379643062E+02  0.11305867469E+04  0.11338714767E+04  0.00000000000E+00 0.  1.
         -4    1    1    2    0  503  0.11696933121E+03 -0.15298356625E+03  0.25585354273E+03  0.32022934175E+03  0.00000000000E+00 0. -1.
<mgrwt>
<rscale>  4 0.23674276E+03</rscale>
<asrwt>0</asrwt>
<pdfrwt beam="1">  1       21 0.23417573E+00 0.23674276E+03</pdfrwt>
<pdfrwt beam="2">  1       21 0.27544381E-01 0.23674276E+03</pdfrwt>
<totfact> 0.98894103E+02</totfact>
</mgrwt>
</event>
<event>
 5    0  0.1972558E-002  0.4033680E+03  0.7546771E-02  0.1042620E+00
         21   -1    0    0  501  502  0.00000000000E+00  0.00000000000E+00  0.98323366533E+03  0.98323366533E+03  0.00000000000E+00 0.  1.
         21   -1    0    0  502  503 -0.00000000000E+00 -0.00000000000E+00 -0.24469984049E+03  0.24469984049E+03  0.00000000000E+00 0. -1.
         25    1    1    2    0    0 -0.32633379461E+03 -0.15085568213E+03  0.13092857653E+03  0.40251518541E+03  0.12500000000E+03 0.  0.
          4    1    1    2  501    0  0.40807882461E+03  0.12235723661E+03  0.34279375830E+03  0.54681549098E+03  0.00000000000E+00 0.  1.
         -4    1    1    2    0  503 -0.81745030004E+02  0.28498445522E+02  0.26481149000E+03  0.27860282943E+03  0.00000000000E+00 0. -1.
<mgrwt>
<rscale>  4 0.40336798E+03</rscale>
<asrwt>0</asrwt>
<pdfrwt beam="1">  1       21 0.15126672E+00 0.40336798E+03</pdfrwt>
<pdfrwt beam="2">  1       21 0.37646130E-01 0.40336798E+03</pdfrwt>
<totfact> 0.17316049E+03</totfact>
</mgrwt>
</event>
<event>
 5    0  0.1972558E-002  0.3001743E+03  0.7546771E-02  0.1085153E+00
         21   -1    0    0  503  502  0.00000000000E+00  0.00000000000E+00  0.18664007983E+04  0.18664007983E+04  0.00000000000E+00 0.  1.
         21   -1    0    0  501  503 -0.00000000000E+00 -0.00000000000E+00 -0.44304960718E+03  0.44304960718E+03  0.00000000000E+00 0. -1.
         25    1    1    2    0    0  0.96885688158E+02 -0.25293713411E+03 -0.35305560897E+03  0.46220914466E+03  0.12500000000E+03 0.  0.
          4    1    1    2  501    0  0.10072518290E+03  0.73295672894E+01  0.10568175747E+04  0.10616320790E+04  0.00000000000E+00 0. -1.
         -4    1    1    2    0  502 -0.19761087106E+03  0.24560756682E+03  0.71958922545E+03  0.78560918186E+03  0.00000000000E+00 0.  1.
<mgrwt>
<rscale>  4 0.30017433E+03</rscale>
<asrwt>0</asrwt>
<pdfrwt beam="1">  1       21 0.28713858E+00 0.30017433E+03</pdfrwt>
<pdfrwt beam="2">  1       21 0.68161479E-01 0.30017433E+03</pdfrwt>
<totfact> 0.69099275E+01</totfact>
</mgrwt>
</event>
<event>
 5    0  0.1972558E-002  0.3152483E+03  0.7546771E-02  0.1077857E+00
         21   -1    0    0  501  502  0.00000000000E+00  0.00000000000E+00  0.58233923562E+03  0.58233923562E+03  0.00000000000E+00 0. -1.
         21   -1    0    0  502  503 -0.00000000000E+00 -0.00000000000E+00 -0.42137852325E+03  0.42137852325E+03  0.00000000000E+00 0. -1.
         25    1    1    2    0    0 -0.27742313348E+03 -0.82419150779E+02 -0.31342410783E+03  0.44454041748E+03  0.12500000000E+03 0.  0.
          2    1    1    2  501    0  0.26178903906E+03  0.61605694123E+02  0.44466835834E+03  0.51967173430E+03  0.00000000000E+00 0. -1.
         -2    1    1    2    0  503  0.15634094418E+02  0.20813456655E+02  0.29716461860E+02  0.39505607091E+02  0.00000000000E+00 0.  1.
<mgrwt>
<rscale>  4 0.31524833E+03</rscale>
<asrwt>0</asrwt>
<pdfrwt beam="1">  1       21 0.89590652E-01 0.31524833E+03</pdfrwt>
<pdfrwt beam="2">  1       21 0.64827465E-01 0.31524833E+03</pdfrwt>
<totfact> 0.21351125E+03</totfact>
</mgrwt>
</event>
<event>
 5    0  0.1972558E-002  0.3976957E+03  0.7546771E-02  0.1044580E+00
         21   -1    0    0  501  502  0.00000000000E+00  0.00000000000E+00  0.81339788221E+03  0.81339788221E+03  0.00000000000E+00 0.  1.
         21   -1    0    0  502  503 -0.00000000000E+00 -0.00000000000E+00 -0.84682578847E+03  0.84682578847E+03  0.00000000000E+00 0. -1.
         25    1    1    2    0    0  0.16536243210E+03  0.32460619763E+03 -0.60149160856E+03  0.71423460618E+03  0.12500000000E+03 0.  0.
          1    1    1    2  501    0 -0.80153006278E+02  0.13309756279E+03  0.43479773111E+03  0.46172343737E+03  0.00000000000E+00 0. -1.
         -1    1    1    2    0  503 -0.85209425820E+02 -0.45770376042E+03  0.13326597119E+03  0.48426562714E+03  0.00000000000E+00 0.  1.
<mgrwt>
<rscale>  4 0.39769573E+03</rscale>
<asrwt>0</asrwt>
<pdfrwt beam="1">  1       21 0.12513814E+00 0.39769573E+03</pdfrwt>
<pdfrwt beam="2">  1       21 0.13028089E+00 0.39769573E+03</pdfrwt>
<totfact> 0.17131235E+02</totfact>
</mgrwt>
</event>
<event>
 5    0  0.1972558E-002  0.2396526E+03  0.7546771E-02  0.1120024E+00
         21   -1    0    0  503  502  0.00000000000E+00  0.00000000000E+00  0.41565440279E+02  0.41565440279E+02  0.00000000000E+00 0. -1.
         21   -1    0    0  501  503 -0.00000000000E+00 -0.00000000000E+00 -0.13103233781E+04  0.13103233781E+04  0.00000000000E+00 0. -1.
         25    1    1    2    0    0 -0.13103871847E+03 -0.15696249479E+03 -0.81094986767E+03  0.84561992549E+03  0.12500000000E+03 0.  0.
          3    1    1    2  501    0  0.96244494984E+02  0.93900336822E+02 -0.22042945827E+03  0.25820422565E+03  0.00000000000E+00 0. -1.
         -3    1    1    2    0  502  0.34794223487E+02  0.63062157969E+02 -0.23737861191E+03  0.24806466727E+03  0.00000000000E+00 0.  1.
<mgrwt>
<rscale>  4 0.23965260E+03</rscale>
<asrwt>0</asrwt>
<pdfrwt beam="1">  1       21 0.63946838E-02 0.23965260E+03</pdfrwt>
<pdfrwt beam="2">  1       21 0.20158819E+00 0.23965260E+03</pdfrwt>
<totfact> 0.22441088E+04</totfact>
</mgrwt>
</event>
<event>
 5    0  0.1972558E-002  0.3536185E+03  0.7546771E-02  0.1061140E+00
         21   -1    0    0  503  502  0.00000000000E+00  0.00000000000E+00  0.10462594263E+04  0.10462594263E+04  0.00000000000E+00 0. -1.
         21   -1    0    0  501  503 -0.00000000000E+00 -0.00000000000E+00 -0.20735419028E+03  0.20735419028E+03  0.00000000000E+00 0. -1.
         25    1    1    2    0    0  0.29038823198E+03 -0.21183740575E+03  0.31078370539E+03  0.49133687352E+03  0.12500000000E+03 0.  0.
          1    1    1    2  501    0 -0.73201825484E+02 -0.19209927979E+02  0.42073328511E+03  0.42748570243E+03  0.00000000000E+00 0.  1.
         -1    1    1    2    0  502 -0.21718640649E+03  0.23104733373E+03  0.10738824548E+03  0.33479104058E+03  0.00000000000E+00 0. -1.
<mgrwt>
<rscale>  4 0.35361853E+03</rscale>
<asrwt>0</asrwt>
<pdfrwt beam="1">  1       21 0.16096299E+00 0.35361853E+03</pdfrwt>
<pdfrwt beam="2">  1       21 0.31900645E-01 0.35361853E+03</pdfrwt>
<totfact> 0.20886780E+03</totfact>
</mgrwt>
</event>
<event>
 5    0  0.1972558E-002  0.4501857E+03  0.7546771E-02  0.1027667E+00
         21   -1    0    0  503  502  0.00000000000E+00  0.00000000000E+00  0.87518699471E+03  0.87518699471E+03  0.00000000000E+00 0. -1.
         21   -1    0    0  501  503 -0.00000000000E+00 -0.00000000000E+00 -0.28753791180E+03  0.28753791180E+03  0.00000000000E+00 0.  1.
         25    1    1    2    0    0  0.94130953100E+02 -0.42211555392E+03  0.34588656508E+02  0.45151251628E+03  0.12500000000E+03 0.  0.
          2    1    1    2  501    0  0.40888909451E+01  0.80415062681E+02  0.17275925642E+03  0.19060184158E+03  0.00000000000E+00 0.  1.
         -2    1    1    2    0  502 -0.98219844045E+02  0.34170049124E+03  0.38030116997E+03  0.52061054865E+03  0.00000000000E+00 0. -1.
<mgrwt>
<rscale>  4 0.45018571E+03</rscale>
<asrwt>0</asrwt>
<pdfrwt beam="1">  1       21 0.13464415E+00 0.45018571E+03</pdfrwt>
<pdfrwt beam="2">  1       21 0.44236602E-01 0.45018571E+03</pdfrwt>
<totfact> 0.16604668E+03</totfact>
</mgrwt>
</event>
<event>
 5    0  0.1972558E-002  0.2451564E+03  0.7546771E-02  0.1116405E+00
         21   -1    0    0  501  502  0.00000000000E+00  0.00000000000E+00  0.70995264124E+03  0.70995264124E+03  0.00000000000E+00 0.  1.
         21   -1    0    0  502  503 -0.00000000000E+00 -0.00000000000E+00 -0.36551267769E+03  0.36551267769E+03  0.00000000000E+00 0. -1.
         25    1    1    2    0    0 -0.20307706630E+03 -0.85847695203E+02 -0.32793316777E+02  0.25555923629E+03  0.12500000000E+03 0.  0.
          4    1    1    2  501    0 -0.11201164646E+02  0.11150380351E+03  0.53879250831E+03  0.55032347878E+03  0.00000000000E+00 0.  1.
         -4    1    1    2    0  503  0.21427823094E+03 -0.25656108309E+02 -0.16155922799E+03  0.26958260385E+03  0.00000000000E+00 0. -1.
<mgrwt>
<rscale>  4 0.24515636E+03</rscale>
<asrwt>0</asrwt>
<pdfrwt beam="1">  1       21 0.10922348E+00 0.24515636E+03</pdfrwt>
<pdfrwt beam="2">  1       21 0.56232720E-01 0.24515636E+03</pdfrwt>
<totfact> 0.18922754E+03</totfact>
</mgrwt>
</event>
<event>
 5    0  0.1972558E-002  0.2301399E+03  0.7546771E-02  0.1126541E+00
         21   -1    0    0  501  502  0.00000000000E+00  0.00000000000E+00  0.89125779451E+03  0.89125779451E+03  0.00000000000E+00 0. -1.
         21   -1    0    0  502  503 -0.00000000000E+00 -0.00000000000E+00 -0.19474403608E+03  0.19474403608E+03  0.00000000000E+00 0.  1.
         25    1    1    2    0    0 -0.20672395620E+03  0.24958139058E+02 -0.41327140333E+02  0.24635469409E+03  0.12500000000E+03 0.  0.
          2    1    1    2  501    0  0.17232247216E+03 -0.10714151041E+01  0.97614712359E+02  0.19805255467E+03  0.00000000000E+00 0.  1.
         -2    1    1    2    0  503  0.34401484046E+02 -0.23886723954E+02  0.64022618641E+03  0.64159458184E+03  0.00000000000E+00 0. -1.
<mgrwt>
<rscale>  4 0.23013987E+03</rscale>
<asrwt>0</asrwt>
<pdfrwt beam="1">  1       21 0.13711658E+00 0.23013987E+03</pdfrwt>
<pdfrwt beam="2">  1       21 0.29960621E-01 0.23013987E+03</pdfrwt>
<totfact> 0.39133783E+03</totfact>
</mgrwt>
</event>
<event>
 5    0  0.1972558E-002  0.3062749E+03  0.7546771E-02  0.1082145E+00
         21   -1    0    0  501  502  0.00000000000E+00  0.00000000000E+00  0.14176274512E+04  0.14176274512E+04  0.00000000000E+00 0.  1.
         21   -1    0    0  502  503 -0.00000000000E+00 -0.00000000000E+00 -0.22136269898E+03  0.22136269898E+03  0.00000000000E+00 0. -1.
         25    1    1    2    0    0  0.20610473672E+03  0.21805332807E+03 -0.82040800986E+01  0.32514415774E+03  0.12500000000E+03 0.  0.
          1    1    1    2  501    0 -0.27355102039E+03 -0.68694428664E+02  0.10549634965E+04  0.10920151392E+04  0.00000000000E+00 0.  1.
         -1    1    1    2    0  503  0.67446283672E+02 -0.14935889941E+03  0.14950533582E+03  0.22183085325E+03  0.00000000000E+00 0. -1.
<mgrwt>
<rscale>  4 0.30627493E+03</rscale>
<asrwt>0</asrwt>
<pdfrwt beam="1">  1       21 0.21809653E+00 0.30627493E+03</pdfrwt>
<pdfrwt beam="2">  1       21 0.34055801E-01 0.30627493E+03</pdfrwt>
<totfact> 0.77149523E+02</totfact>
</mgrwt>
</event>
<event>
 5    0  0.1972558E-002  0.1990920E+03  0.7546771E-02  0.1150507E+00
         21   -1    0    0  501  502  0.00000000000E+00  0.00000000000E+00  0.92812298738E+03  0.92812298738E+03  0.00000000000E+00 0. -1.
         21   -1    0    0  502  503 -0.00000000000E+00 -0.00000000000E+00 -0.20629194393E+03  0.20629194393E+03  0.00000000000E+00 0.  1.
         25    1    1    2    0    0  0.74003542118E+02  0.19649528309E+03  0.35822333947E+03  0.43363104302E+03  0.12500000000E+03 0.  0.
          4    1    1    2  501    0 -0.79064106846E+02 -0.53028744667E+02 -0.14435776517E+03  0.17292294561E+03  0.00000000000E+00 0.  1.
         -4    1    1    2    0  503  0.50605647272E+01 -0.14346653843E+03  0.50796546915E+03  0.52786094269E+03  0.00000000000E+00 0. -1.
<mgrwt>
<rscale>  4 0.19909196E+03</rscale>
<asrwt>0</asrwt>
<pdfrwt beam="1">  1       21 0.14278815E+00 0.19909196E+03</pdfrwt>
<pdfrwt beam="2">  1       21 0.31737223E-01 0.19909196E+03</pdfrwt>
<totfact> 0.32270464E+03</totfact>
</mgrwt>
</event>
<event>
 5    0  0.1972558E-002  0.2431660E+03  0.7546771E-02  0.1117702E+00
         21   -1    0    0  501  502  0.00000000000E+00  0.00000000000E+00  0.13290877278E+04  0.13290877278E+04  0.00000000000E+00 0.  1.
         21   -1    0    0  502  503 -0.00000000000E+00 -0.00000000000E+00 -0.38995027294E+03  0.38995027294E+03  0.00000000000E+00 0. -1.
         25    1    1    2    0    0 -0.69450169378E+02  0.19456303399E+03 -0.33009512210E+03  0.40898152752E+03  0.12500000000E+03 0.  0.
          4    1    1    2  501    0  0.10281621243E+02  0.50892509787E+02  0.44500677045E+03  0.44802542900E+03  0.00000000000E+00 0. -1.
         -4    1    1    2    0  503  0.59168548135E+02 -0.24545554378E+03  0.82422580649E+03  0.86203104419E+03  0.00000000000E+00 0.  1.
<mgrwt>
<rscale>  4 0.24316601E+03</rscale>
<asrwt>0</asrwt>
<pdfrwt beam="1">  1       21 0.20447503E+00 0.24316601E+03</pdfrwt>
<pdfrwt beam="2">  1       21 0.59992350E-01 0.24316601E+03</pdfrwt>
<totfact> 0.30734211E+02</totfact>
</mgrwt>
</event>
<event>
 5    0  0.1972558E-002  0.2243954E+03  0.7546771E-02  0.1130648E+00
         21   -1    0    0  503  502  0.00000000000E+00  0.00000000000E+00  0.12923022467E+03  0.12923022467E+03  0.00000000000E+00 0. -1.
         21   -1    0    0  501  503 -0.00000000000E+00 -0.00000000000E+00 -0.52745293663E+03  0.52745293663E+03  0.00000000000E+00 0. -1.
         25    1    1    2    0    0  0.59978042514E+02 -0.20208443196E+03 -0.30213093083E+03  0.38902902538E+03  0.12500000000E+03 0.  0.
          4    1    1    2  501    0 -0.76997350974E+02  0.39936005316E+02 -0.31301638427E+02  0.92213172301E+02  0.00000000000E+00 0.  1.
         -4    1    1    2    0  502  0.17019308460E+02  0.16214842664E+03 -0.64790142713E+02  0.17544096362E+03  0.00000000000E+00 0. -1.
<mgrwt>
<rscale>  4 0.22439539E+03</rscale>
<asrwt>0</asrwt>
<pdfrwt beam="1">  1       21 0.19881573E-01 0.22439539E+03</pdfrwt>
<pdfrwt beam="2">  1       21 0.81146605E-01 0.22439539E+03</pdfrwt>
<totfact> 0.30558505E+04</totfact>
</mgrwt>
</event>
<event>
 5    0  0.1972558E-002  0.2442146E+03  0.7546771E-02  0.1117017E+00
         21   -1    0    0  501  502  0.00000000000E+00  0.00000000000E+00  0.65083398436E+03  0.65083398436E+03  0.00000000000E+00 0.  1.
         21   -1    0    0  502  503 -0.00000000000E+00 -0.00000000000E+00 -0.26679237040E+03  0.26679237040E+03  0.00000000000E+00 0. -1.
         25    1    1    2    0    0 -0.15761683633E+03 -0.14426813453E+03 -0.16867888157E+03  0.29955621647E+03  0.12500000000E+03 0.  0.
          2    1    1    2  501    0  0.57189573340E+02 -0.25244983162E+02  0.24362950999E+03  0.25152195652E+03  0.00000000000E+00 0.  1.
         -2    1    1    2    0  503  0.10042726299E+03  0.16951311769E+03  0.30909098554E+03  0.36654818178E+03  0.00000000000E+00 0. -1.
<mgrwt>
<rscale>  4 0.24421464E+03</rscale>
<asrwt>0</asrwt>
<pdfrwt beam="1">  1       21 0.10012830E+00 0.24421464E+03</pdfrwt>
<pdfrwt beam="2">  1       21 0.41044980E-01 0.24421464E+03</pdfrwt>
<totfact> 0.45054005E+03</totfact>
</mgrwt>
</event>
<event>
 5    0  0.1972558E-002  0.2495968E+03  0.7546771E-02  0.1113560E+00
         21   -1    0    0  503  502  0.00000000000E+00  0.00000000000E+00  0.89972112203E+03  0.89972112203E+03  0.00000000000E+00 0. -1.
         21   -1    0    0  501  503 -0.00000000000E+00 -0.00000000000E+00 -0.68939323291E+02  0.68939323291E+02  0.00000000000E+00 0. -1.
         25    1    1    2    0    0 -0.12577055658E+03 -0.17565685056E+03  0.29256165299E+03  0.38456583682E+03  0.12500000000E+03 0.  0.
          4    1    1    2  501    0  0.59587583545E+01  0.46847037631E+02  0.75388442476E+02  0.88958242985E+02  0.00000000000E+00 0.  1.
         -4    1    1    2    0  502  0.11981179822E+03  0.12880981293E+03  0.46283170327E+03  0.49513636551E+03  0.00000000000E+00 0. -1.
<mgrwt>
<rscale>  4 0.24959680E+03</rscale>
<asrwt>0</asrwt>
<pdfrwt beam="1">  1       21 0.13841863E+00 0.24959680E+03</pdfrwt>
<pdfrwt beam="2">  1       21 0.10606050E-01 0.24959680E+03</pdfrwt>
<totfact> 0.26081234E+04</totfact>
</mgrwt>
</event>
<event>
 5    0  0.1972558E-002  0.2449659E+03  0.7546771E-02  0.1116528E+00
         21   -1    0    0  501  502  0.00000000000E+00  0.00000000000E+00  0.14984362968E+03  0.14984362968E+03  0.00000000000E+00 0. -1.
         21   -1    0    0  502  503 -0.00000000000E+00 -0.00000000000E+00 -0.64979272021E+03  0.64979272021E+03  0.00000000000E+00 0. -1.
         25    1    1    2    0    0 -0.14174601664E+03  0.15087638859E+03 -0.34286693762E+03  0.41956924909E+03  0.12500000000E+03 0.  0.
          1    1    1    2  501    0  0.16643023260E+03 -0.13730427430E+03 -0.22183351595E+03  0.30945370391E+03  0.00000000000E+00 0. -1.
         -1    1    1    2    0  503 -0.24684215959E+02 -0.13572114298E+02  0.64751363045E+02  0.70613396889E+02  0.00000000000E+00 0.  1.
<mgrwt>
<rscale>  4 0.24496585E+03</rscale>
<asrwt>0</asrwt>
<pdfrwt beam="1">  1       21 0.23052866E-01 0.24496585E+03</pdfrwt>
<pdfrwt beam="2">  1       21 0.99968112E-01 0.24496585E+03</pdfrwt>
<totfact> 0.14064153E+04</totfact>
</mgrwt>
</event>
<event>
 5    0  0.1972558E-002  0.3238864E+03  0.7546771E-02  0.1073874E+00
         21   -1    0    0  501  502  0.00000000000E+00  0.00000000000E+00  0.80981462320E+03  0.80981462320E+03  0.00000000000E+00 0.  1.
         21   -1    0    0  502  503 -0.00000000000E+00 -0.00000000000E+00 -0.76996574768E+03  0.76996574768E+03  0.00000000000E+00 0.  1.
         25    1    1    2    0    0 -0.28698884327E+03  0.89508858834E+02 -0.68188152665E+03  0.75562017467E+03  0.12500000000E+03 0.  0.
          3    1    1    2  501    0  0.15122796151E+02 -0.22219430772E+02  0.38606115467E+03  0.38699562945E+03  0.00000000000E+00 0.  1.
         -3    1    1    2    0  503  0.27186604712E+03 -0.67289428062E+02  0.33566924750E+03  0.43716456676E+03  0.00000000000E+00 0. -1.
<mgrwt>
<rscale>  4 0.32388638E+03</rscale>
<asrwt>0</asrwt>
<pdfrwt beam="1">  1       21 0.12458687E+00 0.32388638E+03</pdfrwt>
<pdfrwt beam="2">  1       21 0.11845627E+00 0.32388638E+03</pdfrwt>
<totfact> 0.23178413E+02</totfact>
</mgrwt>
</event>
<event>
 5    0  0.1972558E-002  0.3665618E+03  0.7546771E-02  0.1056015E+00
         21   -1    0    0  501  502  0.00000000000E+00  0.00000000000E+00  0.23262234942E+04  0.23262234942E+04  0.00000000000E+00 0.  1.
         21   -1    0    0  502  503 -0.00000000000E+00 -0.00000000000E+00 -0.88111737517E+02  0.88111737517E+02  0.00000000000E+00 0.  1.
         25    1    1    2    0    0 -0.12756983674E+02  0.38598840175E+03  0.98757504269E+03  0.10677449376E+04  0.12500000000E+03 0.  0.
          3    1    1    2  501    0 -0.33164139080E+02 -0.66736436947E+02  0.73297511179E+03  0.73675377613E+03  0.00000000000E+00 0. -1.
         -3    1    1    2    0  503  0.45921122754E+02 -0.31925196481E+03  0.51756160224E+03  0.60983651798E+03  0.00000000000E+00 0.  1.
<mgrwt>
<rscale>  4 0.36656177E+03</rscale>
<asrwt>0</asrwt>
<pdfrwt beam="1">  1       21 0.35788049E+00 0.36656177E+03</pdfrwt>
<pdfrwt beam="2">  1       21 0.13555654E-01 0.36656177E+03</pdfrwt>
<totfact> 0.61518477E+02</totfact>
</mgrwt>
</event>
<event>
 5    0  0.1972558E-002  0.2587124E+03  0.7546771E-02  0.1107919E+00
         21   -1    0    0  501  502  0.00000000000E+00  0.00000000000E+00  0.15874184405E+03  0.15874184405E+03  0.00000000000E+00 0.  1.
         21   -1    0    0  502  503 -0.00000000000E+00 -0.00000000000E+00 -0.44354030574E+03  0.44354030574E+03  0.00000000000E+00 0. -1.
         25    1    1    2    0    0  0.11381396855E+02 -0.21766481285E+03 -0.22468461687E+03  0.33706925698E+03  0.12500000000E+03 0.  0.
          1    1    1    2  501    0 -0.34065379105E+02  0.22856893220E+03 -0.43766998850E+02  0.23520152425E+03  0.00000000000E+00 0.  1.
         -1    1    1    2    0  503  0.22683982251E+02 -0.10904119351E+02 -0.16346845975E+02  0.30011368561E+02  0.00000000000E+00 0. -1.
<mgrwt>
<rscale>  4 0.25871242E+03</rscale>
<asrwt>0</asrwt>
<pdfrwt beam="1">  1       21 0.24421822E-01 0.25871242E+03</pdfrwt>
<pdfrwt beam="2">  1       21 0.68236971E-01 0.25871242E+03</pdfrwt>
<totfact> 0.30040788E+04</totfact>
</mgrwt>
</event>
<event>
 5    0  0.1972558E-002  0.2454735E+03  0.7546771E-02  0.1116199E+00
         21   -1    0    0  501  502  0.00000000000E+00  0.00000000000E+00  0.10211367493E+04  0.10211367493E+04  0.00000000000E+00 0. -1.
         21   -1    0    0  502  503 -0.00000000000E+00 -0.00000000000E+00 -0.12398123230E+03  0.12398123230E+03  0.00000000000E+00 0. -1.
         25    1    1    2    0    0  0.51977235982E+02  0.20927253110E+03  0.34992477107E+02  0.25168650895E+03  0.12500000000E+03 0.  0.
          4    1    1    2  501    0 -0.21953202590E+02 -0.19155539555E+03  0.63556345587E+03  0.66416588222E+03  0.00000000000E+00 0. -1.
         -4    1    1    2    0  503 -0.30024033392E+02 -0.17717135555E+02  0.22659958398E+03  0.22926559038E+03  0.00000000000E+00 0.  1.
<mgrwt>
<rscale>  4 0.24547354E+03</rscale>
<asrwt>0</asrwt>
<pdfrwt beam="1">  1       21 0.15709796E+00 0.24547354E+03</pdfrwt>
<pdfrwt beam="2">  1       21 0.19074036E-01 0.24547354E+03</pdfrwt>
<totfact> 0.64089067E+03</totfact>
</mgrwt>
</event>
<event>
 5    0  0.1972558E-002  0.2421830E+03  0.7546771E-02  0.1118347E+00
         21   -1    0    0  501  502  0.00000000000E+00  0.00000000000E+00  0.18350826242E+04  0.18350826242E+04  0.00000000000E+00 0. -1.
         21   -1    0    0  502  503 -0.00000000000E+00 -0.00000000000E+00 -0.13067565737E+03  0.13067565737E+03  0.00000000000E+00 0.  1.
         25    1    1    2    0    0  0.16076542135E+03  0.13108049344E+03 -0.52246458585E+01  0.24223937208E+03  0.12500000000E+03 0.  0.
          4    1    1    2  501    0 -0.11571485985E+03 -0.99649971591E+02  0.14571931881E+04  0.14651730386E+04  0.00000000000E+00 0. -1.
         -4    1    1    2    0  503 -0.45050561500E+02 -0.31430521847E+02  0.25243842458E+03  0.25834587087E+03  0.00000000000E+00 0.  1.
<mgrwt>
<rscale>  4 0.24218302E+03</rscale>
<asrwt>0</asrwt>
<pdfrwt beam="1">  1       21 0.28232038E+00 0.24218302E+03</pdfrwt>
<pdfrwt beam="2">  1       21 0.20103949E-01 0.24218302E+03</pdfrwt>
<totfact> 0.93027453E+02</totfact>
</mgrwt>
</event>
<event>
 5    0  0.1972558E-002  0.4331469E+03  0.7546771E-02  0.1032870E+00
         21   -1    0    0  503  502  0.00000000000E+00  0.00000000000E+00  0.22977647984E+03  0.22977647984E+03  0.00000000000E+00 0. -1.
         21   -1    0    0  501  503 -0.00000000000E+00 -0.00000000000E+00 -0.98081814260E+03  0.98081814260E+03  0.00000000000E+00 0. -1.
         25    1    1    2    0    0 -0.30092194803E+02 -0.39846040445E+03 -0.46950197729E+03  0.62907339857E+03  0.12500000000E+03 0.  0.
          2    1    1    2  501    0 -0.56800990741E+02 -0.34713701668E+02 -0.45329797460E+02  0.80536849767E+02  0.00000000000E+00 0.  1.
         -2    1    1    2    0  502  0.86893185544E+02  0.43317410612E+03 -0.23620988800E+03  0.50098437411E+03  0.00000000000E+00 0. -1.
<mgrwt>
<rscale>  4 0.43314685E+03</rscale>
<asrwt>0</asrwt>
<pdfrwt beam="1">  1       21 0.35350228E-01 0.43314685E+03</pdfrwt>
<pdfrwt beam="2">  1       21 0.15089510E+00 0.43314685E+03</pdfrwt>
<totfact> 0.19555403E+03</totfact>
</mgrwt>
</event>
<event>
 5    0  0.1972558E-002  0.2421408E+03  0.7546771E-02  0.1118375E+00
         21   -1    0    0  501  502  0.00000000000E+00  0.00000000000E+00  0.10748285640E+04  0.10748285640E+04  0.00000000000E+00 0. -1.
         21   -1    0    0  502  503 -0.00000000000E+00 -0.00000000000E+00 -0.13970073713E+03  0.13970073713E+03  0.00000000000E+00 0.  1.
         25    1    1    2    0    0  0.20027033859E+03  0.10815437728E+03  0.20163617214E+02  0.26045565708E+03  0.12500000000E+03 0.  0.
          4    1    1    2  501    0 -0.70140928999E+02 -0.20954283409E+02  0.57637398927E+03  0.58100413718E+03  0.00000000000E+00 0. -1.
         -4    1    1    2    0  503 -0.13012940960E+03 -0.87200093868E+02  0.33859022034E+03  0.37306950683E+03  0.00000000000E+00 0.  1.
<mgrwt>
<rscale>  4 0.24214084E+03</rscale>
<asrwt>0</asrwt>
<pdfrwt beam="1">  1       21 0.16535824E+00 0.24214084E+03</pdfrwt>
<pdfrwt beam="2">  1       21 0.21492422E-01 0.24214084E+03</pdfrwt>
<totfact> 0.44620178E+03</totfact>
</mgrwt>
</event>
<event>
 5    0  0.1972558E-002  0.2702929E+03  0.7546771E-02  0.1101112E+00
         21   -1    0    0  501  502  0.00000000000E+00  0.00000000000E+00  0.15657831728E+03  0.15657831728E+03  0.00000000000E+00 0. -1.
         21   -1    0    0  502  503 -0.00000000000E+00 -0.00000000000E+00 -0.69176431036E+03  0.69176431036E+03  0.00000000000E+00 0. -1.
         25    1    1    2    0    0 -0.55284940935E+02 -0.25407492115E+03 -0.46897213901E+03  0.55060907859E+03  0.12500000000E+03 0.  0.
          3    1    1    2  501    0  0.31950373284E+02  0.23267631179E+03 -0.12264069726E+02  0.23517971815E+03  0.00000000000E+00 0. -1.
         -3    1    1    2    0  503  0.23334567651E+02  0.21398609360E+02 -0.53949784342E+02  0.62553830902E+02  0.00000000000E+00 0.  1.
<mgrwt>
<rscale>  4 0.27029291E+03</rscale>
<asrwt>0</asrwt>
<pdfrwt beam="1">  1       21 0.24088972E-01 0.27029291E+03</pdfrwt>
<pdfrwt beam="2">  1       21 0.10642528E+00 0.27029291E+03</pdfrwt>
<totfact> 0.10970267E+04</totfact>
</mgrwt>
</event>
<event>
 5    0  0.1972558E-002  0.3595235E+03  0.7546771E-02  0.1058773E+00
         21   -1    0    0  501  502  0.00000000000E+00  0.00000000000E+00  0.88471315617E+03  0.88471315617E+03  0.00000000000E+00 0.  1.
         21   -1    0    0  502  503 -0.00000000000E+00 -0.00000000000E+00 -0.28612072871E+03  0.28612072871E+03  0.00000000000E+00 0. -1.
         25    1    1    2    0    0 -0.15854490980E+03 -0.27242324472E+03 -0.51908707035E+01  0.33912071276E+03  0.12500000000E+03 0.  0.
          2    1    1    2  501    0 -0.26573311931E+02 -0.58929083902E+02  0.39154908078E+03  0.39684941791E+03  0.00000000000E+00 0.  1.
         -2    1    1    2    0  503  0.18511822173E+03  0.33135232862E+03  0.21223421738E+03  0.43486375421E+03  0.00000000000E+00 0. -1.
<mgrwt>
<rscale>  4 0.35952352E+03</rscale>
<asrwt>0</asrwt>
<pdfrwt beam="1">  1       21 0.13610972E+00 0.35952352E+03</pdfrwt>
<pdfrwt beam="2">  1       21 0.44018574E-01 0.35952352E+03</pdfrwt>
<totfact> 0.16985669E+03</totfact>
</mgrwt>
</event>
<event>
 5    0  0.1972558E-002  0.2809487E+03  0.7546771E-02  0.1095172E+00
         21   -1    0    0  501  502  0.00000000000E+00  0.00000000000E+00  0.37468019524E+03  0.37468019524E+03  0.00000000000E+00 0. -1.
         21   -1    0    0  502  503 -0.00000000000E+00 -0.00000000000E+00 -0.23035206248E+03  0.23035206248E+03  0.00000000000E+00 0. -1.
         25    1    1    2    0    0  0.12700672687E+03 -0.21720137782E+03  0.17538876702E+03  0.33119988949E+03  0.12500000000E+03 0.  0.
          3    1    1    2  501    0 -0.12443237061E+03  0.15511290505E+03  0.10403221878E+02  0.19912723368E+03  0.00000000000E+00 0. -1.
         -3    1    1    2    0  503 -0.25743562591E+01  0.62088472778E+02 -0.41463856138E+02  0.74705134548E+02  0.00000000000E+00 0.  1.
<mgrwt>
<rscale>  4 0.28094866E+03</rscale>
<asrwt>0</asrwt>
<pdfrwt beam="1">  1       21 0.57643107E-01 0.28094866E+03</pdfrwt>
<pdfrwt beam="2">  1       21 0.35438779E-01 0.28094866E+03</pdfrwt>
<totfact> 0.20722073E+04</totfact>
</mgrwt>
</event>
<event>
 5    0  0.1972558E-002  0.2461091E+03  0.7546771E-02  0.1115789E+00
         21   -1    0    0  503  502  0.00000000000E+00  0.00000000000E+00  0.17057320169E+04  0.17057320169E+04  0.00000000000E+00 0.  1.
         21   -1    0    0  501  503 -0.00000000000E+00 -0.00000000000E+00 -0.91153817378E+02  0.91153817378E+02  0.00000000000E+00 0.  1.
         25    1    1    2    0    0  0.19303678519E+03  0.69435056668E+02  0.26331812952E+03  0.35643493777E+03  0.12500000000E+03 0.  0.
          3    1    1    2  501    0  0.36433090244E+02 -0.99087920636E+02  0.10746706585E+04  0.10798438824E+04  0.00000000000E+00 0. -1.
         -3    1    1    2    0  502 -0.22946987543E+03  0.29652863968E+02  0.27658941145E+03  0.36060701407E+03  0.00000000000E+00 0.  1.
<mgrwt>
<rscale>  4 0.24610913E+03</rscale>
<asrwt>0</asrwt>
<pdfrwt beam="1">  1       21 0.26242029E+00 0.24610913E+03</pdfrwt>
<pdfrwt beam="2">  1       21 0.14023666E-01 0.24610913E+03</pdfrwt>
<totfact> 0.23595983E+03</totfact>
</mgrwt>
</event>
<event>
 5    0  0.1972558E-002  0.2519910E+03  0.7546771E-02  0.1112053E+00
         21   -1    0    0  501  502  0.00000000000E+00  0.00000000000E+00  0.99200119058E+03  0.99200119058E+03  0.00000000000E+00 0. -1.
         21   -1    0    0  502  503 -0.00000000000E+00 -0.00000000000E+00 -0.14603792324E+03  0.14603792324E+03  0.00000000000E+00 0.  1.
         25    1    1    2    0    0  0.43453381274E+02  0.22212435534E+03  0.23659404042E+02  0.25963858146E+03  0.12500000000E+03 0.  0.
          1    1    1    2  501    0 -0.53005839658E+02 -0.19278488686E+03  0.33505891186E+03  0.39017958181E+03  0.00000000000E+00 0.  1.
         -1    1    1    2    0  503  0.95524583841E+01 -0.29339468480E+02  0.48724495143E+03  0.48822095056E+03  0.00000000000E+00 0. -1.
<mgrwt>
<rscale>  4 0.25199104E+03</rscale>
<asrwt>0</asrwt>
<pdfrwt beam="1">  1       21 0.15261556E+00 0.25199104E+03</pdfrwt>
<pdfrwt beam="2">  1       21 0.22467373E-01 0.25199104E+03</pdfrwt>
<totfact> 0.50659117E+03</totfact>
</mgrwt>
</event>
<event>
 5    0  0.1972558E-002  0.2399792E+03  0.7546771E-02  0.1119807E+00
         21   -1    0    0  501  502  0.00000000000E+00  0.00000000000E+00  0.18939571458E+03  0.18939571458E+03  0.00000000000E+00 0.  1.
         21   -1    0    0  502  503 -0.00000000000E+00 -0.00000000000E+00 -0.84182327616E+03  0.84182327616E+03  0.00000000000E+00 0.  1.
         25    1    1    2    0    0 -0.19222063255E+02 -0.20638373114E+03 -0.74915699161E+03  0.78728961017E+03  0.12500000000E+03 0.  0.
          4    1    1    2  501    0  0.30380129608E+02  0.18299920231E+02  0.13452462559E+02  0.37931624067E+02  0.00000000000E+00 0. -1.
         -4    1    1    2    0  503 -0.11158066353E+02  0.18808381091E+03  0.83276967473E+02  0.20599775650E+03  0.00000000000E+00 0.  1.
<mgrwt>
<rscale>  4 0.23997919E+03</rscale>
<asrwt>0</asrwt>
<pdfrwt beam="1">  1       21 0.29137803E-01 0.23997919E+03</pdfrwt>
<pdfrwt beam="2">  1       21 0.12951127E+00 0.23997919E+03</pdfrwt>
<totfact> 0.47480410E+03</totfact>
</mgrwt>
</event>
<event>
 5    0  0.1972558E-002  0.1794694E+03  0.7546771E-02  0.1168318E+00
         21   -1    0    0  501  502  0.00000000000E+00  0.00000000000E+00  0.83342962629E+02  0.83342962629E+02  0.00000000000E+00 0. -1.
         21   -1    0    0  502  503 -0.00000000000E+00 -0.00000000000E+00 -0.11409085445E+04  0.11409085445E+04  0.00000000000E+00 0.  1.
         25    1    1    2    0    0 -0.65650929988E+01 -0.21403521914E+03 -0.82245851540E+03  0.85902106204E+03  0.12500000000E+03 0.  0.
          3    1    1    2  501    0 -0.27071350622E+02  0.11922808740E+03 -0.14943041467E+02  0.12317259978E+03  0.00000000000E+00 0. -1.
         -3    1    1    2    0  503  0.33636443621E+02  0.94807131737E+02 -0.22016402502E+03  0.24205784532E+03  0.00000000000E+00 0.  1.
<mgrwt>
<rscale>  4 0.17946940E+03</rscale>
<asrwt>0</asrwt>
<pdfrwt beam="1">  1       21 0.12821996E-01 0.17946940E+03</pdfrwt>
<pdfrwt beam="2">  1       21 0.17552437E+00 0.17946940E+03</pdfrwt>
<totfact> 0.10284905E+04</totfact>
</mgrwt>
</event>
<event>
 5    0  0.1972558E-002  0.1133644E+04  0.7546771E-02  0.9173007E-01
         21   -1    0    0  501  502  0.00000000000E+00  0.00000000000E+00  0.19678922498E+04  0.19678922498E+04  0.00000000000E+00 0. -1.
         21   -1    0    0  502  503 -0.00000000000E+00 -0.00000000000E+00 -0.17468841492E+04  0.17468841492E+04  0.00000000000E+00 0. -1.
         25    1    1    2    0    0 -0.85430863890E+03 -0.74162794293E+03 -0.11906829385E+04  0.16471812639E+04  0.12500000000E+03 0.  0.
          1    1    1    2  501    0 -0.35331939108E+02  0.77489677780E+02  0.79119160219E+03  0.79576199172E+03  0.00000000000E+00 0.  1.
         -1    1    1    2    0  503  0.88964057801E+03  0.66413826515E+03  0.62049943689E+03  0.12718331433E+04  0.00000000000E+00 0. -1.
<mgrwt>
<rscale>  4 0.11336440E+04</rscale>
<asrwt>0</asrwt>
<pdfrwt beam="1">  1       21 0.30275265E+00 0.11336440E+04</pdfrwt>
<pdfrwt beam="2">  1       21 0.26875141E+00 0.11336440E+04</pdfrwt>
<totfact> 0.78622351E-01</totfact>
</mgrwt>
</event>
<event>
 5    0  0.1972558E-002  0.4092401E+03  0.7546771E-02  0.1040626E+00
         21   -1    0    0  501  502  0.00000000000E+00  0.00000000000E+00  0.79033803852E+03  0.79033803852E+03  0.00000000000E+00 0.  1.
         21   -1    0    0  502  503 -0.00000000000E+00 -0.00000000000E+00 -0.54696255206E+03  0.54696255206E+03  0.00000000000E+00 0.  1.
         25    1    1    2    0    0 -0.16993373558E+03  0.34255275154E+03 -0.26411669788E+03  0.48125096589E+03  0.12500000000E+03 0.  0.
          4    1    1    2  501    0  0.19530515238E+03 -0.35575164009E+03  0.63069918050E+02  0.41070810381E+03  0.00000000000E+00 0.  1.
         -4    1    1    2    0  503 -0.25371416799E+02  0.13198888551E+02  0.44442226629E+03  0.44534152088E+03  0.00000000000E+00 0. -1.
<mgrwt>
<rscale>  4 0.40924006E+03</rscale>
<asrwt>0</asrwt>
<pdfrwt beam="1">  1       21 0.12159047E+00 0.40924006E+03</pdfrwt>
<pdfrwt beam="2">  1       21 0.84148085E-01 0.40924006E+03</pdfrwt>
<totfact> 0.53473736E+02</totfact>
</mgrwt>
</event>
<event>
 5    0  0.1972558E-002  0.2616500E+03  0.7546771E-02  0.1106156E+00
         21   -1    0    0  501  502  0.00000000000E+00  0.00000000000E+00  0.72949273949E+03  0.72949273949E+03  0.00000000000E+00 0. -1.
         21   -1    0    0  502  503 -0.00000000000E+00 -0.00000000000E+00 -0.15549109473E+03  0.15549109473E+03  0.00000000000E+00 0. -1.
         25    1    1    2    0    0  0.17246725364E+03 -0.15731984338E+03  0.20174609281E+02  0.26556826158E+03  0.12500000000E+03 0.  0.
          4    1    1    2  501    0 -0.17991751204E+03  0.12889208863E+03  0.35437351541E+03  0.41780865247E+03  0.00000000000E+00 0. -1.
         -4    1    1    2    0  503  0.74502583987E+01  0.28427754749E+02  0.19945352007E+03  0.20160692017E+03  0.00000000000E+00 0.  1.
<mgrwt>
<rscale>  4 0.26164999E+03</rscale>
<asrwt>0</asrwt>
<pdfrwt beam="1">  1       21 0.11222965E+00 0.26164999E+03</pdfrwt>
<pdfrwt beam="2">  1       21 0.23921707E-01 0.26164999E+03</pdfrwt>
<totfact> 0.98106659E+03</totfact>
</mgrwt>
</event>
<event>
 5    0  0.1972558E-002  0.2324388E+03  0.7546771E-02  0.1124935E+00
         21   -1    0    0  501  502  0.00000000000E+00  0.00000000000E+00  0.63595434435E+03  0.63595434435E+03  0.00000000000E+00 0.  1.
         21   -1    0    0  502  503 -0.00000000000E+00 -0.00000000000E+00 -0.17919451180E+03  0.17919451180E+03  0.00000000000E+00 0.  1.
         25    1    1    2    0    0  0.12077361637E+03  0.17283051188E+03  0.82063157755E+00  0.24511696328E+03  0.12500000000E+03 0.  0.
          4    1    1    2  501    0 -0.82871209459E+02 -0.15914743872E+03  0.87920877339E+02  0.19981397669E+03  0.00000000000E+00 0.  1.
         -4    1    1    2    0  503 -0.37902406912E+02 -0.13683073164E+02  0.36801832363E+03  0.37021791619E+03  0.00000000000E+00 0. -1.
<mgrwt>
<rscale>  4 0.23243876E+03</rscale>
<asrwt>0</asrwt>
<pdfrwt beam="1">  1       21 0.97839128E-01 0.23243876E+03</pdfrwt>
<pdfrwt beam="2">  1       21 0.27568387E-01 0.23243876E+03</pdfrwt>
<totfact> 0.10572790E+04</totfact>
</mgrwt>
</event>
<event>
 5    0  0.1972558E-002  0.2474071E+03  0.7546771E-02  0.1114955E+00
         21   -1    0    0  501  502  0.00000000000E+00  0.00000000000E+00  0.14168608567E+04  0.14168608567E+04  0.00000000000E+00 0.  1.
         21   -1    0    0  502  503 -0.00000000000E+00 -0.00000000000E+00 -0.76829979026E+03  0.76829979026E+03  0.00000000000E+00 0. -1.
         25    1    1    2    0    0 -0.22689847122E+01  0.21353088737E+03 -0.73499297097E+03  0.77552579295E+03  0.12500000000E+03 0.  0.
          1    1    1    2  501    0 -0.20767373888E+02 -0.18425279577E+01  0.51275607514E+03  0.51317976511E+03  0.00000000000E+00 0. -1.
         -1    1    1    2    0  503  0.23036358600E+02 -0.21168835941E+03  0.87079796231E+03  0.89645508894E+03  0.00000000000E+00 0.  1.
<mgrwt>
<rscale>  4 0.24740711E+03</rscale>
<asrwt>0</asrwt>
<pdfrwt beam="1">  1       21 0.21797859E+00 0.24740711E+03</pdfrwt>
<pdfrwt beam="2">  1       21 0.11819997E+00 0.24740711E+03</pdfrwt>
<totfact> 0.52587209E+01</totfact>
</mgrwt>
</event>
<event>
 5    0  0.1972558E-002  0.3708622E+03  0.7546771E-02  0.1054364E+00
         21   -1    0    0  501  502  0.00000000000E+00  0.00000000000E+00  0.69015736616E+03  0.69015736616E+03  0.00000000000E+00 0.  1.
         21   -1    0    0  502  503 -0.00000000000E+00 -0.00000000000E+00 -0.10596246499E+04  0.10596246499E+04  0.00000000000E+00 0.  1.
         25    1    1    2    0    0 -0.35045445999E+03 -0.52261582536E+02 -0.94294128856E+03  0.10150432874E+04  0.12500000000E+03 0.  0.
          3    1    1    2  501    0  0.30726736973E+03  0.11588176608E+02  0.22440410798E+03  0.38066353387E+03  0.00000000000E+00 0.  1.
         -3    1    1    2    0  503  0.43187090267E+02  0.40673405928E+02  0.34906989684E+03  0.35407519484E+03  0.00000000000E+00 0. -1.
<mgrwt>
<rscale>  4 0.37086224E+03</rscale>
<asrwt>0</asrwt>
<pdfrwt beam="1">  1       21 0.10617806E+00 0.37086224E+03</pdfrwt>
<pdfrwt beam="2">  1       21 0.16301918E+00 0.37086224E+03</pdfrwt>
<totfact> 0.14411494E+02</totfact>
</mgrwt>
</event>
<event>
 5    0  0.1972558E-002  0.2606650E+03  0.7546771E-02  0.1106744E+00
         21   -1    0    0  503  502  0.00000000000E+00  0.00000000000E+00  0.15997049655E+04  0.15997049655E+04  0.00000000000E+00 0.  1.
         21   -1    0    0  501  503 -0.00000000000E+00 -0.00000000000E+00 -0.13446945844E+03  0.13446945844E+03  0.00000000000E+00 0.  1.
         25    1    1    2    0    0  0.22109154054E+03  0.87579511810E+02  0.26764557158E+02  0.26998700285E+03  0.12500000000E+03 0.  0.
          4    1    1    2  501    0 -0.51595224612E+02 -0.13725813753E+02  0.73131790256E+03  0.73326416779E+03  0.00000000000E+00 0. -1.
         -4    1    1    2    0  502 -0.16949631593E+03 -0.73853698057E+02  0.70715304736E+03  0.73092325330E+03  0.00000000000E+00 0.  1.
<mgrwt>
<rscale>  4 0.26066501E+03</rscale>
<asrwt>0</asrwt>
<pdfrwt beam="1">  1       21 0.24610844E+00 0.26066501E+03</pdfrwt>
<pdfrwt beam="2">  1       21 0.20687610E-01 0.26066501E+03</pdfrwt>
<totfact> 0.14170483E+03</totfact>
</mgrwt>
</event>
<event>
 5    0  0.1972558E-002  0.2554732E+03  0.7546771E-02  0.1109894E+00
         21   -1    0    0  501  502  0.00000000000E+00  0.00000000000E+00  0.82996098830E+03  0.82996098830E+03  0.00000000000E+00 0. -1.
         21   -1    0    0  502  503 -0.00000000000E+00 -0.00000000000E+00 -0.23353891717E+03  0.23353891717E+03  0.00000000000E+00 0. -1.
         25    1    1    2    0    0  0.21813904177E+03 -0.65722476259E+02 -0.12349795071E+03  0.28771657801E+03  0.12500000000E+03 0.  0.
          2    1    1    2  501    0 -0.18918707678E+03  0.66473932093E+02  0.33976012962E+03  0.39452183633E+03  0.00000000000E+00 0.  1.
         -2    1    1    2    0  503 -0.28951965000E+02 -0.75145583430E+00  0.38015989222E+03  0.38126149113E+03  0.00000000000E+00 0. -1.
<mgrwt>
<rscale>  4 0.25547324E+03</rscale>
<asrwt>0</asrwt>
<pdfrwt beam="1">  1       21 0.12768630E+00 0.25547324E+03</pdfrwt>
<pdfrwt beam="2">  1       21 0.35929065E-01 0.25547324E+03</pdfrwt>
<totfact> 0.32183764E+03</totfact>
</mgrwt>
</event>
<event>
 5    0  0.1972558E-002  0.2517736E+03  0.7546771E-02  0.1112189E+00
         21   -1    0    0  501  502  0.00000000000E+00  0.00000000000E+00  0.19865574012E+03  0.19865574012E+03  0.00000000000E+00 0.  1.
         21   -1    0    0  502  503 -0.00000000000E+00 -0.00000000000E+00 -0.38329983994E+03  0.38329983994E+03  0.00000000000E+00 0.  1.
         25    1    1    2    0    0  0.24057038012E+03  0.30793197517E+02 -0.75491872489E+02  0.28310130981E+03  0.12500000000E+03 0.  0.
          4    1    1    2  501    0 -0.19195417820E+03 -0.76577619748E+02 -0.10534182447E+03  0.23196430405E+03  0.00000000000E+00 0.  1.
         -4    1    1    2    0  503 -0.48616201919E+02  0.45784422231E+02 -0.38104028707E+01  0.66889966199E+02  0.00000000000E+00 0. -1.
<mgrwt>
<rscale>  4 0.25177361E+03</rscale>
<asrwt>0</asrwt>
<pdfrwt beam="1">  1       21 0.30562422E-01 0.25177361E+03</pdfrwt>
<pdfrwt beam="2">  1       21 0.58969205E-01 0.25177361E+03</pdfrwt>
<totfact> 0.26813437E+04</totfact>
</mgrwt>
</event>
<event>
 5    0  0.1972558E-002  0.3537136E+03  0.7546771E-02  0.1061101E+00
         21   -1    0    0  501  502  0.00000000000E+00  0.00000000000E+00  0.16069321483E+04  0.16069321483E+04  0.00000000000E+00 0.  1.
         21   -1    0    0  502  503 -0.00000000000E+00 -0.00000000000E+00 -0.17507396129E+03  0.17507396129E+03  0.00000000000E+00 0. -1.
         25    1    1    2    0    0 -0.12706091005E+03  0.31600817958E+03  0.91205501607E+02  0.37409769840E+03  0.12500000000E+03 0.  0.
          3    1    1    2  501    0  0.25258498304E+02 -0.31444681631E+02  0.68239338394E+03  0.68358429632E+03  0.00000000000E+00 0.  1.
         -3    1    1    2    0  503  0.10180241175E+03 -0.28456349795E+03  0.65825930142E+03  0.72432411482E+03  0.00000000000E+00 0. -1.
<mgrwt>
<rscale>  4 0.35371360E+03</rscale>
<asrwt>0</asrwt>
<pdfrwt beam="1">  1       21 0.24722032E+00 0.35371360E+03</pdfrwt>
<pdfrwt beam="2">  1       21 0.26934457E-01 0.35371360E+03</pdfrwt>
<totfact> 0.78367791E+02</totfact>
</mgrwt>
</event>
<event>
 5    0  0.1972558E-002  0.2461867E+03  0.7546771E-02  0.1115739E+00
         21   -1    0    0  503  502  0.00000000000E+00  0.00000000000E+00  0.18540222165E+03  0.18540222165E+03  0.00000000000E+00 0. -1.
         21   -1    0    0  501  503 -0.00000000000E+00 -0.00000000000E+00 -0.77186850393E+03  0.77186850393E+03  0.00000000000E+00 0. -1.
         25    1    1    2    0    0  0.11386764160E+03 -0.18547806270E+03 -0.66369099084E+03  0.70956231781E+03  0.12500000000E+03 0.  0.
          1    1    1    2  501    0 -0.95138852886E+01  0.42674768482E+02 -0.17472366739E+02  0.47084323057E+02  0.00000000000E+00 0.  1.
         -1    1    1    2    0  502 -0.10435375631E+03  0.14280329421E+03  0.94697075291E+02  0.20062408471E+03  0.00000000000E+00 0. -1.
<mgrwt>
<rscale>  4 0.24618672E+03</rscale>
<asrwt>0</asrwt>
<pdfrwt beam="1">  1       21 0.28523418E-01 0.24618672E+03</pdfrwt>
<pdfrwt beam="2">  1       21 0.11874900E+00 0.24618672E+03</pdfrwt>
<totfact> 0.61331976E+03</totfact>
</mgrwt>
</event>
<event>
 5    0  0.1972558E-002  0.2550337E+03  0.7546771E-02  0.1110164E+00
         21   -1    0    0  501  502  0.00000000000E+00  0.00000000000E+00  0.99268952210E+03  0.99268952210E+03  0.00000000000E+00 0.  1.
         21   -1    0    0  502  503 -0.00000000000E+00 -0.00000000000E+00 -0.14664230847E+03  0.14664230847E+03  0.00000000000E+00 0.  1.
         25    1    1    2    0    0 -0.23134483107E+03 -0.12019918386E+02  0.12762016862E+03  0.29253515471E+03  0.12500000000E+03 0.  0.
          1    1    1    2  501    0  0.19669723687E+03  0.10810697121E+03  0.15162247607E+03  0.27086213369E+03  0.00000000000E+00 0.  1.
         -1    1    1    2    0  503  0.34647594200E+02 -0.96087052825E+02  0.56680456894E+03  0.57593454218E+03  0.00000000000E+00 0. -1.
<mgrwt>
<rscale>  4 0.25503369E+03</rscale>
<asrwt>0</asrwt>
<pdfrwt beam="1">  1       21 0.15272146E+00 0.25503369E+03</pdfrwt>
<pdfrwt beam="2">  1       21 0.22560356E-01 0.25503369E+03</pdfrwt>
<totfact> 0.50069664E+03</totfact>
</mgrwt>
</event>
<event>
 5    0  0.1972558E-002  0.2430518E+03  0.7546771E-02  0.1117776E+00
         21   -1    0    0  501  502  0.00000000000E+00  0.00000000000E+00  0.11615763918E+04  0.11615763918E+04  0.00000000000E+00 0. -1.
         21   -1    0    0  502  503 -0.00000000000E+00 -0.00000000000E+00 -0.86640110605E+03  0.86640110605E+03  0.00000000000E+00 0.  1.
         25    1    1    2    0    0  0.17646471686E+03 -0.12092726021E+03 -0.83456904544E+03  0.87057089899E+03  0.12500000000E+03 0.  0.
          1    1    1    2  501    0 -0.10185953431E+03  0.33389562778E+02  0.82038205040E+03  0.82735538691E+03  0.00000000000E+00 0. -1.
         -1    1    1    2    0  503 -0.74605182554E+02  0.87537697429E+02  0.30936228084E+03  0.33005121200E+03  0.00000000000E+00 0.  1.
<mgrwt>
<rscale>  4 0.24305182E+03</rscale>
<asrwt>0</asrwt>
<pdfrwt beam="1">  1       21 0.17870406E+00 0.24305182E+03</pdfrwt>
<pdfrwt beam="2">  1       21 0.13329248E+00 0.24305182E+03</pdfrwt>
<totfact> 0.70483158E+01</totfact>
</mgrwt>
</event>
<event>
 5    0  0.1972558E-002  0.3470483E+03  0.7546771E-02  0.1063833E+00
         21   -1    0    0  501  502  0.00000000000E+00  0.00000000000E+00  0.54162071926E+03  0.54162071926E+03  0.00000000000E+00 0.  1.
         21   -1    0    0  502  503 -0.00000000000E+00 -0.00000000000E+00 -0.87577001382E+03  0.87577001382E+03  0.00000000000E+00 0. -1.
         25    1    1    2    0    0  0.10985057229E+03 -0.30321931175E+03 -0.75521951476E+03  0.83065673700E+03  0.12500000000E+03 0.  0.
          4    1    1    2  501    0  0.43167472717E+02  0.19269262751E+01  0.14214090229E+03  0.14856372319E+03  0.00000000000E+00 0. -1.
         -4    1    1    2    0  503 -0.15301804501E+03  0.30129238547E+03  0.27892931792E+03  0.43817027288E+03  0.00000000000E+00 0.  1.
<mgrwt>
<rscale>  4 0.34704828E+03</rscale>
<asrwt>0</asrwt>
<pdfrwt beam="1">  1       21 0.83326265E-01 0.34704828E+03</pdfrwt>
<pdfrwt beam="2">  1       21 0.13473385E+00 0.34704828E+03</pdfrwt>
<totfact> 0.43497742E+02</totfact>
</mgrwt>
</event>
<event>
 5    0  0.1972558E-002  0.2573656E+03  0.7546771E-02  0.1108736E+00
         21   -1    0    0  501  502  0.00000000000E+00  0.00000000000E+00  0.60163011615E+03  0.60163011615E+03  0.00000000000E+00 0. -1.
         21   -1    0    0  502  503 -0.00000000000E+00 -0.00000000000E+00 -0.17028709465E+03  0.17028709465E+03  0.00000000000E+00 0. -1.
         25    1    1    2    0    0 -0.23063885218E+03 -0.14695820580E+02 -0.13429232027E+01  0.26274902611E+03  0.12500000000E+03 0.  0.
          1    1    1    2  501    0  0.20018063920E+02  0.62853366435E+00  0.17462536448E+03  0.17577012220E+03  0.00000000000E+00 0.  1.
         -1    1    1    2    0  503  0.21062078826E+03  0.14067286915E+02  0.25806058022E+03  0.33339806249E+03  0.00000000000E+00 0. -1.
<mgrwt>
<rscale>  4 0.25736559E+03</rscale>
<asrwt>0</asrwt>
<pdfrwt beam="1">  1       21 0.92558478E-01 0.25736559E+03</pdfrwt>
<pdfrwt beam="2">  1       21 0.26198015E-01 0.25736559E+03</pdfrwt>
<totfact> 0.13118216E+04</totfact>
</mgrwt>
</event>
<event>
 5    0  0.1972558E-002  0.2991290E+03  0.7546771E-02  0.1085677E+00
         21   -1    0    0  501  502  0.00000000000E+00  0.00000000000E+00  0.30970343901E+03  0.30970343901E+03  0.00000000000E+00 0.  1.
         21   -1    0    0  502  503 -0.00000000000E+00 -0.00000000000E+00 -0.82086084928E+03  0.82086084928E+03  0.00000000000E+00 0.  1.
         25    1    1    2    0    0  0.15760874615E+03 -0.19273938439E+03 -0.65413672629E+03  0.71099145131E+03  0.12500000000E+03 0.  0.
          3    1    1    2  501    0 -0.10736646989E+03  0.25339349564E+03  0.18372808746E+03  0.33089550104E+03  0.00000000000E+00 0.  1.
         -3    1    1    2    0  503 -0.50242276259E+02 -0.60654111245E+02 -0.40748771434E+02  0.88677335932E+02  0.00000000000E+00 0. -1.
<mgrwt>
<rscale>  4 0.29912899E+03</rscale>
<asrwt>0</asrwt>
<pdfrwt beam="1">  1       21 0.47646684E-01 0.29912899E+03</pdfrwt>
<pdfrwt beam="2">  1       21 0.12628628E+00 0.29912899E+03</pdfrwt>
<totfact> 0.18057589E+03</totfact>
</mgrwt>
</event>
<event>
 5    0  0.1972558E-002  0.3143320E+03  0.7546771E-02  0.1078288E+00
         21   -1    0    0  501  502  0.00000000000E+00  0.00000000000E+00  0.42932134251E+03  0.42932134251E+03  0.00000000000E+00 0. -1.
         21   -1    0    0  502  503 -0.00000000000E+00 -0.00000000000E+00 -0.83090402582E+03  0.83090402582E+03  0.00000000000E+00 0.  1.
         25    1    1    2    0    0  0.15045802516E+03  0.24656454822E+03 -0.73591442349E+03  0.80039161195E+03  0.12500000000E+03 0.  0.
          4    1    1    2  501    0 -0.16569816439E+03 -0.23140364801E+03  0.27116033575E+03  0.39310489399E+03  0.00000000000E+00 0. -1.
         -4    1    1    2    0  503  0.15240139224E+02 -0.15160900208E+02  0.63171404431E+02  0.66728862395E+02  0.00000000000E+00 0.  1.
<mgrwt>
<rscale>  4 0.31433197E+03</rscale>
<asrwt>0</asrwt>
<pdfrwt beam="1">  1       21 0.66049438E-01 0.31433197E+03</pdfrwt>
<pdfrwt beam="2">  1       21 0.12783139E+00 0.31433197E+03</pdfrwt>
<totfact> 0.85965469E+02</totfact>
</mgrwt>
</event>
<event>
 5    0  0.1972558E-002  0.2932105E+03  0.7546771E-02  0.1088685E+00
         21   -1    0    0  501  502  0.00000000000E+00  0.00000000000E+00  0.10483370729E+04  0.10483370729E+04  0.00000000000E+00 0. -1.
         21   -1    0    0  502  503 -0.00000000000E+00 -0.00000000000E+00 -0.83647630403E+02  0.83647630403E+02  0.00000000000E+00 0. -1.
         25    1    1    2    0    0  0.21450121500E+03  0.12641966781E+03  0.41832897287E+03  0.50261002098E+03  0.12500000000E+03 0.  0.
          1    1    1    2  501    0 -0.24689850010E+03 -0.13099183910E+03  0.49574088859E+03  0.56910171313E+03  0.00000000000E+00 0. -1.
         -1    1    1    2    0  503  0.32397285103E+02  0.45721712964E+01  0.50619581082E+02  0.60272969242E+02  0.00000000000E+00 0.  1.
<mgrwt>
<rscale>  4 0.29321049E+03</rscale>
<asrwt>0</asrwt>
<pdfrwt beam="1">  1       21 0.16128262E+00 0.29321049E+03</pdfrwt>
<pdfrwt beam="2">  1       21 0.12868867E-01 0.29321049E+03</pdfrwt>
<totfact> 0.11978881E+04</totfact>
</mgrwt>
</event>
<event>
 5    0  0.1972558E-002  0.2821620E+03  0.7546771E-02  0.1094514E+00
         21   -1    0    0  501  502  0.00000000000E+00  0.00000000000E+00  0.55534244208E+03  0.55534244208E+03  0.00000000000E+00 0. -1.
         21   -1    0    0  502  503 -0.00000000000E+00 -0.00000000000E+00 -0.14871405071E+04  0.14871405071E+04  0.00000000000E+00 0.  1.
         25    1    1    2    0    0 -0.25034466222E+03  0.28476628419E+02 -0.14215485651E+04  0.14491061697E+04  0.12500000000E+03 0.  0.
          1    1    1    2  501    0 -0.29206356522E+02  0.65563190363E+01  0.14543953176E+03  0.14848789170E+03  0.00000000000E+00 0.  1.
         -1    1    1    2    0  503  0.27955101874E+03 -0.35032947456E+02  0.34431096834E+03  0.44488888771E+03  0.00000000000E+00 0. -1.
<mgrwt>
<rscale>  4 0.28216198E+03</rscale>
<asrwt>0</asrwt>
<pdfrwt beam="1">  1       21 0.85437298E-01 0.28216198E+03</pdfrwt>
<pdfrwt beam="2">  1       21 0.22879085E+00 0.28216198E+03</pdfrwt>
<totfact> 0.94333787E+01</totfact>
</mgrwt>
</event>
<event>
 5    0  0.1972558E-002  0.3703515E+03  0.7546771E-02  0.1054559E+00
         21   -1    0    0  501  502  0.00000000000E+00  0.00000000000E+00  0.69271700278E+03  0.69271700278E+03  0.00000000000E+00 0.  1.
         21   -1    0    0  502  503 -0.00000000000E+00 -0.00000000000E+00 -0.62484357774E+03  0.62484357774E+03  0.00000000000E+00 0.  1.
         25    1    1    2    0    0  0.22380377351E+03  0.27156044875E+03 -0.30551468279E+03  0.48249085770E+03  0.12500000000E+03 0.  0.
          3    1    1    2  501    0 -0.24028993590E+03 -0.24692400996E+03 -0.10155742400E+03  0.35919998658E+03  0.00000000000E+00 0. -1.
         -3    1    1    2    0  503  0.16486162392E+02 -0.24636438783E+02  0.47494553183E+03  0.47586973624E+03  0.00000000000E+00 0.  1.
<mgrwt>
<rscale>  4 0.37035148E+03</rscale>
<asrwt>0</asrwt>
<pdfrwt beam="1">  1       21 0.10657185E+00 0.37035148E+03</pdfrwt>
<pdfrwt beam="2">  1       21 0.96129781E-01 0.37035148E+03</pdfrwt>
<totfact> 0.55380577E+02</totfact>
</mgrwt>
</event>
<event>
 5    0  0.1972558E-002  0.2385062E+03  0.7546771E-02  0.1120792E+00
         21   -1    0    0  501  502  0.00000000000E+00  0.00000000000E+00  0.36681264307E+03  0.36681264307E+03  0.00000000000E+00 0.  1.
         21   -1    0    0  502  503 -0.00000000000E+00 -0.00000000000E+00 -0.25103979107E+03  0.25103979107E+03  0.00000000000E+00 0.  1.
         25    1    1    2    0    0 -0.20928641026E+03 -0.43734688968E+02 -0.13042905715E+03  0.27991117071E+03  0.12500000000E+03 0.  0.
          2    1    1    2  501    0  0.17392689789E+03  0.32626402010E+02  0.14057602961E+03  0.22600147791E+03  0.00000000000E+00 0.  1.
         -2    1    1    2    0  503  0.35359512378E+02  0.11108286958E+02  0.10562587954E+03  0.11193978552E+03  0.00000000000E+00 0. -1.
<mgrwt>
<rscale>  4 0.23850620E+03</rscale>
<asrwt>0</asrwt>
<pdfrwt beam="1">  1       21 0.56432714E-01 0.23850620E+03</pdfrwt>
<pdfrwt beam="2">  1       21 0.38621506E-01 0.23850620E+03</pdfrwt>
<totfact> 0.18603483E+04</totfact>
</mgrwt>
</event>
<event>
 5    0  0.1972558E-002  0.5302478E+03  0.7546771E-02  0.1006172E+00
         21   -1    0    0  501  502  0.00000000000E+00  0.00000000000E+00  0.19725211970E+04  0.19725211970E+04  0.00000000000E+00 0.  1.
         21   -1    0    0  502  503 -0.00000000000E+00 -0.00000000000E+00 -0.44382187300E+03  0.44382187300E+03  0.00000000000E+00 0. -1.
         25    1    1    2    0    0 -0.26505029991E+02  0.49650055743E+03 -0.10542182635E+03  0.52340623001E+03  0.12500000000E+03 0.  0.
          3    1    1    2  501    0 -0.57449482343E+02 -0.57443087534E+03  0.53252373955E+03  0.78539977511E+03  0.00000000000E+00 0. -1.
         -3    1    1    2    0  503  0.83954512333E+02  0.77930317905E+02  0.11015974108E+04  0.11075370649E+04  0.00000000000E+00 0.  1.
<mgrwt>
<rscale>  4 0.53024784E+03</rscale>
<asrwt>0</asrwt>
<pdfrwt beam="1">  1       21 0.30346480E+00 0.53024784E+03</pdfrwt>
<pdfrwt beam="2">  1       21 0.68280289E-01 0.53024784E+03</pdfrwt>
<totfact> 0.46174261E+01</totfact>
</mgrwt>
</event>
<event>
 5    0  0.1972558E-002  0.2946356E+03  0.7546771E-02  0.1087953E+00
         21   -1    0    0  503  502  0.00000000000E+00  0.00000000000E+00  0.14343812863E+03  0.14343812863E+03  0.00000000000E+00 0.  1.
         21   -1    0    0  501  503 -0.00000000000E+00 -0.00000000000E+00 -0.11131008675E+04  0.11131008675E+04  0.00000000000E+00 0.  1.
         25    1    1    2    0    0 -0.13228653639E+03  0.21226138623E+03 -0.69150282205E+03  0.74589260399E+03  0.12500000000E+03 0.  0.
          2    1    1    2  501    0 -0.92872777367E+02  0.27935564547E+02 -0.84847701840E+02  0.12885992802E+03  0.00000000000E+00 0. -1.
         -2    1    1    2    0  502  0.22515931376E+03 -0.24019695077E+03 -0.19331221502E+03  0.38178646415E+03  0.00000000000E+00 0.  1.
<mgrwt>
<rscale>  4 0.29463558E+03</rscale>
<asrwt>0</asrwt>
<pdfrwt beam="1">  1       21 0.22067403E-01 0.29463558E+03</pdfrwt>
<pdfrwt beam="2">  1       21 0.17124630E+00 0.29463558E+03</pdfrwt>
<totfact> 0.37205891E+03</totfact>
</mgrwt>
</event>
<event>
 5    0  0.1972558E-002  0.6589232E+03  0.7546771E-02  0.9790178E-01
         21   -1    0    0  501  502  0.00000000000E+00  0.00000000000E+00  0.20172240475E+04  0.20172240475E+04  0.00000000000E+00 0. -1.
         21   -1    0    0  502  503 -0.00000000000E+00 -0.00000000000E+00 -0.69430063259E+03  0.69430063259E+03  0.00000000000E+00 0.  1.
         25    1    1    2    0    0  0.70473957888E+03  0.96297399004E+02 -0.35544427408E+03  0.80492030355E+03  0.12500000000E+03 0.  0.
          1    1    1    2  501    0 -0.22675960228E+03 -0.15365260665E+02  0.12147071762E+04  0.12357870093E+04  0.00000000000E+00 0. -1.
         -1    1    1    2    0  503 -0.47797997660E+03 -0.80932138339E+02  0.46366051279E+03  0.67081736722E+03  0.00000000000E+00 0.  1.
<mgrwt>
<rscale>  4 0.65892325E+03</rscale>
<asrwt>0</asrwt>
<pdfrwt beam="1">  1       21 0.31034216E+00 0.65892325E+03</pdfrwt>
<pdfrwt beam="2">  1       21 0.10681548E+00 0.65892325E+03</pdfrwt>
<totfact> 0.13607667E+01</totfact>
</mgrwt>
</event>
<event>
 5    0  0.1972558E-002  0.2405689E+03  0.7546771E-02  0.1119414E+00
         21   -1    0    0  501  502  0.00000000000E+00  0.00000000000E+00  0.18665591963E+04  0.18665591963E+04  0.00000000000E+00 0.  1.
         21   -1    0    0  502  503 -0.00000000000E+00 -0.00000000000E+00 -0.57597221290E+02  0.57597221290E+02  0.00000000000E+00 0.  1.
         25    1    1    2    0    0  0.16563178222E+02 -0.20024814898E+03  0.25514201492E+03  0.34798866048E+03  0.12500000000E+03 0.  0.
          4    1    1    2  501    0 -0.19473373606E+01 -0.22334465345E+02  0.42092670122E+03  0.42152331877E+03  0.00000000000E+00 0. -1.
         -4    1    1    2    0  503 -0.14615840861E+02  0.22258261433E+03  0.11328932588E+04  0.11546444383E+04  0.00000000000E+00 0.  1.
<mgrwt>
<rscale>  4 0.24056892E+03</rscale>
<asrwt>0</asrwt>
<pdfrwt beam="1">  1       21 0.28716291E+00 0.24056892E+03</pdfrwt>
<pdfrwt beam="2">  1       21 0.88611124E-02 0.24056892E+03</pdfrwt>
<totfact> 0.38633568E+03</totfact>
</mgrwt>
</event>
<event>
 5    0  0.1972558E-002  0.2425284E+03  0.7546771E-02  0.1118120E+00
         21   -1    0    0  501  502  0.00000000000E+00  0.00000000000E+00  0.15141151391E+04  0.15141151391E+04  0.00000000000E+00 0. -1.
         21   -1    0    0  502  503 -0.00000000000E+00 -0.00000000000E+00 -0.11759488944E+03  0.11759488944E+03  0.00000000000E+00 0. -1.
         25    1    1    2    0    0 -0.38635054243E+02 -0.29254842029E+03  0.36099219632E+03  0.48271897770E+03  0.12500000000E+03 0.  0.
          4    1    1    2  501    0  0.10714710719E+03  0.12338514525E+03  0.91682447967E+03  0.93127413964E+03  0.00000000000E+00 0. -1.
         -4    1    1    2    0  503 -0.68512052951E+02  0.16916327503E+03  0.11870357365E+03  0.21771691119E+03  0.00000000000E+00 0.  1.
<mgrwt>
<rscale>  4 0.24252841E+03</rscale>
<asrwt>0</asrwt>
<pdfrwt beam="1">  1       21 0.23294078E+00 0.24252841E+03</pdfrwt>
<pdfrwt beam="2">  1       21 0.18091523E-01 0.24252841E+03</pdfrwt>
<totfact> 0.22226429E+03</totfact>
</mgrwt>
</event>
<event>
 5    0  0.1972558E-002  0.2973736E+03  0.7546771E-02  0.1086561E+00
         21   -1    0    0  501  502  0.00000000000E+00  0.00000000000E+00  0.80921461334E+02  0.80921461334E+02  0.00000000000E+00 0. -1.
         21   -1    0    0  502  503 -0.00000000000E+00 -0.00000000000E+00 -0.10402221251E+04  0.10402221251E+04  0.00000000000E+00 0. -1.
         25    1    1    2    0    0  0.78448220453E+02  0.25817035850E+03 -0.46494172649E+03  0.55190747987E+03  0.12500000000E+03 0.  0.
          4    1    1    2  501    0 -0.14082543771E+02 -0.26546362638E+02 -0.16423542976E+02  0.34245586172E+02  0.00000000000E+00 0.  1.
         -4    1    1    2    0  503 -0.64365676682E+02 -0.23162399586E+03 -0.47793539434E+03  0.53499052043E+03  0.00000000000E+00 0. -1.
<mgrwt>
<rscale>  4 0.29737360E+03</rscale>
<asrwt>0</asrwt>
<pdfrwt beam="1">  1       21 0.12449456E-01 0.29737360E+03</pdfrwt>
<pdfrwt beam="2">  1       21 0.16003416E+00 0.29737360E+03</pdfrwt>
<totfact> 0.12968512E+04</totfact>
</mgrwt>
</event>
<event>
 5    0  0.1972558E-002  0.4641410E+03  0.7546771E-02  0.1023587E+00
         21   -1    0    0  501  502  0.00000000000E+00  0.00000000000E+00  0.61790010543E+03  0.61790010543E+03  0.00000000000E+00 0. -1.
         21   -1    0    0  502  503 -0.00000000000E+00 -0.00000000000E+00 -0.43856442972E+03  0.43856442972E+03  0.00000000000E+00 0.  1.
         25    1    1    2    0    0  0.35545698221E+03  0.20592868925E+03 -0.79016760959E+02  0.43660616094E+03  0.12500000000E+03 0.  0.
          2    1    1    2  501    0 -0.37012265891E+03 -0.28521271149E+03  0.26798087126E+03  0.53865649610E+03  0.00000000000E+00 0. -1.
         -2    1    1    2    0  503  0.14665676702E+02  0.79284022236E+02 -0.96284345890E+01  0.81201878104E+02  0.00000000000E+00 0.  1.
<mgrwt>
<rscale>  4 0.46414096E+03</rscale>
<asrwt>0</asrwt>
<pdfrwt beam="1">  1       21 0.95061555E-01 0.46414096E+03</pdfrwt>
<pdfrwt beam="2">  1       21 0.67471451E-01 0.46414096E+03</pdfrwt>
<totfact> 0.15872390E+03</totfact>
</mgrwt>
</event>
<event>
 5    0  0.1972558E-002  0.2635415E+03  0.7546771E-02  0.1105034E+00
         21   -1    0    0  501  502  0.00000000000E+00  0.00000000000E+00  0.37933299073E+03  0.37933299073E+03  0.00000000000E+00 0. -1.
         21   -1    0    0  502  503 -0.00000000000E+00 -0.00000000000E+00 -0.65281246638E+03  0.65281246638E+03  0.00000000000E+00 0.  1.
         25    1    1    2    0    0  0.21926200558E+03  0.77962654651E+02 -0.57271284212E+03  0.63069723492E+03  0.12500000000E+03 0.  0.
          4    1    1    2  501    0 -0.20511242550E+03 -0.96691651215E+02  0.20959932280E+03  0.30879161036E+03  0.00000000000E+00 0. -1.
         -4    1    1    2    0  503 -0.14149580076E+02  0.18728996564E+02  0.89634043675E+02  0.92656611821E+02  0.00000000000E+00 0.  1.
<mgrwt>
<rscale>  4 0.26354154E+03</rscale>
<asrwt>0</asrwt>
<pdfrwt beam="1">  1       21 0.58358923E-01 0.26354154E+03</pdfrwt>
<pdfrwt beam="2">  1       21 0.10043269E+00 0.26354154E+03</pdfrwt>
<totfact> 0.21133348E+03</totfact>
</mgrwt>
</event>
<event>
 5    0  0.1972558E-002  0.2372652E+03  0.7546771E-02  0.1121628E+00
         21   -1    0    0  501  502  0.00000000000E+00  0.00000000000E+00  0.37937039045E+03  0.37937039045E+03  0.00000000000E+00 0.  1.
         21   -1    0    0  502  503 -0.00000000000E+00 -0.00000000000E+00 -0.18633561098E+03  0.18633561098E+03  0.00000000000E+00 0.  1.
         25    1    1    2    0    0  0.21835010384E+03 -0.78548852233E+01  0.24818580671E+02  0.25294155257E+03  0.12500000000E+03 0.  0.
          3    1    1    2  501    0 -0.18094144161E+03  0.50659170232E+02  0.72422881893E+02  0.20137336130E+03  0.00000000000E+00 0.  1.
         -3    1    1    2    0  503 -0.37408662232E+02 -0.42804285009E+02  0.95793316906E+02  0.11139108757E+03  0.00000000000E+00 0. -1.
<mgrwt>
<rscale>  4 0.23726520E+03</rscale>
<asrwt>0</asrwt>
<pdfrwt beam="1">  1       21 0.58364675E-01 0.23726520E+03</pdfrwt>
<pdfrwt beam="2">  1       21 0.28667017E-01 0.23726520E+03</pdfrwt>
<totfact> 0.31280655E+04</totfact>
</mgrwt>
</event>
<event>
 5    0  0.1972558E-002  0.2843380E+03  0.7546771E-02  0.1093343E+00
         21   -1    0    0  501  502  0.00000000000E+00  0.00000000000E+00  0.19807512185E+04  0.19807512185E+04  0.00000000000E+00 0. -1.
         21   -1    0    0  502  503 -0.00000000000E+00 -0.00000000000E+00 -0.55009251300E+02  0.55009251300E+02  0.00000000000E+00 0. -1.
         25    1    1    2    0    0 -0.15235274108E+03  0.22693468475E+03  0.67707103638E+03  0.74078397469E+03  0.12500000000E+03 0.  0.
          3    1    1    2  501    0  0.13146631713E+03 -0.21088295320E+03  0.12435554320E+04  0.12681423915E+04  0.00000000000E+00 0. -1.
         -3    1    1    2    0  503  0.20886423952E+02 -0.16051731541E+02  0.51154987999E+01  0.26834103655E+02  0.00000000000E+00 0.  1.
<mgrwt>
<rscale>  4 0.28433798E+03</rscale>
<asrwt>0</asrwt>
<pdfrwt beam="1">  1       21 0.30473090E+00 0.28433798E+03</pdfrwt>
<pdfrwt beam="2">  1       21 0.84629632E-02 0.28433798E+03</pdfrwt>
<totfact> 0.31815097E+03</totfact>
</mgrwt>
</event>
<event>
 5    0  0.1972558E-002  0.2366594E+03  0.7546771E-02  0.1122038E+00
         21   -1    0    0  501  502  0.00000000000E+00  0.00000000000E+00  0.13519137050E+04  0.13519137050E+04  0.00000000000E+00 0. -1.
         21   -1    0    0  502  503 -0.00000000000E+00 -0.00000000000E+00 -0.30018826001E+03  0.30018826001E+03  0.00000000000E+00 0. -1.
         25    1    1    2    0    0 -0.81753756984E+02 -0.18357282636E+03 -0.24246351907E+03  0.33881590494E+03  0.12500000000E+03 0.  0.
          4    1    1    2  501    0  0.22411464153E+02  0.78672775643E+02  0.81807330138E+03  0.82215303064E+03  0.00000000000E+00 0. -1.
         -4    1    1    2    0  503  0.59342292831E+02  0.10490005071E+03  0.47611566266E+03  0.49113302942E+03  0.00000000000E+00 0.  1.
<mgrwt>
<rscale>  4 0.23665937E+03</rscale>
<asrwt>0</asrwt>
<pdfrwt beam="1">  1       21 0.20798672E+00 0.23665937E+03</pdfrwt>
<pdfrwt beam="2">  1       21 0.46182810E-01 0.23665937E+03</pdfrwt>
<totfact> 0.51074977E+02</totfact>
</mgrwt>
</event>
<event>
 5    0  0.1972558E-002  0.2847260E+03  0.7546771E-02  0.1093135E+00
         21   -1    0    0  503  502  0.00000000000E+00  0.00000000000E+00  0.40166289867E+03  0.40166289867E+03  0.00000000000E+00 0.  1.
         21   -1    0    0  501  503 -0.00000000000E+00 -0.00000000000E+00 -0.70070024462E+03  0.70070024462E+03  0.00000000000E+00 0. -1.
         25    1    1    2    0    0 -0.15198170219E+03  0.20578018408E+03 -0.61972148214E+03  0.68199973415E+03  0.12500000000E+03 0.  0.
          2    1    1    2  501    0  0.11496751432E+03 -0.10802621412E+03  0.13662630295E+03  0.20869580481E+03  0.00000000000E+00 0. -1.
         -2    1    1    2    0  502  0.37014187867E+02 -0.97753969955E+02  0.18405783324E+03  0.21166760433E+03  0.00000000000E+00 0.  1.
<mgrwt>
<rscale>  4 0.28472605E+03</rscale>
<asrwt>0</asrwt>
<pdfrwt beam="1">  1       21 0.61794293E-01 0.28472605E+03</pdfrwt>
<pdfrwt beam="2">  1       21 0.10780004E+00 0.28472605E+03</pdfrwt>
<totfact> 0.15508770E+03</totfact>
</mgrwt>
</event>
<event>
 5    0  0.1972558E-002  0.2491647E+03  0.7546771E-02  0.1113834E+00
         21   -1    0    0  501  502  0.00000000000E+00  0.00000000000E+00  0.20722104079E+04  0.20722104079E+04  0.00000000000E+00 0. -1.
         21   -1    0    0  502  503 -0.00000000000E+00 -0.00000000000E+00 -0.55109027013E+03  0.55109027013E+03  0.00000000000E+00 0.  1.
         25    1    1    2    0    0 -0.11221805823E+03  0.18318967605E+03 -0.50787851874E+03  0.56543517737E+03  0.12500000000E+03 0.  0.
          2    1    1    2  501    0  0.10035515860E+03 -0.22196406895E+03  0.10443933670E+04  0.10724256202E+04  0.00000000000E+00 0. -1.
         -2    1    1    2    0  503  0.11862899630E+02  0.38774392901E+02  0.98460528947E+03  0.98543988045E+03  0.00000000000E+00 0.  1.
<mgrwt>
<rscale>  4 0.24916474E+03</rscale>
<asrwt>0</asrwt>
<pdfrwt beam="1">  1       21 0.31880160E+00 0.24916474E+03</pdfrwt>
<pdfrwt beam="2">  1       21 0.84783120E-01 0.24916474E+03</pdfrwt>
<totfact> 0.29249937E+01</totfact>
</mgrwt>
</event>
<event>
 5    0  0.1972558E-002  0.2312628E+03  0.7546771E-02  0.1125754E+00
         21   -1    0    0  501  502  0.00000000000E+00  0.00000000000E+00  0.38069661025E+03  0.38069661025E+03  0.00000000000E+00 0. -1.
         21   -1    0    0  502  503 -0.00000000000E+00 -0.00000000000E+00 -0.41840923629E+03  0.41840923629E+03  0.00000000000E+00 0.  1.
         25    1    1    2    0    0 -0.12645383912E+03  0.15748634256E+03 -0.32912970473E+03  0.40588654087E+03  0.12500000000E+03 0.  0.
          3    1    1    2  501    0 -0.28390288235E+02 -0.90938509213E+02  0.98003324238E+02  0.13667652500E+03  0.00000000000E+00 0. -1.
         -3    1    1    2    0  503  0.15484412735E+03 -0.66547833352E+02  0.19341375445E+03  0.25654278067E+03  0.00000000000E+00 0.  1.
<mgrwt>
<rscale>  4 0.23126284E+03</rscale>
<asrwt>0</asrwt>
<pdfrwt beam="1">  1       21 0.58568709E-01 0.23126284E+03</pdfrwt>
<pdfrwt beam="2">  1       21 0.64370652E-01 0.23126284E+03</pdfrwt>
<totfact> 0.59094468E+03</totfact>
</mgrwt>
</event>
<event>
 5    0  0.1972558E-002  0.2614818E+03  0.7546771E-02  0.1106256E+00
         21   -1    0    0  501  502  0.00000000000E+00  0.00000000000E+00  0.14857697407E+03  0.14857697407E+03  0.00000000000E+00 0. -1.
         21   -1    0    0  502  503 -0.00000000000E+00 -0.00000000000E+00 -0.10905842301E+04  0.10905842301E+04  0.00000000000E+00 0. -1.
         25    1    1    2    0    0 -0.24172066619E+03 -0.19467306198E+03 -0.42398480419E+03  0.54010609671E+03  0.12500000000E+03 0.  0.
          4    1    1    2  501    0  0.10336171910E+03  0.43874869452E+02  0.28180551615E+02  0.11577043074E+03  0.00000000000E+00 0. -1.
         -4    1    1    2    0  503  0.13835894709E+03  0.15079819253E+03 -0.54620300347E+03  0.58328467673E+03  0.00000000000E+00 0.  1.
<mgrwt>
<rscale>  4 0.26148177E+03</rscale>
<asrwt>0</asrwt>
<pdfrwt beam="1">  1       21 0.22857996E-01 0.26148177E+03</pdfrwt>
<pdfrwt beam="2">  1       21 0.16778219E+00 0.26148177E+03</pdfrwt>
<totfact> 0.37622885E+03</totfact>
</mgrwt>
</event>
<event>
 5    0  0.1972558E-002  0.2680127E+03  0.7546771E-02  0.1102422E+00
         21   -1    0    0  501  502  0.00000000000E+00  0.00000000000E+00  0.71688924273E+02  0.71688924273E+02  0.00000000000E+00 0. -1.
         21   -1    0    0  502  503 -0.00000000000E+00 -0.00000000000E+00 -0.14114320652E+04  0.14114320652E+04  0.00000000000E+00 0. -1.
         25    1    1    2    0    0 -0.22244256235E+03 -0.25528869482E+02 -0.67338345336E+03  0.72055720938E+03  0.12500000000E+03 0.  0.
          2    1    1    2  501    0 -0.14702230476E+02 -0.67923317040E+02 -0.27513389819E+02  0.74744358972E+02  0.00000000000E+00 0.  1.
         -2    1    1    2    0  503  0.23714479283E+03  0.93452186523E+02 -0.63884629775E+03  0.68781942113E+03  0.00000000000E+00 0. -1.
<mgrwt>
<rscale>  4 0.26801274E+03</rscale>
<asrwt>0</asrwt>
<pdfrwt beam="1">  1       21 0.11029066E-01 0.26801274E+03</pdfrwt>
<pdfrwt beam="2">  1       21 0.21714339E+00 0.26801274E+03</pdfrwt>
<totfact> 0.67292526E+03</totfact>
</mgrwt>
</event>
<event>
 5    0  0.1972558E-002  0.2623340E+03  0.7546771E-02  0.1105749E+00
         21   -1    0    0  503  502  0.00000000000E+00  0.00000000000E+00  0.11017354829E+03  0.11017354829E+03  0.00000000000E+00 0.  1.
         21   -1    0    0  501  503 -0.00000000000E+00 -0.00000000000E+00 -0.13380719183E+04  0.13380719183E+04  0.00000000000E+00 0. -1.
         25    1    1    2    0    0 -0.22016900483E+03 -0.11048460300E+03 -0.10655640705E+04  0.11007874575E+04  0.12500000000E+03 0.  0.
          1    1    1    2  501    0  0.41804333744E+02 -0.33300077473E+02 -0.94426943379E+02  0.10850320325E+03  0.00000000000E+00 0. -1.
         -1    1    1    2    0  502  0.17836467108E+03  0.14378468047E+03 -0.67907356123E+02  0.23895480586E+03  0.00000000000E+00 0.  1.
<mgrwt>
<rscale>  4 0.26233398E+03</rscale>
<asrwt>0</asrwt>
<pdfrwt beam="1">  1       21 0.16949776E-01 0.26233398E+03</pdfrwt>
<pdfrwt beam="2">  1       21 0.20585722E+00 0.26233398E+03</pdfrwt>
<totfact> 0.36430859E+03</totfact>
</mgrwt>
</event>
<event>
 5    0  0.1972558E-002  0.2595984E+03  0.7546771E-02  0.1107385E+00
         21   -1    0    0  501  502  0.00000000000E+00  0.00000000000E+00  0.21144845756E+04  0.21144845756E+04  0.00000000000E+00 0.  1.
         21   -1    0    0  502  503 -0.00000000000E+00 -0.00000000000E+00 -0.34920998411E+02  0.34920998411E+02  0.00000000000E+00 0. -1.
         25    1    1    2    0    0  0.10613316522E+03 -0.17147023025E+03  0.84554522773E+03  0.87820158321E+03  0.12500000000E+03 0.  0.
          1    1    1    2  501    0 -0.12311077898E+03  0.21683176423E+03  0.11182568270E+04  0.11457183812E+04  0.00000000000E+00 0.  1.
         -1    1    1    2    0  503  0.16977613764E+02 -0.45361533988E+02  0.11576152244E+03  0.12548560958E+03  0.00000000000E+00 0. -1.
<mgrwt>
<rscale>  4 0.25959845E+03</rscale>
<asrwt>0</asrwt>
<pdfrwt beam="1">  1       21 0.32530522E+00 0.25959845E+03</pdfrwt>
<pdfrwt beam="2">  1       21 0.53724629E-02 0.25959845E+03</pdfrwt>
<totfact> 0.54148541E+03</totfact>
</mgrwt>
</event>
<event>
 5    0  0.1972558E-002  0.2690562E+03  0.7546771E-02  0.1101821E+00
         21   -1    0    0  501  502  0.00000000000E+00  0.00000000000E+00  0.14137229125E+04  0.14137229125E+04  0.00000000000E+00 0.  1.
         21   -1    0    0  502  503 -0.00000000000E+00 -0.00000000000E+00 -0.79958214731E+02  0.79958214731E+02  0.00000000000E+00 0. -1.
         25    1    1    2    0    0 -0.22765421971E+03  0.41505066900E+01  0.99555152288E+03  0.10288787612E+04  0.12500000000E+03 0.  0.
          1    1    1    2  501    0  0.26931627356E+03  0.16390804111E+01  0.32185265841E+03  0.41967019851E+03  0.00000000000E+00 0.  1.
         -1    1    1    2    0  503 -0.41662053855E+02 -0.57895871010E+01  0.16360516489E+02  0.45132167575E+02  0.00000000000E+00 0. -1.
<mgrwt>
<rscale>  4 0.26905621E+03</rscale>
<asrwt>0</asrwt>
<pdfrwt beam="1">  1       21 0.21749581E+00 0.26905621E+03</pdfrwt>
<pdfrwt beam="2">  1       21 0.12301265E-01 0.26905621E+03</pdfrwt>
<totfact> 0.54974470E+03</totfact>
</mgrwt>
</event>
<event>
 5    0  0.1972558E-002  0.3071342E+03  0.7546771E-02  0.1081728E+00
         21   -1    0    0  501  502  0.00000000000E+00  0.00000000000E+00  0.16199751029E+04  0.16199751029E+04  0.00000000000E+00 0. -1.
         21   -1    0    0  502  503 -0.00000000000E+00 -0.00000000000E+00 -0.10699605818E+03  0.10699605818E+03  0.00000000000E+00 0. -1.
         25    1    1    2    0    0  0.35139053213E+02  0.27798093382E+03  0.21728973281E+03  0.37596273833E+03  0.12500000000E+03 0.  0.
          1    1    1    2  501    0  0.26301923317E+02 -0.24562093980E+01  0.59507852503E+03  0.59566456592E+03  0.00000000000E+00 0.  1.
         -1    1    1    2    0  503 -0.61440976530E+02 -0.27552472443E+03  0.70061078692E+03  0.75534385688E+03  0.00000000000E+00 0. -1.
<mgrwt>
<rscale>  4 0.30713423E+03</rscale>
<asrwt>0</asrwt>
<pdfrwt beam="1">  1       21 0.24922692E+00 0.30713423E+03</pdfrwt>
<pdfrwt beam="2">  1       21 0.16460933E-01 0.30713423E+03</pdfrwt>
<totfact> 0.20062303E+03</totfact>
</mgrwt>
</event>
<event>
 5    0  0.1972558E-002  0.2261536E+03  0.7546771E-02  0.1129377E+00
         21   -1    0    0  501  502  0.00000000000E+00  0.00000000000E+00  0.16398268828E+03  0.16398268828E+03  0.00000000000E+00 0.  1.
         21   -1    0    0  502  503 -0.00000000000E+00 -0.00000000000E+00 -0.44037956219E+03  0.44037956219E+03  0.00000000000E+00 0.  1.
         25    1    1    2    0    0  0.34661628616E+02  0.20694319464E+03 -0.66630149303E+02  0.25316297340E+03  0.12500000000E+03 0.  0.
          4    1    1    2  501    0 -0.52914629423E+02 -0.24966921289E+02  0.15992566072E+02  0.60655315804E+02  0.00000000000E+00 0. -1.
         -4    1    1    2    0  503  0.18253000808E+02 -0.18197627335E+03 -0.22575929068E+03  0.29054396126E+03  0.00000000000E+00 0.  1.
<mgrwt>
<rscale>  4 0.22615360E+03</rscale>
<asrwt>0</asrwt>
<pdfrwt beam="1">  1       21 0.25228106E-01 0.22615360E+03</pdfrwt>
<pdfrwt beam="2">  1       21 0.67750702E-01 0.22615360E+03</pdfrwt>
<totfact> 0.29109667E+04</totfact>
</mgrwt>
</event>
<event>
 5    0  0.1972558E-002  0.2767372E+03  0.7546771E-02  0.1097484E+00
         21   -1    0    0  501  502  0.00000000000E+00  0.00000000000E+00  0.91635896771E+02  0.91635896771E+02  0.00000000000E+00 0. -1.
         21   -1    0    0  502  503 -0.00000000000E+00 -0.00000000000E+00 -0.18742828089E+04  0.18742828089E+04  0.00000000000E+00 0. -1.
         25    1    1    2    0    0 -0.10538772690E+03 -0.25314614132E+03 -0.14640641050E+04  0.14947569185E+04  0.12500000000E+03 0.  0.
          4    1    1    2  501    0  0.13953745266E+03  0.68331639691E+02 -0.17918770794E+03  0.23716692087E+03  0.00000000000E+00 0. -1.
         -4    1    1    2    0  503 -0.34149725766E+02  0.18481450163E+03 -0.13939509921E+03  0.23399486632E+03  0.00000000000E+00 0.  1.
<mgrwt>
<rscale>  4 0.27673719E+03</rscale>
<asrwt>0</asrwt>
<pdfrwt beam="1">  1       21 0.14097830E-01 0.27673719E+03</pdfrwt>
<pdfrwt beam="2">  1       21 0.28835120E+00 0.27673719E+03</pdfrwt>
<totfact> 0.16005655E+03</totfact>
</mgrwt>
</event>
<event>
 5    0  0.1972558E-002  0.4007957E+03  0.7546771E-02  0.1043505E+00
         21   -1    0    0  501  502  0.00000000000E+00  0.00000000000E+00  0.57131632553E+03  0.57131632553E+03  0.00000000000E+00 0. -1.
         21   -1    0    0  502  503 -0.00000000000E+00 -0.00000000000E+00 -0.59605155559E+03  0.59605155559E+03  0.00000000000E+00 0.  1.
         25    1    1    2    0    0 -0.36024832641E+03  0.12342334517E+03 -0.43713213292E+03  0.59306127883E+03  0.12500000000E+03 0.  0.
          3    1    1    2  501    0  0.30941473236E+03 -0.97155942101E+02  0.40139814451E+03  0.51603994429E+03  0.00000000000E+00 0. -1.
         -3    1    1    2    0  503  0.50833594051E+02 -0.26267403072E+02  0.10998758348E+02  0.58266657991E+02  0.00000000000E+00 0.  1.
<mgrwt>
<rscale>  4 0.40079568E+03</rscale>
<asrwt>0</asrwt>
<pdfrwt beam="1">  1       21 0.87894820E-01 0.40079568E+03</pdfrwt>
<pdfrwt beam="2">  1       21 0.91700239E-01 0.40079568E+03</pdfrwt>
<totfact> 0.96884992E+02</totfact>
</mgrwt>
</event>
<event>
 5    0  0.1972558E-002  0.3090871E+03  0.7546771E-02  0.1080784E+00
         21   -1    0    0  501  502  0.00000000000E+00  0.00000000000E+00  0.13223339886E+03  0.13223339886E+03  0.00000000000E+00 0. -1.
         21   -1    0    0  502  503 -0.00000000000E+00 -0.00000000000E+00 -0.72816986866E+03  0.72816986866E+03  0.00000000000E+00 0. -1.
         25    1    1    2    0    0  0.20866880966E+03 -0.19070175265E+03 -0.42734681033E+03  0.52740888017E+03  0.12500000000E+03 0.  0.
          4    1    1    2  501    0 -0.18449313807E+03  0.18405571957E+03 -0.16275665782E+03  0.30725226699E+03  0.00000000000E+00 0. -1.
         -4    1    1    2    0  503 -0.24175671586E+02  0.66460330791E+01 -0.58330016636E+01  0.25742120362E+02  0.00000000000E+00 0.  1.
<mgrwt>
<rscale>  4 0.30908709E+03</rscale>
<asrwt>0</asrwt>
<pdfrwt beam="1">  1       21 0.20343600E-01 0.30908709E+03</pdfrwt>
<pdfrwt beam="2">  1       21 0.11202613E+00 0.30908709E+03</pdfrwt>
<totfact> 0.13107023E+04</totfact>
</mgrwt>
</event>
<event>
 5    0  0.1972558E-002  0.2790996E+03  0.7546771E-02  0.1096182E+00
         21   -1    0    0  501  502  0.00000000000E+00  0.00000000000E+00  0.18040665406E+03  0.18040665406E+03  0.00000000000E+00 0. -1.
         21   -1    0    0  502  503 -0.00000000000E+00 -0.00000000000E+00 -0.52323166231E+03  0.52323166231E+03  0.00000000000E+00 0. -1.
         25    1    1    2    0    0  0.21816795316E+03  0.77095261728E+02 -0.21829025156E+03  0.34178438977E+03  0.12500000000E+03 0.  0.
          3    1    1    2  501    0  0.29325755650E+02  0.52536971299E+02 -0.17449163906E+02  0.62646680828E+02  0.00000000000E+00 0.  1.
         -3    1    1    2    0  503 -0.24749370881E+03 -0.12963223303E+03 -0.10708559277E+03  0.29920724577E+03  0.00000000000E+00 0. -1.
<mgrwt>
<rscale>  4 0.27909961E+03</rscale>
<asrwt>0</asrwt>
<pdfrwt beam="1">  1       21 0.27754870E-01 0.27909961E+03</pdfrwt>
<pdfrwt beam="2">  1       21 0.80497178E-01 0.27909961E+03</pdfrwt>
<totfact> 0.16035880E+04</totfact>
</mgrwt>
</event>
<event>
 5    0  0.1972558E-002  0.2529546E+03  0.7546771E-02  0.1111452E+00
         21   -1    0    0  501  502  0.00000000000E+00  0.00000000000E+00  0.82666847653E+03  0.82666847653E+03  0.00000000000E+00 0. -1.
         21   -1    0    0  502  503 -0.00000000000E+00 -0.00000000000E+00 -0.12410210016E+03  0.12410210016E+03  0.00000000000E+00 0. -1.
         25    1    1    2    0    0 -0.57990941526E+02  0.21391311397E+03  0.25700234447E+03  0.36165864387E+03  0.12500000000E+03 0.  0.
          3    1    1    2  501    0  0.13032117123E+03 -0.18238673876E+03  0.12027558512E+03  0.25439093247E+03  0.00000000000E+00 0. -1.
         -3    1    1    2    0  503 -0.72330229707E+02 -0.31526375208E+02  0.32528844678E+03  0.33472100035E+03  0.00000000000E+00 0.  1.
<mgrwt>
<rscale>  4 0.25295464E+03</rscale>
<asrwt>0</asrwt>
<pdfrwt beam="1">  1       21 0.12717976E+00 0.25295464E+03</pdfrwt>
<pdfrwt beam="2">  1       21 0.19092631E-01 0.25295464E+03</pdfrwt>
<totfact> 0.11059354E+04</totfact>
</mgrwt>
</event>
<event>
 5    0  0.2563922E-002  0.2604498E+03  0.7546771E-02  0.1106873E+00
         21   -1    0    0  503  502  0.00000000000E+00  0.00000000000E+00  0.58244629177E+03  0.58244629177E+03  0.00000000000E+00 0. -1.
         21   -1    0    0  501  503 -0.00000000000E+00 -0.00000000000E+00 -0.16781053022E+03  0.16781053022E+03  0.00000000000E+00 0. -1.
         25    1    1    2    0    0  0.33150273234E+02  0.23065708370E+03  0.17952652355E+03  0.31961915389E+03  0.12500000000E+03 0.  0.
          4    1    1    2  501    0  0.26715324629E+02 -0.12098556534E+02 -0.55109824934E+02  0.62427369355E+02  0.00000000000E+00 0.  1.
         -4    1    1    2    0  502 -0.59865597863E+02 -0.21855852717E+03  0.29021906294E+03  0.36821029874E+03  0.00000000000E+00 0. -1.
<mgrwt>
<rscale>  4 0.26044977E+03</rscale>
<asrwt>0</asrwt>
<pdfrwt beam="1">  1       21 0.89607121E-01 0.26044977E+03</pdfrwt>
<pdfrwt beam="2">  1       21 0.25817005E-01 0.26044977E+03</pdfrwt>
<totfact> 0.14534702E+04</totfact>
</mgrwt>
</event>
<event>
 5    0  0.1972558E-002  0.2005891E+03  0.7546771E-02  0.1149243E+00
         21   -1    0    0  501  502  0.00000000000E+00  0.00000000000E+00  0.26800195875E+02  0.26800195875E+02  0.00000000000E+00 0.  1.
         21   -1    0    0  502  503 -0.00000000000E+00 -0.00000000000E+00 -0.32901952700E+04  0.32901952700E+04  0.00000000000E+00 0.  1.
         25    1    1    2    0    0  0.11846498701E+03 -0.17699737634E+03 -0.11821713502E+04  0.12076904097E+04  0.12500000000E+03 0.  0.
          2    1    1    2  501    0 -0.66771830184E+02  0.12915614997E+03 -0.19836187809E+04  0.19889402345E+04  0.00000000000E+00 0.  1.
         -2    1    1    2    0  503 -0.51693156824E+02  0.47841226371E+02 -0.97604942944E+02  0.12036482165E+03  0.00000000000E+00 0. -1.
<mgrwt>
<rscale>  4 0.20058907E+03</rscale>
<asrwt>0</asrwt>
<pdfrwt beam="1">  1       21 0.41231097E-02 0.20058907E+03</pdfrwt>
<pdfrwt beam="2">  1       21 0.50618356E+00 0.20058907E+03</pdfrwt>
<totfact> 0.62944777E+02</totfact>
</mgrwt>
</event>
<event>
 5    0  0.1972558E-002  0.2724290E+03  0.7546771E-02  0.1099897E+00
         21   -1    0    0  501  502  0.00000000000E+00  0.00000000000E+00  0.12349198766E+04  0.12349198766E+04  0.00000000000E+00 0. -1.
         21   -1    0    0  502  503 -0.00000000000E+00 -0.00000000000E+00 -0.20732637026E+03  0.20732637026E+03  0.00000000000E+00 0.  1.
         25    1    1    2    0    0 -0.49580291904E+02  0.23692687818E+03 -0.97577318164E+02  0.28937671635E+03  0.12500000000E+03 0.  0.
          1    1    1    2  501    0  0.38442904457E+02 -0.13985510569E+03  0.51948880876E+03  0.53935695965E+03  0.00000000000E+00 0.  1.
         -1    1    1    2    0  503  0.11137387448E+02 -0.97071772486E+02  0.60568201576E+03  0.61351257088E+03  0.00000000000E+00 0. -1.
<mgrwt>
<rscale>  4 0.27242898E+03</rscale>
<asrwt>0</asrwt>
<pdfrwt beam="1">  1       21 0.18998767E+00 0.27242898E+03</pdfrwt>
<pdfrwt beam="2">  1       21 0.31896365E-01 0.27242898E+03</pdfrwt>
<totfact> 0.13717327E+03</totfact>
</mgrwt>
</event>
<event>
 5    0  0.1972558E-002  0.2644152E+03  0.7546771E-02  0.1104519E+00
         21   -1    0    0  501  502  0.00000000000E+00  0.00000000000E+00  0.96798679239E+03  0.96798679239E+03  0.00000000000E+00 0. -1.
         21   -1    0    0  502  503 -0.00000000000E+00 -0.00000000000E+00 -0.81838100041E+02  0.81838100041E+02  0.00000000000E+00 0. -1.
         25    1    1    2    0    0  0.68170325817E+02  0.24195474891E+03  0.57481001825E+03  0.63970372120E+03  0.12500000000E+03 0.  0.
          4    1    1    2  501    0 -0.59051168195E+01 -0.25790091944E+02  0.92777768262E+02  0.96476492115E+02  0.00000000000E+00 0.  1.
         -4    1    1    2    0  503 -0.62265208998E+02 -0.21616465697E+03  0.21856090584E+03  0.31364467911E+03  0.00000000000E+00 0. -1.
<mgrwt>
<rscale>  4 0.26441516E+03</rscale>
<asrwt>0</asrwt>
<pdfrwt beam="1">  1       21 0.14892104E+00 0.26441516E+03</pdfrwt>
<pdfrwt beam="2">  1       21 0.12590478E-01 0.26441516E+03</pdfrwt>
<totfact> 0.15692547E+04</totfact>
</mgrwt>
</event>
<event>
 5    0  0.1972558E-002  0.2740252E+03  0.7546771E-02  0.1098998E+00
         21   -1    0    0  503  502  0.00000000000E+00  0.00000000000E+00  0.12600023760E+03  0.12600023760E+03  0.00000000000E+00 0.  1.
         21   -1    0    0  501  503 -0.00000000000E+00 -0.00000000000E+00 -0.12224663358E+04  0.12224663358E+04  0.00000000000E+00 0.  1.
         25    1    1    2    0    0  0.17561067363E+03  0.19644093577E+03 -0.97912991773E+03  0.10216401254E+04  0.12500000000E+03 0.  0.
          3    1    1    2  501    0 -0.35435031123E+02 -0.13655097374E+00 -0.73589587245E+02  0.81676725128E+02  0.00000000000E+00 0. -1.
         -3    1    1    2    0  502 -0.14017564251E+03 -0.19630438480E+03 -0.43746593270E+02  0.24514972296E+03  0.00000000000E+00 0.  1.
<mgrwt>
<rscale>  4 0.27402522E+03</rscale>
<asrwt>0</asrwt>
<pdfrwt beam="1">  1       21 0.19384653E-01 0.27402522E+03</pdfrwt>
<pdfrwt beam="2">  1       21 0.18807173E+00 0.27402522E+03</pdfrwt>
<totfact> 0.36822649E+03</totfact>
</mgrwt>
</event>
<event>
 5    0  0.1972558E-002  0.3065188E+03  0.7546771E-02  0.1082027E+00
         21   -1    0    0  501  502  0.00000000000E+00  0.00000000000E+00  0.16418604549E+03  0.16418604549E+03  0.00000000000E+00 0.  1.
         21   -1    0    0  502  503 -0.00000000000E+00 -0.00000000000E+00 -0.12103435902E+04  0.12103435902E+04  0.00000000000E+00 0.  1.
         25    1    1    2    0    0  0.21410756018E+03 -0.17733996276E+03 -0.82891523193E+03  0.88318569477E+03  0.12500000000E+03 0.  0.
          4    1    1    2  501    0 -0.34890607815E+02 -0.48475561179E+02  0.64735254810E+02  0.88078872385E+02  0.00000000000E+00 0. -1.
         -4    1    1    2    0  503 -0.17921695236E+03  0.22581552394E+03 -0.28197756756E+03  0.40326506850E+03  0.00000000000E+00 0.  1.
<mgrwt>
<rscale>  4 0.30651877E+03</rscale>
<asrwt>0</asrwt>
<pdfrwt beam="1">  1       21 0.25259392E-01 0.30651877E+03</pdfrwt>
<pdfrwt beam="2">  1       21 0.18620671E+00 0.30651877E+03</pdfrwt>
<totfact> 0.22424225E+03</totfact>
</mgrwt>
</event>
<event>
 5    0  0.1972558E-002  0.2709629E+03  0.7546771E-02  0.1100730E+00
         21   -1    0    0  501  502  0.00000000000E+00  0.00000000000E+00  0.11642777255E+04  0.11642777255E+04  0.00000000000E+00 0. -1.
         21   -1    0    0  502  503 -0.00000000000E+00 -0.00000000000E+00 -0.16135017414E+03  0.16135017414E+03  0.00000000000E+00 0. -1.
         25    1    1    2    0    0 -0.17224408511E+03 -0.16855291264E+03 -0.14576528141E+02  0.27187420692E+03  0.12500000000E+03 0.  0.
          4    1    1    2  501    0  0.18534589673E+03  0.14884947625E+03  0.78913859960E+03  0.82416563711E+03  0.00000000000E+00 0. -1.
         -4    1    1    2    0  503 -0.13101811616E+02  0.19703436383E+02  0.22836547993E+03  0.22958805565E+03  0.00000000000E+00 0.  1.
<mgrwt>
<rscale>  4 0.27096291E+03</rscale>
<asrwt>0</asrwt>
<pdfrwt beam="1">  1       21 0.17911964E+00 0.27096291E+03</pdfrwt>
<pdfrwt beam="2">  1       21 0.24823104E-01 0.27096291E+03</pdfrwt>
<totfact> 0.26552880E+03</totfact>
</mgrwt>
</event>
<event>
 5    0  0.1972558E-002  0.2689646E+03  0.7546771E-02  0.1101874E+00
         21   -1    0    0  501  502  0.00000000000E+00  0.00000000000E+00  0.99295308110E+02  0.99295308110E+02  0.00000000000E+00 0. -1.
         21   -1    0    0  502  503 -0.00000000000E+00 -0.00000000000E+00 -0.97660059694E+03  0.97660059694E+03  0.00000000000E+00 0. -1.
         25    1    1    2    0    0  0.57519344554E+02 -0.23381523168E+03 -0.72462353476E+03  0.77374563307E+03  0.12500000000E+03 0.  0.
          2    1    1    2  501    0  0.17140889606E+02  0.13999241981E+02  0.34267096323E+01  0.22394892530E+02  0.00000000000E+00 0.  1.
         -2    1    1    2    0  503 -0.74660234160E+02  0.21981598970E+03 -0.15610846371E+03  0.27975537946E+03  0.00000000000E+00 0. -1.
<mgrwt>
<rscale>  4 0.26896462E+03</rscale>
<asrwt>0</asrwt>
<pdfrwt beam="1">  1       21 0.15276201E-01 0.26896462E+03</pdfrwt>
<pdfrwt beam="2">  1       21 0.15024624E+00 0.26896462E+03</pdfrwt>
<totfact> 0.10746770E+04</totfact>
</mgrwt>
</event>
<event>
 5    0  0.1972558E-002  0.2739557E+03  0.7546771E-02  0.1099037E+00
         21   -1    0    0  501  502  0.00000000000E+00  0.00000000000E+00  0.26591948947E+03  0.26591948947E+03  0.00000000000E+00 0.  1.
         21   -1    0    0  502  503 -0.00000000000E+00 -0.00000000000E+00 -0.44724979627E+03  0.44724979627E+03  0.00000000000E+00 0.  1.
         25    1    1    2    0    0  0.23427490104E+03 -0.85497382956E+02 -0.26402518932E+03  0.38409482208E+03  0.12500000000E+03 0.  0.
          2    1    1    2  501    0 -0.23650060034E+03  0.20736147950E+02  0.18927805399E+02  0.23816125548E+03  0.00000000000E+00 0.  1.
         -2    1    1    2    0  503  0.22256992995E+01  0.64761235006E+02  0.63767077122E+02  0.90913208180E+02  0.00000000000E+00 0. -1.
<mgrwt>
<rscale>  4 0.27395565E+03</rscale>
<asrwt>0</asrwt>
<pdfrwt beam="1">  1       21 0.40910690E-01 0.27395565E+03</pdfrwt>
<pdfrwt beam="2">  1       21 0.68807662E-01 0.27395565E+03</pdfrwt>
<totfact> 0.10558028E+04</totfact>
</mgrwt>
</event>
<event>
 5    0  0.1972558E-002  0.2860335E+03  0.7546771E-02  0.1092438E+00
         21   -1    0    0  501  502  0.00000000000E+00  0.00000000000E+00  0.10053804626E+03  0.10053804626E+03  0.00000000000E+00 0. -1.
         21   -1    0    0  502  503 -0.00000000000E+00 -0.00000000000E+00 -0.25406738071E+04  0.25406738071E+04  0.00000000000E+00 0.  1.
         25    1    1    2    0    0  0.23536285917E+03  0.11024629520E+03 -0.23230206291E+04  0.23408544945E+04  0.12500000000E+03 0.  0.
          4    1    1    2  501    0 -0.29728803845E+02  0.75811826169E+01  0.88917210680E+01  0.31942742704E+02  0.00000000000E+00 0.  1.
         -4    1    1    2    0  503 -0.20563405533E+03 -0.11782747781E+03 -0.12600685284E+03  0.26841461622E+03  0.00000000000E+00 0. -1.
<mgrwt>
<rscale>  4 0.28603350E+03</rscale>
<asrwt>0</asrwt>
<pdfrwt beam="1">  1       21 0.15467392E-01 0.28603350E+03</pdfrwt>
<pdfrwt beam="2">  1       21 0.39087288E+00 0.28603350E+03</pdfrwt>
<totfact> 0.32455930E+02</totfact>
</mgrwt>
</event>
<event>
 5    0  0.1972558E-002  0.2764140E+03  0.7546771E-02  0.1097664E+00
         21   -1    0    0  501  502  0.00000000000E+00  0.00000000000E+00  0.13603143053E+04  0.13603143053E+04  0.00000000000E+00 0. -1.
         21   -1    0    0  502  503 -0.00000000000E+00 -0.00000000000E+00 -0.63246306639E+02  0.63246306639E+02  0.00000000000E+00 0. -1.
         25    1    1    2    0    0 -0.56364315705E+01 -0.26214023830E+03  0.62531515817E+03  0.68948772356E+03  0.12500000000E+03 0.  0.
          4    1    1    2  501    0 -0.10515767160E+02  0.26968602645E+02  0.24363520543E+03  0.24534873184E+03  0.00000000000E+00 0.  1.
         -4    1    1    2    0  503  0.16152198731E+02  0.23517163566E+03  0.42811763504E+03  0.48872415653E+03  0.00000000000E+00 0. -1.
<mgrwt>
<rscale>  4 0.27641402E+03</rscale>
<asrwt>0</asrwt>
<pdfrwt beam="1">  1       21 0.20927910E+00 0.27641402E+03</pdfrwt>
<pdfrwt beam="2">  1       21 0.97302020E-02 0.27641402E+03</pdfrwt>
<totfact> 0.93866717E+03</totfact>
</mgrwt>
</event>
<event>
 5    0  0.1972558E-002  0.3333956E+03  0.7546771E-02  0.1069644E+00
         21   -1    0    0  501  502  0.00000000000E+00  0.00000000000E+00  0.70966653833E+03  0.70966653833E+03  0.00000000000E+00 0.  1.
         21   -1    0    0  502  503 -0.00000000000E+00 -0.00000000000E+00 -0.16405998345E+03  0.16405998345E+03  0.00000000000E+00 0.  1.
         25    1    1    2    0    0 -0.26762626559E+03 -0.15460864948E+03  0.16920621386E+03  0.37387617648E+03  0.12500000000E+03 0.  0.
          1    1    1    2  501    0  0.21106034555E+03  0.63883031177E+02  0.23080012887E+03  0.31921185852E+03  0.00000000000E+00 0.  1.
         -1    1    1    2    0  503  0.56565920049E+02  0.90725618304E+02  0.14560021215E+03  0.18063848678E+03  0.00000000000E+00 0. -1.
<mgrwt>
<rscale>  4 0.33339564E+03</rscale>
<asrwt>0</asrwt>
<pdfrwt beam="1">  1       21 0.10917947E+00 0.33339564E+03</pdfrwt>
<pdfrwt beam="2">  1       21 0.25239998E-01 0.33339564E+03</pdfrwt>
<totfact> 0.91469368E+03</totfact>
</mgrwt>
</event>
<event>
 5    0  0.1972558E-002  0.2964991E+03  0.7546771E-02  0.1087004E+00
         21   -1    0    0  501  502  0.00000000000E+00  0.00000000000E+00  0.19191423795E+04  0.19191423795E+04  0.00000000000E+00 0.  1.
         21   -1    0    0  502  503 -0.00000000000E+00 -0.00000000000E+00 -0.68569663296E+02  0.68569663296E+02  0.00000000000E+00 0.  1.
         25    1    1    2    0    0 -0.22436327047E+03  0.20719068865E+03  0.98260923262E+03  0.10365388380E+04  0.12500000000E+03 0.  0.
          2    1    1    2  501    0  0.65229010149E+02 -0.80567709426E+01  0.49546411988E+03  0.49980439115E+03  0.00000000000E+00 0. -1.
         -2    1    1    2    0  503  0.15913426032E+03 -0.19913391771E+03  0.37249936367E+03  0.45136881364E+03  0.00000000000E+00 0.  1.
<mgrwt>
<rscale>  4 0.29649909E+03</rscale>
<asrwt>0</asrwt>
<pdfrwt beam="1">  1       21 0.29525263E+00 0.29649909E+03</pdfrwt>
<pdfrwt beam="2">  1       21 0.10549180E-01 0.29649909E+03</pdfrwt>
<totfact> 0.24227543E+03</totfact>
</mgrwt>
</event>
<event>
 5    0  0.1972558E-002  0.2329445E+03  0.7546771E-02  0.1124584E+00
         21   -1    0    0  501  502  0.00000000000E+00  0.00000000000E+00  0.42275219220E+03  0.42275219220E+03  0.00000000000E+00 0.  1.
         21   -1    0    0  502  503 -0.00000000000E+00 -0.00000000000E+00 -0.30391997153E+03  0.30391997153E+03  0.00000000000E+00 0.  1.
         25    1    1    2    0    0 -0.20962578538E+03 -0.81750935024E+02  0.35425632241E+02  0.25981947712E+03  0.12500000000E+03 0.  0.
          4    1    1    2  501    0  0.18691261343E+03  0.26680108210E+02 -0.14037825597E+03  0.23527474999E+03  0.00000000000E+00 0.  1.
         -4    1    1    2    0  503  0.22713171944E+02  0.55070826814E+02  0.22378484440E+03  0.23157793662E+03  0.00000000000E+00 0. -1.
<mgrwt>
<rscale>  4 0.23294449E+03</rscale>
<asrwt>0</asrwt>
<pdfrwt beam="1">  1       21 0.65038799E-01 0.23294449E+03</pdfrwt>
<pdfrwt beam="2">  1       21 0.46756919E-01 0.23294449E+03</pdfrwt>
<totfact> 0.92828577E+03</totfact>
</mgrwt>
</event>
<event>
 5    0  0.1972558E-002  0.3804811E+03  0.7546771E-02  0.1050756E+00
         21   -1    0    0  501  502  0.00000000000E+00  0.00000000000E+00  0.44595829019E+03  0.44595829019E+03  0.00000000000E+00 0.  1.
         21   -1    0    0  502  503 -0.00000000000E+00 -0.00000000000E+00 -0.11223395964E+04  0.11223395964E+04  0.00000000000E+00 0.  1.
         25    1    1    2    0    0  0.82195086816E+02  0.34327240934E+03 -0.36184571632E+03  0.52071998400E+03  0.12500000000E+03 0.  0.
          4    1    1    2  501    0  0.30548524784E+02  0.25165629979E+01  0.31717226855E+03  0.31864995433E+03  0.00000000000E+00 0.  1.
         -4    1    1    2    0  503 -0.11274361160E+03 -0.34578897234E+03 -0.63170785845E+03  0.72892794828E+03  0.00000000000E+00 0. -1.
<mgrwt>
<rscale>  4 0.38048109E+03</rscale>
<asrwt>0</asrwt>
<pdfrwt beam="1">  1       21 0.68608968E-01 0.38048109E+03</pdfrwt>
<pdfrwt beam="2">  1       21 0.17266763E+00 0.38048109E+03</pdfrwt>
<totfact> 0.33785923E+02</totfact>
</mgrwt>
</event>
<event>
 5    0  0.1972558E-002  0.3789655E+03  0.7546771E-02  0.1051317E+00
         21   -1    0    0  501  502  0.00000000000E+00  0.00000000000E+00  0.51743745417E+03  0.51743745417E+03  0.00000000000E+00 0. -1.
         21   -1    0    0  502  503 -0.00000000000E+00 -0.00000000000E+00 -0.28435045562E+03  0.28435045562E+03  0.00000000000E+00 0. -1.
         25    1    1    2    0    0 -0.30028039448E+03 -0.19865139186E+03  0.15175004010E+03  0.41022404302E+03  0.12500000000E+03 0.  0.
          1    1    1    2  501    0  0.18906017988E+02 -0.19041653166E+02  0.10073187677E+01  0.26852127710E+02  0.00000000000E+00 0.  1.
         -1    1    1    2    0  503  0.28137437649E+03  0.21769304503E+03  0.80329639682E+02  0.36471173906E+03  0.00000000000E+00 0. -1.
<mgrwt>
<rscale>  4 0.37896554E+03</rscale>
<asrwt>0</asrwt>
<pdfrwt beam="1">  1       21 0.79605762E-01 0.37896554E+03</pdfrwt>
<pdfrwt beam="2">  1       21 0.43746224E-01 0.37896554E+03</pdfrwt>
<totfact> 0.63233833E+03</totfact>
</mgrwt>
</event>
<event>
 5    0  0.1972558E-002  0.2517307E+03  0.7546771E-02  0.1112216E+00
         21   -1    0    0  501  502  0.00000000000E+00  0.00000000000E+00  0.11610335995E+03  0.11610335995E+03  0.00000000000E+00 0. -1.
         21   -1    0    0  502  503 -0.00000000000E+00 -0.00000000000E+00 -0.12607060277E+04  0.12607060277E+04  0.00000000000E+00 0. -1.
         25    1    1    2    0    0  0.11686521582E+02 -0.21225255767E+03 -0.64908318311E+03  0.69434984095E+03  0.12500000000E+03 0.  0.
          2    1    1    2  501    0  0.17561648463E+02 -0.10252950441E+02  0.70605383527E+02  0.73475537920E+02  0.00000000000E+00 0.  1.
         -2    1    1    2    0  503 -0.29248170046E+02  0.22250550811E+03 -0.56612486818E+03  0.60898400879E+03  0.00000000000E+00 0. -1.
<mgrwt>
<rscale>  4 0.25173069E+03</rscale>
<asrwt>0</asrwt>
<pdfrwt beam="1">  1       21 0.17862056E-01 0.25173069E+03</pdfrwt>
<pdfrwt beam="2">  1       21 0.19395476E+00 0.25173069E+03</pdfrwt>
<totfact> 0.39818039E+03</totfact>
</mgrwt>
</event>
<event>
 5    0  0.1972558E-002  0.3238910E+03  0.7546771E-02  0.1073872E+00
         21   -1    0    0  501  502  0.00000000000E+00  0.00000000000E+00  0.78838671727E+03  0.78838671727E+03  0.00000000000E+00 0. -1.
         21   -1    0    0  502  503 -0.00000000000E+00 -0.00000000000E+00 -0.12064907618E+04  0.12064907618E+04  0.00000000000E+00 0. -1.
         25    1    1    2    0    0  0.15493815307E+03  0.25408983671E+03 -0.11220405951E+04  0.11675476750E+04  0.12500000000E+03 0.  0.
          2    1    1    2  501    0 -0.14320256809E+03 -0.28892124831E+03  0.36760059465E+03  0.48899147275E+03  0.00000000000E+00 0.  1.
         -2    1    1    2    0  503 -0.11735584976E+02  0.34831411605E+02  0.33633595591E+03  0.33833833130E+03  0.00000000000E+00 0. -1.
<mgrwt>
<rscale>  4 0.32389101E+03</rscale>
<asrwt>0</asrwt>
<pdfrwt beam="1">  1       21 0.12129027E+00 0.32389101E+03</pdfrwt>
<pdfrwt beam="2">  1       21 0.18561396E+00 0.32389101E+03</pdfrwt>
<totfact> 0.74121332E+01</totfact>
</mgrwt>
</event>
<event>
 5    0  0.1972558E-002  0.2351549E+03  0.7546771E-02  0.1123063E+00
         21   -1    0    0  501  502  0.00000000000E+00  0.00000000000E+00  0.77013210795E+03  0.77013210795E+03  0.00000000000E+00 0. -1.
         21   -1    0    0  502  503 -0.00000000000E+00 -0.00000000000E+00 -0.15837377753E+03  0.15837377753E+03  0.00000000000E+00 0.  1.
         25    1    1    2    0    0  0.18653046560E+03 -0.91988740755E+02  0.15982543404E+01  0.24265839660E+03  0.12500000000E+03 0.  0.
          1    1    1    2  501    0 -0.41141625210E+02 -0.22479036982E+02  0.41224609307E+03  0.41490334016E+03  0.00000000000E+00 0. -1.
         -1    1    1    2    0  503 -0.14538884039E+03  0.11446777774E+03  0.19791398302E+03  0.27094414872E+03  0.00000000000E+00 0.  1.
<mgrwt>
<rscale>  4 0.23515490E+03</rscale>
<asrwt>0</asrwt>
<pdfrwt beam="1">  1       21 0.11848186E+00 0.23515490E+03</pdfrwt>
<pdfrwt beam="2">  1       21 0.24365197E-01 0.23515490E+03</pdfrwt>
<totfact> 0.84183212E+03</totfact>
</mgrwt>
</event>
<event>
 5    0  0.1972558E-002  0.2484006E+03  0.7546771E-02  0.1114320E+00
         21   -1    0    0  501  502  0.00000000000E+00  0.00000000000E+00  0.53824353412E+03  0.53824353412E+03  0.00000000000E+00 0.  1.
         21   -1    0    0  502  503 -0.00000000000E+00 -0.00000000000E+00 -0.41875036807E+03  0.41875036807E+03  0.00000000000E+00 0.  1.
         25    1    1    2    0    0 -0.13809285665E+03 -0.17519335245E+03  0.14406072991E+02  0.25611497953E+03  0.12500000000E+03 0.  0.
          4    1    1    2  501    0 -0.48687901059E+02  0.67161947488E+02  0.35854413214E+03  0.36801512685E+03  0.00000000000E+00 0. -1.
         -4    1    1    2    0  503  0.18678075771E+03  0.10803140496E+03 -0.25345703908E+03  0.33286379582E+03  0.00000000000E+00 0.  1.
<mgrwt>
<rscale>  4 0.24840057E+03</rscale>
<asrwt>0</asrwt>
<pdfrwt beam="1">  1       21 0.82806698E-01 0.24840057E+03</pdfrwt>
<pdfrwt beam="2">  1       21 0.64423133E-01 0.24840057E+03</pdfrwt>
<totfact> 0.27064152E+03</totfact>
</mgrwt>
</event>
<event>
 5    0  0.1972558E-002  0.2484832E+03  0.7546771E-02  0.1114267E+00
         21   -1    0    0  501  502  0.00000000000E+00  0.00000000000E+00  0.70486472195E+03  0.70486472195E+03  0.00000000000E+00 0.  1.
         21   -1    0    0  502  503 -0.00000000000E+00 -0.00000000000E+00 -0.50697148303E+03  0.50697148303E+03  0.00000000000E+00 0.  1.
         25    1    1    2    0    0  0.65254688399E+02 -0.20864725635E+03 -0.43199546353E+03  0.50003693109E+03  0.12500000000E+03 0.  0.
          3    1    1    2  501    0 -0.32952775194E+02  0.18762773055E+03  0.18601213529E+03  0.26625282185E+03  0.00000000000E+00 0. -1.
         -3    1    1    2    0  503 -0.32301913205E+02  0.21019525804E+02  0.44387656716E+03  0.44554645205E+03  0.00000000000E+00 0.  1.
<mgrwt>
<rscale>  4 0.24848322E+03</rscale>
<asrwt>0</asrwt>
<pdfrwt beam="1">  1       21 0.10844073E+00 0.24848322E+03</pdfrwt>
<pdfrwt beam="2">  1       21 0.77995612E-01 0.24848322E+03</pdfrwt>
<totfact> 0.93562649E+02</totfact>
</mgrwt>
</event>
<event>
 5    0  0.1972558E-002  0.3420126E+03  0.7546771E-02  0.1065942E+00
         21   -1    0    0  501  502  0.00000000000E+00  0.00000000000E+00  0.13501590217E+03  0.13501590217E+03  0.00000000000E+00 0.  1.
         21   -1    0    0  502  503 -0.00000000000E+00 -0.00000000000E+00 -0.10526052555E+04  0.10526052555E+04  0.00000000000E+00 0.  1.
         25    1    1    2    0    0  0.28015403515E+02 -0.31923489244E+03 -0.58715468041E+03  0.68049349601E+03  0.12500000000E+03 0.  0.
          2    1    1    2  501    0  0.33353181155E+02  0.86217408097E+01  0.15845681123E+02  0.37919054814E+02  0.00000000000E+00 0. -1.
         -2    1    1    2    0  503 -0.61368584670E+02  0.31061315163E+03 -0.34628035406E+03  0.46920860687E+03  0.00000000000E+00 0.  1.
<mgrwt>
<rscale>  4 0.34201259E+03</rscale>
<asrwt>0</asrwt>
<pdfrwt beam="1">  1       21 0.20771677E-01 0.34201259E+03</pdfrwt>
<pdfrwt beam="2">  1       21 0.16193927E+00 0.34201259E+03</pdfrwt>
<totfact> 0.47546263E+03</totfact>
</mgrwt>
</event>
<event>
 5    0  0.1972558E-002  0.3854399E+03  0.7546771E-02  0.1048941E+00
         21   -1    0    0  501  502  0.00000000000E+00  0.00000000000E+00  0.28283689782E+03  0.28283689782E+03  0.00000000000E+00 0.  1.
         21   -1    0    0  502  503 -0.00000000000E+00 -0.00000000000E+00 -0.10300095366E+04  0.10300095366E+04  0.00000000000E+00 0.  1.
         25    1    1    2    0    0 -0.20717334720E+03 -0.25075715811E+03 -0.15913357145E+03  0.38307759227E+03  0.12500000000E+03 0.  0.
          4    1    1    2  501    0  0.32518692809E+03  0.24305487125E+03 -0.87312807206E+02  0.41526586055E+03  0.00000000000E+00 0.  1.
         -4    1    1    2    0  503 -0.11801358089E+03  0.77022868612E+01 -0.50072626016E+03  0.51450298163E+03  0.00000000000E+00 0. -1.
<mgrwt>
<rscale>  4 0.38543993E+03</rscale>
<asrwt>0</asrwt>
<pdfrwt beam="1">  1       21 0.43513369E-01 0.38543993E+03</pdfrwt>
<pdfrwt beam="2">  1       21 0.15846300E+00 0.38543993E+03</pdfrwt>
<totfact> 0.11417462E+03</totfact>
</mgrwt>
</event>
<event>
 5    0  0.1972558E-002  0.2576056E+03  0.7546771E-02  0.1108590E+00
         21   -1    0    0  501  502  0.00000000000E+00  0.00000000000E+00  0.10948534741E+04  0.10948534741E+04  0.00000000000E+00 0. -1.
         21   -1    0    0  502  503 -0.00000000000E+00 -0.00000000000E+00 -0.71175838704E+02  0.71175838704E+02  0.00000000000E+00 0. -1.
         25    1    1    2    0    0  0.23420159986E+03  0.89327438658E+02  0.48004217970E+03  0.55578347849E+03  0.12500000000E+03 0.  0.
          2    1    1    2  501    0 -0.19568091912E+03 -0.71343188876E+02  0.31459968487E+03  0.37729807107E+03  0.00000000000E+00 0. -1.
         -2    1    1    2    0  503 -0.38520680738E+02 -0.17984249782E+02  0.22903577081E+03  0.23294776324E+03  0.00000000000E+00 0.  1.
<mgrwt>
<rscale>  4 0.25760555E+03</rscale>
<asrwt>0</asrwt>
<pdfrwt beam="1">  1       21 0.16843898E+00 0.25760555E+03</pdfrwt>
<pdfrwt beam="2">  1       21 0.10950130E-01 0.25760555E+03</pdfrwt>
<totfact> 0.14487816E+04</totfact>
</mgrwt>
</event>
<event>
 5    0  0.1972558E-002  0.2421120E+03  0.7546771E-02  0.1118394E+00
         21   -1    0    0  501  502  0.00000000000E+00  0.00000000000E+00  0.16081210049E+04  0.16081210049E+04  0.00000000000E+00 0.  1.
         21   -1    0    0  502  503 -0.00000000000E+00 -0.00000000000E+00 -0.61098877468E+02  0.61098877468E+02  0.00000000000E+00 0. -1.
         25    1    1    2    0    0  0.56428146401E+02  0.20484289402E+03  0.32072074391E+03  0.40451395836E+03  0.12500000000E+03 0.  0.
          4    1    1    2  501    0 -0.70792565870E+02 -0.18748654113E+03  0.50872467185E+03  0.54677562331E+03  0.00000000000E+00 0. -1.
         -4    1    1    2    0  503  0.14364419469E+02 -0.17356352886E+02  0.71757671162E+03  0.71793030065E+03  0.00000000000E+00 0.  1.
<mgrwt>
<rscale>  4 0.24211202E+03</rscale>
<asrwt>0</asrwt>
<pdfrwt beam="1">  1       21 0.24740320E+00 0.24211202E+03</pdfrwt>
<pdfrwt beam="2">  1       21 0.93998285E-02 0.24211202E+03</pdfrwt>
<totfact> 0.59574135E+03</totfact>
</mgrwt>
</event>
<event>
 5    0  0.1972558E-002  0.2319476E+03  0.7546771E-02  0.1125276E+00
         21   -1    0    0  501  502  0.00000000000E+00  0.00000000000E+00  0.30496145511E+03  0.30496145511E+03  0.00000000000E+00 0. -1.
         21   -1    0    0  502  503 -0.00000000000E+00 -0.00000000000E+00 -0.28417411730E+03  0.28417411730E+03  0.00000000000E+00 0. -1.
         25    1    1    2    0    0  0.13185024924E+03 -0.15549925061E+03 -0.12334601404E+03  0.26907943872E+03  0.12500000000E+03 0.  0.
          2    1    1    2  501    0 -0.85438105655E+01  0.18782998597E+02  0.13409621658E+03  0.13567458508E+03  0.00000000000E+00 0.  1.
         -2    1    1    2    0  503 -0.12330643867E+03  0.13671625201E+03  0.10037135269E+02  0.18438154861E+03  0.00000000000E+00 0. -1.
<mgrwt>
<rscale>  4 0.23194761E+03</rscale>
<asrwt>0</asrwt>
<pdfrwt beam="1">  1       21 0.46917147E-01 0.23194761E+03</pdfrwt>
<pdfrwt beam="2">  1       21 0.43719095E-01 0.23194761E+03</pdfrwt>
<totfact> 0.21386429E+04</totfact>
</mgrwt>
</event>
<event>
 5    0  0.1972558E-002  0.2753452E+03  0.7546771E-02  0.1098259E+00
         21   -1    0    0  501  502  0.00000000000E+00  0.00000000000E+00  0.11018458438E+04  0.11018458438E+04  0.00000000000E+00 0. -1.
         21   -1    0    0  502  503 -0.00000000000E+00 -0.00000000000E+00 -0.28459652972E+03  0.28459652972E+03  0.00000000000E+00 0. -1.
         25    1    1    2    0    0 -0.23966513499E+03 -0.48070069028E+02 -0.18250278421E+03  0.32967009982E+03  0.12500000000E+03 0.  0.
          3    1    1    2  501    0  0.26005079627E+03 -0.12360264760E+02  0.63186124400E+03  0.68339434037E+03  0.00000000000E+00 0.  1.
         -3    1    1    2    0  503 -0.20385661276E+02  0.60430333788E+02  0.36789085433E+03  0.37337793337E+03  0.00000000000E+00 0. -1.
<mgrwt>
<rscale>  4 0.27534519E+03</rscale>
<asrwt>0</asrwt>
<pdfrwt beam="1">  1       21 0.16951474E+00 0.27534519E+03</pdfrwt>
<pdfrwt beam="2">  1       21 0.43784082E-01 0.27534519E+03</pdfrwt>
<totfact> 0.10001604E+03</totfact>
</mgrwt>
</event>
<event>
 5    0  0.1972558E-002  0.3072962E+03  0.7546771E-02  0.1081649E+00
         21   -1    0    0  501  502  0.00000000000E+00  0.00000000000E+00  0.10342839025E+04  0.10342839025E+04  0.00000000000E+00 0.  1.
         21   -1    0    0  502  503 -0.00000000000E+00 -0.00000000000E+00 -0.40947229814E+03  0.40947229814E+03  0.00000000000E+00 0.  1.
         25    1    1    2    0    0 -0.21496498501E+03 -0.21551503609E+03  0.52621987137E+03  0.62063598718E+03  0.12500000000E+03 0.  0.
          3    1    1    2  501    0  0.18246445356E+03  0.21049765331E+03 -0.30794813075E+03  0.41525244140E+03  0.00000000000E+00 0.  1.
         -3    1    1    2    0  503  0.32500531456E+02  0.50173827796E+01  0.40653986374E+03  0.40786777206E+03  0.00000000000E+00 0. -1.
<mgrwt>
<rscale>  4 0.30729618E+03</rscale>
<asrwt>0</asrwt>
<pdfrwt beam="1">  1       21 0.15912060E+00 0.30729618E+03</pdfrwt>
<pdfrwt beam="2">  1       21 0.62995739E-01 0.30729618E+03</pdfrwt>
<totfact> 0.53759749E+02</totfact>
</mgrwt>
</event>
<event>
 5    0  0.1972558E-002  0.2998297E+03  0.7546771E-02  0.1085326E+00
         21   -1    0    0  501  502  0.00000000000E+00  0.00000000000E+00  0.50365565529E+02  0.50365565529E+02  0.00000000000E+00 0.  1.
         21   -1    0    0  502  503 -0.00000000000E+00 -0.00000000000E+00 -0.21167400469E+04  0.21167400469E+04  0.00000000000E+00 0. -1.
         25    1    1    2    0    0  0.86556000020E+02  0.26910238371E+03 -0.11917477148E+04  0.12311765307E+04  0.12500000000E+03 0.  0.
          4    1    1    2  501    0 -0.17485638494E+02 -0.15622910731E+02 -0.79970430415E+00  0.23461935560E+02  0.00000000000E+00 0. -1.
         -4    1    1    2    0  503 -0.69070361526E+02 -0.25347947297E+03 -0.87382706226E+03  0.91246714615E+03  0.00000000000E+00 0.  1.
<mgrwt>
<rscale>  4 0.29982973E+03</rscale>
<asrwt>0</asrwt>
<pdfrwt beam="1">  1       21 0.77485490E-02 0.29982973E+03</pdfrwt>
<pdfrwt beam="2">  1       21 0.32565229E+00 0.29982973E+03</pdfrwt>
<totfact> 0.27607869E+03</totfact>
</mgrwt>
</event>
<event>
 5    0  0.1972558E-002  0.2396560E+03  0.7546771E-02  0.1120022E+00
         21   -1    0    0  501  502  0.00000000000E+00  0.00000000000E+00  0.11642078401E+03  0.11642078401E+03  0.00000000000E+00 0.  1.
         21   -1    0    0  502  503 -0.00000000000E+00 -0.00000000000E+00 -0.57081576693E+03  0.57081576693E+03  0.00000000000E+00 0.  1.
         25    1    1    2    0    0 -0.87621976989E+02  0.19350055938E+03 -0.34775057759E+03  0.42623413935E+03  0.12500000000E+03 0.  0.
          3    1    1    2  501    0  0.97241308762E+02 -0.16810992043E+03 -0.12244706762E+03  0.22958680677E+03  0.00000000000E+00 0.  1.
         -3    1    1    2    0  503 -0.96193317726E+01 -0.25390638955E+02  0.15802662291E+02  0.31415604813E+02  0.00000000000E+00 0. -1.
<mgrwt>
<rscale>  4 0.23965598E+03</rscale>
<asrwt>0</asrwt>
<pdfrwt beam="1">  1       21 0.17910890E-01 0.23965598E+03</pdfrwt>
<pdfrwt beam="2">  1       21 0.87817810E-01 0.23965598E+03</pdfrwt>
<totfact> 0.30738919E+04</totfact>
</mgrwt>
</event>
<event>
 5    0  0.1972558E-002  0.3476956E+03  0.7546771E-02  0.1063565E+00
         21   -1    0    0  501  502  0.00000000000E+00  0.00000000000E+00  0.26531042008E+03  0.26531042008E+03  0.00000000000E+00 0.  1.
         21   -1    0    0  502  503 -0.00000000000E+00 -0.00000000000E+00 -0.20930782816E+04  0.20930782816E+04  0.00000000000E+00 0.  1.
         25    1    1    2    0    0  0.32037002433E+03 -0.46584499981E+02 -0.16824987581E+04  0.17179156380E+04  0.12500000000E+03 0.  0.
          3    1    1    2  501    0 -0.32823824355E+03  0.14212634609E+02 -0.32235713066E+03  0.46027867993E+03  0.00000000000E+00 0.  1.
         -3    1    1    2    0  503  0.78682192157E+01  0.32371865372E+02  0.17708802727E+03  0.18019438377E+03  0.00000000000E+00 0. -1.
<mgrwt>
<rscale>  4 0.34769562E+03</rscale>
<asrwt>0</asrwt>
<pdfrwt beam="1">  1       21 0.40816988E-01 0.34769562E+03</pdfrwt>
<pdfrwt beam="2">  1       21 0.32201204E+00 0.34769562E+03</pdfrwt>
<totfact> 0.12244260E+02</totfact>
</mgrwt>
</event>
<event>
 5    0  0.1972558E-002  0.2418043E+03  0.7546771E-02  0.1118597E+00
         21   -1    0    0  501  502  0.00000000000E+00  0.00000000000E+00  0.17455115074E+03  0.17455115074E+03  0.00000000000E+00 0.  1.
         21   -1    0    0  502  503 -0.00000000000E+00 -0.00000000000E+00 -0.41229888470E+03  0.41229888470E+03  0.00000000000E+00 0. -1.
         25    1    1    2    0    0  0.80819641623E+02  0.19055842202E+03 -0.27142502836E+03  0.36351186046E+03  0.12500000000E+03 0.  0.
          4    1    1    2  501    0 -0.88758493074E+02 -0.12352503590E+03  0.33887352495E+02  0.15583599470E+03  0.00000000000E+00 0.  1.
         -4    1    1    2    0  503  0.79388514502E+01 -0.67033386126E+02 -0.21005810327E+00  0.67502180278E+02  0.00000000000E+00 0. -1.
<mgrwt>
<rscale>  4 0.24180431E+03</rscale>
<asrwt>0</asrwt>
<pdfrwt beam="1">  1       21 0.26854024E-01 0.24180431E+03</pdfrwt>
<pdfrwt beam="2">  1       21 0.63430597E-01 0.24180431E+03</pdfrwt>
<totfact> 0.29595434E+04</totfact>
</mgrwt>
</event>
<event>
 5    0  0.2178600E-002  0.2089925E+03  0.7546771E-02  0.1142366E+00
         21   -1    0    0  501  502  0.00000000000E+00  0.00000000000E+00  0.32248849984E+03  0.32248849984E+03  0.00000000000E+00 0.  1.
         21   -1    0    0  502  503 -0.00000000000E+00 -0.00000000000E+00 -0.27538768230E+03  0.27538768230E+03  0.00000000000E+00 0.  1.
         25    1    1    2    0    0  0.17546157074E+03  0.97130060536E+02 -0.26103793856E+01  0.23633202395E+03  0.12500000000E+03 0.  0.
          3    1    1    2  501    0 -0.10429578871E+03 -0.12256729016E+03  0.16059357303E+03  0.22735577376E+03  0.00000000000E+00 0.  1.
         -3    1    1    2    0  503 -0.71165782024E+02  0.25437229623E+02 -0.11088237611E+03  0.13418838442E+03  0.00000000000E+00 0. -1.
<mgrwt>
<rscale>  4 0.20899251E+03</rscale>
<asrwt>0</asrwt>
<pdfrwt beam="1">  1       21 0.49613615E-01 0.20899251E+03</pdfrwt>
<pdfrwt beam="2">  1       21 0.42367336E-01 0.20899251E+03</pdfrwt>
<totfact> 0.20558358E+04</totfact>
</mgrwt>
</event>
<event>
 5    0  0.1972558E-002  0.3480021E+03  0.7546771E-02  0.1063438E+00
         21   -1    0    0  501  502  0.00000000000E+00  0.00000000000E+00  0.19329156093E+04  0.19329156093E+04  0.00000000000E+00 0. -1.
         21   -1    0    0  502  503 -0.00000000000E+00 -0.00000000000E+00 -0.27749982694E+03  0.27749982694E+03  0.00000000000E+00 0. -1.
         25    1    1    2    0    0  0.27382254823E+01 -0.35507496992E+03 -0.83747606180E+02  0.38564801787E+03  0.12500000000E+03 0.  0.
          1    1    1    2  501    0  0.88645700557E+02  0.31128276351E+03  0.16723658634E+04  0.17033973700E+04  0.00000000000E+00 0. -1.
         -1    1    1    2    0  503 -0.91383926040E+02  0.43792206411E+02  0.66797525168E+02  0.12137004840E+03  0.00000000000E+00 0.  1.
<mgrwt>
<rscale>  4 0.34800209E+03</rscale>
<asrwt>0</asrwt>
<pdfrwt beam="1">  1       21 0.29737162E+00 0.34800209E+03</pdfrwt>
<pdfrwt beam="2">  1       21 0.42692282E-01 0.34800209E+03</pdfrwt>
<totfact> 0.15639382E+02</totfact>
</mgrwt>
</event>
<event>
 5    0  0.1972558E-002  0.2493615E+03  0.7546771E-02  0.1113709E+00
         21   -1    0    0  501  502  0.00000000000E+00  0.00000000000E+00  0.32445210128E+03  0.32445210128E+03  0.00000000000E+00 0. -1.
         21   -1    0    0  502  503 -0.00000000000E+00 -0.00000000000E+00 -0.30363348649E+03  0.30363348649E+03  0.00000000000E+00 0.  1.
         25    1    1    2    0    0 -0.16340168353E+03  0.11848098742E+03 -0.16699256554E+03  0.29025742283E+03  0.12500000000E+03 0.  0.
          2    1    1    2  501    0  0.20062107602E+03 -0.89364786514E+02  0.19016769678E+03  0.29051443012E+03  0.00000000000E+00 0. -1.
         -2    1    1    2    0  503 -0.37219392495E+02 -0.29116200909E+02 -0.23565164377E+01  0.47313734822E+02  0.00000000000E+00 0.  1.
<mgrwt>
<rscale>  4 0.24936149E+03</rscale>
<asrwt>0</asrwt>
<pdfrwt beam="1">  1       21 0.49915708E-01 0.24936149E+03</pdfrwt>
<pdfrwt beam="2">  1       21 0.46712844E-01 0.24936149E+03</pdfrwt>
<totfact> 0.16245816E+04</totfact>
</mgrwt>
</event>
<event>
 5    0  0.1972558E-002  0.4359073E+03  0.7546771E-02  0.1032010E+00
         21   -1    0    0  501  502  0.00000000000E+00  0.00000000000E+00  0.15534254574E+03  0.15534254574E+03  0.00000000000E+00 0.  1.
         21   -1    0    0  502  503 -0.00000000000E+00 -0.00000000000E+00 -0.15391417401E+04  0.15391417401E+04  0.00000000000E+00 0. -1.
         25    1    1    2    0    0  0.38965854835E+03 -0.16088394496E+03 -0.98172812195E+03  0.10757009498E+04  0.12500000000E+03 0.  0.
          2    1    1    2  501    0 -0.36177488068E+03  0.19664986623E+03 -0.39893394992E+03  0.57332410605E+03  0.00000000000E+00 0.  1.
         -2    1    1    2    0  503 -0.27883667676E+02 -0.35765921263E+02 -0.31371224457E+01  0.45459229911E+02  0.00000000000E+00 0. -1.
<mgrwt>
<rscale>  4 0.43590734E+03</rscale>
<asrwt>0</asrwt>
<pdfrwt beam="1">  1       21 0.23898855E-01 0.43590734E+03</pdfrwt>
<pdfrwt beam="2">  1       21 0.23679102E+00 0.43590734E+03</pdfrwt>
<totfact> 0.10932650E+03</totfact>
</mgrwt>
</event>
<event>
 5    0  0.1972558E-002  0.2569997E+03  0.7546771E-02  0.1108959E+00
         21   -1    0    0  501  502  0.00000000000E+00  0.00000000000E+00  0.44312599607E+03  0.44312599607E+03  0.00000000000E+00 0. -1.
         21   -1    0    0  502  503 -0.00000000000E+00 -0.00000000000E+00 -0.57842634732E+03  0.57842634732E+03  0.00000000000E+00 0. -1.
         25    1    1    2    0    0  0.11814644852E+03 -0.17490437473E+03  0.17756463696E+03  0.30282721789E+03  0.12500000000E+03 0.  0.
          2    1    1    2  501    0  0.21795176184E+02 -0.25537892241E+01  0.17746629428E+03  0.17881788823E+03  0.00000000000E+00 0.  1.
         -2    1    1    2    0  503 -0.13994162470E+03  0.17745816396E+03 -0.49033128249E+03  0.53990723728E+03  0.00000000000E+00 0. -1.
<mgrwt>
<rscale>  4 0.25699971E+03</rscale>
<asrwt>0</asrwt>
<pdfrwt beam="1">  1       21 0.68173230E-01 0.25699971E+03</pdfrwt>
<pdfrwt beam="2">  1       21 0.88988669E-01 0.25699971E+03</pdfrwt>
<totfact> 0.20117446E+03</totfact>
</mgrwt>
</event>
<event>
 5    0  0.1972558E-002  0.3346137E+03  0.7546771E-02  0.1069114E+00
         21   -1    0    0  501  502  0.00000000000E+00  0.00000000000E+00  0.30031388482E+03  0.30031388482E+03  0.00000000000E+00 0.  1.
         21   -1    0    0  502  503 -0.00000000000E+00 -0.00000000000E+00 -0.75325455449E+03  0.75325455449E+03  0.00000000000E+00 0.  1.
         25    1    1    2    0    0 -0.35993998136E+03 -0.15604845571E+03 -0.30399123119E+03  0.51180423928E+03  0.12500000000E+03 0.  0.
          1    1    1    2  501    0  0.26669681458E+03  0.30681122219E+02 -0.24071125186E+03  0.36056958959E+03  0.00000000000E+00 0. -1.
         -1    1    1    2    0  503  0.93243166781E+02  0.12536733349E+03  0.91761813380E+02  0.18119461044E+03  0.00000000000E+00 0.  1.
<mgrwt>
<rscale>  4 0.33461368E+03</rscale>
<asrwt>0</asrwt>
<pdfrwt beam="1">  1       21 0.46202136E-01 0.33461368E+03</pdfrwt>
<pdfrwt beam="2">  1       21 0.11588532E+00 0.33461368E+03</pdfrwt>
<totfact> 0.23442159E+03</totfact>
</mgrwt>
</event>
<event>
 5    0  0.1972558E-002  0.3354012E+03  0.7546771E-02  0.1068772E+00
         21   -1    0    0  501  502  0.00000000000E+00  0.00000000000E+00  0.14512361966E+04  0.14512361966E+04  0.00000000000E+00 0.  1.
         21   -1    0    0  502  503 -0.00000000000E+00 -0.00000000000E+00 -0.38970140554E+03  0.38970140554E+03  0.00000000000E+00 0. -1.
         25    1    1    2    0    0 -0.26978469953E+03  0.18976344196E+03 -0.14023644436E+03  0.37958557445E+03  0.12500000000E+03 0.  0.
          4    1    1    2  501    0  0.17443973733E+03 -0.23695156463E+03  0.42594418929E+02  0.29730380163E+03  0.00000000000E+00 0. -1.
         -4    1    1    2    0  503  0.95344962195E+02  0.47188122668E+02  0.11591768165E+04  0.11640482260E+04  0.00000000000E+00 0.  1.
<mgrwt>
<rscale>  4 0.33540116E+03</rscale>
<asrwt>0</asrwt>
<pdfrwt beam="1">  1       21 0.22326710E+00 0.33540116E+03</pdfrwt>
<pdfrwt beam="2">  1       21 0.59954063E-01 0.33540116E+03</pdfrwt>
<totfact> 0.21562944E+02</totfact>
</mgrwt>
</event>
<event>
 5    0  0.2361038E-002  0.2974026E+03  0.7546771E-02  0.1086546E+00
         21   -1    0    0  501  502  0.00000000000E+00  0.00000000000E+00  0.95253839708E+03  0.95253839708E+03  0.00000000000E+00 0.  1.
         21   -1    0    0  502  503 -0.00000000000E+00 -0.00000000000E+00 -0.17740472798E+03  0.17740472798E+03  0.00000000000E+00 0. -1.
         25    1    1    2    0    0 -0.43972907856E+02 -0.19885782989E+03  0.75656577662E+02  0.25065308871E+03  0.12500000000E+03 0.  0.
          4    1    1    2  501    0  0.32855005348E+02  0.28954741137E+03  0.72752338922E+03  0.78371387424E+03  0.00000000000E+00 0.  1.
         -4    1    1    2    0  503  0.11117902507E+02 -0.90689581479E+02 -0.28046297785E+02  0.95576162114E+02  0.00000000000E+00 0. -1.
<mgrwt>
<rscale>  4 0.29740260E+03</rscale>
<asrwt>0</asrwt>
<pdfrwt beam="1">  1       21 0.14654437E+00 0.29740260E+03</pdfrwt>
<pdfrwt beam="2">  1       21 0.27293036E-01 0.29740260E+03</pdfrwt>
<totfact> 0.37759429E+03</totfact>
</mgrwt>
</event>
<event>
 5    0  0.1972558E-002  0.2356175E+03  0.7546771E-02  0.1122747E+00
         21   -1    0    0  501  502  0.00000000000E+00  0.00000000000E+00  0.68215132941E+03  0.68215132941E+03  0.00000000000E+00 0.  1.
         21   -1    0    0  502  503 -0.00000000000E+00 -0.00000000000E+00 -0.35475181571E+03  0.35475181571E+03  0.00000000000E+00 0. -1.
         25    1    1    2    0    0 -0.20108411123E+03 -0.89549005976E+01 -0.28921093661E+03  0.37387561553E+03  0.12500000000E+03 0.  0.
          1    1    1    2  501    0  0.18204938609E+03  0.47357700021E+02  0.39747611507E+03  0.43974082455E+03  0.00000000000E+00 0.  1.
         -1    1    1    2    0  503  0.19034725144E+02 -0.38402799424E+02  0.21913433524E+03  0.22328670504E+03  0.00000000000E+00 0. -1.
<mgrwt>
<rscale>  4 0.23561755E+03</rscale>
<asrwt>0</asrwt>
<pdfrwt beam="1">  1       21 0.10494636E+00 0.23561755E+03</pdfrwt>
<pdfrwt beam="2">  1       21 0.54577202E-01 0.23561755E+03</pdfrwt>
<totfact> 0.22375430E+03</totfact>
</mgrwt>
</event>
<event>
 5    0  0.1972558E-002  0.3830254E+03  0.7546771E-02  0.1049821E+00
         21   -1    0    0  501  502  0.00000000000E+00  0.00000000000E+00  0.89617862038E+03  0.89617862038E+03  0.00000000000E+00 0.  1.
         21   -1    0    0  502  503 -0.00000000000E+00 -0.00000000000E+00 -0.18361135886E+03  0.18361135886E+03  0.00000000000E+00 0.  1.
         25    1    1    2    0    0 -0.28073734670E+03  0.24232223046E+03  0.37742782252E+03  0.54370054480E+03  0.12500000000E+03 0.  0.
          2    1    1    2  501    0  0.23083342484E+02  0.35421264099E+01  0.11512810225E+03  0.11747283638E+03  0.00000000000E+00 0. -1.
         -2    1    1    2    0  503  0.25765400421E+03 -0.24586435687E+03  0.22001133675E+03  0.41861659805E+03  0.00000000000E+00 0.  1.
<mgrwt>
<rscale>  4 0.38302540E+03</rscale>
<asrwt>0</asrwt>
<pdfrwt beam="1">  1       21 0.13787363E+00 0.38302540E+03</pdfrwt>
<pdfrwt beam="2">  1       21 0.28247902E-01 0.38302540E+03</pdfrwt>
<totfact> 0.39778191E+03</totfact>
</mgrwt>
</event>
<event>
 5    0  0.1972558E-002  0.2918163E+03  0.7546771E-02  0.1089405E+00
         21   -1    0    0  501  502  0.00000000000E+00  0.00000000000E+00  0.19193320674E+03  0.19193320674E+03  0.00000000000E+00 0. -1.
         21   -1    0    0  502  503 -0.00000000000E+00 -0.00000000000E+00 -0.57933467931E+03  0.57933467931E+03  0.00000000000E+00 0. -1.
         25    1    1    2    0    0 -0.25802060074E+03  0.72401082331E+02 -0.36049061069E+03  0.46625639677E+03  0.12500000000E+03 0.  0.
          2    1    1    2  501    0  0.24613299813E+03 -0.91473973086E+02  0.89005318175E+01  0.26273210688E+03  0.00000000000E+00 0. -1.
         -2    1    1    2    0  503  0.11887602613E+02  0.19072890755E+02 -0.35811393694E+02  0.42279382398E+02  0.00000000000E+00 0.  1.
<mgrwt>
<rscale>  4 0.29181634E+03</rscale>
<asrwt>0</asrwt>
<pdfrwt beam="1">  1       21 0.29528186E-01 0.29181634E+03</pdfrwt>
<pdfrwt beam="2">  1       21 0.89128412E-01 0.29181634E+03</pdfrwt>
<totfact> 0.11161270E+04</totfact>
</mgrwt>
</event>
<event>
 5    0  0.1972558E-002  0.2472213E+03  0.7546771E-02  0.1115074E+00
         21   -1    0    0  501  502  0.00000000000E+00  0.00000000000E+00  0.25554542752E+03  0.25554542752E+03  0.00000000000E+00 0. -1.
         21   -1    0    0  502  503 -0.00000000000E+00 -0.00000000000E+00 -0.34581578392E+03  0.34581578392E+03  0.00000000000E+00 0.  1.
         25    1    1    2    0    0  0.15084632835E+01  0.22077344597E+03 -0.21004376834E+03  0.32937300212E+03  0.12500000000E+03 0.  0.
          3    1    1    2  501    0  0.36847323648E+02 -0.19323793698E+03  0.91545456268E+02  0.21697740922E+03  0.00000000000E+00 0. -1.
         -3    1    1    2    0  503 -0.38355786931E+02 -0.27535508991E+02  0.28227955674E+02  0.55010800104E+02  0.00000000000E+00 0.  1.
<mgrwt>
<rscale>  4 0.24722129E+03</rscale>
<asrwt>0</asrwt>
<pdfrwt beam="1">  1       21 0.39314681E-01 0.24722129E+03</pdfrwt>
<pdfrwt beam="2">  1       21 0.53202428E-01 0.24722129E+03</pdfrwt>
<totfact> 0.20254681E+04</totfact>
</mgrwt>
</event>
<event>
 5    0  0.1972558E-002  0.2942760E+03  0.7546771E-02  0.1088138E+00
         21   -1    0    0  501  502  0.00000000000E+00  0.00000000000E+00  0.47917777012E+03  0.47917777012E+03  0.00000000000E+00 0. -1.
         21   -1    0    0  502  503 -0.00000000000E+00 -0.00000000000E+00 -0.22311724312E+04  0.22311724312E+04  0.00000000000E+00 0.  1.
         25    1    1    2    0    0  0.25890692854E+03 -0.85574177795E+02 -0.21714561992E+04  0.21920772711E+04  0.12500000000E+03 0.  0.
          3    1    1    2  501    0 -0.15971079276E+03  0.33394546743E+02  0.13246318748E+03  0.21016476659E+03  0.00000000000E+00 0.  1.
         -3    1    1    2    0  503 -0.99196135779E+02  0.52179631052E+02  0.28699835061E+03  0.30810816364E+03  0.00000000000E+00 0. -1.
<mgrwt>
<rscale>  4 0.29427595E+03</rscale>
<asrwt>0</asrwt>
<pdfrwt beam="1">  1       21 0.73719657E-01 0.29427595E+03</pdfrwt>
<pdfrwt beam="2">  1       21 0.34325729E+00 0.29427595E+03</pdfrwt>
<totfact> 0.27155260E+01</totfact>
</mgrwt>
</event>
<event>
 5    0  0.1972558E-002  0.2575443E+03  0.7546771E-02  0.1108628E+00
         21   -1    0    0  501  502  0.00000000000E+00  0.00000000000E+00  0.46122272800E+03  0.46122272800E+03  0.00000000000E+00 0.  1.
         21   -1    0    0  502  503 -0.00000000000E+00 -0.00000000000E+00 -0.16190383033E+03  0.16190383033E+03  0.00000000000E+00 0.  1.
         25    1    1    2    0    0 -0.15256860288E+03 -0.16935373894E+03  0.82121540419E+02  0.27262944609E+03  0.12500000000E+03 0.  0.
          1    1    1    2  501    0 -0.21383507834E+02  0.28915478226E+02  0.81218637725E+02  0.88824694777E+02  0.00000000000E+00 0. -1.
         -1    1    1    2    0  503  0.17395211071E+03  0.14043826072E+03  0.13597871953E+03  0.26167241746E+03  0.00000000000E+00 0.  1.
<mgrwt>
<rscale>  4 0.25754434E+03</rscale>
<asrwt>0</asrwt>
<pdfrwt beam="1">  1       21 0.70957342E-01 0.25754434E+03</pdfrwt>
<pdfrwt beam="2">  1       21 0.24908282E-01 0.25754434E+03</pdfrwt>
<totfact> 0.26534500E+04</totfact>
</mgrwt>
</event>
<event>
 5    0  0.1972558E-002  0.2508241E+03  0.7546771E-02  0.1112785E+00
         21   -1    0    0  501  502  0.00000000000E+00  0.00000000000E+00  0.16616451150E+03  0.16616451150E+03  0.00000000000E+00 0.  1.
         21   -1    0    0  502  503 -0.00000000000E+00 -0.00000000000E+00 -0.75147129986E+03  0.75147129986E+03  0.00000000000E+00 0. -1.
         25    1    1    2    0    0 -0.21267591274E+03  0.67922143294E+02 -0.51045388348E+03  0.57099266946E+03  0.12500000000E+03 0.  0.
          4    1    1    2  501    0  0.19071321687E+03 -0.83585201743E+02 -0.15661240274E+03  0.26054838655E+03  0.00000000000E+00 0.  1.
         -4    1    1    2    0  503  0.21962695871E+02  0.15663058449E+02  0.81759497862E+02  0.86094755360E+02  0.00000000000E+00 0. -1.
<mgrwt>
<rscale>  4 0.25082407E+03</rscale>
<asrwt>0</asrwt>
<pdfrwt beam="1">  1       21 0.25563771E-01 0.25082407E+03</pdfrwt>
<pdfrwt beam="2">  1       21 0.11561097E+00 0.25082407E+03</pdfrwt>
<totfact> 0.80787767E+03</totfact>
</mgrwt>
</event>
<event>
 5    0  0.1972558E-002  0.2576090E+03  0.7546771E-02  0.1108588E+00
         21   -1    0    0  501  502  0.00000000000E+00  0.00000000000E+00  0.15615337924E+03  0.15615337924E+03  0.00000000000E+00 0.  1.
         21   -1    0    0  502  503 -0.00000000000E+00 -0.00000000000E+00 -0.10121708614E+04  0.10121708614E+04  0.00000000000E+00 0. -1.
         25    1    1    2    0    0 -0.49056466134E+02  0.21870320401E+03 -0.78529837457E+03  0.82616957425E+03  0.12500000000E+03 0.  0.
          2    1    1    2  501    0 -0.29341329432E+02 -0.22697298248E+01  0.67510263168E+02  0.73645780051E+02  0.00000000000E+00 0. -1.
         -2    1    1    2    0  503  0.78397795566E+02 -0.21643347418E+03 -0.13822937074E+03  0.26850888632E+03  0.00000000000E+00 0.  1.
<mgrwt>
<rscale>  4 0.25760899E+03</rscale>
<asrwt>0</asrwt>
<pdfrwt beam="1">  1       21 0.24023597E-01 0.25760899E+03</pdfrwt>
<pdfrwt beam="2">  1       21 0.15571859E+00 0.25760899E+03</pdfrwt>
<totfact> 0.42081598E+03</totfact>
</mgrwt>
</event>
<event>
 5    0  0.1972558E-002  0.1992069E+03  0.7546771E-02  0.1150410E+00
         21   -1    0    0  501  502  0.00000000000E+00  0.00000000000E+00  0.56063097977E+03  0.56063097977E+03  0.00000000000E+00 0.  1.
         21   -1    0    0  502  503 -0.00000000000E+00 -0.00000000000E+00 -0.25013142860E+03  0.25013142860E+03  0.00000000000E+00 0. -1.
         25    1    1    2    0    0 -0.20729961493E+03 -0.12183867470E+01 -0.89038210688E+02  0.25792909448E+03  0.12500000000E+03 0.  0.
          1    1    1    2  501    0  0.90976819872E+02 -0.45303980110E+02  0.41439352749E+03  0.42667461606E+03  0.00000000000E+00 0.  1.
         -1    1    1    2    0  503  0.11632279506E+03  0.46522366857E+02 -0.14855765629E+02  0.12615869784E+03  0.00000000000E+00 0. -1.
<mgrwt>
<rscale>  4 0.19920693E+03</rscale>
<asrwt>0</asrwt>
<pdfrwt beam="1">  1       21 0.86250920E-01 0.19920693E+03</pdfrwt>
<pdfrwt beam="2">  1       21 0.38481758E-01 0.19920693E+03</pdfrwt>
<totfact> 0.75097784E+03</totfact>
</mgrwt>
</event>
<event>
 5    0  0.1972558E-002  0.2421800E+03  0.7546771E-02  0.1118349E+00
         21   -1    0    0  503  502  0.00000000000E+00  0.00000000000E+00  0.60436923364E+03  0.60436923364E+03  0.00000000000E+00 0. -1.
         21   -1    0    0  501  503 -0.00000000000E+00 -0.00000000000E+00 -0.15660481157E+03  0.15660481157E+03  0.00000000000E+00 0. -1.
         25    1    1    2    0    0  0.44967038397E+02  0.24090564517E+03  0.11646889498E+03  0.29874331443E+03  0.12500000000E+03 0.  0.
          4    1    1    2  501    0 -0.10577141118E+03 -0.49817255130E+02  0.84596148536E+02  0.14431167201E+03  0.00000000000E+00 0.  1.
         -4    1    1    2    0  502  0.60804372782E+02 -0.19108839004E+03  0.24669937855E+03  0.31791905877E+03  0.00000000000E+00 0. -1.
<mgrwt>
<rscale>  4 0.24218001E+03</rscale>
<asrwt>0</asrwt>
<pdfrwt beam="1">  1       21 0.92979881E-01 0.24218001E+03</pdfrwt>
<pdfrwt beam="2">  1       21 0.24093048E-01 0.24218001E+03</pdfrwt>
<totfact> 0.15367909E+04</totfact>
</mgrwt>
</event>
<event>
 5    0  0.1972558E-002  0.2450912E+03  0.7546771E-02  0.1116447E+00
         21   -1    0    0  501  502  0.00000000000E+00  0.00000000000E+00  0.66403700915E+03  0.66403700915E+03  0.00000000000E+00 0. -1.
         21   -1    0    0  502  503 -0.00000000000E+00 -0.00000000000E+00 -0.81311441566E+03  0.81311441566E+03  0.00000000000E+00 0. -1.
         25    1    1    2    0    0 -0.19570961044E+03 -0.78184383146E+02 -0.75333569470E+03  0.79218351301E+03  0.12500000000E+03 0.  0.
          3    1    1    2  501    0  0.18547627779E+03  0.10643611380E+03  0.24808984093E+03  0.32753421976E+03  0.00000000000E+00 0.  1.
         -3    1    1    2    0  503  0.10233332655E+02 -0.28251730650E+02  0.35616844725E+03  0.35743369203E+03  0.00000000000E+00 0. -1.
<mgrwt>
<rscale>  4 0.24509124E+03</rscale>
<asrwt>0</asrwt>
<pdfrwt beam="1">  1       21 0.10215954E+00 0.24509124E+03</pdfrwt>
<pdfrwt beam="2">  1       21 0.12509453E+00 0.24509124E+03</pdfrwt>
<totfact> 0.35151895E+02</totfact>
</mgrwt>
</event>
<event>
 5    0  0.1972558E-002  0.2847376E+03  0.7546771E-02  0.1093129E+00
         21   -1    0    0  501  502  0.00000000000E+00  0.00000000000E+00  0.19086720359E+04  0.19086720359E+04  0.00000000000E+00 0. -1.
         21   -1    0    0  502  503 -0.00000000000E+00 -0.00000000000E+00 -0.20786063164E+03  0.20786063164E+03  0.00000000000E+00 0.  1.
         25    1    1    2    0    0 -0.55680149453E+02  0.25472404933E+03 -0.86787159067E+02  0.30189672295E+03  0.12500000000E+03 0.  0.
          4    1    1    2  501    0  0.19406819793E+02 -0.42646516722E+02  0.90420845987E+03  0.90542160839E+03  0.00000000000E+00 0. -1.
         -4    1    1    2    0  503  0.36273329661E+02 -0.21207753260E+03  0.88339010345E+03  0.90921433620E+03  0.00000000000E+00 0.  1.
<mgrwt>
<rscale>  4 0.28473759E+03</rscale>
<asrwt>0</asrwt>
<pdfrwt beam="1">  1       21 0.29364184E+00 0.28473759E+03</pdfrwt>
<pdfrwt beam="2">  1       21 0.31978560E-01 0.28473759E+03</pdfrwt>
<totfact> 0.31250070E+02</totfact>
</mgrwt>
</event>
