<event>
 5    0  0.2159162E+000  0.6155002E+03  0.7546771E-02  0.9878943E-01
         21   -1    0    0  502  501  0.00000000000E+00  0.00000000000E+00  0.10531624751E+04  0.10531624751E+04  0.00000000000E+00 0.  1.
         21   -1    0    0  503  502 -0.00000000000E+00 -0.00000000000E+00 -0.77674703238E+03  0.77674703238E+03  0.00000000000E+00 0.  1.
         25    1    1    2    0    0 -0.19333497215E+03 -0.55977924736E+03  0.81285134178E+03  0.10134512919E+04  0.12500000000E+03 0.  0.
         21    1    1    2  503  504  0.74174188225E+02  0.57997503737E+02 -0.46123408946E+02  0.10484698132E+03  0.00000000000E+00 0. -1.
         21    1    1    2  504  501  0.11916078393E+03  0.50178174363E+03 -0.49031249015E+03  0.71161123422E+03  0.00000000000E+00 0.  1.
<mgrwt>
<rscale>  4 0.61292751E+03</rscale>
<asrwt>0</asrwt>
<pdfrwt beam="1">  1       21 0.16202500E+00 0.61550024E+03</pdfrwt>
<pdfrwt beam="2">  1       21 0.11949954E+00 0.61550024E+03</pdfrwt>
<totfact> 0.96334070E+01</totfact>
</mgrwt>
</event>
<event>
 5    0  0.2159162E+000  0.2381408E+03  0.7546771E-02  0.1121038E+00
         21   -1    0    0  502  501  0.00000000000E+00  0.00000000000E+00  0.48619298088E+03  0.48619298088E+03  0.00000000000E+00 0.  1.
         21   -1    0    0  503  502 -0.00000000000E+00 -0.00000000000E+00 -0.38725612041E+03  0.38725612041E+03  0.00000000000E+00 0. -1.
         25    1    1    2    0    0  0.34276969257E+01 -0.20447475258E+03  0.41513860735E+03  0.47936075858E+03  0.12500000000E+03 0.  0.
         21    1    1    2  503  504  0.16874868783E+02  0.21397268870E+02  0.10148788716E+01  0.27269658792E+02  0.00000000000E+00 0.  1.
         21    1    1    2  504  501 -0.20302565709E+02  0.18307748371E+03 -0.31721662575E+03  0.36681868392E+03  0.00000000000E+00 0. -1.
<mgrwt>
<rscale>  4 0.23814079E+03</rscale>
<asrwt>0</asrwt>
<pdfrwt beam="1">  1       21 0.74798920E-01 0.23814079E+03</pdfrwt>
<pdfrwt beam="2">  1       21 0.59577865E-01 0.23814079E+03</pdfrwt>
<totfact> 0.40671973E+03</totfact>
</mgrwt>
</event>
<event>
 5    0  0.2159162E+000  0.3650314E+03  0.7546771E-02  0.1056609E+00
         21   -1    0    0  502  501  0.00000000000E+00  0.00000000000E+00  0.59885566452E+03  0.59885566452E+03  0.00000000000E+00 0. -1.
         21   -1    0    0  503  502 -0.00000000000E+00 -0.00000000000E+00 -0.40375709092E+03  0.40375709092E+03  0.00000000000E+00 0. -1.
         25    1    1    2    0    0  0.75307060350E+02  0.41093762585E+03  0.28262010521E+03  0.51965374005E+03  0.12500000000E+03 0.  0.
         21    1    1    2  503  504 -0.27809611520E+02 -0.90114786242E+02  0.74720980943E+02  0.12032154498E+03  0.00000000000E+00 0. -1.
         21    1    1    2  504  501 -0.47497448830E+02 -0.32082283961E+03 -0.16224251256E+03  0.36263747041E+03  0.00000000000E+00 0. -1.
<mgrwt>
<rscale>  4 0.36503138E+03</rscale>
<asrwt>0</asrwt>
<pdfrwt beam="1">  1       21 0.92131641E-01 0.36503138E+03</pdfrwt>
<pdfrwt beam="2">  1       21 0.62116475E-01 0.36503138E+03</pdfrwt>
<totfact> 0.21411525E+03</totfact>
</mgrwt>
</event>
<event>
 5    0  0.2159162E+000  0.2559769E+03  0.7546771E-02  0.1109585E+00
         21   -1    0    0  502  501  0.00000000000E+00  0.00000000000E+00  0.22288369558E+04  0.22288369558E+04  0.00000000000E+00 0.  1.
         21   -1    0    0  503  502 -0.00000000000E+00 -0.00000000000E+00 -0.28950611635E+02  0.28950611635E+02  0.00000000000E+00 0.  1.
         25    1    1    2    0    0 -0.19181503704E+03  0.11448204821E+03  0.15100411378E+04  0.15315836201E+04  0.12500000000E+03 0.  0.
         21    1    1    2  503  504  0.14970748209E+03 -0.96384211865E+02  0.49524008738E+03  0.52627463423E+03  0.00000000000E+00 0.  1.
         21    1    1    2  504  501  0.42107554953E+02 -0.18097836342E+02  0.19460511901E+03  0.19992931303E+03  0.00000000000E+00 0.  1.
<mgrwt>
<rscale>  4 0.25597685E+03</rscale>
<asrwt>0</asrwt>
<pdfrwt beam="1">  1       21 0.34289786E+00 0.25597685E+03</pdfrwt>
<pdfrwt beam="2">  1       21 0.44539420E-02 0.25597685E+03</pdfrwt>
<totfact> 0.58835281E+03</totfact>
</mgrwt>
</event>
<event>
 5    0  0.2159162E+000  0.2355037E+03  0.7546771E-02  0.1122825E+00
         21   -1    0    0  502  501  0.00000000000E+00  0.00000000000E+00  0.75298595718E+03  0.75298595718E+03  0.00000000000E+00 0.  1.
         21   -1    0    0  503  502 -0.00000000000E+00 -0.00000000000E+00 -0.17785729335E+04  0.17785729335E+04  0.00000000000E+00 0. -1.
         25    1    1    2    0    0  0.18019539533E+03  0.88663200003E+02  0.72096044826E+03  0.75877566611E+03  0.12500000000E+03 0.  0.
         21    1    1    2  503  504 -0.71563809947E+02 -0.85751704578E+02 -0.14898523408E+04  0.14940330421E+04  0.00000000000E+00 0. -1.
         21    1    1    2  504  501 -0.10863158538E+03 -0.29114954253E+01 -0.25669508376E+03  0.27875018238E+03  0.00000000000E+00 0. -1.
<mgrwt>
<rscale>  4 0.23550369E+03</rscale>
<asrwt>0</asrwt>
<pdfrwt beam="1">  1       21 0.11584399E+00 0.23550369E+03</pdfrwt>
<pdfrwt beam="2">  1       21 0.27362660E+00 0.23550369E+03</pdfrwt>
<totfact> 0.26018585E+01</totfact>
</mgrwt>
</event>
<event>
 5    0  0.2159162E+000  0.6629824E+03  0.7546771E-02  0.9782719E-01
         21   -1    0    0  502  501  0.00000000000E+00  0.00000000000E+00  0.60230179932E+03  0.60230179932E+03  0.00000000000E+00 0. -1.
         21   -1    0    0  503  502 -0.00000000000E+00 -0.00000000000E+00 -0.72598141279E+03  0.72598141279E+03  0.00000000000E+00 0. -1.
         25    1    1    2    0    0  0.57790701341E+03  0.29990686459E+03 -0.51919610179E+02  0.66501224763E+03  0.12500000000E+03 0.  0.
         21    1    1    2  503  504 -0.33705407968E+02 -0.44295882157E+02  0.98146045783E+01  0.56519962538E+02  0.00000000000E+00 0. -1.
         21    1    1    2  504  501 -0.54420160544E+03 -0.25561098243E+03 -0.81574607868E+02  0.60675100194E+03  0.00000000000E+00 0. -1.
<mgrwt>
<rscale>  4 0.66298239E+03</rscale>
<asrwt>0</asrwt>
<pdfrwt beam="1">  1       21 0.92661815E-01 0.66298239E+03</pdfrwt>
<pdfrwt beam="2">  1       21 0.11168945E+00 0.66298239E+03</pdfrwt>
<totfact> 0.47881609E+02</totfact>
</mgrwt>
</event>
<event>
 5    0  0.2159162E+000  0.2366255E+03  0.7546771E-02  0.1122061E+00
         21   -1    0    0  502  501  0.00000000000E+00  0.00000000000E+00  0.11381443993E+03  0.11381443993E+03  0.00000000000E+00 0.  1.
         21   -1    0    0  503  502 -0.00000000000E+00 -0.00000000000E+00 -0.43772454915E+03  0.43772454915E+03  0.00000000000E+00 0.  1.
         25    1    1    2    0    0  0.17036868318E+03  0.10649468317E+03 -0.18816168103E+03  0.30231841485E+03  0.12500000000E+03 0.  0.
         21    1    1    2  503  504 -0.10891304233E+03 -0.50304771975E+02 -0.10807658404E+03  0.16147188266E+03  0.00000000000E+00 0.  1.
         21    1    1    2  504  501 -0.61455640846E+02 -0.56189911192E+02 -0.27671844151E+02  0.87748691559E+02  0.00000000000E+00 0.  1.
<mgrwt>
<rscale>  4 0.23662545E+03</rscale>
<asrwt>0</asrwt>
<pdfrwt beam="1">  1       21 0.17509914E-01 0.23662545E+03</pdfrwt>
<pdfrwt beam="2">  1       21 0.67342238E-01 0.23662545E+03</pdfrwt>
<totfact> 0.58444749E+04</totfact>
</mgrwt>
</event>
<event>
 5    0  0.2159162E+000  0.2422361E+03  0.7546771E-02  0.1118312E+00
         21   -1    0    0  502  501  0.00000000000E+00  0.00000000000E+00  0.52275097312E+03  0.52275097312E+03  0.00000000000E+00 0. -1.
         21   -1    0    0  503  502 -0.00000000000E+00 -0.00000000000E+00 -0.78725568441E+03  0.78725568441E+03  0.00000000000E+00 0. -1.
         25    1    1    2    0    0  0.56692027386E+02 -0.20924342485E+03  0.47072409475E+03  0.53310690315E+03  0.12500000000E+03 0.  0.
         21    1    1    2  503  504 -0.27698592710E+02  0.12922753724E+03 -0.23615889985E+03  0.27062519173E+03  0.00000000000E+00 0. -1.
         21    1    1    2  504  501 -0.28993434675E+02  0.80015887610E+02 -0.49906990619E+03  0.50627456265E+03  0.00000000000E+00 0. -1.
<mgrwt>
<rscale>  4 0.24223615E+03</rscale>
<asrwt>0</asrwt>
<pdfrwt beam="1">  1       21 0.80423227E-01 0.24223615E+03</pdfrwt>
<pdfrwt beam="2">  1       21 0.12111626E+00 0.24223615E+03</pdfrwt>
<totfact> 0.66832320E+02</totfact>
</mgrwt>
</event>
<event>
 5    0  0.2159162E+000  0.4174139E+03  0.7546771E-02  0.1037911E+00
         21   -1    0    0  502  501  0.00000000000E+00  0.00000000000E+00  0.19429124997E+04  0.19429124997E+04  0.00000000000E+00 0. -1.
         21   -1    0    0  503  502 -0.00000000000E+00 -0.00000000000E+00 -0.91913225945E+02  0.91913225945E+02  0.00000000000E+00 0. -1.
         25    1    1    2    0    0  0.20702650533E+03  0.34021962920E+03  0.11652691080E+04  0.12377748034E+04  0.12500000000E+03 0.  0.
         21    1    1    2  503  504 -0.18043951001E+03 -0.33004995285E+03  0.65371221549E+03  0.75420888938E+03  0.00000000000E+00 0. -1.
         21    1    1    2  504  501 -0.26586995320E+02 -0.10169676352E+02  0.32017950341E+02  0.42842032880E+02  0.00000000000E+00 0. -1.
<mgrwt>
<rscale>  4 0.41741391E+03</rscale>
<asrwt>0</asrwt>
<pdfrwt beam="1">  1       21 0.29890958E+00 0.41741391E+03</pdfrwt>
<pdfrwt beam="2">  1       21 0.14140498E-01 0.41741391E+03</pdfrwt>
<totfact> 0.12482544E+03</totfact>
</mgrwt>
</event>
