<event>
 5    0  0.1911311E+001  0.1774149E+03  0.7546771E-02  0.1170329E+00
         21   -1    0    0  502  501  0.00000000000E+00  0.00000000000E+00  0.14544677768E+04  0.14544677768E+04  0.00000000000E+00 0.  1.
         21   -1    0    0  504  502 -0.00000000000E+00 -0.00000000000E+00 -0.63446052024E+02  0.63446052024E+02  0.00000000000E+00 0.  1.
         25    1    1    2    0    0  0.13298780688E+03 -0.16811215879E+03  0.82161451733E+03  0.85826736498E+03  0.12500000000E+03 0.  0.
         21    1    1    2  503  501 -0.47706873746E+02  0.87787195719E+02  0.52489869523E+03  0.53432310243E+03  0.00000000000E+00 0.  1.
         21    1    1    2  504  503 -0.85280933136E+02  0.80324963075E+02  0.44508512183E+02  0.12532336137E+03  0.00000000000E+00 0.  1.
<mgrwt>
<rscale>  4 0.17741493E+03</rscale>
<asrwt>0</asrwt>
<pdfrwt beam="1">  1       21 0.22376425E+00 0.17741493E+03</pdfrwt>
<pdfrwt beam="2">  1       21 0.97609322E-02 0.17741493E+03</pdfrwt>
<totfact> 0.81966629E+03</totfact>
</mgrwt>
</event>
<event>
 5    0  0.1911311E+001  0.3563617E+03  0.7546771E-02  0.1060034E+00
         21   -1    0    0  504  501  0.00000000000E+00  0.00000000000E+00  0.99948815937E+02  0.99948815937E+02  0.00000000000E+00 0.  1.
         21   -1    0    0  501  502 -0.00000000000E+00 -0.00000000000E+00 -0.22413243684E+04  0.22413243684E+04  0.00000000000E+00 0. -1.
         25    1    1    2    0    0 -0.17991089518E+03 -0.24179927463E+03 -0.27855412106E+03  0.42901307413E+03  0.12500000000E+03 0.  0.
         21    1    1    2  503  502 -0.38641212911E+01 -0.45043571318E+02 -0.48778201901E+02  0.66506899876E+02  0.00000000000E+00 0. -1.
         21    1    1    2  504  503  0.18377501647E+03  0.28684284595E+03 -0.18140432295E+04  0.18457532103E+04  0.00000000000E+00 0. -1.
<mgrwt>
<rscale>  4 0.35636174E+03</rscale>
<asrwt>0</asrwt>
<pdfrwt beam="1">  1       21 0.15376742E-01 0.35636174E+03</pdfrwt>
<pdfrwt beam="2">  1       21 0.34481911E+00 0.35636174E+03</pdfrwt>
<totfact> 0.59029655E+02</totfact>
</mgrwt>
</event>
<event>
 5    0  0.1911311E+001  0.2469553E+03  0.7546771E-02  0.1115244E+00
         21   -1    0    0  504  501  0.00000000000E+00  0.00000000000E+00  0.22190577443E+03  0.22190577443E+03  0.00000000000E+00 0.  1.
         21   -1    0    0  503  502 -0.00000000000E+00 -0.00000000000E+00 -0.26364298343E+03  0.26364298343E+03  0.00000000000E+00 0.  1.
         25    1    1    2    0    0 -0.11731234015E+03  0.16855835318E+03 -0.19020724765E+02  0.24116569314E+03  0.12500000000E+03 0.  0.
         21    1    1    2  503  501 -0.21344700364E+02  0.23243343121E+01 -0.10713476798E+02  0.23995360984E+02  0.00000000000E+00 0.  1.
         21    1    1    2  504  502  0.13865704051E+03 -0.17088268749E+03 -0.12003007438E+02  0.22038770373E+03  0.00000000000E+00 0.  1.
<mgrwt>
<rscale>  4 0.24695529E+03</rscale>
<asrwt>0</asrwt>
<pdfrwt beam="1">  1       21 0.34139350E-01 0.24695529E+03</pdfrwt>
<pdfrwt beam="2">  1       21 0.40560459E-01 0.24695529E+03</pdfrwt>
<totfact> 0.47241260E+04</totfact>
</mgrwt>
</event>
<event>
 5    0  0.1911311E+001  0.2706867E+03  0.7546771E-02  0.1100887E+00
         21   -1    0    0  504  501  0.00000000000E+00  0.00000000000E+00  0.32747578224E+03  0.32747578224E+03  0.00000000000E+00 0.  1.
         21   -1    0    0  503  502 -0.00000000000E+00 -0.00000000000E+00 -0.74583771460E+03  0.74583771460E+03  0.00000000000E+00 0.  1.
         25    1    1    2    0    0  0.24736378135E+03 -0.35611994905E+00  0.22085095523E+03  0.35438554086E+03  0.12500000000E+03 0.  0.
         21    1    1    2  503  501 -0.23868852146E+03 -0.21169119985E+02 -0.65041930407E+03  0.69315626883E+03  0.00000000000E+00 0.  1.
         21    1    1    2  504  502 -0.86752598893E+01  0.21525239934E+02  0.11206416474E+02  0.25771687150E+02  0.00000000000E+00 0.  1.
<mgrwt>
<rscale>  4 0.27068671E+03</rscale>
<asrwt>0</asrwt>
<pdfrwt beam="1">  1       21 0.50380889E-01 0.27068671E+03</pdfrwt>
<pdfrwt beam="2">  1       21 0.11474426E+00 0.27068671E+03</pdfrwt>
<totfact> 0.20795368E+03</totfact>
</mgrwt>
</event>
