<event>
 5    0  0.4025551E-002  0.5340720E+03  0.7546771E-02  0.1005249E+00
         -2   -1    0    0    0  501 -0.00000000000E+00  0.00000000000E+00  0.53387838606E+02  0.53387838606E+02  0.00000000000E+00 0. -1.
          2   -1    0    0  503    0  0.00000000000E+00 -0.00000000000E+00 -0.18184914662E+04  0.18184914662E+04  0.00000000000E+00 0.  1.
         25    1    1    2    0    0 -0.11377484238E+03  0.24000159244E+03 -0.12220115619E+04  0.12567747358E+04  0.12500000000E+03 0.  0.
         21    1    1    2  502  501  0.11290212775E+03 -0.18932287913E+03 -0.50710374659E+03  0.55294145515E+03  0.00000000000E+00 0. -1.
         21    1    1    2  503  502  0.87271463279E+00 -0.50678713309E+02 -0.35988319116E+02  0.62163113872E+02  0.00000000000E+00 0. -1.
<mgrwt>
<rscale>  4 0.53407204E+03</rscale>
<asrwt>0</asrwt>
<pdfrwt beam="1">  1        2 0.27976789E+00 0.53407204E+03</pdfrwt>
<pdfrwt beam="2">  1       -2 0.82135143E-02 0.53407204E+03</pdfrwt>
<totfact> 0.82074379E+02</totfact>
</mgrwt>
</event>
<event>
 5    0  0.4025551E-002  0.4992766E+03  0.7546771E-02  0.1013968E+00
          2   -1    0    0  503    0  0.00000000000E+00  0.00000000000E+00  0.12911569598E+04  0.12911569598E+04  0.00000000000E+00 0. -1.
         -2   -1    0    0    0  501 -0.00000000000E+00 -0.00000000000E+00 -0.60493079091E+02  0.60493079091E+02  0.00000000000E+00 0.  1.
         25    1    1    2    0    0  0.15531057667E+02 -0.24693166563E+03  0.66443108326E+03  0.71993758455E+03  0.12500000000E+03 0.  0.
         21    1    1    2  502  501 -0.58953663456E+02  0.21376452669E+03  0.49081101092E+03  0.53857799412E+03  0.00000000000E+00 0. -1.
         21    1    1    2  503  502  0.43422605789E+02  0.33167138940E+02  0.75421786547E+02  0.93134460244E+02  0.00000000000E+00 0. -1.
<mgrwt>
<rscale>  4 0.49927664E+03</rscale>
<asrwt>0</asrwt>
<pdfrwt beam="1">  1        2 0.19863951E+00 0.49927664E+03</pdfrwt>
<pdfrwt beam="2">  1       -2 0.93066285E-02 0.49927664E+03</pdfrwt>
<totfact> 0.13110271E+03</totfact>
</mgrwt>
</event>
<event>
 5    0  0.4025551E-002  0.5109696E+03  0.7546771E-02  0.1010955E+00
         -2   -1    0    0    0  501 -0.00000000000E+00  0.00000000000E+00  0.35125319208E+02  0.35125319208E+02  0.00000000000E+00 0. -1.
          2   -1    0    0  502    0  0.00000000000E+00 -0.00000000000E+00 -0.18582742550E+04  0.18582742550E+04  0.00000000000E+00 0.  1.
         25    1    1    2    0    0  0.21903431157E+03  0.11109244140E+02 -0.12550969140E+04  0.12802315059E+04  0.12500000000E+03 0.  0.
         21    1    1    2  502  503 -0.44619533826E+02 -0.11336772346E+02 -0.57578949126E+02  0.73720828730E+02  0.00000000000E+00 0.  1.
         21    1    1    2  503  501 -0.17441477774E+03  0.22752820560E+00 -0.51047307264E+03  0.53944723964E+03  0.00000000000E+00 0. -1.
<mgrwt>
<rscale>  4 0.51096957E+03</rscale>
<asrwt>0</asrwt>
<pdfrwt beam="1">  1        2 0.28588842E+00 0.51096957E+03</pdfrwt>
<pdfrwt beam="2">  1       -2 0.54038938E-02 0.51096957E+03</pdfrwt>
<totfact> 0.15109889E+03</totfact>
</mgrwt>
</event>
<event>
 5    0  0.4025551E-002  0.5809281E+03  0.7546771E-02  0.9945784E-01
         -2   -1    0    0    0  501 -0.00000000000E+00  0.00000000000E+00  0.87174562878E+02  0.87174562878E+02  0.00000000000E+00 0. -1.
          2   -1    0    0  502    0  0.00000000000E+00 -0.00000000000E+00 -0.11402526998E+04  0.11402526998E+04  0.00000000000E+00 0.  1.
         25    1    1    2    0    0 -0.16414404534E+03  0.20051895761E+03 -0.49427175251E+03  0.57190968283E+03  0.12500000000E+03 0.  0.
         21    1    1    2  502  503 -0.56692325320E+01  0.38268035944E+02 -0.23498426861E+02  0.45263217268E+02  0.00000000000E+00 0.  1.
         21    1    1    2  503  501  0.16981327787E+03 -0.23878699356E+03 -0.53530795757E+03  0.61025436260E+03  0.00000000000E+00 0. -1.
<mgrwt>
<rscale>  4 0.58092809E+03</rscale>
<asrwt>0</asrwt>
<pdfrwt beam="1">  1        2 0.17542349E+00 0.58092809E+03</pdfrwt>
<pdfrwt beam="2">  1       -2 0.13411471E-01 0.58092809E+03</pdfrwt>
<totfact> 0.88097572E+02</totfact>
</mgrwt>
</event>
<event>
 5    0  0.4025551E-002  0.7363453E+03  0.7546771E-02  0.9657019E-01
         -2   -1    0    0    0  501 -0.00000000000E+00  0.00000000000E+00  0.62084725246E+02  0.62084725246E+02  0.00000000000E+00 0.  1.
          2   -1    0    0  502    0  0.00000000000E+00 -0.00000000000E+00 -0.36703779576E+04  0.36703779576E+04  0.00000000000E+00 0. -1.
         25    1    1    2    0    0 -0.32146395249E+03  0.17415941021E+03 -0.16362231284E+04  0.16812262486E+04  0.12500000000E+03 0.  0.
         21    1    1    2  502  503  0.32876950164E+02  0.77441633039E+01  0.13647603007E+02  0.36429699219E+02  0.00000000000E+00 0. -1.
         21    1    1    2  503  501  0.28858700232E+03 -0.18190357351E+03 -0.19857177070E+04  0.20148067351E+04  0.00000000000E+00 0.  1.
<mgrwt>
<rscale>  4 0.73634530E+03</rscale>
<asrwt>0</asrwt>
<pdfrwt beam="1">  1        2 0.56467351E+00 0.73634530E+03</pdfrwt>
<pdfrwt beam="2">  1       -2 0.95514965E-02 0.73634530E+03</pdfrwt>
<totfact> 0.49301861E+01</totfact>
</mgrwt>
</event>
<event>
 5    0  0.4025551E-002  0.5472351E+03  0.7546771E-02  0.1002136E+00
          2   -1    0    0  503    0  0.00000000000E+00  0.00000000000E+00  0.85990989340E+03  0.85990989340E+03  0.00000000000E+00 0. -1.
         -2   -1    0    0    0  501 -0.00000000000E+00 -0.00000000000E+00 -0.12024582653E+03  0.12024582653E+03  0.00000000000E+00 0.  1.
         25    1    1    2    0    0  0.16555847655E+03  0.20047451570E+03  0.30686925363E+03  0.42118093431E+03  0.12500000000E+03 0.  0.
         21    1    1    2  502  501 -0.10765577939E+03 -0.22407686900E+03  0.42962686047E+03  0.49636624512E+03  0.00000000000E+00 0. -1.
         21    1    1    2  503  502 -0.57902697158E+02  0.23602353293E+02  0.31679527640E+01  0.62608540502E+02  0.00000000000E+00 0. -1.
<mgrwt>
<rscale>  4 0.54723514E+03</rscale>
<asrwt>0</asrwt>
<pdfrwt beam="1">  1        2 0.13229383E+00 0.54723514E+03</pdfrwt>
<pdfrwt beam="2">  1       -2 0.18499358E-01 0.54723514E+03</pdfrwt>
<totfact> 0.77082158E+02</totfact>
</mgrwt>
</event>
<event>
 5    0  0.4025551E-002  0.6019383E+03  0.7546771E-02  0.9901393E-01
          2   -1    0    0  503    0  0.00000000000E+00  0.00000000000E+00  0.21243609937E+03  0.21243609937E+03  0.00000000000E+00 0. -1.
         -2   -1    0    0    0  501 -0.00000000000E+00 -0.00000000000E+00 -0.48852040754E+03  0.48852040754E+03  0.00000000000E+00 0.  1.
         25    1    1    2    0    0 -0.22941517164E+03 -0.49755419118E+02 -0.28821873553E+03  0.39217593274E+03  0.12500000000E+03 0.  0.
         21    1    1    2  502  501  0.23671306664E+03  0.30801987522E+02  0.68930990797E+02  0.24846190823E+03  0.00000000000E+00 0. -1.
         21    1    1    2  503  502 -0.72978949920E+01  0.18953431597E+02 -0.56796563443E+02  0.60318665929E+02  0.00000000000E+00 0.  1.
<mgrwt>
<rscale>  4 0.60193831E+03</rscale>
<asrwt>0</asrwt>
<pdfrwt beam="1">  1        2 0.32682477E-01 0.60193831E+03</pdfrwt>
<pdfrwt beam="2">  1       -2 0.75156986E-01 0.60193831E+03</pdfrwt>
<totfact> 0.25976127E+02</totfact>
</mgrwt>
</event>
<event>
 5    0  0.4025551E-002  0.5003712E+03  0.7546771E-02  0.1013682E+00
         -1   -1    0    0    0  501 -0.00000000000E+00  0.00000000000E+00  0.34949186643E+03  0.34949186643E+03  0.00000000000E+00 0.  1.
          1   -1    0    0  503    0  0.00000000000E+00 -0.00000000000E+00 -0.28870866702E+03  0.28870866702E+03  0.00000000000E+00 0. -1.
         25    1    1    2    0    0  0.13181599658E+03 -0.19116751830E+03 -0.11315616717E+03  0.28696654017E+03  0.12500000000E+03 0.  0.
         21    1    1    2  502  501 -0.10767826546E+03  0.18483375720E+03  0.43322162067E+02  0.21825429293E+03  0.00000000000E+00 0. -1.
         21    1    1    2  503  502 -0.24137731123E+02  0.63337610992E+01  0.13061720451E+03  0.13297970036E+03  0.00000000000E+00 0. -1.
<mgrwt>
<rscale>  4 0.50037116E+03</rscale>
<asrwt>0</asrwt>
<pdfrwt beam="1">  1        1 0.44416718E-01 0.50037116E+03</pdfrwt>
<pdfrwt beam="2">  1       -1 0.53767980E-01 0.50037116E+03</pdfrwt>
<totfact> 0.32799809E+02</totfact>
</mgrwt>
</event>
<event>
 5    0  0.4025551E-002  0.4961166E+03  0.7546771E-02  0.1014798E+00
         -1   -1    0    0    0  501 -0.00000000000E+00  0.00000000000E+00  0.53269420616E+02  0.53269420616E+02  0.00000000000E+00 0. -1.
          1   -1    0    0  503    0  0.00000000000E+00 -0.00000000000E+00 -0.13939181884E+04  0.13939181884E+04  0.00000000000E+00 0.  1.
         25    1    1    2    0    0 -0.19629481595E+03 -0.11950578386E+03 -0.50827342605E+03  0.57164688644E+03  0.12500000000E+03 0.  0.
         21    1    1    2  502  501  0.17741236669E+03  0.10888021368E+03 -0.82756979179E+03  0.85334741405E+03  0.00000000000E+00 0.  1.
         21    1    1    2  503  502  0.18882449262E+02  0.10625570174E+02 -0.48055498986E+01  0.22193308484E+02  0.00000000000E+00 0. -1.
<mgrwt>
<rscale>  4 0.49611657E+03</rscale>
<asrwt>0</asrwt>
<pdfrwt beam="1">  1        1 0.21444895E+00 0.49611657E+03</pdfrwt>
<pdfrwt beam="2">  1       -1 0.81952956E-02 0.49611657E+03</pdfrwt>
<totfact> 0.68882054E+02</totfact>
</mgrwt>
</event>
<event>
 5    0  0.4025551E-002  0.8528596E+03  0.7546771E-02  0.9486507E-01
         -1   -1    0    0    0  501 -0.00000000000E+00  0.00000000000E+00  0.21216771873E+03  0.21216771873E+03  0.00000000000E+00 0. -1.
          1   -1    0    0  502    0  0.00000000000E+00 -0.00000000000E+00 -0.21571137611E+04  0.21571137611E+04  0.00000000000E+00 0.  1.
         25    1    1    2    0    0 -0.39694727236E+03 -0.59420998760E+02 -0.16390132833E+04  0.16920660552E+04  0.12500000000E+03 0.  0.
         21    1    1    2  502  503  0.67137623455E+02  0.89844497105E+02  0.10210450753E+03  0.15167341429E+03  0.00000000000E+00 0. -1.
         21    1    1    2  503  501  0.32980964890E+03 -0.30423498345E+02 -0.40803726660E+03  0.52554201040E+03  0.00000000000E+00 0. -1.
<mgrwt>
<rscale>  4 0.85285965E+03</rscale>
<asrwt>0</asrwt>
<pdfrwt beam="1">  1        1 0.33186365E+00 0.85285965E+03</pdfrwt>
<pdfrwt beam="2">  1       -1 0.32641188E-01 0.85285965E+03</pdfrwt>
<totfact> 0.21062736E+01</totfact>
</mgrwt>
</event>
<event>
 5    0  0.4025551E-002  0.7131005E+03  0.7546771E-02  0.9695087E-01
          2   -1    0    0  503    0  0.00000000000E+00  0.00000000000E+00  0.36310455138E+03  0.36310455138E+03  0.00000000000E+00 0. -1.
         -2   -1    0    0    0  501 -0.00000000000E+00 -0.00000000000E+00 -0.14384859110E+04  0.14384859110E+04  0.00000000000E+00 0.  1.
         25    1    1    2    0    0  0.13167965392E+03 -0.33507264118E+03 -0.12714283052E+03  0.40175055130E+03  0.12500000000E+03 0.  0.
         21    1    1    2  502  501 -0.10727839331E+03  0.25817433604E+03  0.13718662046E+03  0.31142063241E+03  0.00000000000E+00 0. -1.
         21    1    1    2  503  502 -0.24401260606E+02  0.76898305136E+02 -0.10854251496E+04  0.10884192787E+04  0.00000000000E+00 0.  1.
<mgrwt>
<rscale>  4 0.71310046E+03</rscale>
<asrwt>0</asrwt>
<pdfrwt beam="1">  1        2 0.55862238E-01 0.71310046E+03</pdfrwt>
<pdfrwt beam="2">  1       -2 0.22130553E+00 0.71310046E+03</pdfrwt>
<totfact> 0.88232844E+00</totfact>
</mgrwt>
</event>
<event>
 5    0  0.4025551E-002  0.6465712E+03  0.7546771E-02  0.9813234E-01
         -2   -1    0    0    0  501 -0.00000000000E+00  0.00000000000E+00  0.19550844249E+03  0.19550844249E+03  0.00000000000E+00 0.  1.
          2   -1    0    0  502    0  0.00000000000E+00 -0.00000000000E+00 -0.57670225537E+03  0.57670225537E+03  0.00000000000E+00 0. -1.
         25    1    1    2    0    0 -0.75175731166E+02 -0.28166888372E+03 -0.30376963928E+03  0.43919214970E+03  0.12500000000E+03 0.  0.
         21    1    1    2  502  503  0.14819207066E+02 -0.14333826225E+02  0.18405100585E+01  0.20699153354E+02  0.00000000000E+00 0.  1.
         21    1    1    2  503  501  0.60356524099E+02  0.29600270994E+03 -0.79264683665E+02  0.31231939480E+03  0.00000000000E+00 0.  1.
<mgrwt>
<rscale>  4 0.64657119E+03</rscale>
<asrwt>0</asrwt>
<pdfrwt beam="1">  1        2 0.88723423E-01 0.64657119E+03</pdfrwt>
<pdfrwt beam="2">  1       -2 0.30078222E-01 0.64657119E+03</pdfrwt>
<totfact> 0.53443897E+02</totfact>
</mgrwt>
</event>
<event>
 5    0  0.4025551E-002  0.4810299E+03  0.7546771E-02  0.1018852E+00
          3   -1    0    0  503    0  0.00000000000E+00  0.00000000000E+00  0.12956818298E+03  0.12956818298E+03  0.00000000000E+00 0. -1.
         -3   -1    0    0    0  501 -0.00000000000E+00 -0.00000000000E+00 -0.50777750355E+03  0.50777750355E+03  0.00000000000E+00 0.  1.
         25    1    1    2    0    0  0.98123192008E+01 -0.21743278433E+03 -0.28056505651E+03  0.37645059203E+03  0.12500000000E+03 0.  0.
         21    1    1    2  502  501  0.29005554548E+01  0.19979825914E+03 -0.46264068419E+02  0.20510514768E+03  0.00000000000E+00 0. -1.
         21    1    1    2  503  502 -0.12712874656E+02  0.17634525194E+02 -0.51380195646E+02  0.55789946814E+02  0.00000000000E+00 0. -1.
<mgrwt>
<rscale>  4 0.48102994E+03</rscale>
<asrwt>0</asrwt>
<pdfrwt beam="1">  1        3 0.19933567E-01 0.48102994E+03</pdfrwt>
<pdfrwt beam="2">  1       -3 0.78119614E-01 0.48102994E+03</pdfrwt>
<totfact> 0.92100222E+01</totfact>
</mgrwt>
</event>
<event>
 5    0  0.4025551E-002  0.5957746E+03  0.7546771E-02  0.9914211E-01
          2   -1    0    0  503    0  0.00000000000E+00  0.00000000000E+00  0.96319601054E+03  0.96319601054E+03  0.00000000000E+00 0. -1.
         -2   -1    0    0    0  501 -0.00000000000E+00 -0.00000000000E+00 -0.10662327208E+03  0.10662327208E+03  0.00000000000E+00 0.  1.
         25    1    1    2    0    0 -0.25959634288E+03  0.11491394621E+03  0.48712573308E+03  0.57750494033E+03  0.12500000000E+03 0.  0.
         21    1    1    2  502  501  0.24384384068E+03 -0.14426119518E+03  0.35915417750E+03  0.45745254868E+03  0.00000000000E+00 0.  1.
         21    1    1    2  503  502  0.15752502205E+02  0.29347248974E+02  0.10292827875E+02  0.34861793610E+02  0.00000000000E+00 0.  1.
<mgrwt>
<rscale>  4 0.59577455E+03</rscale>
<asrwt>0</asrwt>
<pdfrwt beam="1">  1        2 0.14818400E+00 0.59577455E+03</pdfrwt>
<pdfrwt beam="2">  1       -2 0.16403581E-01 0.59577455E+03</pdfrwt>
<totfact> 0.80770381E+02</totfact>
</mgrwt>
</event>
<event>
 5    0  0.4025551E-002  0.1030483E+04  0.7546771E-02  0.9275729E-01
         -2   -1    0    0    0  501 -0.00000000000E+00  0.00000000000E+00  0.40304225305E+03  0.40304225305E+03  0.00000000000E+00 0. -1.
          2   -1    0    0  502    0  0.00000000000E+00 -0.00000000000E+00 -0.72882725878E+03  0.72882725878E+03  0.00000000000E+00 0.  1.
         25    1    1    2    0    0 -0.24122396715E+03 -0.20948022094E+03  0.26525373870E+03  0.43365367655E+03  0.12500000000E+03 0.  0.
         21    1    1    2  502  503 -0.25195755384E+02  0.41887079026E+02 -0.38119877124E+02  0.61987728710E+02  0.00000000000E+00 0.  1.
         21    1    1    2  503  501  0.26641972253E+03  0.16759314192E+03 -0.55291886730E+03  0.63622810657E+03  0.00000000000E+00 0.  1.
<mgrwt>
<rscale>  4 0.10304833E+04</rscale>
<asrwt>0</asrwt>
<pdfrwt beam="1">  1        2 0.11212727E+00 0.10304833E+04</pdfrwt>
<pdfrwt beam="2">  1       -2 0.62006500E-01 0.10304833E+04</pdfrwt>
<totfact> 0.93674812E+01</totfact>
</mgrwt>
</event>
<event>
 5    0  0.4025551E-002  0.4152943E+03  0.7546771E-02  0.1038609E+00
          2   -1    0    0  502    0  0.00000000000E+00  0.00000000000E+00  0.14498251783E+04  0.14498251783E+04  0.00000000000E+00 0. -1.
         -2   -1    0    0    0  501 -0.00000000000E+00 -0.00000000000E+00 -0.51359375070E+02  0.51359375070E+02  0.00000000000E+00 0.  1.
         25    1    1    2    0    0  0.19886776335E+03 -0.97212568141E+02  0.78525153392E+03  0.82537484953E+03  0.12500000000E+03 0.  0.
         21    1    1    2  502  503 -0.45645861293E+02  0.51047058602E+02  0.37099101395E+02  0.77882540850E+02  0.00000000000E+00 0.  1.
         21    1    1    2  503  501 -0.15322190206E+03  0.46165509540E+02  0.57611516788E+03  0.59792716296E+03  0.00000000000E+00 0.  1.
<mgrwt>
<rscale>  4 0.41529426E+03</rscale>
<asrwt>0</asrwt>
<pdfrwt beam="1">  1        2 0.22305000E+00 0.41529426E+03</pdfrwt>
<pdfrwt beam="2">  1       -2 0.79014434E-02 0.41529426E+03</pdfrwt>
<totfact> 0.13920071E+03</totfact>
</mgrwt>
</event>
<event>
 5    0  0.4025551E-002  0.4626527E+03  0.7546771E-02  0.1024015E+00
         -1   -1    0    0    0  501 -0.00000000000E+00  0.00000000000E+00  0.27815905457E+04  0.27815905457E+04  0.00000000000E+00 0. -1.
          1   -1    0    0  502    0  0.00000000000E+00 -0.00000000000E+00 -0.25602286009E+02  0.25602286009E+02  0.00000000000E+00 0.  1.
         25    1    1    2    0    0 -0.19839067176E+03 -0.72429837532E+02  0.11475268813E+04  0.11734768355E+04  0.12500000000E+03 0.  0.
         21    1    1    2  502  503 -0.12220557911E+02  0.20695916768E+02  0.67361061996E+03  0.67403926468E+03  0.00000000000E+00 0.  1.
         21    1    1    2  503  501  0.21061122967E+03  0.51733920764E+02  0.93485075845E+03  0.95967673161E+03  0.00000000000E+00 0.  1.
<mgrwt>
<rscale>  4 0.46265268E+03</rscale>
<asrwt>0</asrwt>
<pdfrwt beam="1">  1        1 0.39388154E-02 0.46265268E+03</pdfrwt>
<pdfrwt beam="2">  1       -1 0.42793677E+00 0.46265268E+03</pdfrwt>
<totfact> 0.12688893E+01</totfact>
</mgrwt>
</event>
<event>
 5    0  0.4025551E-002  0.5227056E+03  0.7546771E-02  0.1008017E+00
          2   -1    0    0  502    0  0.00000000000E+00  0.00000000000E+00  0.11201011127E+04  0.11201011127E+04  0.00000000000E+00 0.  1.
         -2   -1    0    0    0  501 -0.00000000000E+00 -0.00000000000E+00 -0.33619200395E+03  0.33619200395E+03  0.00000000000E+00 0. -1.
         25    1    1    2    0    0 -0.11043686329E+03  0.26361284649E+03  0.77868454206E+03  0.83884602261E+03  0.12500000000E+03 0.  0.
         21    1    1    2  502  503  0.12585033525E+03 -0.70935968599E+02 -0.25512532370E+03  0.29318790786E+03  0.00000000000E+00 0. -1.
         21    1    1    2  503  501 -0.15413471966E+02 -0.19267687790E+03  0.26034989042E+03  0.32425918620E+03  0.00000000000E+00 0. -1.
<mgrwt>
<rscale>  4 0.52270563E+03</rscale>
<asrwt>0</asrwt>
<pdfrwt beam="1">  1        2 0.17232325E+00 0.52270563E+03</pdfrwt>
<pdfrwt beam="2">  1       -2 0.51721847E-01 0.52270563E+03</pdfrwt>
<totfact> 0.77645716E+01</totfact>
</mgrwt>
</event>
<event>
 5    0  0.4025551E-002  0.8455829E+03  0.7546771E-02  0.9496285E-01
         -2   -1    0    0    0  501 -0.00000000000E+00  0.00000000000E+00  0.27261912116E+03  0.27261912116E+03  0.00000000000E+00 0.  1.
          2   -1    0    0  502    0  0.00000000000E+00 -0.00000000000E+00 -0.96962428181E+03  0.96962428181E+03  0.00000000000E+00 0. -1.
         25    1    1    2    0    0  0.57746905192E+02  0.27627734072E+03  0.12804485867E+02  0.30895441236E+03  0.12500000000E+03 0.  0.
         21    1    1    2  502  503  0.35937867977E+02 -0.10771639988E+02  0.83477219516E+02  0.91520515519E+02  0.00000000000E+00 0.  1.
         21    1    1    2  503  501 -0.93684773170E+02 -0.26550570073E+03 -0.79328686603E+03  0.84176847509E+03  0.00000000000E+00 0. -1.
<mgrwt>
<rscale>  4 0.84558289E+03</rscale>
<asrwt>0</asrwt>
<pdfrwt beam="1">  1        2 0.14917297E+00 0.84558289E+03</pdfrwt>
<pdfrwt beam="2">  1       -2 0.41941403E-01 0.84558289E+03</pdfrwt>
<totfact> 0.14281987E+02</totfact>
</mgrwt>
</event>
<event>
 5    0  0.4025551E-002  0.6245942E+03  0.7546771E-02  0.9855655E-01
         -1   -1    0    0    0  501 -0.00000000000E+00  0.00000000000E+00  0.34855770763E+03  0.34855770763E+03  0.00000000000E+00 0.  1.
          1   -1    0    0  502    0  0.00000000000E+00 -0.00000000000E+00 -0.44492299012E+03  0.44492299012E+03  0.00000000000E+00 0. -1.
         25    1    1    2    0    0  0.52115743502E+02  0.23574612496E+03 -0.22661425185E+03  0.35393686626E+03  0.12500000000E+03 0.  0.
         21    1    1    2  502  503 -0.14151818324E+02  0.67027419679E+02  0.11519852392E+03  0.13402853750E+03  0.00000000000E+00 0.  1.
         21    1    1    2  503  501 -0.37963925178E+02 -0.30277354464E+03  0.15050445435E+02  0.30551529398E+03  0.00000000000E+00 0. -1.
<mgrwt>
<rscale>  4 0.62459419E+03</rscale>
<asrwt>0</asrwt>
<pdfrwt beam="1">  1        1 0.68449691E-01 0.62459419E+03</pdfrwt>
<pdfrwt beam="2">  1       -1 0.53624263E-01 0.62459419E+03</pdfrwt>
<totfact> 0.18628456E+02</totfact>
</mgrwt>
</event>
<event>
 5    0  0.4025551E-002  0.8215641E+03  0.7546771E-02  0.9529318E-01
          1   -1    0    0  503    0  0.00000000000E+00  0.00000000000E+00  0.81361207610E+03  0.81361207610E+03  0.00000000000E+00 0. -1.
         -1   -1    0    0    0  501 -0.00000000000E+00 -0.00000000000E+00 -0.53767044653E+03  0.53767044653E+03  0.00000000000E+00 0.  1.
         25    1    1    2    0    0 -0.21060347602E+03  0.23493091461E+03 -0.40705752408E+02  0.34180157553E+03  0.12500000000E+03 0.  0.
         21    1    1    2  502  501  0.25761786591E+03 -0.15440144383E+02  0.59696572335E+03  0.65036408092E+03  0.00000000000E+00 0. -1.
         21    1    1    2  503  502 -0.47014389892E+02 -0.21949077023E+03 -0.28031834137E+03  0.35911686619E+03  0.00000000000E+00 0.  1.
<mgrwt>
<rscale>  4 0.82156408E+03</rscale>
<asrwt>0</asrwt>
<pdfrwt beam="1">  1        1 0.12517109E+00 0.82156408E+03</pdfrwt>
<pdfrwt beam="2">  1       -1 0.82718530E-01 0.82156408E+03</pdfrwt>
<totfact> 0.31805332E+01</totfact>
</mgrwt>
</event>
<event>
 5    0  0.4025551E-002  0.9800650E+03  0.7546771E-02  0.9330683E-01
          2   -1    0    0  503    0  0.00000000000E+00  0.00000000000E+00  0.78370720233E+03  0.78370720233E+03  0.00000000000E+00 0. -1.
         -2   -1    0    0    0  501 -0.00000000000E+00 -0.00000000000E+00 -0.52253953656E+03  0.52253953656E+03  0.00000000000E+00 0.  1.
         25    1    1    2    0    0  0.21449767412E+03 -0.40821629158E+03  0.55418411908E+02  0.48098440026E+03  0.12500000000E+03 0.  0.
         21    1    1    2  502  501 -0.18160141364E+03  0.40079933100E+03  0.42004884031E+03  0.60832573956E+03  0.00000000000E+00 0. -1.
         21    1    1    2  503  502 -0.32896260482E+02  0.74169605794E+01 -0.21429958645E+03  0.21693659906E+03  0.00000000000E+00 0.  1.
<mgrwt>
<rscale>  4 0.98006503E+03</rscale>
<asrwt>0</asrwt>
<pdfrwt beam="1">  1        2 0.12057034E+00 0.98006503E+03</pdfrwt>
<pdfrwt beam="2">  1       -2 0.80390698E-01 0.98006503E+03</pdfrwt>
<totfact> 0.48284471E+01</totfact>
</mgrwt>
</event>
<event>
 5    0  0.4025551E-002  0.1204595E+04  0.7546771E-02  0.9108844E-01
          2   -1    0    0  503    0  0.00000000000E+00  0.00000000000E+00  0.24738811644E+04  0.24738811644E+04  0.00000000000E+00 0.  1.
         -2   -1    0    0    0  501 -0.00000000000E+00 -0.00000000000E+00 -0.21096576370E+03  0.21096576370E+03  0.00000000000E+00 0. -1.
         25    1    1    2    0    0  0.28425194576E+03 -0.53830699095E+03  0.10804660427E+04  0.12464371041E+04  0.12500000000E+03 0.  0.
         21    1    1    2  502  501 -0.16254804044E+03  0.18757667286E+01  0.66018625544E+03  0.67990534329E+03  0.00000000000E+00 0. -1.
         21    1    1    2  503  502 -0.12170390531E+03  0.53643122422E+03  0.52226310256E+03  0.75850448066E+03  0.00000000000E+00 0. -1.
<mgrwt>
<rscale>  4 0.12045954E+04</rscale>
<asrwt>0</asrwt>
<pdfrwt beam="1">  1        2 0.38059708E+00 0.12045954E+04</pdfrwt>
<pdfrwt beam="2">  1       -2 0.32456273E-01 0.12045954E+04</pdfrwt>
<totfact> 0.31611129E+01</totfact>
</mgrwt>
</event>
<event>
 5    0  0.4025551E-002  0.4778017E+03  0.7546771E-02  0.1019741E+00
         -2   -1    0    0    0  501 -0.00000000000E+00  0.00000000000E+00  0.16867602749E+03  0.16867602749E+03  0.00000000000E+00 0.  1.
          2   -1    0    0  502    0  0.00000000000E+00 -0.00000000000E+00 -0.45553864828E+03  0.45553864828E+03  0.00000000000E+00 0. -1.
         25    1    1    2    0    0 -0.18940961666E+03 -0.12979458565E+03 -0.10684751372E+03  0.28242526186E+03  0.12500000000E+03 0.  0.
         21    1    1    2  502  503  0.26427684902E+02  0.14468509662E+02  0.36460634107E+02  0.47298394693E+02  0.00000000000E+00 0.  1.
         21    1    1    2  503  501  0.16298193175E+03  0.11532607599E+03 -0.21647574117E+03  0.29449101921E+03  0.00000000000E+00 0. -1.
<mgrwt>
<rscale>  4 0.47780170E+03</rscale>
<asrwt>0</asrwt>
<pdfrwt beam="1">  1        2 0.70082868E-01 0.47780170E+03</pdfrwt>
<pdfrwt beam="2">  1       -2 0.25950158E-01 0.47780170E+03</pdfrwt>
<totfact> 0.92192522E+02</totfact>
</mgrwt>
</event>
<event>
 5    0  0.4025551E-002  0.6333028E+03  0.7546771E-02  0.9838625E-01
          2   -1    0    0  503    0  0.00000000000E+00  0.00000000000E+00  0.11104374262E+04  0.11104374262E+04  0.00000000000E+00 0. -1.
         -2   -1    0    0    0  501 -0.00000000000E+00 -0.00000000000E+00 -0.18814343951E+03  0.18814343951E+03  0.00000000000E+00 0.  1.
         25    1    1    2    0    0 -0.11597605603E+03  0.22996227346E+03  0.91985520610E+03  0.96337515693E+03  0.12500000000E+03 0.  0.
         21    1    1    2  502  501  0.25152639129E+02 -0.20071237756E+03  0.74573056676E+02  0.21559047879E+03  0.00000000000E+00 0.  1.
         21    1    1    2  503  502  0.90823416905E+02 -0.29249895898E+02 -0.72134276065E+02  0.11961523002E+03  0.00000000000E+00 0.  1.
<mgrwt>
<rscale>  4 0.63330277E+03</rscale>
<asrwt>0</asrwt>
<pdfrwt beam="1">  1        2 0.17083652E+00 0.63330277E+03</pdfrwt>
<pdfrwt beam="2">  1       -2 0.28945145E-01 0.63330277E+03</pdfrwt>
<totfact> 0.23929339E+02</totfact>
</mgrwt>
</event>
<event>
 5    0  0.4025551E-002  0.6111228E+03  0.7546771E-02  0.9882595E-01
          1   -1    0    0  502    0  0.00000000000E+00  0.00000000000E+00  0.13811275940E+04  0.13811275940E+04  0.00000000000E+00 0.  1.
         -1   -1    0    0    0  501 -0.00000000000E+00 -0.00000000000E+00 -0.16987271305E+03  0.16987271305E+03  0.00000000000E+00 0. -1.
         25    1    1    2    0    0 -0.11201586606E+03 -0.23927626550E+03  0.83297851000E+03  0.88276774046E+03  0.12500000000E+03 0.  0.
         21    1    1    2  502  503 -0.30160263277E+02 -0.23268859097E+02 -0.98542534635E+02  0.10564900575E+03  0.00000000000E+00 0. -1.
         21    1    1    2  503  501  0.14217612934E+03  0.26254512460E+03  0.47681890560E+03  0.56258356085E+03  0.00000000000E+00 0. -1.
<mgrwt>
<rscale>  4 0.61112283E+03</rscale>
<asrwt>0</asrwt>
<pdfrwt beam="1">  1        1 0.21248116E+00 0.61112283E+03</pdfrwt>
<pdfrwt beam="2">  1       -1 0.26134264E-01 0.61112283E+03</pdfrwt>
<totfact> 0.10636862E+02</totfact>
</mgrwt>
</event>
<event>
 5    0  0.4025551E-002  0.9534541E+03  0.7546771E-02  0.9361122E-01
         -1   -1    0    0    0  501 -0.00000000000E+00  0.00000000000E+00  0.75934281632E+03  0.75934281632E+03  0.00000000000E+00 0.  1.
          1   -1    0    0  502    0  0.00000000000E+00 -0.00000000000E+00 -0.33356214754E+03  0.33356214754E+03  0.00000000000E+00 0. -1.
         25    1    1    2    0    0  0.21622333113E+03 -0.42979024268E+03  0.17836704088E+03  0.52812118203E+03  0.12500000000E+03 0.  0.
         21    1    1    2  502  503 -0.12591656831E+02  0.21456404542E+02  0.71588309566E+02  0.75787948805E+02  0.00000000000E+00 0. -1.
         21    1    1    2  503  501 -0.20363167430E+03  0.40833383814E+03  0.17582531833E+03  0.48899583302E+03  0.00000000000E+00 0.  1.
<mgrwt>
<rscale>  4 0.95345414E+03</rscale>
<asrwt>0</asrwt>
<pdfrwt beam="1">  1        1 0.51317254E-01 0.95345414E+03</pdfrwt>
<pdfrwt beam="2">  1       -1 0.11682197E+00 0.95345414E+03</pdfrwt>
<totfact> 0.50722484E+01</totfact>
</mgrwt>
</event>
<event>
 5    0  0.4025551E-002  0.6098512E+03  0.7546771E-02  0.9885176E-01
          1   -1    0    0  503    0  0.00000000000E+00  0.00000000000E+00  0.18987086235E+04  0.18987086235E+04  0.00000000000E+00 0. -1.
         -1   -1    0    0    0  501 -0.00000000000E+00 -0.00000000000E+00 -0.80672479688E+02  0.80672479688E+02  0.00000000000E+00 0.  1.
         25    1    1    2    0    0  0.12301807946E+03 -0.16682355358E+03  0.28744985621E+03  0.37578712822E+03  0.12500000000E+03 0.  0.
         21    1    1    2  502  501 -0.10436040374E+03  0.14238255377E+03  0.15545928397E+04  0.15645839008E+04  0.00000000000E+00 0. -1.
         21    1    1    2  503  502 -0.18657675724E+02  0.24440999802E+02 -0.24006552145E+02  0.39010074091E+02  0.00000000000E+00 0.  1.
<mgrwt>
<rscale>  4 0.60985116E+03</rscale>
<asrwt>0</asrwt>
<pdfrwt beam="1">  1        1 0.29210899E+00 0.60985116E+03</pdfrwt>
<pdfrwt beam="2">  1       -1 0.12411152E-01 0.60985116E+03</pdfrwt>
<totfact> 0.16245207E+02</totfact>
</mgrwt>
</event>
<event>
 5    0  0.4025551E-002  0.6515975E+03  0.7546771E-02  0.9803786E-01
         -2   -1    0    0    0  501 -0.00000000000E+00  0.00000000000E+00  0.68283600040E+02  0.68283600040E+02  0.00000000000E+00 0. -1.
          2   -1    0    0  503    0  0.00000000000E+00 -0.00000000000E+00 -0.15544700321E+04  0.15544700321E+04  0.00000000000E+00 0.  1.
         25    1    1    2    0    0 -0.20868334386E+03 -0.20304829339E+03 -0.10493612670E+04  0.10961575690E+04  0.12500000000E+03 0.  0.
         21    1    1    2  502  501  0.19819293392E+03  0.18414327103E+03 -0.38601800596E+03  0.47137997863E+03  0.00000000000E+00 0. -1.
         21    1    1    2  503  502  0.10490409935E+02  0.18905022357E+02 -0.50807159133E+02  0.55216084523E+02  0.00000000000E+00 0.  1.
<mgrwt>
<rscale>  4 0.65159745E+03</rscale>
<asrwt>0</asrwt>
<pdfrwt beam="1">  1        2 0.23914923E+00 0.65159745E+03</pdfrwt>
<pdfrwt beam="2">  1       -2 0.10505170E-01 0.65159745E+03</pdfrwt>
<totfact> 0.76283763E+02</totfact>
</mgrwt>
</event>
<event>
 5    0  0.4025551E-002  0.7481392E+03  0.7546771E-02  0.9638274E-01
          2   -1    0    0  502    0  0.00000000000E+00  0.00000000000E+00  0.55972107454E+03  0.55972107454E+03  0.00000000000E+00 0. -1.
         -2   -1    0    0    0  501 -0.00000000000E+00 -0.00000000000E+00 -0.30739550452E+03  0.30739550452E+03  0.00000000000E+00 0.  1.
         25    1    1    2    0    0  0.20205798620E+03 -0.21647094533E+03  0.26502303714E+03  0.41659249894E+03  0.12500000000E+03 0.  0.
         21    1    1    2  502  503  0.41199839253E+02 -0.65822974447E+02  0.25661115884E+00  0.77654082756E+02  0.00000000000E+00 0.  1.
         21    1    1    2  503  501 -0.24325782545E+03  0.28229391978E+03 -0.12954078285E+02  0.37286999736E+03  0.00000000000E+00 0.  1.
<mgrwt>
<rscale>  4 0.74813921E+03</rscale>
<asrwt>0</asrwt>
<pdfrwt beam="1">  1        2 0.86110935E-01 0.74813921E+03</pdfrwt>
<pdfrwt beam="2">  1       -2 0.47291616E-01 0.74813921E+03</pdfrwt>
<totfact> 0.23053410E+02</totfact>
</mgrwt>
</event>
<event>
 5    0  0.4025551E-002  0.5819371E+03  0.7546771E-02  0.9943606E-01
         -2   -1    0    0    0  501 -0.00000000000E+00  0.00000000000E+00  0.21724119673E+03  0.21724119673E+03  0.00000000000E+00 0.  1.
          2   -1    0    0  502    0  0.00000000000E+00 -0.00000000000E+00 -0.44452899573E+03  0.44452899573E+03  0.00000000000E+00 0. -1.
         25    1    1    2    0    0  0.27191747548E+03 -0.37915046936E+02 -0.19283015142E+03  0.35802951212E+03  0.12500000000E+03 0.  0.
         21    1    1    2  502  503 -0.47104620496E+01  0.29205624809E+02  0.12823956826E+02  0.32242996788E+02  0.00000000000E+00 0. -1.
         21    1    1    2  503  501 -0.26720701343E+03  0.87094221263E+01 -0.47281604400E+02  0.27149768355E+03  0.00000000000E+00 0. -1.
<mgrwt>
<rscale>  4 0.58193714E+03</rscale>
<asrwt>0</asrwt>
<pdfrwt beam="1">  1        2 0.68389076E-01 0.58193714E+03</pdfrwt>
<pdfrwt beam="2">  1       -2 0.33421723E-01 0.58193714E+03</pdfrwt>
<totfact> 0.59431100E+02</totfact>
</mgrwt>
</event>
<event>
 5    0  0.4025551E-002  0.5397274E+03  0.7546771E-02  0.1003900E+00
         -2   -1    0    0    0  501 -0.00000000000E+00  0.00000000000E+00  0.47625990767E+02  0.47625990767E+02  0.00000000000E+00 0.  1.
          2   -1    0    0  503    0  0.00000000000E+00 -0.00000000000E+00 -0.24655103180E+04  0.24655103180E+04  0.00000000000E+00 0. -1.
         25    1    1    2    0    0 -0.21748104765E+03 -0.18249197529E+03 -0.12842314693E+04  0.13211649382E+04  0.12500000000E+03 0.  0.
         21    1    1    2  502  501  0.15536804857E+02  0.13523393537E+03 -0.67524012541E+03  0.68882424212E+03  0.00000000000E+00 0. -1.
         21    1    1    2  503  502  0.20194424280E+03  0.47258039922E+02 -0.45841273251E+03  0.50314712845E+03  0.00000000000E+00 0.  1.
<mgrwt>
<rscale>  4 0.53972743E+03</rscale>
<asrwt>0</asrwt>
<pdfrwt beam="1">  1        2 0.37930928E+00 0.53972743E+03</pdfrwt>
<pdfrwt beam="2">  1       -2 0.73270756E-02 0.53972743E+03</pdfrwt>
<totfact> 0.43659353E+02</totfact>
</mgrwt>
</event>
<event>
 5    0  0.4025551E-002  0.6727036E+03  0.7546771E-02  0.9765086E-01
         -1   -1    0    0    0  501 -0.00000000000E+00  0.00000000000E+00  0.11688606265E+04  0.11688606265E+04  0.00000000000E+00 0. -1.
          1   -1    0    0  503    0  0.00000000000E+00 -0.00000000000E+00 -0.17933368656E+03  0.17933368656E+03  0.00000000000E+00 0.  1.
         25    1    1    2    0    0  0.27869304973E+03 -0.14365496651E+03  0.32788177426E+03  0.47057201708E+03  0.12500000000E+03 0.  0.
         21    1    1    2  502  501 -0.25407645744E+03  0.19042663222E+03  0.12958331298E+03  0.34294166193E+03  0.00000000000E+00 0.  1.
         21    1    1    2  503  502 -0.24616592290E+02 -0.46771665718E+02  0.53206185265E+03  0.53468063400E+03  0.00000000000E+00 0.  1.
<mgrwt>
<rscale>  4 0.67270365E+03</rscale>
<asrwt>0</asrwt>
<pdfrwt beam="1">  1        1 0.27589799E-01 0.67270365E+03</pdfrwt>
<pdfrwt beam="2">  1       -1 0.17982471E+00 0.67270365E+03</pdfrwt>
<totfact> 0.36847352E+01</totfact>
</mgrwt>
</event>
<event>
 5    0  0.4025551E-002  0.7045265E+03  0.7546771E-02  0.9709522E-01
         -1   -1    0    0    0  501 -0.00000000000E+00  0.00000000000E+00  0.18001513471E+03  0.18001513471E+03  0.00000000000E+00 0.  1.
          1   -1    0    0  503    0  0.00000000000E+00 -0.00000000000E+00 -0.92013015072E+03  0.92013015072E+03  0.00000000000E+00 0. -1.
         25    1    1    2    0    0  0.15113304759E+03  0.24917512971E+03 -0.63414969157E+03  0.70901359272E+03  0.12500000000E+03 0.  0.
         21    1    1    2  502  501 -0.14110148917E+03 -0.27543075538E+03 -0.14602806417E+03  0.34219282105E+03  0.00000000000E+00 0.  1.
         21    1    1    2  503  502 -0.10031558422E+02  0.26255625671E+02  0.40062739734E+02  0.48938871653E+02  0.00000000000E+00 0. -1.
<mgrwt>
<rscale>  4 0.70452650E+03</rscale>
<asrwt>0</asrwt>
<pdfrwt beam="1">  1        1 0.14155848E+00 0.70452650E+03</pdfrwt>
<pdfrwt beam="2">  1       -1 0.27694636E-01 0.70452650E+03</pdfrwt>
<totfact> 0.20886104E+02</totfact>
</mgrwt>
</event>
<event>
 5    0  0.4025551E-002  0.4009099E+03  0.7546771E-02  0.1043465E+00
          1   -1    0    0  502    0  0.00000000000E+00  0.00000000000E+00  0.10098062356E+04  0.10098062356E+04  0.00000000000E+00 0.  1.
         -1   -1    0    0    0  501 -0.00000000000E+00 -0.00000000000E+00 -0.94095674704E+02  0.94095674704E+02  0.00000000000E+00 0. -1.
         25    1    1    2    0    0 -0.63207272427E+02 -0.21080958859E+03  0.66753380425E+03  0.71390631161E+03  0.12500000000E+03 0.  0.
         21    1    1    2  502  503 -0.37083336513E+02  0.11355936890E+03  0.18094580750E+02  0.12082349922E+03  0.00000000000E+00 0. -1.
         21    1    1    2  503  501  0.10029060894E+03  0.97250219689E+02  0.23008217587E+03  0.26917209945E+03  0.00000000000E+00 0. -1.
<mgrwt>
<rscale>  4 0.40090986E+03</rscale>
<asrwt>0</asrwt>
<pdfrwt beam="1">  1        1 0.15535480E+00 0.40090986E+03</pdfrwt>
<pdfrwt beam="2">  1       -1 0.14476258E-01 0.40090986E+03</pdfrwt>
<totfact> 0.53193044E+02</totfact>
</mgrwt>
</event>
<event>
 5    0  0.4025551E-002  0.4791320E+03  0.7546771E-02  0.1019374E+00
         -2   -1    0    0    0  501 -0.00000000000E+00  0.00000000000E+00  0.20928898661E+03  0.20928898661E+03  0.00000000000E+00 0.  1.
          2   -1    0    0  502    0  0.00000000000E+00 -0.00000000000E+00 -0.45167549121E+03  0.45167549121E+03  0.00000000000E+00 0. -1.
         25    1    1    2    0    0  0.54351248830E+02 -0.23039071232E+03 -0.11488346081E+03  0.29130250280E+03  0.12500000000E+03 0.  0.
         21    1    1    2  502  503  0.61290688168E+02  0.62726358516E+02  0.48727032186E+02  0.10032680686E+03  0.00000000000E+00 0.  1.
         21    1    1    2  503  501 -0.11564193700E+03  0.16766435380E+03 -0.17623007598E+03  0.26933516816E+03  0.00000000000E+00 0. -1.
<mgrwt>
<rscale>  4 0.47913203E+03</rscale>
<asrwt>0</asrwt>
<pdfrwt beam="1">  1        2 0.69488537E-01 0.47913203E+03</pdfrwt>
<pdfrwt beam="2">  1       -2 0.32198306E-01 0.47913203E+03</pdfrwt>
<totfact> 0.62699335E+02</totfact>
</mgrwt>
</event>
<event>
 5    0  0.4025551E-002  0.4112312E+03  0.7546771E-02  0.1039959E+00
          2   -1    0    0  503    0  0.00000000000E+00  0.00000000000E+00  0.18845864402E+04  0.18845864402E+04  0.00000000000E+00 0.  1.
         -2   -1    0    0    0  501 -0.00000000000E+00 -0.00000000000E+00 -0.39234630289E+02  0.39234630289E+02  0.00000000000E+00 0. -1.
         25    1    1    2    0    0  0.15390550072E+02  0.20826976173E+03  0.13076151436E+04  0.13300735042E+04  0.12500000000E+03 0.  0.
         21    1    1    2  502  501 -0.13027288234E+02 -0.15613608019E+03  0.51223815477E+03  0.53566417929E+03  0.00000000000E+00 0. -1.
         21    1    1    2  503  502 -0.23632618380E+01 -0.52133681540E+02  0.25498511515E+02  0.58083387013E+02  0.00000000000E+00 0. -1.
<mgrwt>
<rscale>  4 0.41123117E+03</rscale>
<asrwt>0</asrwt>
<pdfrwt beam="1">  1        2 0.28993631E+00 0.41123117E+03</pdfrwt>
<pdfrwt beam="2">  1       -2 0.60360984E-02 0.41123117E+03</pdfrwt>
<totfact> 0.12389614E+03</totfact>
</mgrwt>
</event>
<event>
 5    0  0.4025551E-002  0.7451675E+03  0.7546771E-02  0.9642962E-01
         -1   -1    0    0    0  501 -0.00000000000E+00  0.00000000000E+00  0.48264571275E+03  0.48264571275E+03  0.00000000000E+00 0. -1.
          1   -1    0    0  503    0  0.00000000000E+00 -0.00000000000E+00 -0.58756571242E+03  0.58756571242E+03  0.00000000000E+00 0.  1.
         25    1    1    2    0    0 -0.18280370111E+03  0.30019008888E+03 -0.23640015913E+03  0.44163482407E+03  0.12500000000E+03 0.  0.
         21    1    1    2  502  501  0.21362607827E+03 -0.29512116651E+03 -0.11351389302E+03  0.38159927692E+03  0.00000000000E+00 0.  1.
         21    1    1    2  503  502 -0.30822377155E+02 -0.50689223630E+01  0.24499405247E+03  0.24697732417E+03  0.00000000000E+00 0. -1.
<mgrwt>
<rscale>  4 0.74516746E+03</rscale>
<asrwt>0</asrwt>
<pdfrwt beam="1">  1        1 0.90394725E-01 0.74516746E+03</pdfrwt>
<pdfrwt beam="2">  1       -1 0.74253187E-01 0.74516746E+03</pdfrwt>
<totfact> 0.65786450E+01</totfact>
</mgrwt>
</event>
<event>
 5    0  0.4025551E-002  0.6338021E+03  0.7546771E-02  0.9837657E-01
         -2   -1    0    0    0  501 -0.00000000000E+00  0.00000000000E+00  0.12845090400E+03  0.12845090400E+03  0.00000000000E+00 0. -1.
          2   -1    0    0  502    0  0.00000000000E+00 -0.00000000000E+00 -0.10072093763E+04  0.10072093763E+04  0.00000000000E+00 0.  1.
         25    1    1    2    0    0 -0.47828217893E+02  0.21822344078E+03 -0.73349697663E+03  0.77688597828E+03  0.12500000000E+03 0.  0.
         21    1    1    2  502  503  0.12745288157E+03 -0.18796580594E+03 -0.53000335562E+02  0.23320466718E+03  0.00000000000E+00 0. -1.
         21    1    1    2  503  501 -0.79624663680E+02 -0.30257634838E+02 -0.92261160155E+02  0.12556963489E+03  0.00000000000E+00 0. -1.
<mgrwt>
<rscale>  4 0.63380209E+03</rscale>
<asrwt>0</asrwt>
<pdfrwt beam="1">  1        2 0.15495529E+00 0.63380209E+03</pdfrwt>
<pdfrwt beam="2">  1       -2 0.19761678E-01 0.63380209E+03</pdfrwt>
<totfact> 0.54866293E+02</totfact>
</mgrwt>
</event>
<event>
 5    0  0.4025551E-002  0.5201993E+03  0.7546771E-02  0.1008637E+00
          2   -1    0    0  503    0  0.00000000000E+00  0.00000000000E+00  0.20910987777E+04  0.20910987777E+04  0.00000000000E+00 0. -1.
         -2   -1    0    0    0  501 -0.00000000000E+00 -0.00000000000E+00 -0.68054963069E+02  0.68054963069E+02  0.00000000000E+00 0.  1.
         25    1    1    2    0    0  0.23190586604E+03  0.38539345021E+02  0.71321597912E+03  0.76129340250E+03  0.12500000000E+03 0.  0.
         21    1    1    2  502  501 -0.21292408233E+03  0.52216571525E+02  0.12826336746E+04  0.13012349436E+04  0.00000000000E+00 0. -1.
         21    1    1    2  503  502 -0.18981783703E+02 -0.90755916546E+02  0.27194160837E+02  0.96625394614E+02  0.00000000000E+00 0. -1.
<mgrwt>
<rscale>  4 0.52019933E+03</rscale>
<asrwt>0</asrwt>
<pdfrwt beam="1">  1        2 0.32170745E+00 0.52019933E+03</pdfrwt>
<pdfrwt beam="2">  1       -2 0.10469996E-01 0.52019933E+03</pdfrwt>
<totfact> 0.39644342E+02</totfact>
</mgrwt>
</event>
<event>
 5    0  0.4025551E-002  0.4575421E+03  0.7546771E-02  0.1025496E+00
          1   -1    0    0  503    0  0.00000000000E+00  0.00000000000E+00  0.38181475085E+03  0.38181475085E+03  0.00000000000E+00 0.  1.
         -1   -1    0    0    0  501 -0.00000000000E+00 -0.00000000000E+00 -0.21795222189E+03  0.21795222189E+03  0.00000000000E+00 0. -1.
         25    1    1    2    0    0  0.97754753736E+02 -0.22776688371E+03  0.14492941740E+03  0.31315057276E+03  0.12500000000E+03 0.  0.
         21    1    1    2  502  501 -0.12532493298E+03  0.11859788258E+03  0.22232594481E+02  0.17397150581E+03  0.00000000000E+00 0. -1.
         21    1    1    2  503  502  0.27570179243E+02  0.10916900114E+03 -0.32994829227E+01  0.11264489416E+03  0.00000000000E+00 0. -1.
<mgrwt>
<rscale>  4 0.45754211E+03</rscale>
<asrwt>0</asrwt>
<pdfrwt beam="1">  1        1 0.58740731E-01 0.45754211E+03</pdfrwt>
<pdfrwt beam="2">  1       -1 0.33531111E-01 0.45754211E+03</pdfrwt>
<totfact> 0.54196271E+02</totfact>
</mgrwt>
</event>
<event>
 5    0  0.4025551E-002  0.5909698E+03  0.7546771E-02  0.9924320E-01
         -1   -1    0    0    0  501 -0.00000000000E+00  0.00000000000E+00  0.70607026757E+02  0.70607026757E+02  0.00000000000E+00 0. -1.
          1   -1    0    0  503    0  0.00000000000E+00 -0.00000000000E+00 -0.14017647424E+04  0.14017647424E+04  0.00000000000E+00 0.  1.
         25    1    1    2    0    0  0.28664642414E+03  0.12628008478E+02 -0.59068417410E+03  0.66847470603E+03  0.12500000000E+03 0.  0.
         21    1    1    2  502  501 -0.27039061062E+03  0.65985432651E+01 -0.72624951023E+03  0.77497933792E+03  0.00000000000E+00 0. -1.
         21    1    1    2  503  502 -0.16255813511E+02 -0.19226551743E+02 -0.14224031317E+02  0.28917725217E+02  0.00000000000E+00 0.  1.
<mgrwt>
<rscale>  4 0.59096975E+03</rscale>
<asrwt>0</asrwt>
<pdfrwt beam="1">  1        1 0.21565613E+00 0.59096975E+03</pdfrwt>
<pdfrwt beam="2">  1       -1 0.10862619E-01 0.59096975E+03</pdfrwt>
<totfact> 0.43454693E+02</totfact>
</mgrwt>
</event>
<event>
 5    0  0.4025551E-002  0.5378490E+03  0.7546771E-02  0.1004346E+00
         -2   -1    0    0    0  501 -0.00000000000E+00  0.00000000000E+00  0.89977585321E+02  0.89977585321E+02  0.00000000000E+00 0. -1.
          2   -1    0    0  503    0  0.00000000000E+00 -0.00000000000E+00 -0.14774884007E+04  0.14774884007E+04  0.00000000000E+00 0.  1.
         25    1    1    2    0    0 -0.92742394202E+02 -0.25174551442E+03 -0.68473701814E+03  0.74596698300E+03  0.12500000000E+03 0.  0.
         21    1    1    2  502  501  0.92791475298E+02  0.21787761086E+03 -0.73653999095E+03  0.77367439500E+03  0.00000000000E+00 0.  1.
         21    1    1    2  503  502 -0.49081096141E-01  0.33867903555E+02  0.33766193682E+02  0.47824608058E+02  0.00000000000E+00 0.  1.
<mgrwt>
<rscale>  4 0.53784903E+03</rscale>
<asrwt>0</asrwt>
<pdfrwt beam="1">  1        2 0.22730589E+00 0.53784903E+03</pdfrwt>
<pdfrwt beam="2">  1       -2 0.13842706E-01 0.53784903E+03</pdfrwt>
<totfact> 0.53746480E+02</totfact>
</mgrwt>
</event>
<event>
 5    0  0.4025551E-002  0.6050567E+03  0.7546771E-02  0.9894970E-01
         -2   -1    0    0    0  501 -0.00000000000E+00  0.00000000000E+00  0.21470325347E+03  0.21470325347E+03  0.00000000000E+00 0.  1.
          2   -1    0    0  503    0  0.00000000000E+00 -0.00000000000E+00 -0.67081316836E+03  0.67081316836E+03  0.00000000000E+00 0. -1.
         25    1    1    2    0    0  0.23107907059E+03 -0.76368722521E+02 -0.31499414443E+03  0.41722419593E+03  0.12500000000E+03 0.  0.
         21    1    1    2  502  501 -0.61797818663E+02 -0.64907635322E+02 -0.21726574650E+03  0.23502420325E+03  0.00000000000E+00 0. -1.
         21    1    1    2  503  502 -0.16928125193E+03  0.14127635784E+03  0.76149976034E+02  0.23326802265E+03  0.00000000000E+00 0.  1.
<mgrwt>
<rscale>  4 0.60505668E+03</rscale>
<asrwt>0</asrwt>
<pdfrwt beam="1">  1        2 0.10320202E+00 0.60505668E+03</pdfrwt>
<pdfrwt beam="2">  1       -2 0.33031271E-01 0.60505668E+03</pdfrwt>
<totfact> 0.37409950E+02</totfact>
</mgrwt>
</event>
<event>
 5    0  0.4025551E-002  0.5337240E+03  0.7546771E-02  0.1005333E+00
          1   -1    0    0  502    0  0.00000000000E+00  0.00000000000E+00  0.45660294256E+03  0.45660294256E+03  0.00000000000E+00 0.  1.
         -1   -1    0    0    0  501 -0.00000000000E+00 -0.00000000000E+00 -0.54256227117E+03  0.54256227117E+03  0.00000000000E+00 0. -1.
         25    1    1    2    0    0 -0.11362792921E+03 -0.28626759725E+03  0.90499421535E+02  0.34449323481E+03  0.12500000000E+03 0.  0.
         21    1    1    2  502  503  0.11210776287E+03  0.11033533374E+03 -0.36460034549E+03  0.39708367921E+03  0.00000000000E+00 0. -1.
         21    1    1    2  503  501  0.15201663404E+01  0.17593226350E+03  0.18814159535E+03  0.25758829971E+03  0.00000000000E+00 0. -1.
<mgrwt>
<rscale>  4 0.53372405E+03</rscale>
<asrwt>0</asrwt>
<pdfrwt beam="1">  1        1 0.70246607E-01 0.53372405E+03</pdfrwt>
<pdfrwt beam="2">  1       -1 0.83471118E-01 0.53372405E+03</pdfrwt>
<totfact> 0.74233928E+01</totfact>
</mgrwt>
</event>
<event>
 5    0  0.4025551E-002  0.6134114E+03  0.7546771E-02  0.9877966E-01
         -2   -1    0    0    0  501 -0.00000000000E+00  0.00000000000E+00  0.18842366450E+03  0.18842366450E+03  0.00000000000E+00 0.  1.
          2   -1    0    0  502    0  0.00000000000E+00 -0.00000000000E+00 -0.78796134240E+03  0.78796134240E+03  0.00000000000E+00 0. -1.
         25    1    1    2    0    0  0.16245060306E+03 -0.14785724757E+03 -0.50091790702E+03  0.56106658577E+03  0.12500000000E+03 0.  0.
         21    1    1    2  502  503  0.33824839530E+02  0.15210465426E+03 -0.14581310607E+03  0.21340432872E+03  0.00000000000E+00 0.  1.
         21    1    1    2  503  501 -0.19627544259E+03 -0.42474066856E+01  0.47193335190E+02  0.20191409241E+03  0.00000000000E+00 0.  1.
<mgrwt>
<rscale>  4 0.61341139E+03</rscale>
<asrwt>0</asrwt>
<pdfrwt beam="1">  1        2 0.12122482E+00 0.61341139E+03</pdfrwt>
<pdfrwt beam="2">  1       -2 0.28988257E-01 0.61341139E+03</pdfrwt>
<totfact> 0.38850783E+02</totfact>
</mgrwt>
</event>
<event>
 5    0  0.4025551E-002  0.4989576E+03  0.7546771E-02  0.1014051E+00
         -1   -1    0    0    0  501 -0.00000000000E+00  0.00000000000E+00  0.41191473692E+03  0.41191473692E+03  0.00000000000E+00 0.  1.
          1   -1    0    0  502    0  0.00000000000E+00 -0.00000000000E+00 -0.33355224791E+03  0.33355224791E+03  0.00000000000E+00 0. -1.
         25    1    1    2    0    0 -0.99708752058E+02 -0.22662499265E+03  0.46659154384E+02  0.28125219861E+03  0.12500000000E+03 0.  0.
         21    1    1    2  502  503 -0.46930104504E+02  0.19548404332E+03  0.16770669335E+03  0.26180523466E+03  0.00000000000E+00 0.  1.
         21    1    1    2  503  501  0.14663885656E+03  0.31140949337E+02 -0.13600335872E+03  0.20240955156E+03  0.00000000000E+00 0.  1.
<mgrwt>
<rscale>  4 0.49895757E+03</rscale>
<asrwt>0</asrwt>
<pdfrwt beam="1">  1        1 0.51315730E-01 0.49895757E+03</pdfrwt>
<pdfrwt beam="2">  1       -1 0.63371498E-01 0.49895757E+03</pdfrwt>
<totfact> 0.19793206E+02</totfact>
</mgrwt>
</event>
<event>
 5    0  0.4025551E-002  0.4066132E+03  0.7546771E-02  0.1041514E+00
         -2   -1    0    0    0  501 -0.00000000000E+00  0.00000000000E+00  0.45709199336E+02  0.45709199336E+02  0.00000000000E+00 0.  1.
          2   -1    0    0  503    0  0.00000000000E+00 -0.00000000000E+00 -0.13278219808E+04  0.13278219808E+04  0.00000000000E+00 0. -1.
         25    1    1    2    0    0 -0.16006088211E+03 -0.12913184204E+03 -0.79857525021E+03  0.83405152650E+03  0.12500000000E+03 0.  0.
         21    1    1    2  502  501  0.14138155782E+03  0.83931058661E+02 -0.45276883870E+03  0.48169781897E+03  0.00000000000E+00 0.  1.
         21    1    1    2  503  502  0.18679324285E+02  0.45200783383E+02 -0.30768692522E+02  0.57781834634E+02  0.00000000000E+00 0.  1.
<mgrwt>
<rscale>  4 0.40661322E+03</rscale>
<asrwt>0</asrwt>
<pdfrwt beam="1">  1        2 0.20428031E+00 0.40661322E+03</pdfrwt>
<pdfrwt beam="2">  1       -2 0.70321845E-02 0.40661322E+03</pdfrwt>
<totfact> 0.19550453E+03</totfact>
</mgrwt>
</event>
<event>
 5    0  0.4025551E-002  0.6503461E+03  0.7546771E-02  0.9806130E-01
          2   -1    0    0  503    0  0.00000000000E+00  0.00000000000E+00  0.70904163889E+03  0.70904163889E+03  0.00000000000E+00 0. -1.
         -2   -1    0    0    0  501 -0.00000000000E+00 -0.00000000000E+00 -0.14912737183E+03  0.14912737183E+03  0.00000000000E+00 0.  1.
         25    1    1    2    0    0  0.29179508617E+03 -0.70231924256E+01  0.37620672206E+03  0.49229076293E+03  0.12500000000E+03 0.  0.
         21    1    1    2  502  501 -0.21851056159E+03 -0.25776509655E+02  0.18204298640E+03  0.28557125708E+03  0.00000000000E+00 0.  1.
         21    1    1    2  503  502 -0.73284524581E+02  0.32799702081E+02  0.16645585998E+01  0.80306990698E+02  0.00000000000E+00 0.  1.
<mgrwt>
<rscale>  4 0.65034611E+03</rscale>
<asrwt>0</asrwt>
<pdfrwt beam="1">  1        2 0.10908333E+00 0.65034611E+03</pdfrwt>
<pdfrwt beam="2">  1       -2 0.22942673E-01 0.65034611E+03</pdfrwt>
<totfact> 0.67823501E+02</totfact>
</mgrwt>
</event>
<event>
 5    0  0.4025551E-002  0.6126661E+03  0.7546771E-02  0.9879471E-01
         -2   -1    0    0    0  501 -0.00000000000E+00  0.00000000000E+00  0.21145378274E+03  0.21145378274E+03  0.00000000000E+00 0. -1.
          2   -1    0    0  503    0  0.00000000000E+00 -0.00000000000E+00 -0.51754750455E+03  0.51754750455E+03  0.00000000000E+00 0.  1.
         25    1    1    2    0    0  0.16339545008E+03  0.21574040416E+03 -0.28849288366E+02  0.29949837484E+03  0.12500000000E+03 0.  0.
         21    1    1    2  502  501 -0.17607844320E+03 -0.19039592989E+03 -0.29750204290E+03  0.39466656029E+03  0.00000000000E+00 0.  1.
         21    1    1    2  503  502  0.12682993119E+02 -0.25344474268E+02  0.20257609465E+02  0.34836352157E+02  0.00000000000E+00 0.  1.
<mgrwt>
<rscale>  4 0.61266611E+03</rscale>
<asrwt>0</asrwt>
<pdfrwt beam="1">  1        2 0.79622692E-01 0.61266611E+03</pdfrwt>
<pdfrwt beam="2">  1       -2 0.32531351E-01 0.61266611E+03</pdfrwt>
<totfact> 0.52488295E+02</totfact>
</mgrwt>
</event>
<event>
 5    0  0.4025551E-002  0.6194758E+03  0.7546771E-02  0.9865804E-01
         -2   -1    0    0    0  501 -0.00000000000E+00  0.00000000000E+00  0.13415134382E+03  0.13415134382E+03  0.00000000000E+00 0.  1.
          2   -1    0    0  503    0  0.00000000000E+00 -0.00000000000E+00 -0.76564433759E+03  0.76564433759E+03  0.00000000000E+00 0. -1.
         25    1    1    2    0    0 -0.19107579632E+03  0.82743977443E+02 -0.29646308860E+02  0.24466391105E+03  0.12500000000E+03 0.  0.
         21    1    1    2  502  501  0.20483993136E+03 -0.98691801444E+02 -0.58660414566E+03  0.62912947226E+03  0.00000000000E+00 0. -1.
         21    1    1    2  503  502 -0.13764135042E+02  0.15947824001E+02 -0.15242539243E+02  0.26002298099E+02  0.00000000000E+00 0. -1.
<mgrwt>
<rscale>  4 0.61947579E+03</rscale>
<asrwt>0</asrwt>
<pdfrwt beam="1">  1        2 0.11779144E+00 0.61947579E+03</pdfrwt>
<pdfrwt beam="2">  1       -2 0.20638668E-01 0.61947579E+03</pdfrwt>
<totfact> 0.74165109E+02</totfact>
</mgrwt>
</event>
<event>
 5    0  0.4025551E-002  0.6795515E+03  0.7546771E-02  0.9752855E-01
         -1   -1    0    0    0  501 -0.00000000000E+00  0.00000000000E+00  0.13765820013E+03  0.13765820013E+03  0.00000000000E+00 0.  1.
          1   -1    0    0  502    0  0.00000000000E+00 -0.00000000000E+00 -0.15368054359E+04  0.15368054359E+04  0.00000000000E+00 0. -1.
         25    1    1    2    0    0  0.56367290256E+02  0.31564511056E+03 -0.67007750913E+03  0.75328479041E+03  0.12500000000E+03 0.  0.
         21    1    1    2  502  503 -0.15394994187E+03 -0.20149470614E+03 -0.96970157665E+02  0.27148464539E+03  0.00000000000E+00 0.  1.
         21    1    1    2  503  501  0.97582651612E+02 -0.11415040442E+03 -0.63209956899E+03  0.64969420026E+03  0.00000000000E+00 0.  1.
<mgrwt>
<rscale>  4 0.67955152E+03</rscale>
<asrwt>0</asrwt>
<pdfrwt beam="1">  1        1 0.23643159E+00 0.67955152E+03</pdfrwt>
<pdfrwt beam="2">  1       -1 0.21178186E-01 0.67955152E+03</pdfrwt>
<totfact> 0.11784316E+02</totfact>
</mgrwt>
</event>
<event>
 5    0  0.4025551E-002  0.4578725E+03  0.7546771E-02  0.1025400E+00
         -2   -1    0    0    0  501 -0.00000000000E+00  0.00000000000E+00  0.78681867908E+02  0.78681867908E+02  0.00000000000E+00 0. -1.
          2   -1    0    0  502    0  0.00000000000E+00 -0.00000000000E+00 -0.77765202209E+03  0.77765202209E+03  0.00000000000E+00 0.  1.
         25    1    1    2    0    0 -0.20224357303E+03 -0.39987110409E+02 -0.51320435772E+03  0.56701423669E+03  0.12500000000E+03 0.  0.
         21    1    1    2  502  503  0.11796726552E+02  0.27080054346E+02 -0.14674445137E+02  0.32982289805E+02  0.00000000000E+00 0.  1.
         21    1    1    2  503  501  0.19044684647E+03  0.12907056063E+02 -0.17109135132E+03  0.25633736350E+03  0.00000000000E+00 0. -1.
<mgrwt>
<rscale>  4 0.45787252E+03</rscale>
<asrwt>0</asrwt>
<pdfrwt beam="1">  1        2 0.11963877E+00 0.45787252E+03</pdfrwt>
<pdfrwt beam="2">  1       -2 0.12104903E-01 0.45787252E+03</pdfrwt>
<totfact> 0.17969187E+03</totfact>
</mgrwt>
</event>
<event>
 5    0  0.4025551E-002  0.8714843E+03  0.7546771E-02  0.9461947E-01
          2   -1    0    0  502    0  0.00000000000E+00  0.00000000000E+00  0.36512405316E+03  0.36512405316E+03  0.00000000000E+00 0. -1.
         -2   -1    0    0    0  501 -0.00000000000E+00 -0.00000000000E+00 -0.56680173216E+03  0.56680173216E+03  0.00000000000E+00 0.  1.
         25    1    1    2    0    0 -0.19526313998E+03 -0.34981859789E+03 -0.22053648626E+03  0.47409080041E+03  0.12500000000E+03 0.  0.
         21    1    1    2  502  503 -0.31584930641E+02  0.65180257982E+01 -0.29267268849E+02  0.43550723642E+02  0.00000000000E+00 0. -1.
         21    1    1    2  503  501  0.22684807062E+03  0.34330057209E+03  0.48126076109E+02  0.41428426128E+03  0.00000000000E+00 0. -1.
<mgrwt>
<rscale>  4 0.87148431E+03</rscale>
<asrwt>0</asrwt>
<pdfrwt beam="1">  1        2 0.56172931E-01 0.87148431E+03</pdfrwt>
<pdfrwt beam="2">  1       -2 0.87200267E-01 0.87148431E+03</pdfrwt>
<totfact> 0.10064667E+02</totfact>
</mgrwt>
</event>
<event>
 5    0  0.4025551E-002  0.5859515E+03  0.7546771E-02  0.9934989E-01
          1   -1    0    0  503    0  0.00000000000E+00  0.00000000000E+00  0.10133047175E+04  0.10133047175E+04  0.00000000000E+00 0.  1.
         -1   -1    0    0    0  501 -0.00000000000E+00 -0.00000000000E+00 -0.13562034731E+03  0.13562034731E+03  0.00000000000E+00 0. -1.
         25    1    1    2    0    0  0.48733841268E+02  0.19576085009E+03  0.18520762443E+03  0.30103847239E+03  0.12500000000E+03 0.  0.
         21    1    1    2  502  501 -0.17343996933E+03 -0.26701774084E+03  0.59331678265E+03  0.67335332587E+03  0.00000000000E+00 0.  1.
         21    1    1    2  503  502  0.12470612806E+03  0.71256890754E+02  0.99159963143E+02  0.17453326659E+03  0.00000000000E+00 0. -1.
<mgrwt>
<rscale>  4 0.58595147E+03</rscale>
<asrwt>0</asrwt>
<pdfrwt beam="1">  1        1 0.15589303E+00 0.58595147E+03</pdfrwt>
<pdfrwt beam="2">  1       -1 0.20864669E-01 0.58595147E+03</pdfrwt>
<totfact> 0.28741301E+02</totfact>
</mgrwt>
</event>
<event>
 5    0  0.4025551E-002  0.4876208E+03  0.7546771E-02  0.1017062E+00
         -1   -1    0    0    0  501 -0.00000000000E+00  0.00000000000E+00  0.52313960215E+02  0.52313960215E+02  0.00000000000E+00 0. -1.
          1   -1    0    0  503    0  0.00000000000E+00 -0.00000000000E+00 -0.11362840242E+04  0.11362840242E+04  0.00000000000E+00 0.  1.
         25    1    1    2    0    0  0.80680511838E+02  0.20344272061E+03 -0.62976168168E+03  0.67832371422E+03  0.12500000000E+03 0.  0.
         21    1    1    2  502  501 -0.77931514711E+02 -0.14374391192E+03 -0.38820737783E+03  0.42123698960E+03  0.00000000000E+00 0. -1.
         21    1    1    2  503  502 -0.27489971272E+01 -0.59698808682E+02 -0.66001004419E+02  0.89037280549E+02  0.00000000000E+00 0.  1.
<mgrwt>
<rscale>  4 0.48762082E+03</rscale>
<asrwt>0</asrwt>
<pdfrwt beam="1">  1        1 0.17481292E+00 0.48762082E+03</pdfrwt>
<pdfrwt beam="2">  1       -1 0.80483017E-02 0.48762082E+03</pdfrwt>
<totfact> 0.10767019E+03</totfact>
</mgrwt>
</event>
<event>
 5    0  0.4025551E-002  0.5664603E+03  0.7546771E-02  0.9977542E-01
          2   -1    0    0  503    0  0.00000000000E+00  0.00000000000E+00  0.22631334941E+04  0.22631334941E+04  0.00000000000E+00 0. -1.
         -2   -1    0    0    0  501 -0.00000000000E+00 -0.00000000000E+00 -0.46587313431E+02  0.46587313431E+02  0.00000000000E+00 0.  1.
         25    1    1    2    0    0 -0.27528251370E+03 -0.41470009668E+02  0.97779750431E+03  0.10243110775E+04  0.12500000000E+03 0.  0.
         21    1    1    2  502  501  0.24907922997E+03  0.18369949793E+02  0.12208964185E+04  0.12461805578E+04  0.00000000000E+00 0. -1.
         21    1    1    2  503  502  0.26203283727E+02  0.23100059874E+02  0.17852257827E+02  0.39229172229E+02  0.00000000000E+00 0. -1.
<mgrwt>
<rscale>  4 0.56646032E+03</rscale>
<asrwt>0</asrwt>
<pdfrwt beam="1">  1        2 0.34817430E+00 0.56646032E+03</pdfrwt>
<pdfrwt beam="2">  1       -2 0.71672807E-02 0.56646032E+03</pdfrwt>
<totfact> 0.58352554E+02</totfact>
</mgrwt>
</event>
<event>
 5    0  0.4025551E-002  0.4230689E+03  0.7546771E-02  0.1036072E+00
          2   -1    0    0  503    0  0.00000000000E+00  0.00000000000E+00  0.53622053670E+03  0.53622053670E+03  0.00000000000E+00 0. -1.
         -2   -1    0    0    0  501 -0.00000000000E+00 -0.00000000000E+00 -0.10207159992E+03  0.10207159992E+03  0.00000000000E+00 0.  1.
         25    1    1    2    0    0  0.18986597396E+03  0.78463458066E+02  0.27173895077E+03  0.36286727558E+03  0.12500000000E+03 0.  0.
         21    1    1    2  502  501 -0.16270311494E+03 -0.80552134720E+02  0.16829169433E+03  0.24755412418E+03  0.00000000000E+00 0.  1.
         21    1    1    2  503  502 -0.27162859026E+02  0.20886766543E+01 -0.58817083099E+01  0.27870736863E+02  0.00000000000E+00 0. -1.
<mgrwt>
<rscale>  4 0.42306893E+03</rscale>
<asrwt>0</asrwt>
<pdfrwt beam="1">  1        2 0.82495465E-01 0.42306893E+03</pdfrwt>
<pdfrwt beam="2">  1       -2 0.15703323E-01 0.42306893E+03</pdfrwt>
<totfact> 0.18310405E+03</totfact>
</mgrwt>
</event>
<event>
 5    0  0.4025551E-002  0.4812078E+03  0.7546771E-02  0.1018804E+00
          2   -1    0    0  502    0  0.00000000000E+00  0.00000000000E+00  0.24458719578E+04  0.24458719578E+04  0.00000000000E+00 0. -1.
         -2   -1    0    0    0  501 -0.00000000000E+00 -0.00000000000E+00 -0.30744327644E+02  0.30744327644E+02  0.00000000000E+00 0.  1.
         25    1    1    2    0    0  0.13819155613E+03 -0.15347253154E+03  0.11038817729E+04  0.11299693326E+04  0.12500000000E+03 0.  0.
         21    1    1    2  502  503  0.23059864022E+02 -0.21998022009E+02  0.31175112242E+02  0.44582035892E+02  0.00000000000E+00 0.  1.
         21    1    1    2  503  501 -0.16125142015E+03  0.17547055354E+03  0.12800707450E+04  0.13020649169E+04  0.00000000000E+00 0. -1.
<mgrwt>
<rscale>  4 0.48120784E+03</rscale>
<asrwt>0</asrwt>
<pdfrwt beam="1">  1        2 0.37628784E+00 0.48120784E+03</pdfrwt>
<pdfrwt beam="2">  1       -2 0.47298985E-02 0.48120784E+03</pdfrwt>
<totfact> 0.89176257E+02</totfact>
</mgrwt>
</event>
<event>
 5    0  0.4025551E-002  0.5275505E+03  0.7546771E-02  0.1006828E+00
         -4   -1    0    0    0  501 -0.00000000000E+00  0.00000000000E+00  0.27497561276E+03  0.27497561276E+03  0.00000000000E+00 0. -1.
          4   -1    0    0  502    0  0.00000000000E+00 -0.00000000000E+00 -0.25303108777E+03  0.25303108777E+03  0.00000000000E+00 0.  1.
         25    1    1    2    0    0  0.13962987109E+03 -0.19140459974E+03 -0.25310446302E+02  0.26906846786E+03  0.12500000000E+03 0.  0.
         21    1    1    2  502  503 -0.67223719599E+02  0.82281530227E+02  0.68283339937E+02  0.12630080446E+03  0.00000000000E+00 0. -1.
         21    1    1    2  503  501 -0.72406151494E+02  0.10912306951E+03 -0.21028368642E+02  0.13263742821E+03  0.00000000000E+00 0. -1.
<mgrwt>
<rscale>  4 0.52755048E+03</rscale>
<asrwt>0</asrwt>
<pdfrwt beam="1">  1        4 0.38927860E-01 0.52755048E+03</pdfrwt>
<pdfrwt beam="2">  1       -4 0.42303941E-01 0.52755048E+03</pdfrwt>
<totfact> 0.68502586E+01</totfact>
</mgrwt>
</event>
<event>
 5    0  0.4025551E-002  0.5184933E+03  0.7546771E-02  0.1009062E+00
         -3   -1    0    0    0  501 -0.00000000000E+00  0.00000000000E+00  0.47224472128E+03  0.47224472128E+03  0.00000000000E+00 0.  1.
          3   -1    0    0  502    0  0.00000000000E+00 -0.00000000000E+00 -0.39815193120E+03  0.39815193120E+03  0.00000000000E+00 0. -1.
         25    1    1    2    0    0 -0.23641444717E+03 -0.10424211364E+03  0.12315252904E+02  0.28728883469E+03  0.12500000000E+03 0.  0.
         21    1    1    2  502  503  0.12291246737E+03 -0.28749343912E+01  0.28520166568E+03  0.31057322807E+03  0.00000000000E+00 0. -1.
         21    1    1    2  503  501  0.11350197980E+03  0.10711704803E+03 -0.22342412850E+03  0.27253458972E+03  0.00000000000E+00 0. -1.
<mgrwt>
<rscale>  4 0.51849331E+03</rscale>
<asrwt>0</asrwt>
<pdfrwt beam="1">  1        3 0.61254143E-01 0.51849331E+03</pdfrwt>
<pdfrwt beam="2">  1       -3 0.72653034E-01 0.51849331E+03</pdfrwt>
<totfact> 0.12209105E+01</totfact>
</mgrwt>
</event>
<event>
 5    0  0.4025551E-002  0.7891437E+03  0.7546771E-02  0.9575865E-01
          2   -1    0    0  503    0  0.00000000000E+00  0.00000000000E+00  0.26571831539E+04  0.26571831539E+04  0.00000000000E+00 0.  1.
         -2   -1    0    0    0  501 -0.00000000000E+00 -0.00000000000E+00 -0.66706821626E+02  0.66706821626E+02  0.00000000000E+00 0. -1.
         25    1    1    2    0    0  0.12189880471E+03  0.31637836233E+03  0.64003895959E+03  0.73500303165E+03  0.12500000000E+03 0.  0.
         21    1    1    2  502  501 -0.12181510852E+03 -0.28030568129E+03  0.19116122344E+04  0.19358903715E+04  0.00000000000E+00 0.  1.
         21    1    1    2  503  502 -0.83696195561E-01 -0.36072681042E+02  0.38825138218E+02  0.52996572344E+02  0.00000000000E+00 0.  1.
<mgrwt>
<rscale>  4 0.78914368E+03</rscale>
<asrwt>0</asrwt>
<pdfrwt beam="1">  1        2 0.40879733E+00 0.78914368E+03</pdfrwt>
<pdfrwt beam="2">  1       -2 0.10262590E-01 0.78914368E+03</pdfrwt>
<totfact> 0.19245558E+02</totfact>
</mgrwt>
</event>
<event>
 5    0  0.4025551E-002  0.4709480E+03  0.7546771E-02  0.1021653E+00
          1   -1    0    0  502    0  0.00000000000E+00  0.00000000000E+00  0.14186303560E+04  0.14186303560E+04  0.00000000000E+00 0. -1.
         -1   -1    0    0    0  501 -0.00000000000E+00 -0.00000000000E+00 -0.48990682210E+03  0.48990682210E+03  0.00000000000E+00 0.  1.
         25    1    1    2    0    0  0.21598261391E+03 -0.67035977089E+02  0.55683086893E+03  0.61386311856E+03  0.12500000000E+03 0.  0.
         21    1    1    2  502  503 -0.28247895935E+02  0.80639539915E+02 -0.44665978729E+03  0.45475888623E+03  0.00000000000E+00 0.  1.
         21    1    1    2  503  501 -0.18773471798E+03 -0.13603562826E+02  0.81855245228E+03  0.83991517333E+03  0.00000000000E+00 0. -1.
<mgrwt>
<rscale>  4 0.47094802E+03</rscale>
<asrwt>0</asrwt>
<pdfrwt beam="1">  1        1 0.21825082E+00 0.47094802E+03</pdfrwt>
<pdfrwt beam="2">  1       -1 0.75370281E-01 0.47094802E+03</pdfrwt>
<totfact> 0.14354795E+01</totfact>
</mgrwt>
</event>
<event>
 5    0  0.4025551E-002  0.4372724E+03  0.7546771E-02  0.1031587E+00
          2   -1    0    0  502    0  0.00000000000E+00  0.00000000000E+00  0.18535724910E+04  0.18535724910E+04  0.00000000000E+00 0.  1.
         -2   -1    0    0    0  501 -0.00000000000E+00 -0.00000000000E+00 -0.38649074723E+02  0.38649074723E+02  0.00000000000E+00 0. -1.
         25    1    1    2    0    0 -0.16398085698E+03  0.11719386695E+03  0.66088684489E+03  0.70215421786E+03  0.12500000000E+03 0.  0.
         21    1    1    2  502  503  0.34489315894E+02 -0.22769683883E+02  0.22145642197E+02  0.46887107858E+02  0.00000000000E+00 0. -1.
         21    1    1    2  503  501  0.12949154109E+03 -0.94424183066E+02  0.11318909292E+04  0.11431802401E+04  0.00000000000E+00 0.  1.
<mgrwt>
<rscale>  4 0.43727236E+03</rscale>
<asrwt>0</asrwt>
<pdfrwt beam="1">  1        2 0.28516493E+00 0.43727236E+03</pdfrwt>
<pdfrwt beam="2">  1       -2 0.59460130E-02 0.43727236E+03</pdfrwt>
<totfact> 0.13153674E+03</totfact>
</mgrwt>
</event>
<event>
 5    0  0.4025551E-002  0.8333469E+03  0.7546771E-02  0.9512965E-01
          4   -1    0    0  503    0  0.00000000000E+00  0.00000000000E+00  0.13766304400E+04  0.13766304400E+04  0.00000000000E+00 0.  1.
         -4   -1    0    0    0  501 -0.00000000000E+00 -0.00000000000E+00 -0.38394866679E+03  0.38394866679E+03  0.00000000000E+00 0. -1.
         25    1    1    2    0    0 -0.30769099895E+03  0.12387331651E+03  0.31542472586E+03  0.47448509678E+03  0.12500000000E+03 0.  0.
         21    1    1    2  502  501  0.29467437518E+02 -0.19199623189E+03  0.90157986693E+03  0.92226739040E+03  0.00000000000E+00 0.  1.
         21    1    1    2  503  502  0.27822356143E+03  0.68122915374E+02 -0.22432281960E+03  0.36382661960E+03  0.00000000000E+00 0. -1.
<mgrwt>
<rscale>  4 0.83334685E+03</rscale>
<asrwt>0</asrwt>
<pdfrwt beam="1">  1        4 0.21178930E+00 0.83334685E+03</pdfrwt>
<pdfrwt beam="2">  1       -4 0.59069026E-01 0.83334685E+03</pdfrwt>
<totfact> 0.58877357E-01</totfact>
</mgrwt>
</event>
<event>
 5    0  0.4025551E-002  0.4715895E+03  0.7546771E-02  0.1021473E+00
         -1   -1    0    0    0  501 -0.00000000000E+00  0.00000000000E+00  0.39698012452E+03  0.39698012452E+03  0.00000000000E+00 0.  1.
          1   -1    0    0  502    0  0.00000000000E+00 -0.00000000000E+00 -0.22265283640E+03  0.22265283640E+03  0.00000000000E+00 0. -1.
         25    1    1    2    0    0 -0.62357337376E+02 -0.20425774542E+03 -0.22240809127E+02  0.24845385423E+03  0.12500000000E+03 0.  0.
         21    1    1    2  502  503  0.84135417536E+02 -0.69060381122E+01  0.11742852421E+03  0.14462337343E+03  0.00000000000E+00 0. -1.
         21    1    1    2  503  501 -0.21778080160E+02  0.21116378353E+03  0.79139573046E+02  0.22655573326E+03  0.00000000000E+00 0.  1.
<mgrwt>
<rscale>  4 0.47158948E+03</rscale>
<asrwt>0</asrwt>
<pdfrwt beam="1">  1        1 0.34254283E-01 0.47158948E+03</pdfrwt>
<pdfrwt beam="2">  1       -1 0.61073865E-01 0.47158948E+03</pdfrwt>
<totfact> 0.35804209E+02</totfact>
</mgrwt>
</event>
<event>
 5    0  0.4025551E-002  0.5226927E+03  0.7546771E-02  0.1008020E+00
         -2   -1    0    0    0  501 -0.00000000000E+00  0.00000000000E+00  0.43120558187E+02  0.43120558187E+02  0.00000000000E+00 0. -1.
          2   -1    0    0  502    0  0.00000000000E+00 -0.00000000000E+00 -0.19930909287E+04  0.19930909287E+04  0.00000000000E+00 0.  1.
         25    1    1    2    0    0 -0.92836909327E+01  0.26091362582E+03 -0.12270623632E+04  0.12607415081E+04  0.12500000000E+03 0.  0.
         21    1    1    2  502  503 -0.20241413545E+02 -0.36867181541E+02 -0.48442900565E+02  0.64153086536E+02  0.00000000000E+00 0.  1.
         21    1    1    2  503  501  0.29525104477E+02 -0.22404644428E+03 -0.67446510680E+03  0.71131689230E+03  0.00000000000E+00 0.  1.
<mgrwt>
<rscale>  4 0.52269266E+03</rscale>
<asrwt>0</asrwt>
<pdfrwt beam="1">  1        2 0.30662939E+00 0.52269266E+03</pdfrwt>
<pdfrwt beam="2">  1       -2 0.66339317E-02 0.52269266E+03</pdfrwt>
<totfact> 0.92744801E+02</totfact>
</mgrwt>
</event>
<event>
 5    0  0.4025551E-002  0.4704701E+03  0.7546771E-02  0.1021788E+00
         -2   -1    0    0    0  501 -0.00000000000E+00  0.00000000000E+00  0.58365838711E+02  0.58365838711E+02  0.00000000000E+00 0.  1.
          2   -1    0    0  502    0  0.00000000000E+00 -0.00000000000E+00 -0.34926124663E+04  0.34926124663E+04  0.00000000000E+00 0. -1.
         25    1    1    2    0    0  0.59922967257E+02  0.24423633645E+03 -0.17071203925E+04  0.17300656590E+04  0.12500000000E+03 0.  0.
         21    1    1    2  502  503  0.39886140731E+02 -0.96049679580E+02 -0.21812207184E+02  0.10626484627E+03  0.00000000000E+00 0.  1.
         21    1    1    2  503  501 -0.99809107988E+02 -0.14818665687E+03 -0.17053140279E+04  0.17146477997E+04  0.00000000000E+00 0.  1.
<mgrwt>
<rscale>  4 0.47047013E+03</rscale>
<asrwt>0</asrwt>
<pdfrwt beam="1">  1        2 0.53732508E+00 0.47047013E+03</pdfrwt>
<pdfrwt beam="2">  1       -2 0.89793584E-02 0.47047013E+03</pdfrwt>
<totfact> 0.76130607E+01</totfact>
</mgrwt>
</event>
<event>
 5    0  0.4025551E-002  0.4886365E+03  0.7546771E-02  0.1016788E+00
          1   -1    0    0  502    0  0.00000000000E+00  0.00000000000E+00  0.75258087326E+03  0.75258087326E+03  0.00000000000E+00 0.  1.
         -1   -1    0    0    0  501 -0.00000000000E+00 -0.00000000000E+00 -0.11500029539E+03  0.11500029539E+03  0.00000000000E+00 0. -1.
         25    1    1    2    0    0 -0.21489149496E+03 -0.61258558143E+02  0.24035173749E+03  0.35117648450E+03  0.12500000000E+03 0.  0.
         21    1    1    2  502  503  0.55103839474E+01  0.34897502789E+02 -0.25740203100E+02  0.43712218976E+02  0.00000000000E+00 0. -1.
         21    1    1    2  503  501  0.20938111101E+03  0.26361055355E+02  0.42296904347E+03  0.47269246517E+03  0.00000000000E+00 0.  1.
<mgrwt>
<rscale>  4 0.48863646E+03</rscale>
<asrwt>0</asrwt>
<pdfrwt beam="1">  1        1 0.11578167E+00 0.48863646E+03</pdfrwt>
<pdfrwt beam="2">  1       -1 0.17692354E-01 0.48863646E+03</pdfrwt>
<totfact> 0.61968663E+02</totfact>
</mgrwt>
</event>
<event>
 5    0  0.4025551E-002  0.1207814E+04  0.7546771E-02  0.9106044E-01
          2   -1    0    0  503    0  0.00000000000E+00  0.00000000000E+00  0.10374965501E+04  0.10374965501E+04  0.00000000000E+00 0.  1.
         -2   -1    0    0    0  501 -0.00000000000E+00 -0.00000000000E+00 -0.47409376941E+03  0.47409376941E+03  0.00000000000E+00 0. -1.
         25    1    1    2    0    0  0.41984101679E+03 -0.23321549272E+02  0.84183973186E+03  0.94927841447E+03  0.12500000000E+03 0.  0.
         21    1    1    2  502  501 -0.40705968216E+03  0.45324631546E+02 -0.15764133196E+03  0.43886523741E+03  0.00000000000E+00 0. -1.
         21    1    1    2  503  502 -0.12781334625E+02 -0.22003082273E+02 -0.12079561918E+03  0.12344666766E+03  0.00000000000E+00 0. -1.
<mgrwt>
<rscale>  4 0.12078143E+04</rscale>
<asrwt>0</asrwt>
<pdfrwt beam="1">  1        2 0.15961485E+00 0.12078143E+04</pdfrwt>
<pdfrwt beam="2">  1       -2 0.72937503E-01 0.12078143E+04</pdfrwt>
<totfact> 0.39814143E+01</totfact>
</mgrwt>
</event>
<event>
 5    0  0.4025551E-002  0.5521318E+03  0.7546771E-02  0.1001002E+00
         -2   -1    0    0    0  501 -0.00000000000E+00  0.00000000000E+00  0.22474379509E+03  0.22474379509E+03  0.00000000000E+00 0. -1.
          2   -1    0    0  503    0  0.00000000000E+00 -0.00000000000E+00 -0.44816763779E+03  0.44816763779E+03  0.00000000000E+00 0.  1.
         25    1    1    2    0    0 -0.26381396464E+03  0.93435663580E+02 -0.14296779942E+03  0.33822008048E+03  0.12500000000E+03 0.  0.
         21    1    1    2  502  501  0.22345214046E+03 -0.10177190991E+03 -0.12371450428E+03  0.27494301099E+03  0.00000000000E+00 0.  1.
         21    1    1    2  503  502  0.40361824180E+02  0.83362463290E+01  0.43258461007E+02  0.59748341422E+02  0.00000000000E+00 0. -1.
<mgrwt>
<rscale>  4 0.55213180E+03</rscale>
<asrwt>0</asrwt>
<pdfrwt beam="1">  1        2 0.68948867E-01 0.55213180E+03</pdfrwt>
<pdfrwt beam="2">  1       -2 0.34575969E-01 0.55213180E+03</pdfrwt>
<totfact> 0.55261271E+02</totfact>
</mgrwt>
</event>
<event>
 5    0  0.4025551E-002  0.6497305E+03  0.7546771E-02  0.9807285E-01
          1   -1    0    0  503    0  0.00000000000E+00  0.00000000000E+00  0.17598442377E+04  0.17598442377E+04  0.00000000000E+00 0.  1.
         -1   -1    0    0    0  501 -0.00000000000E+00 -0.00000000000E+00 -0.89920560681E+02  0.89920560681E+02  0.00000000000E+00 0. -1.
         25    1    1    2    0    0 -0.54540171709E+02  0.31797849580E+03  0.49794489294E+03  0.60634896761E+03  0.12500000000E+03 0.  0.
         21    1    1    2  502  501 -0.60454473450E+02 -0.23652331419E+03  0.94687975129E+03  0.97784420278E+03  0.00000000000E+00 0.  1.
         21    1    1    2  503  502  0.11499464516E+03 -0.81455181614E+02  0.22509903278E+03  0.26557162798E+03  0.00000000000E+00 0.  1.
<mgrwt>
<rscale>  4 0.64973052E+03</rscale>
<asrwt>0</asrwt>
<pdfrwt beam="1">  1        1 0.27074524E+00 0.64973052E+03</pdfrwt>
<pdfrwt beam="2">  1       -1 0.13833934E-01 0.64973052E+03</pdfrwt>
<totfact> 0.16820753E+02</totfact>
</mgrwt>
</event>
<event>
 5    0  0.4025551E-002  0.5480368E+03  0.7546771E-02  0.1001949E+00
          2   -1    0    0  502    0  0.00000000000E+00  0.00000000000E+00  0.12165227355E+04  0.12165227355E+04  0.00000000000E+00 0.  1.
         -2   -1    0    0    0  501 -0.00000000000E+00 -0.00000000000E+00 -0.11577518884E+03  0.11577518884E+03  0.00000000000E+00 0. -1.
         25    1    1    2    0    0 -0.17909936319E+03 -0.11580201336E+03  0.37607055110E+03  0.45004527284E+03  0.12500000000E+03 0.  0.
         21    1    1    2  502  503 -0.10332658400E+03  0.54657295540E+02  0.17347182885E+02  0.11817244887E+03  0.00000000000E+00 0. -1.
         21    1    1    2  503  501  0.28242594719E+03  0.61144717818E+02  0.70732981271E+03  0.76408020267E+03  0.00000000000E+00 0.  1.
<mgrwt>
<rscale>  4 0.54803679E+03</rscale>
<asrwt>0</asrwt>
<pdfrwt beam="1">  1        2 0.18715733E+00 0.54803679E+03</pdfrwt>
<pdfrwt beam="2">  1       -2 0.17811568E-01 0.54803679E+03</pdfrwt>
<totfact> 0.49264289E+02</totfact>
</mgrwt>
</event>
<event>
 5    0  0.6276143E-002  0.9732427E+03  0.7546771E-02  0.9338389E-01
         -2   -1    0    0    0  501 -0.00000000000E+00  0.00000000000E+00  0.49931475803E+03  0.49931475803E+03  0.00000000000E+00 0. -1.
          2   -1    0    0  502    0  0.00000000000E+00 -0.00000000000E+00 -0.51483428900E+03  0.51483428900E+03  0.00000000000E+00 0.  1.
         25    1    1    2    0    0  0.51889380367E+02  0.20256835916E+03  0.41376224159E+03  0.48015689154E+03  0.12500000000E+03 0.  0.
         21    1    1    2  502  503  0.13549255298E+02 -0.25776219056E+02  0.27367111654E+02  0.39961914221E+02  0.00000000000E+00 0. -1.
         21    1    1    2  503  501 -0.65438635665E+02 -0.17679214010E+03 -0.45664888421E+03  0.49403024127E+03  0.00000000000E+00 0.  1.
<mgrwt>
<rscale>  4 0.97324268E+03</rscale>
<asrwt>0</asrwt>
<pdfrwt beam="1">  1        2 0.79205275E-01 0.97324268E+03</pdfrwt>
<pdfrwt beam="2">  1       -2 0.76817655E-01 0.97324268E+03</pdfrwt>
<totfact> 0.90111857E+01</totfact>
</mgrwt>
</event>
<event>
 5    0  0.4025551E-002  0.7313446E+03  0.7546771E-02  0.9665081E-01
          1   -1    0    0  502    0  0.00000000000E+00  0.00000000000E+00  0.10383224217E+04  0.10383224217E+04  0.00000000000E+00 0. -1.
         -1   -1    0    0    0  501 -0.00000000000E+00 -0.00000000000E+00 -0.20598104964E+03  0.20598104964E+03  0.00000000000E+00 0.  1.
         25    1    1    2    0    0 -0.24432906651E+03  0.18170275182E+03  0.22209259926E+03  0.39706763329E+03  0.12500000000E+03 0.  0.
         21    1    1    2  502  503  0.29737198074E+03 -0.27059241127E+03  0.25240089486E+03  0.47471734716E+03  0.00000000000E+00 0. -1.
         21    1    1    2  503  501 -0.53042914237E+02  0.88889659454E+02  0.35784787791E+03  0.37251849086E+03  0.00000000000E+00 0.  1.
<mgrwt>
<rscale>  4 0.73134464E+03</rscale>
<asrwt>0</asrwt>
<pdfrwt beam="1">  1        1 0.15974191E+00 0.73134464E+03</pdfrwt>
<pdfrwt beam="2">  1       -1 0.31689393E-01 0.73134464E+03</pdfrwt>
<totfact> 0.13329102E+02</totfact>
</mgrwt>
</event>
<event>
 5    0  0.4025551E-002  0.6454473E+03  0.7546771E-02  0.9815360E-01
         -1   -1    0    0    0  501 -0.00000000000E+00  0.00000000000E+00  0.72041666057E+02  0.72041666057E+02  0.00000000000E+00 0. -1.
          1   -1    0    0  503    0  0.00000000000E+00 -0.00000000000E+00 -0.16063672909E+04  0.16063672909E+04  0.00000000000E+00 0.  1.
         25    1    1    2    0    0  0.20258937292E+03 -0.70823675292E+02 -0.19322865484E+03  0.31467564262E+03  0.12500000000E+03 0.  0.
         21    1    1    2  502  501 -0.18914803128E+03  0.38746641228E+02 -0.12699201825E+04  0.12845137407E+04  0.00000000000E+00 0.  1.
         21    1    1    2  503  502 -0.13441341645E+02  0.32077034063E+02 -0.71176787438E+02  0.79219573652E+02  0.00000000000E+00 0.  1.
<mgrwt>
<rscale>  4 0.64544726E+03</rscale>
<asrwt>0</asrwt>
<pdfrwt beam="1">  1        1 0.24713342E+00 0.64544726E+03</pdfrwt>
<pdfrwt beam="2">  1       -1 0.11083333E-01 0.64544726E+03</pdfrwt>
<totfact> 0.30417998E+02</totfact>
</mgrwt>
</event>
<event>
 5    0  0.4025551E-002  0.4119021E+03  0.7546771E-02  0.1039735E+00
         -2   -1    0    0    0  501 -0.00000000000E+00  0.00000000000E+00  0.28956335700E+02  0.28956335700E+02  0.00000000000E+00 0.  1.
          2   -1    0    0  503    0  0.00000000000E+00 -0.00000000000E+00 -0.29427939826E+04  0.29427939826E+04  0.00000000000E+00 0. -1.
         25    1    1    2    0    0  0.16992174906E+03  0.12903513836E+03 -0.68744795376E+03  0.73057043251E+03  0.12500000000E+03 0.  0.
         21    1    1    2  502  501 -0.36658760314E+02 -0.88647830139E+02 -0.13874544631E+04  0.13907667632E+04  0.00000000000E+00 0. -1.
         21    1    1    2  503  502 -0.13326298874E+03 -0.40387308220E+02 -0.83893523005E+03  0.85041312258E+03  0.00000000000E+00 0. -1.
<mgrwt>
<rscale>  4 0.41190215E+03</rscale>
<asrwt>0</asrwt>
<pdfrwt beam="1">  1        2 0.45273770E+00 0.41190215E+03</pdfrwt>
<pdfrwt beam="2">  1       -2 0.44548193E-02 0.41190215E+03</pdfrwt>
<totfact> 0.51180280E+02</totfact>
</mgrwt>
</event>
<event>
 5    0  0.4025551E-002  0.6780027E+03  0.7546771E-02  0.9755608E-01
         -2   -1    0    0    0  501 -0.00000000000E+00  0.00000000000E+00  0.24185097336E+03  0.24185097336E+03  0.00000000000E+00 0.  1.
          2   -1    0    0  503    0  0.00000000000E+00 -0.00000000000E+00 -0.14170748042E+04  0.14170748042E+04  0.00000000000E+00 0. -1.
         25    1    1    2    0    0  0.25034690875E+03  0.22980575723E+03 -0.70913863462E+03  0.79623292063E+03  0.12500000000E+03 0.  0.
         21    1    1    2  502  501 -0.24891608318E+03 -0.19451861552E+03 -0.62478592496E+03  0.70011010582E+03  0.00000000000E+00 0.  1.
         21    1    1    2  503  502 -0.14308255696E+01 -0.35287141716E+02  0.15870072878E+03  0.16258275108E+03  0.00000000000E+00 0.  1.
<mgrwt>
<rscale>  4 0.67800274E+03</rscale>
<asrwt>0</asrwt>
<pdfrwt beam="1">  1        2 0.21801151E+00 0.67800274E+03</pdfrwt>
<pdfrwt beam="2">  1       -2 0.37207842E-01 0.67800274E+03</pdfrwt>
<totfact> 0.98676746E+01</totfact>
</mgrwt>
</event>
<event>
 5    0  0.4025551E-002  0.5476475E+03  0.7546771E-02  0.1002040E+00
         -2   -1    0    0    0  501 -0.00000000000E+00  0.00000000000E+00  0.38507874975E+02  0.38507874975E+02  0.00000000000E+00 0.  1.
          2   -1    0    0  502    0  0.00000000000E+00 -0.00000000000E+00 -0.22624711773E+04  0.22624711773E+04  0.00000000000E+00 0. -1.
         25    1    1    2    0    0  0.21296447730E+03  0.51344387888E+02 -0.57854407431E+03  0.63113260150E+03  0.12500000000E+03 0.  0.
         21    1    1    2  502  503 -0.81251405066E+01  0.22902767197E+02 -0.25072996251E+02  0.34917184802E+02  0.00000000000E+00 0. -1.
         21    1    1    2  503  501 -0.20483933679E+03 -0.74247155085E+02 -0.16203462318E+04  0.16349292660E+04  0.00000000000E+00 0. -1.
<mgrwt>
<rscale>  4 0.54764752E+03</rscale>
<asrwt>0</asrwt>
<pdfrwt beam="1">  1        2 0.34807257E+00 0.54764752E+03</pdfrwt>
<pdfrwt beam="2">  1       -2 0.59242871E-02 0.54764752E+03</pdfrwt>
<totfact> 0.78914804E+02</totfact>
</mgrwt>
</event>
<event>
 5    0  0.4025551E-002  0.6348578E+03  0.7546771E-02  0.9835615E-01
         -2   -1    0    0    0  501 -0.00000000000E+00  0.00000000000E+00  0.65417661267E+03  0.65417661267E+03  0.00000000000E+00 0.  1.
          2   -1    0    0  503    0  0.00000000000E+00 -0.00000000000E+00 -0.26194043792E+03  0.26194043792E+03  0.00000000000E+00 0. -1.
         25    1    1    2    0    0  0.40980093323E+02  0.32430423530E+03  0.19028730971E+02  0.35048494644E+03  0.12500000000E+03 0.  0.
         21    1    1    2  502  501 -0.11992525278E+03 -0.70909809127E+02  0.21638038798E+03  0.25735333608E+03  0.00000000000E+00 0.  1.
         21    1    1    2  503  502  0.78945159459E+02 -0.25339442617E+03  0.15682705579E+03  0.30827876807E+03  0.00000000000E+00 0.  1.
<mgrwt>
<rscale>  4 0.63485776E+03</rscale>
<asrwt>0</asrwt>
<pdfrwt beam="1">  1        2 0.40298529E-01 0.63485776E+03</pdfrwt>
<pdfrwt beam="2">  1       -2 0.10064256E+00 0.63485776E+03</pdfrwt>
<totfact> 0.10542297E+02</totfact>
</mgrwt>
</event>
<event>
 5    0  0.4025551E-002  0.7550211E+03  0.7546771E-02  0.9627506E-01
         -2   -1    0    0    0  501 -0.00000000000E+00  0.00000000000E+00  0.79971932738E+02  0.79971932738E+02  0.00000000000E+00 0.  1.
          2   -1    0    0  502    0  0.00000000000E+00 -0.00000000000E+00 -0.19752252576E+04  0.19752252576E+04  0.00000000000E+00 0. -1.
         25    1    1    2    0    0 -0.49592855373E+02  0.32985748712E+03 -0.14384377719E+04  0.14818885372E+04  0.12500000000E+03 0.  0.
         21    1    1    2  502  503  0.21775355207E+02 -0.13529603965E+02 -0.16705771710E+02  0.30599004661E+02  0.00000000000E+00 0.  1.
         21    1    1    2  503  501  0.27817500166E+02 -0.31632788315E+03 -0.44010978126E+03  0.54270964846E+03  0.00000000000E+00 0.  1.
<mgrwt>
<rscale>  4 0.75502113E+03</rscale>
<asrwt>0</asrwt>
<pdfrwt beam="1">  1        2 0.30388081E+00 0.75502113E+03</pdfrwt>
<pdfrwt beam="2">  1       -2 0.12303374E-01 0.75502113E+03</pdfrwt>
<totfact> 0.34436762E+02</totfact>
</mgrwt>
</event>
<event>
 5    0  0.4025551E-002  0.5073660E+03  0.7546771E-02  0.1011874E+00
         -1   -1    0    0    0  501 -0.00000000000E+00  0.00000000000E+00  0.14110476748E+03  0.14110476748E+03  0.00000000000E+00 0.  1.
          1   -1    0    0  502    0  0.00000000000E+00 -0.00000000000E+00 -0.88872206978E+03  0.88872206978E+03  0.00000000000E+00 0. -1.
         25    1    1    2    0    0 -0.79093488938E+02 -0.21945016587E+03 -0.32693867739E+03  0.42062816604E+03  0.12500000000E+03 0.  0.
         21    1    1    2  502  503  0.21954002575E+02 -0.30730130091E+01  0.66753064046E+02  0.70337708219E+02  0.00000000000E+00 0.  1.
         21    1    1    2  503  501  0.57139486363E+02  0.22252317888E+03 -0.48743168896E+03  0.53886096300E+03  0.00000000000E+00 0.  1.
<mgrwt>
<rscale>  4 0.50736604E+03</rscale>
<asrwt>0</asrwt>
<pdfrwt beam="1">  1        1 0.13672647E+00 0.50736604E+03</pdfrwt>
<pdfrwt beam="2">  1       -1 0.21708426E-01 0.50736604E+03</pdfrwt>
<totfact> 0.33889693E+02</totfact>
</mgrwt>
</event>
<event>
 5    0  0.4025551E-002  0.4676142E+03  0.7546771E-02  0.1022596E+00
         -1   -1    0    0    0  501 -0.00000000000E+00  0.00000000000E+00  0.54863132905E+02  0.54863132905E+02  0.00000000000E+00 0. -1.
          1   -1    0    0  503    0  0.00000000000E+00 -0.00000000000E+00 -0.24490564713E+04  0.24490564713E+04  0.00000000000E+00 0.  1.
         25    1    1    2    0    0 -0.18433036207E+03 -0.10829053658E+03 -0.13508865542E+04  0.13733987058E+04  0.12500000000E+03 0.  0.
         21    1    1    2  502  501  0.21041690105E+03  0.60965256694E+02 -0.10530629565E+04  0.10756084906E+04  0.00000000000E+00 0.  1.
         21    1    1    2  503  502 -0.26086538983E+02  0.47325279887E+02  0.97561723048E+01  0.54912407801E+02  0.00000000000E+00 0. -1.
<mgrwt>
<rscale>  4 0.46761416E+03</rscale>
<asrwt>0</asrwt>
<pdfrwt beam="1">  1        1 0.37677792E+00 0.46761416E+03</pdfrwt>
<pdfrwt beam="2">  1       -1 0.84404819E-02 0.46761416E+03</pdfrwt>
<totfact> 0.13065374E+02</totfact>
</mgrwt>
</event>
<event>
 5    0  0.4025551E-002  0.5354799E+03  0.7546771E-02  0.1004912E+00
          3   -1    0    0  502    0  0.00000000000E+00  0.00000000000E+00  0.16738163726E+03  0.16738163726E+03  0.00000000000E+00 0. -1.
         -3   -1    0    0    0  501 -0.00000000000E+00 -0.00000000000E+00 -0.84468496383E+03  0.84468496383E+03  0.00000000000E+00 0.  1.
         25    1    1    2    0    0 -0.13854252999E+03  0.16085061629E+03  0.36008657654E+02  0.24897505257E+03  0.12500000000E+03 0.  0.
         21    1    1    2  502  503  0.13759374321E+02 -0.14250437598E+03 -0.33503014115E+03  0.36433777327E+03  0.00000000000E+00 0. -1.
         21    1    1    2  503  501  0.12478315567E+03 -0.18346240312E+02 -0.37828184308E+03  0.39875377525E+03  0.00000000000E+00 0.  1.
<mgrwt>
<rscale>  4 0.53547995E+03</rscale>
<asrwt>0</asrwt>
<pdfrwt beam="1">  1        3 0.25751021E-01 0.53547995E+03</pdfrwt>
<pdfrwt beam="2">  1       -3 0.12995153E+00 0.53547995E+03</pdfrwt>
<totfact> 0.17584074E+01</totfact>
</mgrwt>
</event>
<event>
 5    0  0.4025551E-002  0.5145595E+03  0.7546771E-02  0.1010047E+00
          1   -1    0    0  502    0  0.00000000000E+00  0.00000000000E+00  0.57496710133E+03  0.57496710133E+03  0.00000000000E+00 0. -1.
         -1   -1    0    0    0  501 -0.00000000000E+00 -0.00000000000E+00 -0.11512462109E+03  0.11512462109E+03  0.00000000000E+00 0.  1.
         25    1    1    2    0    0  0.10135168916E+03 -0.21282059145E+03  0.25282718398E+03  0.36757496378E+03  0.12500000000E+03 0.  0.
         21    1    1    2  502  503 -0.10092321305E+02  0.62682751953E+02  0.21562310783E+02  0.67051589004E+02  0.00000000000E+00 0.  1.
         21    1    1    2  503  501 -0.91259367853E+02  0.15013783950E+03  0.18545298548E+03  0.25546516963E+03  0.00000000000E+00 0. -1.
<mgrwt>
<rscale>  4 0.51455950E+03</rscale>
<asrwt>0</asrwt>
<pdfrwt beam="1">  1        1 0.88456475E-01 0.51455950E+03</pdfrwt>
<pdfrwt beam="2">  1       -1 0.17711481E-01 0.51455950E+03</pdfrwt>
<totfact> 0.91709200E+02</totfact>
</mgrwt>
</event>
<event>
 5    0  0.4025551E-002  0.4720900E+03  0.7546771E-02  0.1021332E+00
          1   -1    0    0  503    0  0.00000000000E+00  0.00000000000E+00  0.46152726535E+02  0.46152726535E+02  0.00000000000E+00 0.  1.
         -1   -1    0    0    0  501 -0.00000000000E+00 -0.00000000000E+00 -0.13401774609E+04  0.13401774609E+04  0.00000000000E+00 0. -1.
         25    1    1    2    0    0  0.19317157976E+03  0.10286233043E+03 -0.53214026512E+03  0.58880742183E+03  0.12500000000E+03 0.  0.
         21    1    1    2  502  501 -0.19637639406E+03 -0.80406728051E+02 -0.66583967430E+03  0.69883574746E+03  0.00000000000E+00 0. -1.
         21    1    1    2  503  502  0.32048142997E+01 -0.22455602374E+02 -0.96044794909E+02  0.98687018102E+02  0.00000000000E+00 0. -1.
<mgrwt>
<rscale>  4 0.47209003E+03</rscale>
<asrwt>0</asrwt>
<pdfrwt beam="1">  1        1 0.71004198E-02 0.47209003E+03</pdfrwt>
<pdfrwt beam="2">  1       -1 0.20618114E+00 0.47209003E+03</pdfrwt>
<totfact> 0.15333190E+02</totfact>
</mgrwt>
</event>
<event>
 5    0  0.4025551E-002  0.4108702E+03  0.7546771E-02  0.1040079E+00
         -1   -1    0    0    0  501 -0.00000000000E+00  0.00000000000E+00  0.91049813898E+02  0.91049813898E+02  0.00000000000E+00 0.  1.
          1   -1    0    0  503    0  0.00000000000E+00 -0.00000000000E+00 -0.74492507563E+03  0.74492507563E+03  0.00000000000E+00 0. -1.
         25    1    1    2    0    0 -0.20160476359E+03  0.15553400561E+01 -0.30984065660E+03  0.39022190132E+03  0.12500000000E+03 0.  0.
         21    1    1    2  502  501  0.15891487632E+03 -0.47920158500E+02 -0.34485720672E+03  0.38272284036E+03  0.00000000000E+00 0. -1.
         21    1    1    2  503  502  0.42689887276E+02  0.46364818444E+02  0.82260158675E+00  0.63030147853E+02  0.00000000000E+00 0. -1.
<mgrwt>
<rscale>  4 0.41087015E+03</rscale>
<asrwt>0</asrwt>
<pdfrwt beam="1">  1        1 0.11460386E+00 0.41087015E+03</pdfrwt>
<pdfrwt beam="2">  1       -1 0.14007663E-01 0.41087015E+03</pdfrwt>
<totfact> 0.92039555E+02</totfact>
</mgrwt>
</event>
<event>
 5    0  0.4025551E-002  0.5151181E+03  0.7546771E-02  0.1009906E+00
         -1   -1    0    0    0  501 -0.00000000000E+00  0.00000000000E+00  0.96141719611E+02  0.96141719611E+02  0.00000000000E+00 0.  1.
          1   -1    0    0  503    0  0.00000000000E+00 -0.00000000000E+00 -0.16748119751E+04  0.16748119751E+04  0.00000000000E+00 0. -1.
         25    1    1    2    0    0  0.73417566999E+02 -0.20717604537E+03 -0.10361827579E+04  0.10665888433E+04  0.12500000000E+03 0.  0.
         21    1    1    2  502  501 -0.76802094243E+02  0.23416659530E+03 -0.59566648029E+03  0.64463254012E+03  0.00000000000E+00 0. -1.
         21    1    1    2  503  502  0.33845272440E+01 -0.26990549926E+02  0.53178982699E+02  0.59732311280E+02  0.00000000000E+00 0.  1.
<mgrwt>
<rscale>  4 0.51511813E+03</rscale>
<asrwt>0</asrwt>
<pdfrwt beam="1">  1        1 0.25766337E+00 0.51511813E+03</pdfrwt>
<pdfrwt beam="2">  1       -1 0.14791035E-01 0.51511813E+03</pdfrwt>
<totfact> 0.17456287E+02</totfact>
</mgrwt>
</event>
<event>
 5    0  0.4025551E-002  0.5675408E+03  0.7546771E-02  0.9975135E-01
          2   -1    0    0  503    0  0.00000000000E+00  0.00000000000E+00  0.15548996225E+04  0.15548996225E+04  0.00000000000E+00 0.  1.
         -2   -1    0    0    0  501 -0.00000000000E+00 -0.00000000000E+00 -0.72321168805E+02  0.72321168805E+02  0.00000000000E+00 0. -1.
         25    1    1    2    0    0  0.25377285381E+03  0.67659509707E+02  0.56691098655E+03  0.63717465208E+03  0.12500000000E+03 0.  0.
         21    1    1    2  502  501 -0.25328094657E+03 -0.25611124387E+02  0.91309242720E+03  0.94791610821E+03  0.00000000000E+00 0.  1.
         21    1    1    2  503  502 -0.49190724221E+00 -0.42048385319E+02  0.25750399218E+01  0.42130030991E+02  0.00000000000E+00 0. -1.
<mgrwt>
<rscale>  4 0.56754085E+03</rscale>
<asrwt>0</asrwt>
<pdfrwt beam="1">  1        2 0.23921530E+00 0.56754085E+03</pdfrwt>
<pdfrwt beam="2">  1       -2 0.11126335E-01 0.56754085E+03</pdfrwt>
<totfact> 0.69745030E+02</totfact>
</mgrwt>
</event>
<event>
 5    0  0.4025551E-002  0.5312217E+03  0.7546771E-02  0.1005936E+00
         -2   -1    0    0    0  501 -0.00000000000E+00  0.00000000000E+00  0.86264280345E+02  0.86264280345E+02  0.00000000000E+00 0.  1.
          2   -1    0    0  502    0  0.00000000000E+00 -0.00000000000E+00 -0.81782558781E+03  0.81782558781E+03  0.00000000000E+00 0. -1.
         25    1    1    2    0    0 -0.58655092319E+02 -0.21992007114E+03 -0.21916674937E+03  0.33980041432E+03  0.12500000000E+03 0.  0.
         21    1    1    2  502  503  0.92357825059E+01  0.11269326951E+03 -0.19184034662E+03  0.22268316340E+03  0.00000000000E+00 0.  1.
         21    1    1    2  503  501  0.49419309813E+02  0.10722680163E+03 -0.32055421148E+03  0.34160629043E+03  0.00000000000E+00 0. -1.
<mgrwt>
<rscale>  4 0.53122175E+03</rscale>
<asrwt>0</asrwt>
<pdfrwt beam="1">  1        2 0.12581932E+00 0.53122175E+03</pdfrwt>
<pdfrwt beam="2">  1       -2 0.13271428E-01 0.53122175E+03</pdfrwt>
<totfact> 0.14454793E+03</totfact>
</mgrwt>
</event>
<event>
 5    0  0.4025551E-002  0.5989465E+03  0.7546771E-02  0.9907594E-01
         -2   -1    0    0    0  501 -0.00000000000E+00  0.00000000000E+00  0.51003116893E+02  0.51003116893E+02  0.00000000000E+00 0.  1.
          2   -1    0    0  502    0  0.00000000000E+00 -0.00000000000E+00 -0.30765738820E+04  0.30765738820E+04  0.00000000000E+00 0. -1.
         25    1    1    2    0    0 -0.20117482784E+03  0.79790172987E+02 -0.60308338570E+03  0.65281877513E+03  0.12500000000E+03 0.  0.
         21    1    1    2  502  503 -0.29695407543E+01 -0.39379084659E+02  0.36983909613E+01  0.39663693430E+02  0.00000000000E+00 0.  1.
         21    1    1    2  503  501  0.20414436859E+03 -0.40411088328E+02 -0.24261857703E+04  0.24350945303E+04  0.00000000000E+00 0. -1.
<mgrwt>
<rscale>  4 0.59894654E+03</rscale>
<asrwt>0</asrwt>
<pdfrwt beam="1">  1        2 0.47331907E+00 0.59894654E+03</pdfrwt>
<pdfrwt beam="2">  1       -2 0.78466333E-02 0.59894654E+03</pdfrwt>
<totfact> 0.17061457E+02</totfact>
</mgrwt>
</event>
<event>
 5    0  0.4025551E-002  0.4483199E+03  0.7546771E-02  0.1028224E+00
          1   -1    0    0  503    0  0.00000000000E+00  0.00000000000E+00  0.40838364785E+03  0.40838364785E+03  0.00000000000E+00 0. -1.
         -1   -1    0    0    0  501 -0.00000000000E+00 -0.00000000000E+00 -0.19155318340E+03  0.19155318340E+03  0.00000000000E+00 0.  1.
         25    1    1    2    0    0  0.97166412539E+02 -0.19220251573E+03  0.56246001929E+02  0.25528754672E+03  0.12500000000E+03 0.  0.
         21    1    1    2  502  501 -0.33550571810E+02  0.16305671572E+03  0.20322649456E+03  0.26270542724E+03  0.00000000000E+00 0. -1.
         21    1    1    2  503  502 -0.63615840729E+02  0.29145800010E+02 -0.42642032037E+02  0.81943857281E+02  0.00000000000E+00 0.  1.
<mgrwt>
<rscale>  4 0.44831991E+03</rscale>
<asrwt>0</asrwt>
<pdfrwt beam="1">  1        1 0.62828253E-01 0.44831991E+03</pdfrwt>
<pdfrwt beam="2">  1       -1 0.29469721E-01 0.44831991E+03</pdfrwt>
<totfact> 0.62132462E+02</totfact>
</mgrwt>
</event>
<event>
 5    0  0.4025551E-002  0.5569909E+03  0.7546771E-02  0.9998886E-01
         -1   -1    0    0    0  501 -0.00000000000E+00  0.00000000000E+00  0.23178668512E+03  0.23178668512E+03  0.00000000000E+00 0. -1.
          1   -1    0    0  503    0  0.00000000000E+00 -0.00000000000E+00 -0.47707557900E+03  0.47707557900E+03  0.00000000000E+00 0.  1.
         25    1    1    2    0    0 -0.11913470143E+03 -0.23755634884E+03 -0.61880431290E+02  0.30013377640E+03  0.12500000000E+03 0.  0.
         21    1    1    2  502  501  0.10386111686E+03  0.20441564361E+03 -0.24599347935E+03  0.33628214170E+03  0.00000000000E+00 0. -1.
         21    1    1    2  503  502  0.15273584563E+02  0.33140705232E+02  0.62585016755E+02  0.72446346015E+02  0.00000000000E+00 0. -1.
<mgrwt>
<rscale>  4 0.55699091E+03</rscale>
<asrwt>0</asrwt>
<pdfrwt beam="1">  1        1 0.73396243E-01 0.55699091E+03</pdfrwt>
<pdfrwt beam="2">  1       -1 0.35659490E-01 0.55699091E+03</pdfrwt>
<totfact> 0.36068201E+02</totfact>
</mgrwt>
</event>
<event>
 5    0  0.4025551E-002  0.4264367E+03  0.7546771E-02  0.1034992E+00
         -1   -1    0    0    0  501 -0.00000000000E+00  0.00000000000E+00  0.41047203593E+02  0.41047203593E+02  0.00000000000E+00 0. -1.
          1   -1    0    0  502    0  0.00000000000E+00 -0.00000000000E+00 -0.15955895099E+04  0.15955895099E+04  0.00000000000E+00 0.  1.
         25    1    1    2    0    0  0.18959034442E+03  0.80032942788E+02 -0.84516572152E+03  0.87879455361E+03  0.12500000000E+03 0.  0.
         21    1    1    2  502  503 -0.91851214481E+01 -0.36930095739E+02 -0.18149705233E+02  0.42161715185E+02  0.00000000000E+00 0.  1.
         21    1    1    2  503  501 -0.18040522297E+03 -0.43102847049E+02 -0.69122687952E+03  0.71568044466E+03  0.00000000000E+00 0.  1.
<mgrwt>
<rscale>  4 0.42643674E+03</rscale>
<asrwt>0</asrwt>
<pdfrwt beam="1">  1        1 0.24547525E+00 0.42643674E+03</pdfrwt>
<pdfrwt beam="2">  1       -1 0.63149558E-02 0.42643674E+03</pdfrwt>
<totfact> 0.75586895E+02</totfact>
</mgrwt>
</event>
<event>
 5    0  0.4025551E-002  0.5956959E+03  0.7546771E-02  0.9914376E-01
         -1   -1    0    0    0  501 -0.00000000000E+00  0.00000000000E+00  0.59756650988E+02  0.59756650988E+02  0.00000000000E+00 0.  1.
          1   -1    0    0  502    0  0.00000000000E+00 -0.00000000000E+00 -0.16456701593E+04  0.16456701593E+04  0.00000000000E+00 0. -1.
         25    1    1    2    0    0  0.25840221510E+03 -0.11265909402E+02 -0.50897068252E+03  0.58444399316E+03  0.12500000000E+03 0.  0.
         21    1    1    2  502  503  0.13281145724E+02  0.22409311654E+02 -0.32108311941E+02  0.41346218404E+02  0.00000000000E+00 0.  1.
         21    1    1    2  503  501 -0.27168336082E+03 -0.11143402252E+02 -0.10448345139E+04  0.10796365987E+04  0.00000000000E+00 0. -1.
<mgrwt>
<rscale>  4 0.59569592E+03</rscale>
<asrwt>0</asrwt>
<pdfrwt beam="1">  1        1 0.25318000E+00 0.59569592E+03</pdfrwt>
<pdfrwt beam="2">  1       -1 0.91933317E-02 0.59569592E+03</pdfrwt>
<totfact> 0.38599349E+02</totfact>
</mgrwt>
</event>
<event>
 5    0  0.4025551E-002  0.6707617E+03  0.7546771E-02  0.9768583E-01
          2   -1    0    0  502    0  0.00000000000E+00  0.00000000000E+00  0.11854264340E+04  0.11854264340E+04  0.00000000000E+00 0.  1.
         -2   -1    0    0    0  501 -0.00000000000E+00 -0.00000000000E+00 -0.19454961214E+03  0.19454961214E+03  0.00000000000E+00 0. -1.
         25    1    1    2    0    0  0.15155329053E+03  0.26085477205E+03  0.88963550287E+03  0.94767607332E+03  0.12500000000E+03 0.  0.
         21    1    1    2  502  503 -0.18587591682E+03 -0.40072759658E+02  0.83617732178E+01  0.19033024398E+03  0.00000000000E+00 0.  1.
         21    1    1    2  503  501  0.34322626290E+02 -0.22078201239E+03  0.92879545810E+02  0.24196972889E+03  0.00000000000E+00 0. -1.
<mgrwt>
<rscale>  4 0.67076174E+03</rscale>
<asrwt>0</asrwt>
<pdfrwt beam="1">  1        2 0.18237329E+00 0.67076174E+03</pdfrwt>
<pdfrwt beam="2">  1       -2 0.29930710E-01 0.67076174E+03</pdfrwt>
<totfact> 0.20231123E+02</totfact>
</mgrwt>
</event>
<event>
 5    0  0.4025551E-002  0.4420507E+03  0.7546771E-02  0.1030119E+00
         -2   -1    0    0    0  501 -0.00000000000E+00  0.00000000000E+00  0.11167110324E+03  0.11167110324E+03  0.00000000000E+00 0. -1.
          2   -1    0    0  502    0  0.00000000000E+00 -0.00000000000E+00 -0.79933635004E+03  0.79933635004E+03  0.00000000000E+00 0.  1.
         25    1    1    2    0    0  0.19470419843E+03  0.10520168450E+03 -0.47455403084E+03  0.53833414112E+03  0.12500000000E+03 0.  0.
         21    1    1    2  502  503 -0.83904480775E+02  0.37348080400E+02  0.19649358503E+01  0.91862407854E+02  0.00000000000E+00 0. -1.
         21    1    1    2  503  501 -0.11079971765E+03 -0.14254976490E+03 -0.21507615181E+03  0.28081090431E+03  0.00000000000E+00 0. -1.
<mgrwt>
<rscale>  4 0.44205069E+03</rscale>
<asrwt>0</asrwt>
<pdfrwt beam="1">  1        2 0.12297482E+00 0.44205069E+03</pdfrwt>
<pdfrwt beam="2">  1       -2 0.17180169E-01 0.44205069E+03</pdfrwt>
<totfact> 0.96653895E+02</totfact>
</mgrwt>
</event>
<event>
 5    0  0.4025551E-002  0.9191749E+03  0.7546771E-02  0.9401924E-01
          2   -1    0    0  503    0  0.00000000000E+00  0.00000000000E+00  0.13338831532E+04  0.13338831532E+04  0.00000000000E+00 0. -1.
         -2   -1    0    0    0  501 -0.00000000000E+00 -0.00000000000E+00 -0.15835017118E+03  0.15835017118E+03  0.00000000000E+00 0.  1.
         25    1    1    2    0    0  0.11877587768E+03 -0.18857439734E+03  0.12324789130E+04  0.12586887159E+04  0.12500000000E+03 0.  0.
         21    1    1    2  502  501 -0.99905460334E+02  0.17974095395E+03 -0.50811977781E+02  0.21182485363E+03  0.00000000000E+00 0.  1.
         21    1    1    2  503  502 -0.18870417348E+02  0.88334433962E+01 -0.61339531435E+01  0.21719754932E+02  0.00000000000E+00 0. -1.
<mgrwt>
<rscale>  4 0.91917490E+03</rscale>
<asrwt>0</asrwt>
<pdfrwt beam="1">  1        2 0.20521278E+00 0.91917490E+03</pdfrwt>
<pdfrwt beam="2">  1       -2 0.24361566E-01 0.91917490E+03</pdfrwt>
<totfact> 0.23768009E+02</totfact>
</mgrwt>
</event>
<event>
 5    0  0.4025551E-002  0.1041116E+04  0.7546771E-02  0.9264565E-01
          2   -1    0    0  502    0  0.00000000000E+00  0.00000000000E+00  0.11429028498E+04  0.11429028498E+04  0.00000000000E+00 0. -1.
         -2   -1    0    0    0  501 -0.00000000000E+00 -0.00000000000E+00 -0.40007398913E+03  0.40007398913E+03  0.00000000000E+00 0.  1.
         25    1    1    2    0    0  0.28807326077E+03 -0.28894352649E+03  0.94102932201E+03  0.10332646079E+04  0.12500000000E+03 0.  0.
         21    1    1    2  502  503 -0.27041375867E+03  0.12099042719E+03 -0.91946385799E+02  0.31018772092E+03  0.00000000000E+00 0.  1.
         21    1    1    2  503  501 -0.17659502095E+02  0.16795309930E+03 -0.10625407552E+03  0.19952451013E+03  0.00000000000E+00 0.  1.
<mgrwt>
<rscale>  4 0.10411159E+04</rscale>
<asrwt>0</asrwt>
<pdfrwt beam="1">  1        2 0.17583121E+00 0.10411159E+04</pdfrwt>
<pdfrwt beam="2">  1       -2 0.61549845E-01 0.10411159E+04</pdfrwt>
<totfact> 0.50022275E+01</totfact>
</mgrwt>
</event>
<event>
 5    0  0.4025551E-002  0.5036994E+03  0.7546771E-02  0.1012818E+00
          2   -1    0    0  502    0  0.00000000000E+00  0.00000000000E+00  0.13565491062E+04  0.13565491062E+04  0.00000000000E+00 0. -1.
         -2   -1    0    0    0  501 -0.00000000000E+00 -0.00000000000E+00 -0.55032728549E+02  0.55032728549E+02  0.00000000000E+00 0.  1.
         25    1    1    2    0    0  0.21051823186E+03  0.10061466197E+03  0.43976619307E+03  0.51328407410E+03  0.12500000000E+03 0.  0.
         21    1    1    2  502  503 -0.38621096336E+02  0.17666405352E+01  0.55802514572E+02  0.67886896627E+02  0.00000000000E+00 0. -1.
         21    1    1    2  503  501 -0.17189713553E+03 -0.10238130251E+03  0.80594766999E+03  0.83041086401E+03  0.00000000000E+00 0.  1.
<mgrwt>
<rscale>  4 0.50369937E+03</rscale>
<asrwt>0</asrwt>
<pdfrwt beam="1">  1        2 0.20869984E+00 0.50369937E+03</pdfrwt>
<pdfrwt beam="2">  1       -2 0.84665747E-02 0.50369937E+03</pdfrwt>
<totfact> 0.14007139E+03</totfact>
</mgrwt>
</event>
<event>
 5    0  0.4025551E-002  0.4372495E+03  0.7546771E-02  0.1031594E+00
         -1   -1    0    0    0  501 -0.00000000000E+00  0.00000000000E+00  0.18130456220E+02  0.18130456220E+02  0.00000000000E+00 0.  1.
          1   -1    0    0  503    0  0.00000000000E+00 -0.00000000000E+00 -0.39673084620E+04  0.39673084620E+04  0.00000000000E+00 0. -1.
         25    1    1    2    0    0  0.19896698084E+03  0.44533698103E+02 -0.24124521462E+04  0.24242775145E+04  0.12500000000E+03 0.  0.
         21    1    1    2  502  501 -0.12939235420E+03 -0.25608220364E+02 -0.38095638646E+03  0.40314504916E+03  0.00000000000E+00 0.  1.
         21    1    1    2  503  502 -0.69574626637E+02 -0.18925477738E+02 -0.11557694732E+04  0.11580163546E+04  0.00000000000E+00 0.  1.
<mgrwt>
<rscale>  4 0.43724950E+03</rscale>
<asrwt>0</asrwt>
<pdfrwt beam="1">  1        1 0.61035492E+00 0.43724950E+03</pdfrwt>
<pdfrwt beam="2">  1       -1 0.27893020E-02 0.43724950E+03</pdfrwt>
<totfact> 0.53485787E+01</totfact>
</mgrwt>
</event>
<event>
 5    0  0.4025551E-002  0.6129263E+03  0.7546771E-02  0.9878945E-01
          2   -1    0    0  503    0  0.00000000000E+00  0.00000000000E+00  0.19909886243E+04  0.19909886243E+04  0.00000000000E+00 0. -1.
         -2   -1    0    0    0  501 -0.00000000000E+00 -0.00000000000E+00 -0.47172368942E+02  0.47172368942E+02  0.00000000000E+00 0.  1.
         25    1    1    2    0    0 -0.20953267794E+03 -0.15337771607E+03  0.14247613972E+04  0.14536157353E+04  0.12500000000E+03 0.  0.
         21    1    1    2  502  501  0.18405652571E+03  0.15255047247E+03  0.49400440776E+03  0.54880671114E+03  0.00000000000E+00 0.  1.
         21    1    1    2  503  502  0.25476152231E+02  0.82724360342E+00  0.25050450442E+02  0.35738546862E+02  0.00000000000E+00 0.  1.
<mgrwt>
<rscale>  4 0.61292626E+03</rscale>
<asrwt>0</asrwt>
<pdfrwt beam="1">  1        2 0.30630588E+00 0.61292626E+03</pdfrwt>
<pdfrwt beam="2">  1       -2 0.72572891E-02 0.61292626E+03</pdfrwt>
<totfact> 0.80192704E+02</totfact>
</mgrwt>
</event>
<event>
 5    0  0.4025551E-002  0.5937490E+03  0.7546771E-02  0.9918460E-01
          2   -1    0    0  502    0  0.00000000000E+00  0.00000000000E+00  0.12096924132E+03  0.12096924132E+03  0.00000000000E+00 0. -1.
         -2   -1    0    0    0  501 -0.00000000000E+00 -0.00000000000E+00 -0.10816223166E+04  0.10816223166E+04  0.00000000000E+00 0.  1.
         25    1    1    2    0    0 -0.17230116116E+03 -0.26617843106E+03 -0.61793894455E+03  0.70569978496E+03  0.12500000000E+03 0.  0.
         21    1    1    2  502  503  0.11072547654E+03  0.62167091108E+02 -0.21132220209E+03  0.24653995918E+03  0.00000000000E+00 0. -1.
         21    1    1    2  503  501  0.61575684617E+02  0.20401133996E+03 -0.13139192868E+03  0.25035181383E+03  0.00000000000E+00 0. -1.
<mgrwt>
<rscale>  4 0.59374902E+03</rscale>
<asrwt>0</asrwt>
<pdfrwt beam="1">  1        2 0.18610654E-01 0.59374902E+03</pdfrwt>
<pdfrwt beam="2">  1       -2 0.16640342E+00 0.59374902E+03</pdfrwt>
<totfact> 0.71405344E+01</totfact>
</mgrwt>
</event>
<event>
 5    0  0.4025551E-002  0.5992670E+03  0.7546771E-02  0.9906928E-01
          1   -1    0    0  502    0  0.00000000000E+00  0.00000000000E+00  0.33248960190E+03  0.33248960190E+03  0.00000000000E+00 0. -1.
         -1   -1    0    0    0  501 -0.00000000000E+00 -0.00000000000E+00 -0.33830231482E+03  0.33830231482E+03  0.00000000000E+00 0.  1.
         25    1    1    2    0    0 -0.49128903297E+02 -0.28591178732E+03  0.50656941998E+02  0.31992237346E+03  0.12500000000E+03 0.  0.
         21    1    1    2  502  503  0.27607944361E+02  0.47531003205E+01 -0.62855910364E+02  0.68816102928E+02  0.00000000000E+00 0.  1.
         21    1    1    2  503  501  0.21520958935E+02  0.28115868700E+03  0.63862554503E+01  0.28205344034E+03  0.00000000000E+00 0.  1.
<mgrwt>
<rscale>  4 0.59926701E+03</rscale>
<asrwt>0</asrwt>
<pdfrwt beam="1">  1        1 0.51152246E-01 0.59926701E+03</pdfrwt>
<pdfrwt beam="2">  1       -1 0.52046510E-01 0.59926701E+03</pdfrwt>
<totfact> 0.28964270E+02</totfact>
</mgrwt>
</event>
<event>
 5    0  0.4025551E-002  0.4281433E+03  0.7546771E-02  0.1034448E+00
         -2   -1    0    0    0  501 -0.00000000000E+00  0.00000000000E+00  0.38933791907E+02  0.38933791907E+02  0.00000000000E+00 0.  1.
          2   -1    0    0  503    0  0.00000000000E+00 -0.00000000000E+00 -0.16878025817E+04  0.16878025817E+04  0.00000000000E+00 0. -1.
         25    1    1    2    0    0 -0.20150268033E+03 -0.27663089690E+02 -0.76611667405E+03  0.80245145334E+03  0.12500000000E+03 0.  0.
         21    1    1    2  502  501  0.16397362583E+03  0.89883293302E+02 -0.74987499107E+03  0.77283818398E+03  0.00000000000E+00 0. -1.
         21    1    1    2  503  502  0.37529054496E+02 -0.62220203612E+02 -0.13287712463E+03  0.15144673625E+03  0.00000000000E+00 0. -1.
<mgrwt>
<rscale>  4 0.42814333E+03</rscale>
<asrwt>0</asrwt>
<pdfrwt beam="1">  1        2 0.25966202E+00 0.42814333E+03</pdfrwt>
<pdfrwt beam="2">  1       -2 0.59898122E-02 0.42814333E+03</pdfrwt>
<totfact> 0.15961969E+03</totfact>
</mgrwt>
</event>
<event>
 5    0  0.4025551E-002  0.8058013E+03  0.7546771E-02  0.9551658E-01
          2   -1    0    0  503    0  0.00000000000E+00  0.00000000000E+00  0.24376614143E+04  0.24376614143E+04  0.00000000000E+00 0. -1.
         -2   -1    0    0    0  501 -0.00000000000E+00 -0.00000000000E+00 -0.99435453915E+02  0.99435453915E+02  0.00000000000E+00 0.  1.
         25    1    1    2    0    0  0.27586954818E+03 -0.38815184362E+02  0.14217225279E+04  0.14541425558E+04  0.12500000000E+03 0.  0.
         21    1    1    2  502  501  0.56797607331E+02  0.16263948557E+03  0.53409994472E+03  0.56119543959E+03  0.00000000000E+00 0.  1.
         21    1    1    2  503  502 -0.33266715551E+03 -0.12382430121E+03  0.38240348768E+03  0.52175887277E+03  0.00000000000E+00 0.  1.
<mgrwt>
<rscale>  4 0.80580132E+03</rscale>
<asrwt>0</asrwt>
<pdfrwt beam="1">  1        2 0.37502479E+00 0.80580132E+03</pdfrwt>
<pdfrwt beam="2">  1       -2 0.15297764E-01 0.80580132E+03</pdfrwt>
<totfact> 0.13200946E+02</totfact>
</mgrwt>
</event>
<event>
 5    0  0.4025551E-002  0.6063764E+03  0.7546771E-02  0.9892265E-01
          2   -1    0    0  503    0  0.00000000000E+00  0.00000000000E+00  0.19709877642E+04  0.19709877642E+04  0.00000000000E+00 0. -1.
         -2   -1    0    0    0  501 -0.00000000000E+00 -0.00000000000E+00 -0.54112121459E+02  0.54112121459E+02  0.00000000000E+00 0.  1.
         25    1    1    2    0    0 -0.26417799944E+03 -0.75818269850E+02  0.68161002743E+03  0.74549021115E+03  0.12500000000E+03 0.  0.
         21    1    1    2  502  501  0.27137188427E+03  0.47110852450E+02  0.12092016257E+04  0.12401736587E+04  0.00000000000E+00 0. -1.
         21    1    1    2  503  502 -0.71938848277E+01  0.28707417400E+02  0.26063989597E+02  0.39436015853E+02  0.00000000000E+00 0. -1.
<mgrwt>
<rscale>  4 0.60637637E+03</rscale>
<asrwt>0</asrwt>
<pdfrwt beam="1">  1        2 0.30322883E+00 0.60637637E+03</pdfrwt>
<pdfrwt beam="2">  1       -2 0.83249433E-02 0.60637637E+03</pdfrwt>
<totfact> 0.66110242E+02</totfact>
</mgrwt>
</event>
<event>
 5    0  0.4025551E-002  0.6764314E+03  0.7546771E-02  0.9758409E-01
          2   -1    0    0  502    0  0.00000000000E+00  0.00000000000E+00  0.68047249456E+03  0.68047249456E+03  0.00000000000E+00 0.  1.
         -2   -1    0    0    0  501 -0.00000000000E+00 -0.00000000000E+00 -0.24292603066E+03  0.24292603066E+03  0.00000000000E+00 0. -1.
         25    1    1    2    0    0  0.18923174933E+03  0.10433647006E+03  0.57929496564E+03  0.63079506272E+03  0.12500000000E+03 0.  0.
         21    1    1    2  502  503 -0.12272508732E+03 -0.14606991529E+02 -0.13147083758E+03  0.18044221345E+03  0.00000000000E+00 0. -1.
         21    1    1    2  503  501 -0.66506662005E+02 -0.89729478532E+02 -0.10277664155E+02  0.11216124905E+03  0.00000000000E+00 0. -1.
<mgrwt>
<rscale>  4 0.67643142E+03</rscale>
<asrwt>0</asrwt>
<pdfrwt beam="1">  1        2 0.10468808E+00 0.67643142E+03</pdfrwt>
<pdfrwt beam="2">  1       -2 0.37373236E-01 0.67643142E+03</pdfrwt>
<totfact> 0.28973704E+02</totfact>
</mgrwt>
</event>
<event>
 5    0  0.4025551E-002  0.6125407E+03  0.7546771E-02  0.9879724E-01
          2   -1    0    0  502    0  0.00000000000E+00  0.00000000000E+00  0.35574675912E+04  0.35574675912E+04  0.00000000000E+00 0. -1.
         -2   -1    0    0    0  501 -0.00000000000E+00 -0.00000000000E+00 -0.73903145465E+02  0.73903145465E+02  0.00000000000E+00 0.  1.
         25    1    1    2    0    0  0.19496236419E+03 -0.15347873187E+03  0.54978277252E+03  0.61599686813E+03  0.12500000000E+03 0.  0.
         21    1    1    2  502  503 -0.30199073785E+03  0.14431483948E+03  0.66908418185E+03  0.74813021663E+03  0.00000000000E+00 0.  1.
         21    1    1    2  503  501  0.10702837366E+03  0.91638923889E+01  0.22646974913E+04  0.22672436519E+04  0.00000000000E+00 0. -1.
<mgrwt>
<rscale>  4 0.61254065E+03</rscale>
<asrwt>0</asrwt>
<pdfrwt beam="1">  1        2 0.54730257E+00 0.61254065E+03</pdfrwt>
<pdfrwt beam="2">  1       -2 0.11369717E-01 0.61254065E+03</pdfrwt>
<totfact> 0.45510005E+01</totfact>
</mgrwt>
</event>
<event>
 5    0  0.4025551E-002  0.5756154E+03  0.7546771E-02  0.9957329E-01
          2   -1    0    0  503    0  0.00000000000E+00  0.00000000000E+00  0.57348000538E+03  0.57348000538E+03  0.00000000000E+00 0. -1.
         -2   -1    0    0    0  501 -0.00000000000E+00 -0.00000000000E+00 -0.40586431830E+03  0.40586431830E+03  0.00000000000E+00 0.  1.
         25    1    1    2    0    0 -0.20575071592E+03  0.65432302362E+01  0.29175115405E+03  0.37831191741E+03  0.12500000000E+03 0.  0.
         21    1    1    2  502  501  0.30473537691E+03 -0.42335855990E+02  0.12383352748E+03  0.33164848435E+03  0.00000000000E+00 0.  1.
         21    1    1    2  503  502 -0.98984660995E+02  0.35792625753E+02 -0.24796899446E+03  0.26938392191E+03  0.00000000000E+00 0.  1.
<mgrwt>
<rscale>  4 0.57561545E+03</rscale>
<asrwt>0</asrwt>
<pdfrwt beam="1">  1        2 0.88227693E-01 0.57561545E+03</pdfrwt>
<pdfrwt beam="2">  1       -2 0.62440665E-01 0.57561545E+03</pdfrwt>
<totfact> 0.12726883E+02</totfact>
</mgrwt>
</event>
<event>
 5    0  0.4025551E-002  0.5008437E+03  0.7546771E-02  0.1013559E+00
          2   -1    0    0  502    0  0.00000000000E+00  0.00000000000E+00  0.51899113629E+03  0.51899113629E+03  0.00000000000E+00 0.  1.
         -2   -1    0    0    0  501 -0.00000000000E+00 -0.00000000000E+00 -0.15737646236E+03  0.15737646236E+03  0.00000000000E+00 0. -1.
         25    1    1    2    0    0 -0.10677495248E+03  0.20700089701E+03  0.27535568990E+03  0.38170147734E+03  0.12500000000E+03 0.  0.
         21    1    1    2  502  503  0.47231217395E+02  0.78295187772E+01 -0.14500380336E+02  0.50023497387E+02  0.00000000000E+00 0. -1.
         21    1    1    2  503  501  0.59543735084E+02 -0.21483041578E+03  0.10075936436E+03  0.24464262392E+03  0.00000000000E+00 0. -1.
<mgrwt>
<rscale>  4 0.50084369E+03</rscale>
<asrwt>0</asrwt>
<pdfrwt beam="1">  1        2 0.79844789E-01 0.50084369E+03</pdfrwt>
<pdfrwt beam="2">  1       -2 0.24211764E-01 0.50084369E+03</pdfrwt>
<totfact> 0.89937510E+02</totfact>
</mgrwt>
</event>
<event>
 5    0  0.4025551E-002  0.1377851E+04  0.7546771E-02  0.8970009E-01
         -2   -1    0    0    0  501 -0.00000000000E+00  0.00000000000E+00  0.82164719868E+03  0.82164719868E+03  0.00000000000E+00 0.  1.
          2   -1    0    0  503    0  0.00000000000E+00 -0.00000000000E+00 -0.74607752733E+03  0.74607752733E+03  0.00000000000E+00 0. -1.
         25    1    1    2    0    0 -0.23020800954E+03 -0.28304878175E+03 -0.64102955048E+03  0.74810174782E+03  0.12500000000E+03 0.  0.
         21    1    1    2  502  501  0.20023844523E+03  0.27793165607E+03  0.53342656918E+03  0.63394427602E+03  0.00000000000E+00 0.  1.
         21    1    1    2  503  502  0.29969564311E+02  0.51171256790E+01  0.18317265265E+03  0.18567870217E+03  0.00000000000E+00 0. -1.
<mgrwt>
<rscale>  4 0.13778508E+04</rscale>
<asrwt>0</asrwt>
<pdfrwt beam="1">  1        2 0.11478116E+00 0.13778508E+04</pdfrwt>
<pdfrwt beam="2">  1       -2 0.12640726E+00 0.13778508E+04</pdfrwt>
<totfact> 0.17076924E+01</totfact>
</mgrwt>
</event>
<event>
 5    0  0.4025551E-002  0.5019990E+03  0.7546771E-02  0.1013258E+00
         -1   -1    0    0    0  501 -0.00000000000E+00  0.00000000000E+00  0.45127344601E+02  0.45127344601E+02  0.00000000000E+00 0.  1.
          1   -1    0    0  502    0  0.00000000000E+00 -0.00000000000E+00 -0.21669689502E+04  0.21669689502E+04  0.00000000000E+00 0. -1.
         25    1    1    2    0    0 -0.21939062668E+03  0.13087674551E+03 -0.91630698716E+03  0.95942923883E+03  0.12500000000E+03 0.  0.
         21    1    1    2  502  503  0.55466266696E+02 -0.21087618187E+02 -0.42431659765E+02  0.72949572531E+02  0.00000000000E+00 0.  1.
         21    1    1    2  503  501  0.16392435998E+03 -0.10978912733E+03 -0.11631029586E+04  0.11797174834E+04  0.00000000000E+00 0. -1.
<mgrwt>
<rscale>  4 0.50199898E+03</rscale>
<asrwt>0</asrwt>
<pdfrwt beam="1">  1        1 0.33337987E+00 0.50199898E+03</pdfrwt>
<pdfrwt beam="2">  1       -1 0.69426677E-02 0.50199898E+03</pdfrwt>
<totfact> 0.27156126E+02</totfact>
</mgrwt>
</event>
<event>
 5    0  0.4025551E-002  0.6885079E+03  0.7546771E-02  0.9737090E-01
          1   -1    0    0  502    0  0.00000000000E+00  0.00000000000E+00  0.99616861478E+03  0.99616861478E+03  0.00000000000E+00 0.  1.
         -1   -1    0    0    0  501 -0.00000000000E+00 -0.00000000000E+00 -0.14095531027E+03  0.14095531027E+03  0.00000000000E+00 0. -1.
         25    1    1    2    0    0 -0.23658369212E+03 -0.11872365031E+03  0.69035017612E+03  0.74985032786E+03  0.12500000000E+03 0.  0.
         21    1    1    2  502  503 -0.10907441838E+02 -0.49718874691E+02  0.19954525120E+02  0.54672862196E+02  0.00000000000E+00 0. -1.
         21    1    1    2  503  501  0.24749113395E+03  0.16844252500E+03  0.14490860327E+03  0.33260073499E+03  0.00000000000E+00 0.  1.
<mgrwt>
<rscale>  4 0.68850786E+03</rscale>
<asrwt>0</asrwt>
<pdfrwt beam="1">  1        1 0.15325671E+00 0.68850786E+03</pdfrwt>
<pdfrwt beam="2">  1       -1 0.21685433E-01 0.68850786E+03</pdfrwt>
<totfact> 0.27596218E+02</totfact>
</mgrwt>
</event>
<event>
 5    0  0.4025551E-002  0.5805178E+03  0.7546771E-02  0.9946671E-01
          2   -1    0    0  503    0  0.00000000000E+00  0.00000000000E+00  0.17887983063E+04  0.17887983063E+04  0.00000000000E+00 0. -1.
         -2   -1    0    0    0  501 -0.00000000000E+00 -0.00000000000E+00 -0.55228348655E+02  0.55228348655E+02  0.00000000000E+00 0.  1.
         25    1    1    2    0    0  0.24500611957E+03  0.88370023625E+01  0.11852356293E+04  0.12167639821E+04  0.12500000000E+03 0.  0.
         21    1    1    2  502  501 -0.26565154207E+03 -0.31407603530E+02  0.52340938491E+03  0.58780486862E+03  0.00000000000E+00 0.  1.
         21    1    1    2  503  502  0.20645422502E+02  0.22570601168E+02  0.24924943434E+02  0.39457804203E+02  0.00000000000E+00 0.  1.
<mgrwt>
<rscale>  4 0.58051783E+03</rscale>
<asrwt>0</asrwt>
<pdfrwt beam="1">  1        2 0.27519970E+00 0.58051783E+03</pdfrwt>
<pdfrwt beam="2">  1       -2 0.84966704E-02 0.58051783E+03</pdfrwt>
<totfact> 0.80423886E+02</totfact>
</mgrwt>
</event>
<event>
 5    0  0.4025551E-002  0.5403880E+03  0.7546771E-02  0.1003744E+00
          2   -1    0    0  503    0  0.00000000000E+00  0.00000000000E+00  0.37856142586E+03  0.37856142586E+03  0.00000000000E+00 0. -1.
         -2   -1    0    0    0  501 -0.00000000000E+00 -0.00000000000E+00 -0.32319013494E+03  0.32319013494E+03  0.00000000000E+00 0.  1.
         25    1    1    2    0    0 -0.64275022681E+02 -0.21656596108E+03  0.26195364708E+03  0.36779995549E+03  0.12500000000E+03 0.  0.
         21    1    1    2  502  501 -0.26899182453E+02  0.65340037922E+02 -0.11514668345E+03  0.13509865019E+03  0.00000000000E+00 0.  1.
         21    1    1    2  503  502  0.91174205134E+02  0.15122592315E+03 -0.91435672712E+02  0.19885295512E+03  0.00000000000E+00 0.  1.
<mgrwt>
<rscale>  4 0.54038795E+03</rscale>
<asrwt>0</asrwt>
<pdfrwt beam="1">  1        2 0.58240219E-01 0.54038795E+03</pdfrwt>
<pdfrwt beam="2">  1       -2 0.49721559E-01 0.54038795E+03</pdfrwt>
<totfact> 0.32832698E+02</totfact>
</mgrwt>
</event>
<event>
 5    0  0.4025551E-002  0.6191203E+03  0.7546771E-02  0.9866513E-01
          2   -1    0    0  502    0  0.00000000000E+00  0.00000000000E+00  0.46544088260E+02  0.46544088260E+02  0.00000000000E+00 0.  1.
         -2   -1    0    0    0  501 -0.00000000000E+00 -0.00000000000E+00 -0.22519128616E+04  0.22519128616E+04  0.00000000000E+00 0. -1.
         25    1    1    2    0    0  0.52682740892E+02 -0.23864790595E+03 -0.15942139697E+04  0.16176747125E+04  0.12500000000E+03 0.  0.
         21    1    1    2  502  503 -0.14686963751E+02 -0.23791267806E+02 -0.11342710196E+03  0.11682225297E+03  0.00000000000E+00 0. -1.
         21    1    1    2  503  501 -0.37995777140E+02  0.26243917376E+03 -0.49772770165E+03  0.56395998439E+03  0.00000000000E+00 0. -1.
<mgrwt>
<rscale>  4 0.61912034E+03</rscale>
<asrwt>0</asrwt>
<pdfrwt beam="1">  1        2 0.71606262E-02 0.61912034E+03</pdfrwt>
<pdfrwt beam="2">  1       -2 0.34644827E+00 0.61912034E+03</pdfrwt>
<totfact> 0.17942055E+01</totfact>
</mgrwt>
</event>
<event>
 5    0  0.4025551E-002  0.7665803E+03  0.7546771E-02  0.9609692E-01
          2   -1    0    0  502    0  0.00000000000E+00  0.00000000000E+00  0.12592331679E+04  0.12592331679E+04  0.00000000000E+00 0. -1.
         -2   -1    0    0    0  501 -0.00000000000E+00 -0.00000000000E+00 -0.25758335433E+03  0.25758335433E+03  0.00000000000E+00 0.  1.
         25    1    1    2    0    0 -0.13965972119E+03  0.29496998697E+03  0.48878111834E+03  0.60086946384E+03  0.12500000000E+03 0.  0.
         21    1    1    2  502  503  0.10506320878E+03 -0.15175115863E+03 -0.14941693159E+03  0.23747023272E+03  0.00000000000E+00 0. -1.
         21    1    1    2  503  501  0.34596512407E+02 -0.14321882833E+03  0.66228562680E+03  0.67847682564E+03  0.00000000000E+00 0. -1.
<mgrwt>
<rscale>  4 0.76658033E+03</rscale>
<asrwt>0</asrwt>
<pdfrwt beam="1">  1        2 0.19372818E+00 0.76658033E+03</pdfrwt>
<pdfrwt beam="2">  1       -2 0.39628209E-01 0.76658033E+03</pdfrwt>
<totfact> 0.10668286E+02</totfact>
</mgrwt>
</event>
<event>
 5    0  0.4025551E-002  0.4391861E+03  0.7546771E-02  0.1030997E+00
          1   -1    0    0  502    0  0.00000000000E+00  0.00000000000E+00  0.91387567424E+02  0.91387567424E+02  0.00000000000E+00 0. -1.
         -1   -1    0    0    0  501 -0.00000000000E+00 -0.00000000000E+00 -0.88150618208E+03  0.88150618208E+03  0.00000000000E+00 0.  1.
         25    1    1    2    0    0 -0.70645438820E+02  0.22541921623E+03 -0.29384869679E+03  0.39721109964E+03  0.12500000000E+03 0.  0.
         21    1    1    2  502  503  0.61527672754E+02 -0.53814173533E+02 -0.31692170990E+03  0.32729343102E+03  0.00000000000E+00 0. -1.
         21    1    1    2  503  501  0.91177660659E+01 -0.17160504269E+03 -0.17934820796E+03  0.24838921884E+03  0.00000000000E+00 0. -1.
<mgrwt>
<rscale>  4 0.43918613E+03</rscale>
<asrwt>0</asrwt>
<pdfrwt beam="1">  1        1 0.14059625E-01 0.43918613E+03</pdfrwt>
<pdfrwt beam="2">  1       -1 0.13561635E+00 0.43918613E+03</pdfrwt>
<totfact> 0.19730255E+02</totfact>
</mgrwt>
</event>
<event>
 5    0  0.4025551E-002  0.6810994E+03  0.7546771E-02  0.9750112E-01
          2   -1    0    0  502    0  0.00000000000E+00  0.00000000000E+00  0.10302974775E+04  0.10302974775E+04  0.00000000000E+00 0.  1.
         -2   -1    0    0    0  501 -0.00000000000E+00 -0.00000000000E+00 -0.11256371198E+03  0.11256371198E+03  0.00000000000E+00 0. -1.
         25    1    1    2    0    0 -0.41352715193E+02 -0.27173375429E+03  0.73482487713E+03  0.79444438466E+03  0.12500000000E+03 0.  0.
         21    1    1    2  502  503 -0.21438969717E+02  0.67254163095E+02  0.60140831957E+01  0.70844343972E+02  0.00000000000E+00 0.  1.
         21    1    1    2  503  501  0.62791684910E+02  0.20447959119E+03  0.17689480515E+03  0.27757246081E+03  0.00000000000E+00 0.  1.
<mgrwt>
<rscale>  4 0.68109943E+03</rscale>
<asrwt>0</asrwt>
<pdfrwt beam="1">  1        2 0.15850730E+00 0.68109943E+03</pdfrwt>
<pdfrwt beam="2">  1       -2 0.17317495E-01 0.68109943E+03</pdfrwt>
<totfact> 0.66541118E+02</totfact>
</mgrwt>
</event>
<event>
 5    0  0.4025551E-002  0.5381771E+03  0.7546771E-02  0.1004268E+00
          2   -1    0    0  502    0  0.00000000000E+00  0.00000000000E+00  0.15057753335E+03  0.15057753335E+03  0.00000000000E+00 0. -1.
         -2   -1    0    0    0  501 -0.00000000000E+00 -0.00000000000E+00 -0.48087280444E+03  0.48087280444E+03  0.00000000000E+00 0.  1.
         25    1    1    2    0    0 -0.12392141800E+03 -0.21594554209E+03 -0.16622991610E+03  0.32441698475E+03  0.12500000000E+03 0.  0.
         21    1    1    2  502  503  0.65560085236E+01  0.23375771442E+02 -0.47099819564E+02  0.52988686917E+02  0.00000000000E+00 0.  1.
         21    1    1    2  503  501  0.11736540948E+03  0.19256977064E+03 -0.11696553542E+03  0.25404466612E+03  0.00000000000E+00 0. -1.
<mgrwt>
<rscale>  4 0.53817707E+03</rscale>
<asrwt>0</asrwt>
<pdfrwt beam="1">  1        2 0.23165775E-01 0.53817707E+03</pdfrwt>
<pdfrwt beam="2">  1       -2 0.73980430E-01 0.53817707E+03</pdfrwt>
<totfact> 0.39785159E+02</totfact>
</mgrwt>
</event>
<event>
 5    0  0.4025551E-002  0.5263506E+03  0.7546771E-02  0.1007121E+00
         -1   -1    0    0    0  501 -0.00000000000E+00  0.00000000000E+00  0.13416849248E+03  0.13416849248E+03  0.00000000000E+00 0. -1.
          1   -1    0    0  502    0  0.00000000000E+00 -0.00000000000E+00 -0.51622589903E+03  0.51622589903E+03  0.00000000000E+00 0.  1.
         25    1    1    2    0    0 -0.71923900489E+02 -0.22916586135E+03 -0.25182039565E+03  0.36976823976E+03  0.12500000000E+03 0.  0.
         21    1    1    2  502  503  0.42858333625E+02  0.45309864638E+02 -0.29879555988E+02  0.69156405781E+02  0.00000000000E+00 0. -1.
         21    1    1    2  503  501  0.29065566864E+02  0.18385599671E+03 -0.10035745491E+03  0.21146974597E+03  0.00000000000E+00 0.  1.
<mgrwt>
<rscale>  4 0.52635065E+03</rscale>
<asrwt>0</asrwt>
<pdfrwt beam="1">  1        1 0.79419368E-01 0.52635065E+03</pdfrwt>
<pdfrwt beam="2">  1       -1 0.20641307E-01 0.52635065E+03</pdfrwt>
<totfact> 0.82740798E+02</totfact>
</mgrwt>
</event>
<event>
 5    0  0.4025551E-002  0.4160708E+03  0.7546771E-02  0.1038353E+00
          2   -1    0    0  503    0  0.00000000000E+00  0.00000000000E+00  0.28203767800E+04  0.28203767800E+04  0.00000000000E+00 0.  1.
         -2   -1    0    0    0  501 -0.00000000000E+00 -0.00000000000E+00 -0.35650721609E+02  0.35650721609E+02  0.00000000000E+00 0. -1.
         25    1    1    2    0    0 -0.48093492870E+01 -0.20690059906E+03  0.19106923037E+04  0.19259286247E+04  0.12500000000E+03 0.  0.
         21    1    1    2  502  501  0.33529933724E+02  0.16230724307E+03  0.85917648867E+03  0.87501550631E+03  0.00000000000E+00 0. -1.
         21    1    1    2  503  502 -0.28720584437E+02  0.44593355995E+02  0.14857266003E+02  0.55083370652E+02  0.00000000000E+00 0. -1.
<mgrwt>
<rscale>  4 0.41607078E+03</rscale>
<asrwt>0</asrwt>
<pdfrwt beam="1">  1        2 0.43390394E+00 0.41607078E+03</pdfrwt>
<pdfrwt beam="2">  1       -2 0.54847286E-02 0.41607078E+03</pdfrwt>
<totfact> 0.43835049E+02</totfact>
</mgrwt>
</event>
<event>
 5    0  0.4025551E-002  0.5481663E+03  0.7546771E-02  0.1001919E+00
          1   -1    0    0  502    0  0.00000000000E+00  0.00000000000E+00  0.10760985366E+03  0.10760985366E+03  0.00000000000E+00 0.  1.
         -1   -1    0    0    0  501 -0.00000000000E+00 -0.00000000000E+00 -0.69809195112E+03  0.69809195112E+03  0.00000000000E+00 0. -1.
         25    1    1    2    0    0  0.98147472878E+02  0.21458882987E+03 -0.17182634217E+03  0.31753831927E+03  0.12500000000E+03 0.  0.
         21    1    1    2  502  503  0.59711274868E+01 -0.43180953778E+02 -0.12646494897E+03  0.13376708284E+03  0.00000000000E+00 0.  1.
         21    1    1    2  503  501 -0.10411860036E+03 -0.17140787610E+03 -0.29219080632E+03  0.35439640267E+03  0.00000000000E+00 0. -1.
<mgrwt>
<rscale>  4 0.54816630E+03</rscale>
<asrwt>0</asrwt>
<pdfrwt beam="1">  1        1 0.16555362E-01 0.54816630E+03</pdfrwt>
<pdfrwt beam="2">  1       -1 0.10739876E+00 0.54816630E+03</pdfrwt>
<totfact> 0.27778234E+02</totfact>
</mgrwt>
</event>
<event>
 5    0  0.4025551E-002  0.4706193E+03  0.7546771E-02  0.1021746E+00
          2   -1    0    0  503    0  0.00000000000E+00  0.00000000000E+00  0.50010279223E+03  0.50010279223E+03  0.00000000000E+00 0.  1.
         -2   -1    0    0    0  501 -0.00000000000E+00 -0.00000000000E+00 -0.15009457652E+03  0.15009457652E+03  0.00000000000E+00 0. -1.
         25    1    1    2    0    0 -0.16488431626E+03 -0.13422188244E+03  0.22268552643E+03  0.33228932447E+03  0.12500000000E+03 0.  0.
         21    1    1    2  502  501  0.18828280880E+03  0.11913865917E+03  0.16049943923E+03  0.27459880952E+03  0.00000000000E+00 0. -1.
         21    1    1    2  503  502 -0.23398492543E+02  0.15083223271E+02 -0.33176749959E+02  0.43309234759E+02  0.00000000000E+00 0. -1.
<mgrwt>
<rscale>  4 0.47061926E+03</rscale>
<asrwt>0</asrwt>
<pdfrwt beam="1">  1        2 0.76938890E-01 0.47061926E+03</pdfrwt>
<pdfrwt beam="2">  1       -2 0.23091474E-01 0.47061926E+03</pdfrwt>
<totfact> 0.10211006E+03</totfact>
</mgrwt>
</event>
<event>
 5    0  0.4025551E-002  0.4335936E+03  0.7546771E-02  0.1032731E+00
         -2   -1    0    0    0  501 -0.00000000000E+00  0.00000000000E+00  0.19965965612E+03  0.19965965612E+03  0.00000000000E+00 0. -1.
          2   -1    0    0  502    0  0.00000000000E+00 -0.00000000000E+00 -0.27016402741E+03  0.27016402741E+03  0.00000000000E+00 0.  1.
         25    1    1    2    0    0 -0.82687706467E+02  0.18755134088E+03 -0.63501654492E+01  0.24016262588E+03  0.12500000000E+03 0.  0.
         21    1    1    2  502  503  0.27378804111E+02 -0.85807249428E+01  0.65664713218E+01  0.29433761240E+02  0.00000000000E+00 0. -1.
         21    1    1    2  503  501  0.55308902356E+02 -0.17897061594E+03 -0.70720677159E+02  0.20022729641E+03  0.00000000000E+00 0.  1.
<mgrwt>
<rscale>  4 0.43359355E+03</rscale>
<asrwt>0</asrwt>
<pdfrwt beam="1">  1        2 0.41563696E-01 0.43359355E+03</pdfrwt>
<pdfrwt beam="2">  1       -2 0.30716870E-01 0.43359355E+03</pdfrwt>
<totfact> 0.12075975E+03</totfact>
</mgrwt>
</event>
<event>
 5    0  0.4025551E-002  0.9843923E+03  0.7546771E-02  0.9325831E-01
         -2   -1    0    0    0  501 -0.00000000000E+00  0.00000000000E+00  0.48858680336E+03  0.48858680336E+03  0.00000000000E+00 0.  1.
          2   -1    0    0  502    0  0.00000000000E+00 -0.00000000000E+00 -0.68409507553E+03  0.68409507553E+03  0.00000000000E+00 0. -1.
         25    1    1    2    0    0 -0.22514388511E+03 -0.24260013577E+03  0.22290306378E+03  0.41815711248E+03  0.12500000000E+03 0.  0.
         21    1    1    2  502  503  0.56658674034E+02  0.37491024416E+01  0.12510971780E+03  0.13739251289E+03  0.00000000000E+00 0.  1.
         21    1    1    2  503  501  0.16848521108E+03  0.23885103332E+03 -0.54352105374E+03  0.61713225352E+03  0.00000000000E+00 0. -1.
<mgrwt>
<rscale>  4 0.98439229E+03</rscale>
<asrwt>0</asrwt>
<pdfrwt beam="1">  1        2 0.10524540E+00 0.98439229E+03</pdfrwt>
<pdfrwt beam="2">  1       -2 0.75167201E-01 0.98439229E+03</pdfrwt>
<totfact> 0.66911716E+01</totfact>
</mgrwt>
</event>
<event>
 5    0  0.4025551E-002  0.6103898E+03  0.7546771E-02  0.9884082E-01
          3   -1    0    0  502    0  0.00000000000E+00  0.00000000000E+00  0.16273578307E+03  0.16273578307E+03  0.00000000000E+00 0.  1.
         -3   -1    0    0    0  501 -0.00000000000E+00 -0.00000000000E+00 -0.12706728275E+04  0.12706728275E+04  0.00000000000E+00 0. -1.
         25    1    1    2    0    0 -0.21812444208E+03 -0.17431236840E+03 -0.36711704206E+03  0.47787341062E+03  0.12500000000E+03 0.  0.
         21    1    1    2  502  503  0.32819036010E+02  0.27416569047E+03 -0.68381002844E+03  0.73745513081E+03  0.00000000000E+00 0. -1.
         21    1    1    2  503  501  0.18530540607E+03 -0.99853322079E+02 -0.57009973978E+02  0.21808006920E+03  0.00000000000E+00 0. -1.
<mgrwt>
<rscale>  4 0.61038984E+03</rscale>
<asrwt>0</asrwt>
<pdfrwt beam="1">  1        3 0.25036273E-01 0.61038984E+03</pdfrwt>
<pdfrwt beam="2">  1       -3 0.19548814E+00 0.61038984E+03</pdfrwt>
<totfact> 0.62990648E+00</totfact>
</mgrwt>
</event>
<event>
 5    0  0.4025551E-002  0.1461433E+04  0.7546771E-02  0.8910513E-01
          2   -1    0    0  502    0  0.00000000000E+00  0.00000000000E+00  0.12391463795E+04  0.12391463795E+04  0.00000000000E+00 0. -1.
         -2   -1    0    0    0  501 -0.00000000000E+00 -0.00000000000E+00 -0.51383077261E+03  0.51383077261E+03  0.00000000000E+00 0.  1.
         25    1    1    2    0    0  0.17095119237E+03 -0.20082846283E+03  0.11015797153E+04  0.11395873160E+04  0.12500000000E+03 0.  0.
         21    1    1    2  502  503 -0.11183708985E+03  0.80173517434E+02 -0.44263608785E+03  0.46353212816E+03  0.00000000000E+00 0.  1.
         21    1    1    2  503  501 -0.59114102524E+02  0.12065494539E+03  0.66371979404E+02  0.14985770789E+03  0.00000000000E+00 0.  1.
<mgrwt>
<rscale>  4 0.14614326E+04</rscale>
<asrwt>0</asrwt>
<pdfrwt beam="1">  1        2 0.19063790E+00 0.14614326E+04</pdfrwt>
<pdfrwt beam="2">  1       -2 0.79050889E-01 0.14614326E+04</pdfrwt>
<totfact> 0.24624328E+01</totfact>
</mgrwt>
</event>
<event>
 5    0  0.4025551E-002  0.4186643E+03  0.7546771E-02  0.1037502E+00
         -2   -1    0    0    0  501 -0.00000000000E+00  0.00000000000E+00  0.13756397361E+03  0.13756397361E+03  0.00000000000E+00 0.  1.
          2   -1    0    0  503    0  0.00000000000E+00 -0.00000000000E+00 -0.46344042930E+03  0.46344042930E+03  0.00000000000E+00 0. -1.
         25    1    1    2    0    0  0.10626942774E+03 -0.18504086482E+03 -0.13221136363E+03  0.28042495894E+03  0.12500000000E+03 0.  0.
         21    1    1    2  502  501 -0.94728945913E+02  0.12321574678E+03 -0.20439861993E+03  0.25677711985E+03  0.00000000000E+00 0. -1.
         21    1    1    2  503  502 -0.11540481825E+02  0.61825118040E+02  0.10733527879E+02  0.63802324112E+02  0.00000000000E+00 0.  1.
<mgrwt>
<rscale>  4 0.41866430E+03</rscale>
<asrwt>0</asrwt>
<pdfrwt beam="1">  1        2 0.71298527E-01 0.41866430E+03</pdfrwt>
<pdfrwt beam="2">  1       -2 0.21163688E-01 0.41866430E+03</pdfrwt>
<totfact> 0.12973063E+03</totfact>
</mgrwt>
</event>
<event>
 5    0  0.4025551E-002  0.1893155E+04  0.7546771E-02  0.8658271E-01
          2   -1    0    0  503    0  0.00000000000E+00  0.00000000000E+00  0.53400567370E+03  0.53400567370E+03  0.00000000000E+00 0.  1.
         -2   -1    0    0    0  501 -0.00000000000E+00 -0.00000000000E+00 -0.18406035892E+04  0.18406035892E+04  0.00000000000E+00 0. -1.
         25    1    1    2    0    0 -0.87031391100E+03 -0.23281156809E+03 -0.32025074244E+03  0.96427852198E+03  0.12500000000E+03 0.  0.
         21    1    1    2  502  501 -0.16701065331E+02  0.72915891387E+02 -0.82339391717E+00  0.74808627695E+02  0.00000000000E+00 0.  1.
         21    1    1    2  503  502  0.88701497633E+03  0.15989567670E+03 -0.98552377913E+03  0.13355221132E+04  0.00000000000E+00 0. -1.
<mgrwt>
<rscale>  4 0.18931550E+04</rscale>
<asrwt>0</asrwt>
<pdfrwt beam="1">  1        2 0.82154719E-01 0.18931550E+04</pdfrwt>
<pdfrwt beam="2">  1       -2 0.28316978E+00 0.18931550E+04</pdfrwt>
<totfact> 0.21483284E+00</totfact>
</mgrwt>
</event>
<event>
 5    0  0.4025551E-002  0.7601396E+03  0.7546771E-02  0.9619576E-01
         -2   -1    0    0    0  501 -0.00000000000E+00  0.00000000000E+00  0.65248451609E+02  0.65248451609E+02  0.00000000000E+00 0. -1.
          2   -1    0    0  503    0  0.00000000000E+00 -0.00000000000E+00 -0.22138922594E+04  0.22138922594E+04  0.00000000000E+00 0.  1.
         25    1    1    2    0    0  0.11508606093E+03 -0.18491613889E+03 -0.19806373837E+04  0.19964939833E+04  0.12500000000E+03 0.  0.
         21    1    1    2  502  501 -0.10751461669E+03  0.11872153832E+03 -0.10996434779E+03  0.19428420998E+03  0.00000000000E+00 0. -1.
         21    1    1    2  503  502 -0.75714442469E+01  0.66194600575E+02 -0.58042076350E+02  0.88362517734E+02  0.00000000000E+00 0. -1.
<mgrwt>
<rscale>  4 0.76013957E+03</rscale>
<asrwt>0</asrwt>
<pdfrwt beam="1">  1        2 0.34059885E+00 0.76013957E+03</pdfrwt>
<pdfrwt beam="2">  1       -2 0.10038222E-01 0.76013957E+03</pdfrwt>
<totfact> 0.35581514E+02</totfact>
</mgrwt>
</event>
<event>
 5    0  0.4025551E-002  0.1032613E+04  0.7546771E-02  0.9273482E-01
         -1   -1    0    0    0  501 -0.00000000000E+00  0.00000000000E+00  0.60150900758E+03  0.60150900758E+03  0.00000000000E+00 0. -1.
          1   -1    0    0  503    0  0.00000000000E+00 -0.00000000000E+00 -0.60556813052E+03  0.60556813052E+03  0.00000000000E+00 0.  1.
         25    1    1    2    0    0  0.42941933388E+03  0.17995131675E+03 -0.33389012006E+03  0.58642224803E+03  0.12500000000E+03 0.  0.
         21    1    1    2  502  501 -0.32074937059E+03 -0.23650728241E+03  0.21533545714E+03  0.45297374369E+03  0.00000000000E+00 0. -1.
         21    1    1    2  503  502 -0.10866996330E+03  0.56555965667E+02  0.11449553998E+03  0.16768114638E+03  0.00000000000E+00 0. -1.
<mgrwt>
<rscale>  4 0.10326126E+04</rscale>
<asrwt>0</asrwt>
<pdfrwt beam="1">  1        1 0.93164328E-01 0.10326126E+04</pdfrwt>
<pdfrwt beam="2">  1       -1 0.92539847E-01 0.10326126E+04</pdfrwt>
<totfact> 0.38394217E+01</totfact>
</mgrwt>
</event>
<event>
 5    0  0.4025551E-002  0.5292847E+03  0.7546771E-02  0.1006406E+00
          2   -1    0    0  503    0  0.00000000000E+00  0.00000000000E+00  0.25484247533E+04  0.25484247533E+04  0.00000000000E+00 0.  1.
         -2   -1    0    0    0  501 -0.00000000000E+00 -0.00000000000E+00 -0.44103800912E+02  0.44103800912E+02  0.00000000000E+00 0. -1.
         25    1    1    2    0    0  0.26547054621E+02  0.23707319345E+03  0.91729697443E+03  0.95601630972E+03  0.12500000000E+03 0.  0.
         21    1    1    2  502  501 -0.56970163102E+02 -0.22303979070E+03  0.15863872343E+04  0.16030024345E+04  0.00000000000E+00 0.  1.
         21    1    1    2  503  502  0.30423108481E+02 -0.14033402746E+02  0.63674360287E+00  0.33509809977E+02  0.00000000000E+00 0. -1.
<mgrwt>
<rscale>  4 0.52928472E+03</rscale>
<asrwt>0</asrwt>
<pdfrwt beam="1">  1        2 0.39206523E+00 0.52928472E+03</pdfrwt>
<pdfrwt beam="2">  1       -2 0.67852021E-02 0.52928472E+03</pdfrwt>
<totfact> 0.44330360E+02</totfact>
</mgrwt>
</event>
<event>
 5    0  0.4025551E-002  0.5055962E+03  0.7546771E-02  0.1012328E+00
         -2   -1    0    0    0  501 -0.00000000000E+00  0.00000000000E+00  0.18307056527E+03  0.18307056527E+03  0.00000000000E+00 0.  1.
          2   -1    0    0  503    0  0.00000000000E+00 -0.00000000000E+00 -0.43532246083E+03  0.43532246083E+03  0.00000000000E+00 0. -1.
         25    1    1    2    0    0 -0.23606093644E+03  0.66505805067E+02 -0.12259362889E+03  0.30133367827E+03  0.12500000000E+03 0.  0.
         21    1    1    2  502  501  0.21613394763E+03 -0.69274768899E+02 -0.16208498418E+03  0.27889858196E+03  0.00000000000E+00 0.  1.
         21    1    1    2  503  502  0.19926988808E+02  0.27689638314E+01  0.32426717503E+02  0.38160765869E+02  0.00000000000E+00 0.  1.
<mgrwt>
<rscale>  4 0.50559625E+03</rscale>
<asrwt>0</asrwt>
<pdfrwt beam="1">  1        2 0.66972686E-01 0.50559625E+03</pdfrwt>
<pdfrwt beam="2">  1       -2 0.28164703E-01 0.50559625E+03</pdfrwt>
<totfact> 0.83636845E+02</totfact>
</mgrwt>
</event>
<event>
 5    0  0.4025551E-002  0.5064549E+03  0.7546771E-02  0.1012108E+00
          1   -1    0    0  502    0  0.00000000000E+00  0.00000000000E+00  0.66358069898E+03  0.66358069898E+03  0.00000000000E+00 0. -1.
         -1   -1    0    0    0  501 -0.00000000000E+00 -0.00000000000E+00 -0.16058418314E+03  0.16058418314E+03  0.00000000000E+00 0.  1.
         25    1    1    2    0    0 -0.11237576812E+03  0.20104535864E+03  0.26007772408E+03  0.36920586677E+03  0.12500000000E+03 0.  0.
         21    1    1    2  502  503 -0.36076420327E+02 -0.90457379892E+01 -0.57669782538E+02  0.68623154237E+02  0.00000000000E+00 0.  1.
         21    1    1    2  503  501  0.14845218845E+03 -0.19199962065E+03  0.30058857430E+03  0.38633586112E+03  0.00000000000E+00 0.  1.
<mgrwt>
<rscale>  4 0.50645494E+03</rscale>
<asrwt>0</asrwt>
<pdfrwt beam="1">  1        1 0.10208934E+00 0.50645494E+03</pdfrwt>
<pdfrwt beam="2">  1       -1 0.24705259E-01 0.50645494E+03</pdfrwt>
<totfact> 0.42947342E+02</totfact>
</mgrwt>
</event>
<event>
 5    0  0.4025551E-002  0.4833606E+03  0.7546771E-02  0.1018216E+00
          1   -1    0    0  503    0  0.00000000000E+00  0.00000000000E+00  0.21916104347E+04  0.21916104347E+04  0.00000000000E+00 0.  1.
         -1   -1    0    0    0  501 -0.00000000000E+00 -0.00000000000E+00 -0.52978430567E+02  0.52978430567E+02  0.00000000000E+00 0. -1.
         25    1    1    2    0    0 -0.17294594686E+03  0.11733135712E+03  0.10139849732E+04  0.10428170854E+04  0.12500000000E+03 0.  0.
         21    1    1    2  502  501  0.10279190279E+03  0.15710897415E+00  0.10306376570E+04  0.10357510222E+04  0.00000000000E+00 0. -1.
         21    1    1    2  503  502  0.70154044062E+02 -0.11748846610E+03  0.94009373958E+02  0.16602075761E+03  0.00000000000E+00 0. -1.
<mgrwt>
<rscale>  4 0.48336059E+03</rscale>
<asrwt>0</asrwt>
<pdfrwt beam="1">  1        1 0.33717077E+00 0.48336059E+03</pdfrwt>
<pdfrwt beam="2">  1       -1 0.81505295E-02 0.48336059E+03</pdfrwt>
<totfact> 0.20445613E+02</totfact>
</mgrwt>
</event>
<event>
 5    0  0.4025551E-002  0.4764246E+03  0.7546771E-02  0.1020122E+00
         -2   -1    0    0    0  501 -0.00000000000E+00  0.00000000000E+00  0.25350658420E+03  0.25350658420E+03  0.00000000000E+00 0. -1.
          2   -1    0    0  502    0  0.00000000000E+00 -0.00000000000E+00 -0.22384077764E+03  0.22384077764E+03  0.00000000000E+00 0.  1.
         25    1    1    2    0    0 -0.16657020275E+03  0.11427596413E+03 -0.46350605389E+02  0.24202893844E+03  0.12500000000E+03 0.  0.
         21    1    1    2  502  503  0.52810407626E+02 -0.87321476629E+02  0.14079234168E+02  0.10301555353E+03  0.00000000000E+00 0.  1.
         21    1    1    2  503  501  0.11375979513E+03 -0.26954487502E+02  0.61937177778E+02  0.13230286987E+03  0.00000000000E+00 0.  1.
<mgrwt>
<rscale>  4 0.47642465E+03</rscale>
<asrwt>0</asrwt>
<pdfrwt beam="1">  1        2 0.34437043E-01 0.47642465E+03</pdfrwt>
<pdfrwt beam="2">  1       -2 0.39001013E-01 0.47642465E+03</pdfrwt>
<totfact> 0.94817760E+02</totfact>
</mgrwt>
</event>
<event>
 5    0  0.4025551E-002  0.4352476E+03  0.7546771E-02  0.1032215E+00
          2   -1    0    0  503    0  0.00000000000E+00  0.00000000000E+00  0.88281168336E+03  0.88281168336E+03  0.00000000000E+00 0.  1.
         -2   -1    0    0    0  501 -0.00000000000E+00 -0.00000000000E+00 -0.91433962191E+02  0.91433962191E+02  0.00000000000E+00 0. -1.
         25    1    1    2    0    0 -0.20324123606E+03  0.60173913184E+02  0.54499229880E+03  0.59797115784E+03  0.12500000000E+03 0.  0.
         21    1    1    2  502  501  0.17996851943E+03 -0.33877976739E+02  0.27539602252E+03  0.33072549723E+03  0.00000000000E+00 0. -1.
         21    1    1    2  503  502  0.23272716629E+02 -0.26295936445E+02 -0.29010600150E+02  0.45548990481E+02  0.00000000000E+00 0. -1.
<mgrwt>
<rscale>  4 0.43524761E+03</rscale>
<asrwt>0</asrwt>
<pdfrwt beam="1">  1        2 0.13581718E+00 0.43524761E+03</pdfrwt>
<pdfrwt beam="2">  1       -2 0.14066764E-01 0.43524761E+03</pdfrwt>
<totfact> 0.11858348E+03</totfact>
</mgrwt>
</event>
<event>
 5    0  0.4025551E-002  0.5544387E+03  0.7546771E-02  0.1000472E+00
         -2   -1    0    0    0  501 -0.00000000000E+00  0.00000000000E+00  0.17096968884E+03  0.17096968884E+03  0.00000000000E+00 0.  1.
          2   -1    0    0  503    0  0.00000000000E+00 -0.00000000000E+00 -0.80975670753E+03  0.80975670753E+03  0.00000000000E+00 0. -1.
         25    1    1    2    0    0 -0.22213663252E+03 -0.43959355383E+02 -0.66816722418E+03  0.71648415747E+03  0.12500000000E+03 0.  0.
         21    1    1    2  502  501  0.16909705464E+03  0.49394268321E+02 -0.36075596408E+02  0.17981951031E+03  0.00000000000E+00 0.  1.
         21    1    1    2  503  502  0.53039577875E+02 -0.54349129379E+01  0.65455801905E+02  0.84422728591E+02  0.00000000000E+00 0. -1.
<mgrwt>
<rscale>  4 0.55443874E+03</rscale>
<asrwt>0</asrwt>
<pdfrwt beam="1">  1        2 0.12457795E+00 0.55443874E+03</pdfrwt>
<pdfrwt beam="2">  1       -2 0.26303029E-01 0.55443874E+03</pdfrwt>
<totfact> 0.44873276E+02</totfact>
</mgrwt>
</event>
<event>
 5    0  0.4025551E-002  0.4606695E+03  0.7546771E-02  0.1024587E+00
          1   -1    0    0  503    0  0.00000000000E+00  0.00000000000E+00  0.85109760876E+02  0.85109760876E+02  0.00000000000E+00 0. -1.
         -1   -1    0    0    0  501 -0.00000000000E+00 -0.00000000000E+00 -0.11712697295E+04  0.11712697295E+04  0.00000000000E+00 0.  1.
         25    1    1    2    0    0  0.22355161042E+03  0.26251027643E+02 -0.33593284588E+03  0.42324970870E+03  0.12500000000E+03 0.  0.
         21    1    1    2  502  501 -0.19723527395E+03 -0.40140400964E+02 -0.20571403240E+03  0.28780421854E+03  0.00000000000E+00 0. -1.
         21    1    1    2  503  502 -0.26316336472E+02  0.13889373321E+02 -0.54451309031E+03  0.54532556311E+03  0.00000000000E+00 0.  1.
<mgrwt>
<rscale>  4 0.46066945E+03</rscale>
<asrwt>0</asrwt>
<pdfrwt beam="1">  1        1 0.13093809E-01 0.46066945E+03</pdfrwt>
<pdfrwt beam="2">  1       -1 0.18019535E+00 0.46066945E+03</pdfrwt>
<totfact> 0.10006072E+02</totfact>
</mgrwt>
</event>
<event>
 5    0  0.4025551E-002  0.5628150E+03  0.7546771E-02  0.9985705E-01
         -2   -1    0    0    0  501 -0.00000000000E+00  0.00000000000E+00  0.55812812393E+02  0.55812812393E+02  0.00000000000E+00 0.  1.
          2   -1    0    0  502    0  0.00000000000E+00 -0.00000000000E+00 -0.21507258779E+04  0.21507258779E+04  0.00000000000E+00 0. -1.
         25    1    1    2    0    0  0.26015176349E+03 -0.15847606178E+02 -0.12230230069E+04  0.12567180918E+04  0.12500000000E+03 0.  0.
         21    1    1    2  502  503 -0.18388023949E+03  0.44478298356E+02 -0.20885406365E+03  0.28179829915E+03  0.00000000000E+00 0.  1.
         21    1    1    2  503  501 -0.76271524000E+02 -0.28630692178E+02 -0.66303599496E+03  0.66802229942E+03  0.00000000000E+00 0.  1.
<mgrwt>
<rscale>  4 0.56281501E+03</rscale>
<asrwt>0</asrwt>
<pdfrwt beam="1">  1        2 0.33088089E+00 0.56281501E+03</pdfrwt>
<pdfrwt beam="2">  1       -2 0.85865869E-02 0.56281501E+03</pdfrwt>
<totfact> 0.50443812E+02</totfact>
</mgrwt>
</event>
<event>
 5    0  0.4025551E-002  0.4912373E+03  0.7546771E-02  0.1016092E+00
          1   -1    0    0  503    0  0.00000000000E+00  0.00000000000E+00  0.44444270194E+03  0.44444270194E+03  0.00000000000E+00 0. -1.
         -1   -1    0    0    0  501 -0.00000000000E+00 -0.00000000000E+00 -0.15647817793E+03  0.15647817793E+03  0.00000000000E+00 0.  1.
         25    1    1    2    0    0 -0.11596134684E+03 -0.21014396708E+03  0.14148091585E+03  0.30536759882E+03  0.12500000000E+03 0.  0.
         21    1    1    2  502  501  0.10480658064E+03  0.19204502176E+03  0.15938652840E+03  0.27068390267E+03  0.00000000000E+00 0. -1.
         21    1    1    2  503  502  0.11154766198E+02  0.18098945317E+02 -0.12902920235E+02  0.24869378382E+02  0.00000000000E+00 0.  1.
<mgrwt>
<rscale>  4 0.49123733E+03</rscale>
<asrwt>0</asrwt>
<pdfrwt beam="1">  1        1 0.68375800E-01 0.49123733E+03</pdfrwt>
<pdfrwt beam="2">  1       -1 0.24073566E-01 0.49123733E+03</pdfrwt>
<totfact> 0.78343329E+02</totfact>
</mgrwt>
</event>
<event>
 5    0  0.4025551E-002  0.6727631E+03  0.7546771E-02  0.9764979E-01
         -2   -1    0    0    0  501 -0.00000000000E+00  0.00000000000E+00  0.10278455449E+04  0.10278455449E+04  0.00000000000E+00 0. -1.
          2   -1    0    0  503    0  0.00000000000E+00 -0.00000000000E+00 -0.21853443297E+03  0.21853443297E+03  0.00000000000E+00 0.  1.
         25    1    1    2    0    0 -0.24498364416E+03  0.21426691322E+03 -0.37511749202E+01  0.34866368799E+03  0.12500000000E+03 0.  0.
         21    1    1    2  502  501  0.20287980167E+03 -0.88051524806E+02  0.33450768875E+03  0.40100957443E+03  0.00000000000E+00 0. -1.
         21    1    1    2  503  502  0.42103842490E+02 -0.12621538841E+03  0.47855459812E+03  0.49670671548E+03  0.00000000000E+00 0. -1.
<mgrwt>
<rscale>  4 0.67276306E+03</rscale>
<asrwt>0</asrwt>
<pdfrwt beam="1">  1        2 0.33620683E-01 0.67276306E+03</pdfrwt>
<pdfrwt beam="2">  1       -2 0.15813008E+00 0.67276306E+03</pdfrwt>
<totfact> 0.41371795E+01</totfact>
</mgrwt>
</event>
<event>
 5    0  0.4025551E-002  0.5067665E+03  0.7546771E-02  0.1012028E+00
         -1   -1    0    0    0  501 -0.00000000000E+00  0.00000000000E+00  0.23173045622E+03  0.23173045622E+03  0.00000000000E+00 0. -1.
          1   -1    0    0  503    0  0.00000000000E+00 -0.00000000000E+00 -0.27705927896E+03  0.27705927896E+03  0.00000000000E+00 0.  1.
         25    1    1    2    0    0  0.88340408388E+02 -0.21378208637E+03  0.15003105504E+02  0.26335698468E+03  0.12500000000E+03 0.  0.
         21    1    1    2  502  501 -0.18714667550E+02  0.10128846236E+03 -0.44453569566E+02  0.11218605634E+03  0.00000000000E+00 0.  1.
         21    1    1    2  503  502 -0.69625740838E+02  0.11249362401E+03 -0.15878358679E+02  0.13324669416E+03  0.00000000000E+00 0. -1.
<mgrwt>
<rscale>  4 0.50676651E+03</rscale>
<asrwt>0</asrwt>
<pdfrwt beam="1">  1        1 0.42624504E-01 0.50676651E+03</pdfrwt>
<pdfrwt beam="2">  1       -1 0.35650839E-01 0.50676651E+03</pdfrwt>
<totfact> 0.73506191E+02</totfact>
</mgrwt>
</event>
<event>
 5    0  0.4025551E-002  0.1127690E+04  0.7546771E-02  0.9178616E-01
          1   -1    0    0  503    0  0.00000000000E+00  0.00000000000E+00  0.58862988923E+03  0.58862988923E+03  0.00000000000E+00 0. -1.
         -1   -1    0    0    0  501 -0.00000000000E+00 -0.00000000000E+00 -0.11351602896E+04  0.11351602896E+04  0.00000000000E+00 0.  1.
         25    1    1    2    0    0  0.21279950268E+03  0.21133601110E+03  0.43826208174E+03  0.54556868515E+03  0.12500000000E+03 0.  0.
         21    1    1    2  502  501 -0.29010436870E+03 -0.30624564738E+03 -0.40199132551E+03  0.58270401325E+03  0.00000000000E+00 0.  1.
         21    1    1    2  503  502  0.77304866021E+02  0.94909636279E+02 -0.58280115663E+03  0.59551748046E+03  0.00000000000E+00 0. -1.
<mgrwt>
<rscale>  4 0.11276895E+04</rscale>
<asrwt>0</asrwt>
<pdfrwt beam="1">  1        1 0.90558445E-01 0.11276895E+04</pdfrwt>
<pdfrwt beam="2">  1       -1 0.17464004E+00 0.11276895E+04</pdfrwt>
<totfact> 0.79440011E+00</totfact>
</mgrwt>
</event>
<event>
 5    0  0.4025551E-002  0.5347433E+03  0.7546771E-02  0.1005088E+00
          1   -1    0    0  502    0  0.00000000000E+00  0.00000000000E+00  0.11044178176E+04  0.11044178176E+04  0.00000000000E+00 0. -1.
         -1   -1    0    0    0  501 -0.00000000000E+00 -0.00000000000E+00 -0.64728759093E+02  0.64728759093E+02  0.00000000000E+00 0.  1.
         25    1    1    2    0    0 -0.61599230668E+02  0.21968853686E+03  0.39246803537E+03  0.47086481843E+03  0.12500000000E+03 0.  0.
         21    1    1    2  502  503  0.93371315518E+02 -0.94114094086E+02  0.32984727624E+03  0.35549246252E+03  0.00000000000E+00 0. -1.
         21    1    1    2  503  501 -0.31772084850E+02 -0.12557444278E+03  0.31737374689E+03  0.34278929574E+03  0.00000000000E+00 0. -1.
<mgrwt>
<rscale>  4 0.53474328E+03</rscale>
<asrwt>0</asrwt>
<pdfrwt beam="1">  1        1 0.16991042E+00 0.53474328E+03</pdfrwt>
<pdfrwt beam="2">  1       -1 0.99582714E-02 0.53474328E+03</pdfrwt>
<totfact> 0.81306087E+02</totfact>
</mgrwt>
</event>
<event>
 5    0  0.4025551E-002  0.5302637E+03  0.7546771E-02  0.1006168E+00
         -3   -1    0    0    0  501 -0.00000000000E+00  0.00000000000E+00  0.58366135043E+02  0.58366135043E+02  0.00000000000E+00 0. -1.
          3   -1    0    0  503    0  0.00000000000E+00 -0.00000000000E+00 -0.12043781450E+04  0.12043781450E+04  0.00000000000E+00 0.  1.
         25    1    1    2    0    0  0.29035635696E+02 -0.21841022480E+03 -0.85278531584E+03  0.88961446107E+03  0.12500000000E+03 0.  0.
         21    1    1    2  502  501 -0.19840651110E+02  0.17902095292E+03 -0.27506774954E+03  0.32879236588E+03  0.00000000000E+00 0. -1.
         21    1    1    2  503  502 -0.91949845868E+01  0.39389271873E+02 -0.18158944607E+02  0.44337453123E+02  0.00000000000E+00 0.  1.
<mgrwt>
<rscale>  4 0.53026370E+03</rscale>
<asrwt>0</asrwt>
<pdfrwt beam="1">  1        3 0.18528892E+00 0.53026370E+03</pdfrwt>
<pdfrwt beam="2">  1       -3 0.89794065E-02 0.53026370E+03</pdfrwt>
<totfact> 0.44824257E+01</totfact>
</mgrwt>
</event>
<event>
 5    0  0.4025551E-002  0.4929838E+03  0.7546771E-02  0.1015627E+00
         -1   -1    0    0    0  501 -0.00000000000E+00  0.00000000000E+00  0.45166077942E+02  0.45166077942E+02  0.00000000000E+00 0. -1.
          1   -1    0    0  503    0  0.00000000000E+00 -0.00000000000E+00 -0.13452185506E+04  0.13452185506E+04  0.00000000000E+00 0.  1.
         25    1    1    2    0    0  0.19563354128E+02 -0.22309842222E+03 -0.80169609858E+03  0.84172279600E+03  0.12500000000E+03 0.  0.
         21    1    1    2  502  501 -0.48402874294E+01  0.20899087774E+03 -0.45028815770E+03  0.49644741950E+03  0.00000000000E+00 0. -1.
         21    1    1    2  503  502 -0.14723066698E+02  0.14107544480E+02 -0.48068216395E+02  0.52214413065E+02  0.00000000000E+00 0.  1.
<mgrwt>
<rscale>  4 0.49298376E+03</rscale>
<asrwt>0</asrwt>
<pdfrwt beam="1">  1        1 0.20695669E+00 0.49298376E+03</pdfrwt>
<pdfrwt beam="2">  1       -1 0.69486278E-02 0.49298376E+03</pdfrwt>
<totfact> 0.96114577E+02</totfact>
</mgrwt>
</event>
<event>
 5    0  0.4025551E-002  0.7223224E+03  0.7546771E-02  0.9679802E-01
          1   -1    0    0  502    0  0.00000000000E+00  0.00000000000E+00  0.29505172796E+03  0.29505172796E+03  0.00000000000E+00 0. -1.
         -1   -1    0    0    0  501 -0.00000000000E+00 -0.00000000000E+00 -0.68428084731E+03  0.68428084731E+03  0.00000000000E+00 0.  1.
         25    1    1    2    0    0 -0.31450187434E+03  0.11478328801E+03 -0.21098964201E+03  0.41500392914E+03  0.12500000000E+03 0.  0.
         21    1    1    2  502  503  0.28265678690E+03 -0.23063642385E+03 -0.23238685837E+03  0.43254094735E+03  0.00000000000E+00 0.  1.
         21    1    1    2  503  501  0.31845087445E+02  0.11585313584E+03  0.54147381030E+02  0.13178769879E+03  0.00000000000E+00 0. -1.
<mgrwt>
<rscale>  4 0.72232236E+03</rscale>
<asrwt>0</asrwt>
<pdfrwt beam="1">  1        1 0.45392574E-01 0.72232236E+03</pdfrwt>
<pdfrwt beam="2">  1       -1 0.10527398E+00 0.72232236E+03</pdfrwt>
<totfact> 0.77315261E+01</totfact>
</mgrwt>
</event>
<event>
 5    0  0.4025551E-002  0.4846439E+03  0.7546771E-02  0.1017867E+00
          1   -1    0    0  503    0  0.00000000000E+00  0.00000000000E+00  0.27331479433E+03  0.27331479433E+03  0.00000000000E+00 0. -1.
         -1   -1    0    0    0  501 -0.00000000000E+00 -0.00000000000E+00 -0.46719681337E+03  0.46719681337E+03  0.00000000000E+00 0.  1.
         25    1    1    2    0    0 -0.20118357406E+03 -0.29383329764E+02  0.16177043280E+03  0.28832773621E+03  0.12500000000E+03 0.  0.
         21    1    1    2  502  501  0.16873831040E+03  0.14400717885E+02 -0.10557273082E+03  0.19956352264E+03  0.00000000000E+00 0. -1.
         21    1    1    2  503  502  0.32445263657E+02  0.14982611879E+02 -0.25007972101E+03  0.25262034885E+03  0.00000000000E+00 0. -1.
<mgrwt>
<rscale>  4 0.48464389E+03</rscale>
<asrwt>0</asrwt>
<pdfrwt beam="1">  1        1 0.42048430E-01 0.48464389E+03</pdfrwt>
<pdfrwt beam="2">  1       -1 0.71876433E-01 0.48464389E+03</pdfrwt>
<totfact> 0.19864319E+02</totfact>
</mgrwt>
</event>
<event>
 5    0  0.4025551E-002  0.6466376E+03  0.7546771E-02  0.9813109E-01
         -1   -1    0    0    0  501 -0.00000000000E+00  0.00000000000E+00  0.15777285658E+03  0.15777285658E+03  0.00000000000E+00 0. -1.
          1   -1    0    0  502    0  0.00000000000E+00 -0.00000000000E+00 -0.83678829414E+03  0.83678829414E+03  0.00000000000E+00 0.  1.
         25    1    1    2    0    0  0.11152799075E+03 -0.25022757401E+03 -0.23015074485E+03  0.37900751559E+03  0.12500000000E+03 0.  0.
         21    1    1    2  502  503  0.73072466203E+01 -0.61454080652E+02 -0.75327041101E+01  0.62343736760E+02  0.00000000000E+00 0.  1.
         21    1    1    2  503  501 -0.11883523737E+03  0.31168165467E+03 -0.44133198860E+03  0.55320989837E+03  0.00000000000E+00 0. -1.
<mgrwt>
<rscale>  4 0.64663765E+03</rscale>
<asrwt>0</asrwt>
<pdfrwt beam="1">  1        1 0.12873666E+00 0.64663765E+03</pdfrwt>
<pdfrwt beam="2">  1       -1 0.24272747E-01 0.64663765E+03</pdfrwt>
<totfact> 0.30741744E+02</totfact>
</mgrwt>
</event>
<event>
 5    0  0.4025551E-002  0.6422512E+03  0.7546771E-02  0.9821429E-01
          2   -1    0    0  502    0  0.00000000000E+00  0.00000000000E+00  0.17716767848E+03  0.17716767848E+03  0.00000000000E+00 0. -1.
         -2   -1    0    0    0  501 -0.00000000000E+00 -0.00000000000E+00 -0.62862496798E+03  0.62862496798E+03  0.00000000000E+00 0.  1.
         25    1    1    2    0    0 -0.87915622751E+02  0.21830107402E+03 -0.47248164469E+03  0.54244669804E+03  0.12500000000E+03 0.  0.
         21    1    1    2  502  503  0.24829672192E+01 -0.19969267237E+02 -0.34888051810E+02  0.40275462993E+02  0.00000000000E+00 0. -1.
         21    1    1    2  503  501  0.85432655532E+02 -0.19833180678E+03  0.55912407001E+02  0.22307048543E+03  0.00000000000E+00 0. -1.
<mgrwt>
<rscale>  4 0.64225122E+03</rscale>
<asrwt>0</asrwt>
<pdfrwt beam="1">  1        2 0.27256567E-01 0.64225122E+03</pdfrwt>
<pdfrwt beam="2">  1       -2 0.96711531E-01 0.64225122E+03</pdfrwt>
<totfact> 0.17947242E+02</totfact>
</mgrwt>
</event>
<event>
 5    0  0.4025551E-002  0.4398845E+03  0.7546771E-02  0.1030782E+00
          1   -1    0    0  503    0  0.00000000000E+00  0.00000000000E+00  0.77382805240E+02  0.77382805240E+02  0.00000000000E+00 0. -1.
         -1   -1    0    0    0  501 -0.00000000000E+00 -0.00000000000E+00 -0.76177577784E+03  0.76177577784E+03  0.00000000000E+00 0.  1.
         25    1    1    2    0    0 -0.20228273616E+03 -0.63876563832E+02 -0.33700849912E+03  0.41737063772E+03  0.12500000000E+03 0.  0.
         21    1    1    2  502  501  0.18175249214E+03  0.63413169567E+02 -0.21817269402E+03  0.29095450313E+03  0.00000000000E+00 0.  1.
         21    1    1    2  503  502  0.20530244021E+02  0.46339426457E+00 -0.12921177946E+03  0.13083344223E+03  0.00000000000E+00 0.  1.
<mgrwt>
<rscale>  4 0.43988447E+03</rscale>
<asrwt>0</asrwt>
<pdfrwt beam="1">  1        1 0.11905047E-01 0.43988447E+03</pdfrwt>
<pdfrwt beam="2">  1       -1 0.11719628E+00 0.43988447E+03</pdfrwt>
<totfact> 0.35352072E+02</totfact>
</mgrwt>
</event>
<event>
 5    0  0.4025551E-002  0.1401234E+04  0.7546771E-02  0.8952926E-01
         -1   -1    0    0    0  501 -0.00000000000E+00  0.00000000000E+00  0.13234514037E+04  0.13234514037E+04  0.00000000000E+00 0. -1.
          1   -1    0    0  503    0  0.00000000000E+00 -0.00000000000E+00 -0.60282736151E+03  0.60282736151E+03  0.00000000000E+00 0.  1.
         25    1    1    2    0    0  0.31516225172E+03  0.53212527742E+03  0.62069664460E+03  0.88508410922E+03  0.12500000000E+03 0.  0.
         21    1    1    2  502  501 -0.36153042265E+03  0.11627459639E+03  0.93491937594E+02  0.39110710894E+03  0.00000000000E+00 0.  1.
         21    1    1    2  503  502  0.46368170938E+02 -0.64839987381E+03  0.64354599585E+01  0.65008754701E+03  0.00000000000E+00 0.  1.
<mgrwt>
<rscale>  4 0.14012342E+04</rscale>
<asrwt>0</asrwt>
<pdfrwt beam="1">  1        1 0.92742672E-01 0.14012342E+04</pdfrwt>
<pdfrwt beam="2">  1       -1 0.20360791E+00 0.14012342E+04</pdfrwt>
<totfact> 0.46850703E+00</totfact>
</mgrwt>
</event>
<event>
 5    0  0.4025551E-002  0.7066859E+03  0.7546771E-02  0.9705866E-01
         -1   -1    0    0    0  501 -0.00000000000E+00  0.00000000000E+00  0.49963816609E+03  0.49963816609E+03  0.00000000000E+00 0.  1.
          1   -1    0    0  502    0  0.00000000000E+00 -0.00000000000E+00 -0.32544044794E+03  0.32544044794E+03  0.00000000000E+00 0. -1.
         25    1    1    2    0    0 -0.19289290573E+03  0.10334273986E+03 -0.22625649751E+03  0.33868037680E+03  0.12500000000E+03 0.  0.
         21    1    1    2  502  503  0.11667834441E+03 -0.42135964280E+02  0.35970436243E+03  0.38049507735E+03  0.00000000000E+00 0.  1.
         21    1    1    2  503  501  0.76214561325E+02 -0.61206775582E+02  0.40749853225E+02  0.10590315988E+03  0.00000000000E+00 0.  1.
<mgrwt>
<rscale>  4 0.70668593E+03</rscale>
<asrwt>0</asrwt>
<pdfrwt beam="1">  1        1 0.50067761E-01 0.70668593E+03</pdfrwt>
<pdfrwt beam="2">  1       -1 0.76867410E-01 0.70668593E+03</pdfrwt>
<totfact> 0.13617773E+02</totfact>
</mgrwt>
</event>
<event>
 5    0  0.4025551E-002  0.4486244E+03  0.7546771E-02  0.1028133E+00
          2   -1    0    0  502    0  0.00000000000E+00  0.00000000000E+00  0.87983718521E+03  0.87983718521E+03  0.00000000000E+00 0.  1.
         -2   -1    0    0    0  501 -0.00000000000E+00 -0.00000000000E+00 -0.71579433168E+02  0.71579433168E+02  0.00000000000E+00 0. -1.
         25    1    1    2    0    0  0.20216912395E+03  0.31027295567E+02  0.27111671446E+03  0.36188992886E+03  0.12500000000E+03 0.  0.
         21    1    1    2  502  503 -0.25188668759E+02 -0.39806836839E+02  0.40165437850E+02  0.61905699985E+02  0.00000000000E+00 0.  1.
         21    1    1    2  503  501 -0.17698045520E+03  0.87795412717E+01  0.49697559973E+03  0.52762098953E+03  0.00000000000E+00 0.  1.
<mgrwt>
<rscale>  4 0.44862442E+03</rscale>
<asrwt>0</asrwt>
<pdfrwt beam="1">  1        2 0.13535956E+00 0.44862442E+03</pdfrwt>
<pdfrwt beam="2">  1       -2 0.11012221E-01 0.44862442E+03</pdfrwt>
<totfact> 0.17814109E+03</totfact>
</mgrwt>
</event>
<event>
 5    0  0.4025551E-002  0.4948033E+03  0.7546771E-02  0.1015144E+00
         -2   -1    0    0    0  501 -0.00000000000E+00  0.00000000000E+00  0.33253939707E+02  0.33253939707E+02  0.00000000000E+00 0.  1.
          2   -1    0    0  502    0  0.00000000000E+00 -0.00000000000E+00 -0.20982365238E+04  0.20982365238E+04  0.00000000000E+00 0. -1.
         25    1    1    2    0    0  0.13204749673E+03 -0.18297394217E+03 -0.78252271511E+03  0.82394344744E+03  0.12500000000E+03 0.  0.
         21    1    1    2  502  503  0.20639429498E+02  0.26008927465E+02 -0.11363785972E+03  0.11838924579E+03  0.00000000000E+00 0.  1.
         21    1    1    2  503  501 -0.15268692623E+03  0.15696501470E+03 -0.11688220092E+04  0.11891577703E+04  0.00000000000E+00 0. -1.
<mgrwt>
<rscale>  4 0.49480327E+03</rscale>
<asrwt>0</asrwt>
<pdfrwt beam="1">  1        2 0.32280571E+00 0.49480327E+03</pdfrwt>
<pdfrwt beam="2">  1       -2 0.51159892E-02 0.49480327E+03</pdfrwt>
<totfact> 0.12226367E+03</totfact>
</mgrwt>
</event>
<event>
 5    0  0.4025551E-002  0.6578676E+03  0.7546771E-02  0.9792127E-01
         -2   -1    0    0    0  501 -0.00000000000E+00  0.00000000000E+00  0.11405062600E+03  0.11405062600E+03  0.00000000000E+00 0. -1.
          2   -1    0    0  503    0  0.00000000000E+00 -0.00000000000E+00 -0.14535707967E+04  0.14535707967E+04  0.00000000000E+00 0.  1.
         25    1    1    2    0    0 -0.24449108059E+03  0.16917123559E+03 -0.40070537012E+03  0.51437786605E+03  0.12500000000E+03 0.  0.
         21    1    1    2  502  501  0.23805929371E+03 -0.12352367584E+03 -0.96406994263E+03  0.10006803586E+04  0.00000000000E+00 0.  1.
         21    1    1    2  503  502  0.64317868787E+01 -0.45647559746E+02  0.25255142021E+02  0.52563198074E+02  0.00000000000E+00 0. -1.
<mgrwt>
<rscale>  4 0.65786759E+03</rscale>
<asrwt>0</asrwt>
<pdfrwt beam="1">  1        2 0.22362626E+00 0.65786759E+03</pdfrwt>
<pdfrwt beam="2">  1       -2 0.17546251E-01 0.65786759E+03</pdfrwt>
<totfact> 0.36795867E+02</totfact>
</mgrwt>
</event>
<event>
 5    0  0.4025551E-002  0.4824288E+03  0.7546771E-02  0.1018470E+00
         -4   -1    0    0    0  501 -0.00000000000E+00  0.00000000000E+00  0.52591116194E+03  0.52591116194E+03  0.00000000000E+00 0.  1.
          4   -1    0    0  503    0  0.00000000000E+00 -0.00000000000E+00 -0.20714255839E+03  0.20714255839E+03  0.00000000000E+00 0. -1.
         25    1    1    2    0    0  0.12585237137E+03 -0.19273227497E+03  0.31943520917E+02  0.26387485239E+03  0.12500000000E+03 0.  0.
         21    1    1    2  502  501 -0.14407325006E+03  0.16643194924E+03  0.44287152628E+02  0.22453963347E+03  0.00000000000E+00 0. -1.
         21    1    1    2  503  502  0.18220878688E+02  0.26300325734E+02  0.24253793000E+03  0.24463923447E+03  0.00000000000E+00 0.  1.
<mgrwt>
<rscale>  4 0.48242885E+03</rscale>
<asrwt>0</asrwt>
<pdfrwt beam="1">  1        4 0.31868086E-01 0.48242885E+03</pdfrwt>
<pdfrwt beam="2">  1       -4 0.80909409E-01 0.48242885E+03</pdfrwt>
<totfact> 0.25123237E+01</totfact>
</mgrwt>
</event>
<event>
 5    0  0.4025551E-002  0.6774003E+03  0.7546771E-02  0.9756681E-01
         -2   -1    0    0    0  501 -0.00000000000E+00  0.00000000000E+00  0.31689212723E+03  0.31689212723E+03  0.00000000000E+00 0. -1.
          2   -1    0    0  503    0  0.00000000000E+00 -0.00000000000E+00 -0.42305533408E+03  0.42305533408E+03  0.00000000000E+00 0.  1.
         25    1    1    2    0    0  0.90940554125E+02 -0.18252772795E+03  0.18815712254E+03  0.30432656574E+03  0.12500000000E+03 0.  0.
         21    1    1    2  502  501 -0.61549754761E+02  0.19368849249E+03 -0.33031522095E+03  0.38782953682E+03  0.00000000000E+00 0.  1.
         21    1    1    2  503  502 -0.29390799364E+02 -0.11160764541E+02  0.35994891564E+02  0.47791358750E+02  0.00000000000E+00 0. -1.
<mgrwt>
<rscale>  4 0.67740028E+03</rscale>
<asrwt>0</asrwt>
<pdfrwt beam="1">  1        2 0.65085435E-01 0.67740028E+03</pdfrwt>
<pdfrwt beam="2">  1       -2 0.48752635E-01 0.67740028E+03</pdfrwt>
<totfact> 0.30038123E+02</totfact>
</mgrwt>
</event>
<event>
 5    0  0.4025551E-002  0.4909087E+03  0.7546771E-02  0.1016179E+00
         -1   -1    0    0    0  501 -0.00000000000E+00  0.00000000000E+00  0.67926369873E+02  0.67926369873E+02  0.00000000000E+00 0.  1.
          1   -1    0    0  503    0  0.00000000000E+00 -0.00000000000E+00 -0.88695816688E+03  0.88695816688E+03  0.00000000000E+00 0. -1.
         25    1    1    2    0    0 -0.11482140818E+03 -0.16963532675E+03 -0.62432808401E+03  0.66885772503E+03  0.12500000000E+03 0.  0.
         21    1    1    2  502  501  0.96183530021E+02  0.15722930401E+03 -0.18642053593E+03  0.26215442339E+03  0.00000000000E+00 0.  1.
         21    1    1    2  503  502  0.18637878156E+02  0.12406022740E+02 -0.82831770766E+01  0.23872388336E+02  0.00000000000E+00 0. -1.
<mgrwt>
<rscale>  4 0.49090874E+03</rscale>
<asrwt>0</asrwt>
<pdfrwt beam="1">  1        1 0.13645511E+00 0.49090874E+03</pdfrwt>
<pdfrwt beam="2">  1       -1 0.10450210E-01 0.49090874E+03</pdfrwt>
<totfact> 0.11095208E+03</totfact>
</mgrwt>
</event>
<event>
 5    0  0.4025551E-002  0.6041400E+03  0.7546771E-02  0.9896854E-01
         -2   -1    0    0    0  501 -0.00000000000E+00  0.00000000000E+00  0.41816306282E+03  0.41816306282E+03  0.00000000000E+00 0. -1.
          2   -1    0    0  502    0  0.00000000000E+00 -0.00000000000E+00 -0.21820741923E+03  0.21820741923E+03  0.00000000000E+00 0.  1.
         25    1    1    2    0    0 -0.28484101808E+03 -0.96880833509E+01  0.13987789662E+03  0.34120241867E+03  0.12500000000E+03 0.  0.
         21    1    1    2  502  503  0.21880936297E+02 -0.35516769748E+01  0.17955009997E+02  0.28526692177E+02  0.00000000000E+00 0. -1.
         21    1    1    2  503  501  0.26296008179E+03  0.13239760326E+02  0.42122736969E+02  0.26664137120E+03  0.00000000000E+00 0.  1.
<mgrwt>
<rscale>  4 0.60413999E+03</rscale>
<asrwt>0</asrwt>
<pdfrwt beam="1">  1        2 0.33570372E-01 0.60413999E+03</pdfrwt>
<pdfrwt beam="2">  1       -2 0.64332779E-01 0.60413999E+03</pdfrwt>
<totfact> 0.35342399E+02</totfact>
</mgrwt>
</event>
<event>
 5    0  0.4025551E-002  0.5689130E+03  0.7546771E-02  0.9972087E-01
         -2   -1    0    0    0  501 -0.00000000000E+00  0.00000000000E+00  0.23598609763E+03  0.23598609763E+03  0.00000000000E+00 0. -1.
          2   -1    0    0  502    0  0.00000000000E+00 -0.00000000000E+00 -0.40793047873E+03  0.40793047873E+03  0.00000000000E+00 0.  1.
         25    1    1    2    0    0  0.20835877095E+03 -0.11949985181E+03  0.69687444358E+02  0.27959780384E+03  0.12500000000E+03 0.  0.
         21    1    1    2  502  503 -0.47033959525E+02  0.62596166026E+01  0.59943936190E+01  0.47825818378E+02  0.00000000000E+00 0. -1.
         21    1    1    2  503  501 -0.16132481142E+03  0.11324023521E+03 -0.24762621908E+03  0.31649295414E+03  0.00000000000E+00 0.  1.
<mgrwt>
<rscale>  4 0.56891298E+03</rscale>
<asrwt>0</asrwt>
<pdfrwt beam="1">  1        2 0.62758535E-01 0.56891298E+03</pdfrwt>
<pdfrwt beam="2">  1       -2 0.36305554E-01 0.56891298E+03</pdfrwt>
<totfact> 0.55977761E+02</totfact>
</mgrwt>
</event>
<event>
 5    0  0.4025551E-002  0.4747116E+03  0.7546771E-02  0.1020599E+00
         -3   -1    0    0    0  501 -0.00000000000E+00  0.00000000000E+00  0.80163829323E+02  0.80163829323E+02  0.00000000000E+00 0. -1.
          3   -1    0    0  503    0  0.00000000000E+00 -0.00000000000E+00 -0.11110365462E+04  0.11110365462E+04  0.00000000000E+00 0.  1.
         25    1    1    2    0    0 -0.80234925563E+01 -0.21242937344E+03 -0.29075510801E+03  0.38125339076E+03  0.12500000000E+03 0.  0.
         21    1    1    2  502  501  0.93381918672E+02  0.14831138111E+03 -0.64009041046E+03  0.66365064761E+03  0.00000000000E+00 0.  1.
         21    1    1    2  503  502 -0.85358426115E+02  0.64117992329E+02 -0.10002719844E+03  0.14629633720E+03  0.00000000000E+00 0. -1.
<mgrwt>
<rscale>  4 0.47471157E+03</rscale>
<asrwt>0</asrwt>
<pdfrwt beam="1">  1        3 0.17092868E+00 0.47471157E+03</pdfrwt>
<pdfrwt beam="2">  1       -3 0.12332898E-01 0.47471157E+03</pdfrwt>
<totfact> 0.32412930E+01</totfact>
</mgrwt>
</event>
<event>
 5    0  0.4025551E-002  0.9372678E+03  0.7546771E-02  0.9380158E-01
         -1   -1    0    0    0  501 -0.00000000000E+00  0.00000000000E+00  0.37998082234E+03  0.37998082234E+03  0.00000000000E+00 0.  1.
          1   -1    0    0  503    0  0.00000000000E+00 -0.00000000000E+00 -0.57797058764E+03  0.57797058764E+03  0.00000000000E+00 0. -1.
         25    1    1    2    0    0 -0.22038848973E+03 -0.27008897760E+03 -0.39755360934E+03  0.54331667978E+03  0.12500000000E+03 0.  0.
         21    1    1    2  502  501  0.19440020145E+03  0.21507157123E+03  0.11830257997E+03  0.31311774065E+03  0.00000000000E+00 0.  1.
         21    1    1    2  503  502  0.25988288280E+02  0.55017406361E+02  0.81261264071E+02  0.10151698956E+03  0.00000000000E+00 0.  1.
<mgrwt>
<rscale>  4 0.93726781E+03</rscale>
<asrwt>0</asrwt>
<pdfrwt beam="1">  1        1 0.88918552E-01 0.93726781E+03</pdfrwt>
<pdfrwt beam="2">  1       -1 0.58458588E-01 0.93726781E+03</pdfrwt>
<totfact> 0.10783791E+02</totfact>
</mgrwt>
</event>
<event>
 5    0  0.4025551E-002  0.6040152E+03  0.7546771E-02  0.9897111E-01
          2   -1    0    0  503    0  0.00000000000E+00  0.00000000000E+00  0.13661552500E+04  0.13661552500E+04  0.00000000000E+00 0.  1.
         -2   -1    0    0    0  501 -0.00000000000E+00 -0.00000000000E+00 -0.10756009373E+03  0.10756009373E+03  0.00000000000E+00 0. -1.
         25    1    1    2    0    0 -0.23159073298E+03 -0.18222748228E+03  0.66554779355E+03  0.73852555027E+03  0.12500000000E+03 0.  0.
         21    1    1    2  502  501  0.24227958859E+03  0.14760474797E+03  0.62531964918E+03  0.68666674910E+03  0.00000000000E+00 0. -1.
         21    1    1    2  503  502 -0.10688855610E+02  0.34622734312E+02 -0.32272286427E+02  0.48523044388E+02  0.00000000000E+00 0. -1.
<mgrwt>
<rscale>  4 0.60401518E+03</rscale>
<asrwt>0</asrwt>
<pdfrwt beam="1">  1        2 0.21017772E+00 0.60401518E+03</pdfrwt>
<pdfrwt beam="2">  1       -2 0.16547708E-01 0.60401518E+03</pdfrwt>
<totfact> 0.45699956E+02</totfact>
</mgrwt>
</event>
<event>
 5    0  0.4025551E-002  0.5226956E+03  0.7546771E-02  0.1008019E+00
          2   -1    0    0  503    0  0.00000000000E+00  0.00000000000E+00  0.22191677026E+03  0.22191677026E+03  0.00000000000E+00 0. -1.
         -2   -1    0    0    0  501 -0.00000000000E+00 -0.00000000000E+00 -0.30778506116E+03  0.30778506116E+03  0.00000000000E+00 0.  1.
         25    1    1    2    0    0  0.17664658358E+03 -0.14360160000E+03 -0.48276561790E+01  0.25975708128E+03  0.12500000000E+03 0.  0.
         21    1    1    2  502  501 -0.79349904076E+02  0.13021812858E+03 -0.18736454254E+02  0.15363665905E+03  0.00000000000E+00 0.  1.
         21    1    1    2  503  502 -0.97296679504E+02  0.13383471419E+02 -0.62304180463E+02  0.11630809109E+03  0.00000000000E+00 0.  1.
<mgrwt>
<rscale>  4 0.52269558E+03</rscale>
<asrwt>0</asrwt>
<pdfrwt beam="1">  1        2 0.34141041E-01 0.52269558E+03</pdfrwt>
<pdfrwt beam="2">  1       -2 0.47351548E-01 0.52269558E+03</pdfrwt>
<totfact> 0.65417653E+02</totfact>
</mgrwt>
</event>
<event>
 5    0  0.4025551E-002  0.5662156E+03  0.7546771E-02  0.9978088E-01
          1   -1    0    0  502    0  0.00000000000E+00  0.00000000000E+00  0.23024573130E+04  0.23024573130E+04  0.00000000000E+00 0. -1.
         -1   -1    0    0    0  501 -0.00000000000E+00 -0.00000000000E+00 -0.44322999963E+02  0.44322999963E+02  0.00000000000E+00 0.  1.
         25    1    1    2    0    0  0.11660642159E+03  0.22490621990E+03  0.16037826852E+04  0.16284728326E+04  0.12500000000E+03 0.  0.
         21    1    1    2  502  503  0.35993528997E+02 -0.42513807222E+02  0.89265920923E+02  0.10522054254E+03  0.00000000000E+00 0. -1.
         21    1    1    2  503  501 -0.15259995059E+03 -0.18239241268E+03  0.56508570696E+03  0.61308693782E+03  0.00000000000E+00 0.  1.
<mgrwt>
<rscale>  4 0.56621560E+03</rscale>
<asrwt>0</asrwt>
<pdfrwt beam="1">  1        1 0.35422411E+00 0.56621560E+03</pdfrwt>
<pdfrwt beam="2">  1       -1 0.68189249E-02 0.56621560E+03</pdfrwt>
<totfact> 0.22516384E+02</totfact>
</mgrwt>
</event>
<event>
 5    0  0.4025551E-002  0.4787549E+03  0.7546771E-02  0.1019478E+00
          2   -1    0    0  503    0  0.00000000000E+00  0.00000000000E+00  0.27799928817E+04  0.27799928817E+04  0.00000000000E+00 0.  1.
         -2   -1    0    0    0  501 -0.00000000000E+00 -0.00000000000E+00 -0.37615533276E+02  0.37615533276E+02  0.00000000000E+00 0. -1.
         25    1    1    2    0    0 -0.58890002890E+02 -0.20710778963E+03  0.22051999179E+04  0.22192100728E+04  0.12500000000E+03 0.  0.
         21    1    1    2  502  501  0.52703767031E+02  0.16453766183E+03  0.52643294571E+03  0.55405954152E+03  0.00000000000E+00 0. -1.
         21    1    1    2  503  502  0.61862358594E+01  0.42570127796E+02  0.10744484783E+02  0.44338800704E+02  0.00000000000E+00 0. -1.
<mgrwt>
<rscale>  4 0.47875490E+03</rscale>
<asrwt>0</asrwt>
<pdfrwt beam="1">  1        2 0.42769105E+00 0.47875490E+03</pdfrwt>
<pdfrwt beam="2">  1       -2 0.57870073E-02 0.47875490E+03</pdfrwt>
<totfact> 0.42182016E+02</totfact>
</mgrwt>
</event>
<event>
 5    0  0.4025551E-002  0.7973680E+03  0.7546771E-02  0.9563835E-01
         -2   -1    0    0    0  501 -0.00000000000E+00  0.00000000000E+00  0.46940843957E+03  0.46940843957E+03  0.00000000000E+00 0. -1.
          2   -1    0    0  503    0  0.00000000000E+00 -0.00000000000E+00 -0.44016469808E+03  0.44016469808E+03  0.00000000000E+00 0.  1.
         25    1    1    2    0    0  0.17245845632E+03  0.15892229676E+03 -0.33286405558E+03  0.42593625704E+03  0.12500000000E+03 0.  0.
         21    1    1    2  502  501 -0.21597097706E+03 -0.15799247315E+03  0.26209646336E+03  0.37456593627E+03  0.00000000000E+00 0. -1.
         21    1    1    2  503  502  0.43512520735E+02 -0.92982360794E+00  0.10001133370E+03  0.10907094435E+03  0.00000000000E+00 0. -1.
<mgrwt>
<rscale>  4 0.79736799E+03</rscale>
<asrwt>0</asrwt>
<pdfrwt beam="1">  1        2 0.67717646E-01 0.79736799E+03</pdfrwt>
<pdfrwt beam="2">  1       -2 0.72216683E-01 0.79736799E+03</pdfrwt>
<totfact> 0.12485392E+02</totfact>
</mgrwt>
</event>
<event>
 5    0  0.4025551E-002  0.5752950E+03  0.7546771E-02  0.9958030E-01
         -1   -1    0    0    0  501 -0.00000000000E+00  0.00000000000E+00  0.59805155230E+03  0.59805155230E+03  0.00000000000E+00 0. -1.
          1   -1    0    0  503    0  0.00000000000E+00 -0.00000000000E+00 -0.58408942653E+03  0.58408942653E+03  0.00000000000E+00 0.  1.
         25    1    1    2    0    0  0.48740912338E+02 -0.24794722065E+03 -0.32339302621E+03  0.42902395057E+03  0.12500000000E+03 0.  0.
         21    1    1    2  502  501 -0.68483220975E+02  0.26293178812E+03 -0.11861993751E+03  0.29646882861E+03  0.00000000000E+00 0.  1.
         21    1    1    2  503  502  0.19742308637E+02 -0.14984567473E+02  0.45597508949E+03  0.45664819965E+03  0.00000000000E+00 0. -1.
<mgrwt>
<rscale>  4 0.57529498E+03</rscale>
<asrwt>0</asrwt>
<pdfrwt beam="1">  1        1 0.89859911E-01 0.57529498E+03</pdfrwt>
<pdfrwt beam="2">  1       -1 0.92007932E-01 0.57529498E+03</pdfrwt>
<totfact> 0.42643424E+01</totfact>
</mgrwt>
</event>
<event>
 5    0  0.4025551E-002  0.5628332E+03  0.7546771E-02  0.9985664E-01
          1   -1    0    0  503    0  0.00000000000E+00  0.00000000000E+00  0.16644028002E+04  0.16644028002E+04  0.00000000000E+00 0. -1.
         -1   -1    0    0    0  501 -0.00000000000E+00 -0.00000000000E+00 -0.47581818520E+02  0.47581818520E+02  0.00000000000E+00 0.  1.
         25    1    1    2    0    0 -0.16044315042E+03  0.19912147032E+03  0.10168227511E+04  0.10559094997E+04  0.12500000000E+03 0.  0.
         21    1    1    2  502  501  0.60567140968E+02 -0.11907314522E+03  0.36161531210E+03  0.38550282285E+03  0.00000000000E+00 0. -1.
         21    1    1    2  503  502  0.99876009451E+02 -0.80048325105E+02  0.23838291844E+03  0.27057229611E+03  0.00000000000E+00 0.  1.
<mgrwt>
<rscale>  4 0.56283323E+03</rscale>
<asrwt>0</asrwt>
<pdfrwt beam="1">  1        1 0.25606193E+00 0.56283323E+03</pdfrwt>
<pdfrwt beam="2">  1       -1 0.73202810E-02 0.56283323E+03</pdfrwt>
<totfact> 0.53636628E+02</totfact>
</mgrwt>
</event>
<event>
 5    0  0.4025551E-002  0.1055730E+04  0.7546771E-02  0.9249448E-01
         -2   -1    0    0    0  501 -0.00000000000E+00  0.00000000000E+00  0.12639227125E+03  0.12639227125E+03  0.00000000000E+00 0. -1.
          2   -1    0    0  503    0  0.00000000000E+00 -0.00000000000E+00 -0.27207586375E+04  0.27207586375E+04  0.00000000000E+00 0.  1.
         25    1    1    2    0    0 -0.18274549007E+03  0.48139148960E+03 -0.18196899814E+04  0.18952652344E+04  0.12500000000E+03 0.  0.
         21    1    1    2  502  501  0.13919491263E+03 -0.44635434848E+03 -0.76288095145E+03  0.89475961811E+03  0.00000000000E+00 0. -1.
         21    1    1    2  503  502  0.43550577433E+02 -0.35037141123E+02 -0.11795433427E+02  0.57126056248E+02  0.00000000000E+00 0. -1.
<mgrwt>
<rscale>  4 0.10557301E+04</rscale>
<asrwt>0</asrwt>
<pdfrwt beam="1">  1        2 0.41857823E+00 0.10557301E+04</pdfrwt>
<pdfrwt beam="2">  1       -2 0.19444966E-01 0.10557301E+04</pdfrwt>
<totfact> 0.58491287E+01</totfact>
</mgrwt>
</event>
<event>
 5    0  0.4025551E-002  0.4551905E+03  0.7546771E-02  0.1026185E+00
          2   -1    0    0  502    0  0.00000000000E+00  0.00000000000E+00  0.38923539345E+03  0.38923539345E+03  0.00000000000E+00 0. -1.
         -2   -1    0    0    0  501 -0.00000000000E+00 -0.00000000000E+00 -0.18240875907E+03  0.18240875907E+03  0.00000000000E+00 0.  1.
         25    1    1    2    0    0  0.91683317925E+02  0.19260361797E+03  0.21188560437E+03  0.32561095464E+03  0.12500000000E+03 0.  0.
         21    1    1    2  502  503 -0.11051825610E+02 -0.19825949362E+02 -0.45751943207E+02  0.51073000936E+02  0.00000000000E+00 0.  1.
         21    1    1    2  503  501 -0.80631492315E+02 -0.17277766861E+03  0.40692973218E+02  0.19496019694E+03  0.00000000000E+00 0.  1.
<mgrwt>
<rscale>  4 0.45519049E+03</rscale>
<asrwt>0</asrwt>
<pdfrwt beam="1">  1        2 0.59882368E-01 0.45519049E+03</pdfrwt>
<pdfrwt beam="2">  1       -2 0.28062886E-01 0.45519049E+03</pdfrwt>
<totfact> 0.95393786E+02</totfact>
</mgrwt>
</event>
<event>
 5    0  0.4025551E-002  0.4922019E+03  0.7546771E-02  0.1015835E+00
          1   -1    0    0  503    0  0.00000000000E+00  0.00000000000E+00  0.33787249000E+03  0.33787249000E+03  0.00000000000E+00 0. -1.
         -1   -1    0    0    0  501 -0.00000000000E+00 -0.00000000000E+00 -0.31046278462E+03  0.31046278462E+03  0.00000000000E+00 0.  1.
         25    1    1    2    0    0 -0.16626904007E+03  0.11311579425E+03 -0.17380063805E+03  0.29372136180E+03  0.12500000000E+03 0.  0.
         21    1    1    2  502  501 -0.21453877323E+02 -0.45062286654E+02  0.13550457343E+03  0.14440349009E+03  0.00000000000E+00 0. -1.
         21    1    1    2  503  502  0.18772291739E+03 -0.68053507594E+02  0.65705769998E+02  0.21021042272E+03  0.00000000000E+00 0.  1.
<mgrwt>
<rscale>  4 0.49220193E+03</rscale>
<asrwt>0</asrwt>
<pdfrwt beam="1">  1        1 0.51980383E-01 0.49220193E+03</pdfrwt>
<pdfrwt beam="2">  1       -1 0.47763505E-01 0.49220193E+03</pdfrwt>
<totfact> 0.33498791E+02</totfact>
</mgrwt>
</event>
<event>
 5    0  0.4025551E-002  0.5386241E+03  0.7546771E-02  0.1004162E+00
          2   -1    0    0  502    0  0.00000000000E+00  0.00000000000E+00  0.30718757818E+03  0.30718757818E+03  0.00000000000E+00 0. -1.
         -2   -1    0    0    0  501 -0.00000000000E+00 -0.00000000000E+00 -0.36711780779E+03  0.36711780779E+03  0.00000000000E+00 0.  1.
         25    1    1    2    0    0 -0.30787765317E+02  0.21409081534E+03  0.10660555943E+02  0.25004281865E+03  0.12500000000E+03 0.  0.
         21    1    1    2  502  503 -0.96630806226E+02  0.24000457485E+02  0.68157699114E+02  0.12066070868E+03  0.00000000000E+00 0. -1.
         21    1    1    2  503  501  0.12741857154E+03 -0.23809127282E+03 -0.13874848467E+03  0.30360185864E+03  0.00000000000E+00 0.  1.
<mgrwt>
<rscale>  4 0.53862409E+03</rscale>
<asrwt>0</asrwt>
<pdfrwt beam="1">  1        2 0.47259628E-01 0.53862409E+03</pdfrwt>
<pdfrwt beam="2">  1       -2 0.56479662E-01 0.53862409E+03</pdfrwt>
<totfact> 0.31866669E+02</totfact>
</mgrwt>
</event>
<event>
 5    0  0.4025551E-002  0.4955256E+03  0.7546771E-02  0.1014953E+00
         -1   -1    0    0    0  501 -0.00000000000E+00  0.00000000000E+00  0.36614145745E+03  0.36614145745E+03  0.00000000000E+00 0. -1.
          1   -1    0    0  503    0  0.00000000000E+00 -0.00000000000E+00 -0.19523757485E+03  0.19523757485E+03  0.00000000000E+00 0.  1.
         25    1    1    2    0    0  0.23471957646E+03  0.37207305175E+02  0.25413540399E+02  0.26971931923E+03  0.12500000000E+03 0.  0.
         21    1    1    2  502  501 -0.21742549799E+03 -0.10006494466E+02  0.11054663709E+03  0.24411992152E+03  0.00000000000E+00 0. -1.
         21    1    1    2  503  502 -0.17294078467E+02 -0.27200810709E+02  0.34943705110E+02  0.47539791544E+02  0.00000000000E+00 0. -1.
<mgrwt>
<rscale>  4 0.49552557E+03</rscale>
<asrwt>0</asrwt>
<pdfrwt beam="1">  1        1 0.30036550E-01 0.49552557E+03</pdfrwt>
<pdfrwt beam="2">  1       -1 0.56329455E-01 0.49552557E+03</pdfrwt>
<totfact> 0.49568211E+02</totfact>
</mgrwt>
</event>
<event>
 5    0  0.4025551E-002  0.6426671E+03  0.7546771E-02  0.9820637E-01
         -1   -1    0    0    0  501 -0.00000000000E+00  0.00000000000E+00  0.13092210458E+03  0.13092210458E+03  0.00000000000E+00 0. -1.
          1   -1    0    0  502    0  0.00000000000E+00 -0.00000000000E+00 -0.12671719306E+04  0.12671719306E+04  0.00000000000E+00 0.  1.
         25    1    1    2    0    0  0.47414838660E+02 -0.21776201099E+03 -0.13750899945E+03  0.29017612804E+03  0.12500000000E+03 0.  0.
         21    1    1    2  502  503 -0.13554864527E+01  0.61362574868E+02  0.28604465102E+02  0.67715717243E+02  0.00000000000E+00 0.  1.
         21    1    1    2  503  501 -0.46059352208E+02  0.15639943612E+03 -0.10273452917E+04  0.10402021899E+04  0.00000000000E+00 0.  1.
<mgrwt>
<rscale>  4 0.64266706E+03</rscale>
<asrwt>0</asrwt>
<pdfrwt beam="1">  1        1 0.19494953E+00 0.64266706E+03</pdfrwt>
<pdfrwt beam="2">  1       -1 0.20141862E-01 0.64266706E+03</pdfrwt>
<totfact> 0.19761817E+02</totfact>
</mgrwt>
</event>
<event>
 5    0  0.4025551E-002  0.5156890E+03  0.7546771E-02  0.1009763E+00
         -3   -1    0    0    0  501 -0.00000000000E+00  0.00000000000E+00  0.10369519238E+03  0.10369519238E+03  0.00000000000E+00 0. -1.
          3   -1    0    0  503    0  0.00000000000E+00 -0.00000000000E+00 -0.95824033559E+03  0.95824033559E+03  0.00000000000E+00 0.  1.
         25    1    1    2    0    0 -0.77141829773E+02  0.21142384606E+03 -0.34202718958E+03  0.42808702736E+03  0.12500000000E+03 0.  0.
         21    1    1    2  502  501  0.50279333217E+02 -0.24212564400E+03 -0.53346180158E+03  0.58799177934E+03  0.00000000000E+00 0.  1.
         21    1    1    2  503  502  0.26862496556E+02  0.30701797935E+02  0.20943847950E+02  0.45856721259E+02  0.00000000000E+00 0. -1.
<mgrwt>
<rscale>  4 0.51568902E+03</rscale>
<asrwt>0</asrwt>
<pdfrwt beam="1">  1        3 0.14742159E+00 0.51568902E+03</pdfrwt>
<pdfrwt beam="2">  1       -3 0.15953106E-01 0.51568902E+03</pdfrwt>
<totfact> 0.30551418E+01</totfact>
</mgrwt>
</event>
<event>
 5    0  0.4025551E-002  0.5295832E+03  0.7546771E-02  0.1006333E+00
          2   -1    0    0  503    0  0.00000000000E+00  0.00000000000E+00  0.39969240631E+03  0.39969240631E+03  0.00000000000E+00 0. -1.
         -2   -1    0    0    0  501 -0.00000000000E+00 -0.00000000000E+00 -0.23862048111E+03  0.23862048111E+03  0.00000000000E+00 0.  1.
         25    1    1    2    0    0 -0.20530350563E+03 -0.18929589957E+02  0.29418255682E+03  0.38036329415E+03  0.12500000000E+03 0.  0.
         21    1    1    2  502  501  0.17462472667E+03  0.27838540059E+02 -0.75914238328E+02  0.19243635587E+03  0.00000000000E+00 0. -1.
         21    1    1    2  503  502  0.30678778958E+02 -0.89089501021E+01 -0.57196393286E+02  0.65513237405E+02  0.00000000000E+00 0. -1.
<mgrwt>
<rscale>  4 0.52958321E+03</rscale>
<asrwt>0</asrwt>
<pdfrwt beam="1">  1        2 0.61491139E-01 0.52958321E+03</pdfrwt>
<pdfrwt beam="2">  1       -2 0.36710843E-01 0.52958321E+03</pdfrwt>
<totfact> 0.56105061E+02</totfact>
</mgrwt>
</event>
<event>
 5    0  0.4025551E-002  0.6400516E+03  0.7546771E-02  0.9825628E-01
         -1   -1    0    0    0  501 -0.00000000000E+00  0.00000000000E+00  0.56198194218E+03  0.56198194218E+03  0.00000000000E+00 0. -1.
          1   -1    0    0  502    0  0.00000000000E+00 -0.00000000000E+00 -0.20125880365E+03  0.20125880365E+03  0.00000000000E+00 0.  1.
         25    1    1    2    0    0  0.22575802695E+03  0.27743007688E+02  0.40758060826E+03  0.48320111076E+03  0.12500000000E+03 0.  0.
         21    1    1    2  502  503 -0.62071040477E+01 -0.27279867462E+02  0.35807759321E+02  0.45441335115E+02  0.00000000000E+00 0. -1.
         21    1    1    2  503  501 -0.21955092290E+03 -0.46314022585E+00 -0.82665229049E+02  0.23459829995E+03  0.00000000000E+00 0.  1.
<mgrwt>
<rscale>  4 0.64005155E+03</rscale>
<asrwt>0</asrwt>
<pdfrwt beam="1">  1        1 0.30962893E-01 0.64005155E+03</pdfrwt>
<pdfrwt beam="2">  1       -1 0.86458760E-01 0.64005155E+03</pdfrwt>
<totfact> 0.19800746E+02</totfact>
</mgrwt>
</event>
<event>
 5    0  0.4025551E-002  0.4655295E+03  0.7546771E-02  0.1023190E+00
         -1   -1    0    0    0  501 -0.00000000000E+00  0.00000000000E+00  0.25769312893E+03  0.25769312893E+03  0.00000000000E+00 0. -1.
          1   -1    0    0  502    0  0.00000000000E+00 -0.00000000000E+00 -0.44357646248E+03  0.44357646248E+03  0.00000000000E+00 0.  1.
         25    1    1    2    0    0  0.12787699399E+03  0.17220092162E+03 -0.27406887874E+02  0.24976352917E+03  0.12500000000E+03 0.  0.
         21    1    1    2  502  503 -0.34984954528E+01 -0.10716938644E+03  0.10683042980E+03  0.15136134775E+03  0.00000000000E+00 0. -1.
         21    1    1    2  503  501 -0.12437849854E+03 -0.65031535184E+02 -0.26530687548E+03  0.30014471450E+03  0.00000000000E+00 0.  1.
<mgrwt>
<rscale>  4 0.46552951E+03</rscale>
<asrwt>0</asrwt>
<pdfrwt beam="1">  1        1 0.68242532E-01 0.46552951E+03</pdfrwt>
<pdfrwt beam="2">  1       -1 0.39645097E-01 0.46552951E+03</pdfrwt>
<totfact> 0.33045991E+02</totfact>
</mgrwt>
</event>
<event>
 5    0  0.4025551E-002  0.8174692E+03  0.7546771E-02  0.9535070E-01
         -2   -1    0    0    0  501 -0.00000000000E+00  0.00000000000E+00  0.12057584050E+04  0.12057584050E+04  0.00000000000E+00 0.  1.
          2   -1    0    0  502    0  0.00000000000E+00 -0.00000000000E+00 -0.23599440367E+03  0.23599440367E+03  0.00000000000E+00 0. -1.
         25    1    1    2    0    0 -0.87172171696E+02  0.41288827220E+03  0.37228018171E+03  0.57644882386E+03  0.12500000000E+03 0.  0.
         21    1    1    2  502  503 -0.11637466225E+02 -0.70742477340E+02  0.48726367328E+03  0.49250971160E+03  0.00000000000E+00 0.  1.
         21    1    1    2  503  501  0.98809637921E+02 -0.34214579486E+03  0.11022014634E+03  0.37279427322E+03  0.00000000000E+00 0. -1.
<mgrwt>
<rscale>  4 0.81746920E+03</rscale>
<asrwt>0</asrwt>
<pdfrwt beam="1">  1        2 0.36306832E-01 0.81746920E+03</pdfrwt>
<pdfrwt beam="2">  1       -2 0.18550129E+00 0.81746920E+03</pdfrwt>
<totfact> 0.24095196E+01</totfact>
</mgrwt>
</event>
<event>
 5    0  0.4025551E-002  0.6718205E+03  0.7546771E-02  0.9766675E-01
         -2   -1    0    0    0  501 -0.00000000000E+00  0.00000000000E+00  0.18697861401E+03  0.18697861401E+03  0.00000000000E+00 0.  1.
          2   -1    0    0  503    0  0.00000000000E+00 -0.00000000000E+00 -0.10062365626E+04  0.10062365626E+04  0.00000000000E+00 0. -1.
         25    1    1    2    0    0  0.82945875686E+02  0.29040296463E+03 -0.30911906543E+03  0.44988164752E+03  0.12500000000E+03 0.  0.
         21    1    1    2  502  501 -0.79355864369E+02 -0.31399683798E+03 -0.58286016391E+03  0.66679632434E+03  0.00000000000E+00 0. -1.
         21    1    1    2  503  502 -0.35900113164E+01  0.23593873352E+02  0.72721280744E+02  0.76537204770E+02  0.00000000000E+00 0.  1.
<mgrwt>
<rscale>  4 0.67182047E+03</rscale>
<asrwt>0</asrwt>
<pdfrwt beam="1">  1        2 0.15480562E+00 0.67182047E+03</pdfrwt>
<pdfrwt beam="2">  1       -2 0.28765941E-01 0.67182047E+03</pdfrwt>
<totfact> 0.28013460E+02</totfact>
</mgrwt>
</event>
<event>
 5    0  0.4025551E-002  0.5360496E+03  0.7546771E-02  0.1004775E+00
          1   -1    0    0  502    0  0.00000000000E+00  0.00000000000E+00  0.94974739066E+03  0.94974739066E+03  0.00000000000E+00 0. -1.
         -1   -1    0    0    0  501 -0.00000000000E+00 -0.00000000000E+00 -0.75638318063E+02  0.75638318063E+02  0.00000000000E+00 0.  1.
         25    1    1    2    0    0 -0.17382904724E+03  0.16737503058E+03  0.57160264115E+03  0.63291825531E+03  0.12500000000E+03 0.  0.
         21    1    1    2  502  503  0.84992712804E+01 -0.19775245082E+02  0.61148049353E+01  0.22376075835E+02  0.00000000000E+00 0. -1.
         21    1    1    2  503  501  0.16532977596E+03 -0.14759978550E+03  0.29639162650E+03  0.37009137758E+03  0.00000000000E+00 0.  1.
<mgrwt>
<rscale>  4 0.53604961E+03</rscale>
<asrwt>0</asrwt>
<pdfrwt beam="1">  1        1 0.14611497E+00 0.53604961E+03</pdfrwt>
<pdfrwt beam="2">  1       -1 0.11636665E-01 0.53604961E+03</pdfrwt>
<totfact> 0.83305966E+02</totfact>
</mgrwt>
</event>
<event>
 5    0  0.4025551E-002  0.1075369E+04  0.7546771E-02  0.9229537E-01
         -2   -1    0    0    0  501 -0.00000000000E+00  0.00000000000E+00  0.20888680190E+03  0.20888680190E+03  0.00000000000E+00 0. -1.
          2   -1    0    0  503    0  0.00000000000E+00 -0.00000000000E+00 -0.18815294723E+04  0.18815294723E+04  0.00000000000E+00 0.  1.
         25    1    1    2    0    0  0.35776299939E+03  0.35586018645E+03 -0.87022665543E+03  0.10136815416E+04  0.12500000000E+03 0.  0.
         21    1    1    2  502  501  0.95819284629E+02 -0.11098945545E+03 -0.38980996469E+03  0.41647545317E+03  0.00000000000E+00 0.  1.
         21    1    1    2  503  502 -0.45358228401E+03 -0.24487073100E+03 -0.41260605024E+03  0.66025927935E+03  0.00000000000E+00 0. -1.
<mgrwt>
<rscale>  4 0.10753688E+04</rscale>
<asrwt>0</asrwt>
<pdfrwt beam="1">  1        2 0.28946607E+00 0.10753688E+04</pdfrwt>
<pdfrwt beam="2">  1       -2 0.32136431E-01 0.10753688E+04</pdfrwt>
<totfact> 0.69781126E+01</totfact>
</mgrwt>
</event>
<event>
 5    0  0.4025551E-002  0.6548494E+03  0.7546771E-02  0.9797722E-01
          2   -1    0    0  503    0  0.00000000000E+00  0.00000000000E+00  0.64975633584E+03  0.64975633584E+03  0.00000000000E+00 0.  1.
         -2   -1    0    0    0  501 -0.00000000000E+00 -0.00000000000E+00 -0.18574277152E+03  0.18574277152E+03  0.00000000000E+00 0. -1.
         25    1    1    2    0    0 -0.18891549197E+03  0.24046238318E+03  0.36405513408E+03  0.49160183226E+03  0.12500000000E+03 0.  0.
         21    1    1    2  502  501  0.20232861981E+03 -0.21684756348E+03  0.10790579971E+03  0.31560005988E+03  0.00000000000E+00 0. -1.
         21    1    1    2  503  502 -0.13413127843E+02 -0.23614819702E+02 -0.79473694640E+01  0.28297215224E+02  0.00000000000E+00 0. -1.
<mgrwt>
<rscale>  4 0.65484943E+03</rscale>
<asrwt>0</asrwt>
<pdfrwt beam="1">  1        2 0.99962512E-01 0.65484943E+03</pdfrwt>
<pdfrwt beam="2">  1       -2 0.28575811E-01 0.65484943E+03</pdfrwt>
<totfact> 0.50844189E+02</totfact>
</mgrwt>
</event>
<event>
 5    0  0.4025551E-002  0.4938531E+03  0.7546771E-02  0.1015396E+00
         -1   -1    0    0    0  501 -0.00000000000E+00  0.00000000000E+00  0.69513279724E+02  0.69513279724E+02  0.00000000000E+00 0.  1.
          1   -1    0    0  503    0  0.00000000000E+00 -0.00000000000E+00 -0.87713782097E+03  0.87713782097E+03  0.00000000000E+00 0. -1.
         25    1    1    2    0    0  0.12316503513E+02 -0.21801835423E+03 -0.56432853965E+03  0.61787976152E+03  0.12500000000E+03 0.  0.
         21    1    1    2  502  501 -0.20129621523E+02  0.18695866264E+03 -0.21846357622E+03  0.28824482187E+03  0.00000000000E+00 0.  1.
         21    1    1    2  503  502  0.78131180095E+01  0.31059691592E+02 -0.24832425378E+02  0.40526517306E+02  0.00000000000E+00 0.  1.
<mgrwt>
<rscale>  4 0.49385312E+03</rscale>
<asrwt>0</asrwt>
<pdfrwt beam="1">  1        1 0.13494428E+00 0.49385312E+03</pdfrwt>
<pdfrwt beam="2">  1       -1 0.10694351E-01 0.49385312E+03</pdfrwt>
<totfact> 0.10896042E+03</totfact>
</mgrwt>
</event>
<event>
 5    0  0.4025551E-002  0.5775119E+03  0.7546771E-02  0.9953192E-01
         -1   -1    0    0    0  501 -0.00000000000E+00  0.00000000000E+00  0.10244781003E+03  0.10244781003E+03  0.00000000000E+00 0.  1.
          1   -1    0    0  503    0  0.00000000000E+00 -0.00000000000E+00 -0.16658602266E+04  0.16658602266E+04  0.00000000000E+00 0. -1.
         25    1    1    2    0    0 -0.15495981784E+03 -0.24695961292E+03 -0.84929482051E+03  0.90660260738E+03  0.12500000000E+03 0.  0.
         21    1    1    2  502  501  0.15101437409E+03  0.21139535867E+03 -0.76019746143E+03  0.80336387722E+03  0.00000000000E+00 0.  1.
         21    1    1    2  503  502  0.39454437504E+01  0.35564254252E+02  0.46079865344E+02  0.58341552062E+02  0.00000000000E+00 0.  1.
<mgrwt>
<rscale>  4 0.57751188E+03</rscale>
<asrwt>0</asrwt>
<pdfrwt beam="1">  1        1 0.25628618E+00 0.57751188E+03</pdfrwt>
<pdfrwt beam="2">  1       -1 0.15761202E-01 0.57751188E+03</pdfrwt>
<totfact> 0.15856530E+02</totfact>
</mgrwt>
</event>
<event>
 5    0  0.4025551E-002  0.7903761E+03  0.7546771E-02  0.9574053E-01
          4   -1    0    0  502    0  0.00000000000E+00  0.00000000000E+00  0.25668310141E+03  0.25668310141E+03  0.00000000000E+00 0.  1.
         -4   -1    0    0    0  501 -0.00000000000E+00 -0.00000000000E+00 -0.85130635701E+03  0.85130635701E+03  0.00000000000E+00 0. -1.
         25    1    1    2    0    0 -0.21486936797E+02  0.38917588595E+03 -0.38732997474E+02  0.41115058525E+03  0.12500000000E+03 0.  0.
         21    1    1    2  502  503 -0.20828339754E+02 -0.71766949542E+02 -0.22188576965E+03  0.23413160734E+03  0.00000000000E+00 0.  1.
         21    1    1    2  503  501  0.42315276551E+02 -0.31740893640E+03 -0.33400448847E+03  0.46270726583E+03  0.00000000000E+00 0. -1.
<mgrwt>
<rscale>  4 0.79037606E+03</rscale>
<asrwt>0</asrwt>
<pdfrwt beam="1">  1        4 0.39489709E-01 0.79037606E+03</pdfrwt>
<pdfrwt beam="2">  1       -4 0.13097021E+00 0.79037606E+03</pdfrwt>
<totfact> 0.52615736E+00</totfact>
</mgrwt>
</event>
<event>
 5    0  0.4025551E-002  0.4105170E+03  0.7546771E-02  0.1040198E+00
         -2   -1    0    0    0  501 -0.00000000000E+00  0.00000000000E+00  0.14761213416E+03  0.14761213416E+03  0.00000000000E+00 0.  1.
          2   -1    0    0  502    0  0.00000000000E+00 -0.00000000000E+00 -0.40412489636E+03  0.40412489636E+03  0.00000000000E+00 0. -1.
         25    1    1    2    0    0 -0.15784405728E+03  0.14584971883E+03 -0.14255906197E+03  0.28659199754E+03  0.12500000000E+03 0.  0.
         21    1    1    2  502  503  0.52443483844E+02 -0.25226194860E+02  0.14317974306E+02  0.59930662378E+02  0.00000000000E+00 0.  1.
         21    1    1    2  503  501  0.10540057344E+03 -0.12062352397E+03 -0.12827167454E+03  0.20521437061E+03  0.00000000000E+00 0. -1.
<mgrwt>
<rscale>  4 0.41051701E+03</rscale>
<asrwt>0</asrwt>
<pdfrwt beam="1">  1        2 0.62173061E-01 0.41051701E+03</pdfrwt>
<pdfrwt beam="2">  1       -2 0.22709559E-01 0.41051701E+03</pdfrwt>
<totfact> 0.13359460E+03</totfact>
</mgrwt>
</event>
<event>
 5    0  0.4025551E-002  0.6761861E+03  0.7546771E-02  0.9758847E-01
          2   -1    0    0  502    0  0.00000000000E+00  0.00000000000E+00  0.29334052550E+03  0.29334052550E+03  0.00000000000E+00 0. -1.
         -2   -1    0    0    0  501 -0.00000000000E+00 -0.00000000000E+00 -0.56103621550E+03  0.56103621550E+03  0.00000000000E+00 0.  1.
         25    1    1    2    0    0 -0.21652636350E+03  0.96317305000E+02  0.32400975629E+02  0.26988055238E+03  0.12500000000E+03 0.  0.
         21    1    1    2  502  503  0.27287029153E+03 -0.20783848567E+03 -0.30564335096E+03  0.45942669721E+03  0.00000000000E+00 0.  1.
         21    1    1    2  503  501 -0.56343928033E+02  0.11152118066E+03  0.55466853279E+01  0.12506949141E+03  0.00000000000E+00 0. -1.
<mgrwt>
<rscale>  4 0.67618612E+03</rscale>
<asrwt>0</asrwt>
<pdfrwt beam="1">  1        2 0.45129312E-01 0.67618612E+03</pdfrwt>
<pdfrwt beam="2">  1       -2 0.86313264E-01 0.67618612E+03</pdfrwt>
<totfact> 0.13259964E+02</totfact>
</mgrwt>
</event>
<event>
 5    0  0.4025551E-002  0.5069497E+03  0.7546771E-02  0.1011981E+00
         -1   -1    0    0    0  501 -0.00000000000E+00  0.00000000000E+00  0.76408693476E+03  0.76408693476E+03  0.00000000000E+00 0.  1.
          1   -1    0    0  502    0  0.00000000000E+00 -0.00000000000E+00 -0.99454152002E+02  0.99454152002E+02  0.00000000000E+00 0. -1.
         25    1    1    2    0    0  0.10473423999E+01 -0.23382069288E+03  0.24605504796E+03  0.36171991923E+03  0.12500000000E+03 0.  0.
         21    1    1    2  502  503 -0.36599364210E+02  0.41921297950E+00  0.90524106393E+02  0.97643755757E+02  0.00000000000E+00 0.  1.
         21    1    1    2  503  501  0.35552021810E+02  0.23340147990E+03  0.32805362841E+03  0.40417741177E+03  0.00000000000E+00 0.  1.
<mgrwt>
<rscale>  4 0.50694965E+03</rscale>
<asrwt>0</asrwt>
<pdfrwt beam="1">  1        1 0.15300639E-01 0.50694965E+03</pdfrwt>
<pdfrwt beam="2">  1       -1 0.11755183E+00 0.50694965E+03</pdfrwt>
<totfact> 0.24982037E+02</totfact>
</mgrwt>
</event>
<event>
 5    0  0.4025551E-002  0.7958287E+03  0.7546771E-02  0.9566075E-01
         -2   -1    0    0    0  501 -0.00000000000E+00  0.00000000000E+00  0.15597534831E+03  0.15597534831E+03  0.00000000000E+00 0.  1.
          2   -1    0    0  502    0  0.00000000000E+00 -0.00000000000E+00 -0.16174897546E+04  0.16174897546E+04  0.00000000000E+00 0. -1.
         25    1    1    2    0    0  0.40288362479E+03 -0.36501432201E+02 -0.60848488129E+03  0.74130049267E+03  0.12500000000E+03 0.  0.
         21    1    1    2  502  503 -0.58743660157E+02 -0.59590929904E+01  0.41904025142E+02  0.72403561521E+02  0.00000000000E+00 0.  1.
         21    1    1    2  503  501 -0.34413996463E+03  0.42460525191E+02 -0.89493355013E+03  0.95976104870E+03  0.00000000000E+00 0.  1.
<mgrwt>
<rscale>  4 0.79582874E+03</rscale>
<asrwt>0</asrwt>
<pdfrwt beam="1">  1        2 0.24884457E+00 0.79582874E+03</pdfrwt>
<pdfrwt beam="2">  1       -2 0.23996208E-01 0.79582874E+03</pdfrwt>
<totfact> 0.17055951E+02</totfact>
</mgrwt>
</event>
<event>
 5    0  0.4025551E-002  0.5534285E+03  0.7546771E-02  0.1000703E+00
          1   -1    0    0  502    0  0.00000000000E+00  0.00000000000E+00  0.14810241235E+03  0.14810241235E+03  0.00000000000E+00 0.  1.
         -1   -1    0    0    0  501 -0.00000000000E+00 -0.00000000000E+00 -0.57591846340E+03  0.57591846340E+03  0.00000000000E+00 0. -1.
         25    1    1    2    0    0  0.14461540102E+03 -0.18316321205E+03 -0.34799764699E+03  0.43725248858E+03  0.12500000000E+03 0.  0.
         21    1    1    2  502  503  0.17682282473E+02  0.16108997013E+02 -0.45416079243E+02  0.51330138827E+02  0.00000000000E+00 0. -1.
         21    1    1    2  503  501 -0.16229768350E+03  0.16705421503E+03 -0.34402324822E+02  0.23543824834E+03  0.00000000000E+00 0.  1.
<mgrwt>
<rscale>  4 0.55342849E+03</rscale>
<asrwt>0</asrwt>
<pdfrwt beam="1">  1        1 0.22784987E-01 0.55342849E+03</pdfrwt>
<pdfrwt beam="2">  1       -1 0.88602840E-01 0.55342849E+03</pdfrwt>
<totfact> 0.28079224E+02</totfact>
</mgrwt>
</event>
<event>
 5    0  0.4025551E-002  0.5137065E+03  0.7546771E-02  0.1010262E+00
         -1   -1    0    0    0  501 -0.00000000000E+00  0.00000000000E+00  0.16844545646E+03  0.16844545646E+03  0.00000000000E+00 0.  1.
          1   -1    0    0  503    0  0.00000000000E+00 -0.00000000000E+00 -0.51068486240E+03  0.51068486240E+03  0.00000000000E+00 0. -1.
         25    1    1    2    0    0  0.24500216184E+03 -0.67769344582E+02 -0.12399452229E+03  0.30922222580E+03  0.12500000000E+03 0.  0.
         21    1    1    2  502  501 -0.20618975606E+03  0.48925558538E+02 -0.24117333039E+03  0.32104906334E+03  0.00000000000E+00 0. -1.
         21    1    1    2  503  502 -0.38812405788E+02  0.18843786044E+02  0.22928446733E+02  0.48859029719E+02  0.00000000000E+00 0. -1.
<mgrwt>
<rscale>  4 0.51370647E+03</rscale>
<asrwt>0</asrwt>
<pdfrwt beam="1">  1        1 0.78566900E-01 0.51370647E+03</pdfrwt>
<pdfrwt beam="2">  1       -1 0.25914686E-01 0.51370647E+03</pdfrwt>
<totfact> 0.57323025E+02</totfact>
</mgrwt>
</event>
<event>
 5    0  0.4025551E-002  0.5533120E+03  0.7546771E-02  0.1000730E+00
         -2   -1    0    0    0  501 -0.00000000000E+00  0.00000000000E+00  0.97497842247E+02  0.97497842247E+02  0.00000000000E+00 0.  1.
          2   -1    0    0  503    0  0.00000000000E+00 -0.00000000000E+00 -0.92575146030E+03  0.92575146030E+03  0.00000000000E+00 0. -1.
         25    1    1    2    0    0 -0.70064943761E+01  0.21907805593E+03 -0.16316930193E+03  0.30048877957E+03  0.12500000000E+03 0.  0.
         21    1    1    2  502  501  0.28405277194E+02 -0.20186783887E+03 -0.66474141123E+03  0.69529751038E+03  0.00000000000E+00 0. -1.
         21    1    1    2  503  502 -0.21398782817E+02 -0.17210217060E+02 -0.34290489924E+00  0.27463012601E+02  0.00000000000E+00 0. -1.
<mgrwt>
<rscale>  4 0.55331202E+03</rscale>
<asrwt>0</asrwt>
<pdfrwt beam="1">  1        2 0.14242330E+00 0.55331202E+03</pdfrwt>
<pdfrwt beam="2">  1       -2 0.14999669E-01 0.55331202E+03</pdfrwt>
<totfact> 0.99507679E+02</totfact>
</mgrwt>
</event>
<event>
 5    0  0.4025551E-002  0.5742471E+03  0.7546771E-02  0.9960324E-01
         -1   -1    0    0    0  501 -0.00000000000E+00  0.00000000000E+00  0.37039443523E+03  0.37039443523E+03  0.00000000000E+00 0.  1.
          1   -1    0    0  503    0  0.00000000000E+00 -0.00000000000E+00 -0.33296619887E+03  0.33296619887E+03  0.00000000000E+00 0. -1.
         25    1    1    2    0    0  0.13513370285E+03  0.25428561498E+03 -0.11724843922E+03  0.33510369758E+03  0.12500000000E+03 0.  0.
         21    1    1    2  502  501 -0.11938738897E+03 -0.20929079501E+03  0.40235923432E+02  0.24428449614E+03  0.00000000000E+00 0.  1.
         21    1    1    2  503  502 -0.15746313885E+02 -0.44994819972E+02  0.11444075214E+03  0.12397244038E+03  0.00000000000E+00 0.  1.
<mgrwt>
<rscale>  4 0.57424712E+03</rscale>
<asrwt>0</asrwt>
<pdfrwt beam="1">  1        1 0.51225569E-01 0.57424712E+03</pdfrwt>
<pdfrwt beam="2">  1       -1 0.56983759E-01 0.57424712E+03</pdfrwt>
<totfact> 0.24324161E+02</totfact>
</mgrwt>
</event>
<event>
 5    0  0.4025551E-002  0.4793264E+03  0.7546771E-02  0.1019320E+00
         -2   -1    0    0    0  501 -0.00000000000E+00  0.00000000000E+00  0.47276991572E+02  0.47276991572E+02  0.00000000000E+00 0.  1.
          2   -1    0    0  503    0  0.00000000000E+00 -0.00000000000E+00 -0.14779608989E+04  0.14779608989E+04  0.00000000000E+00 0. -1.
         25    1    1    2    0    0 -0.14758858691E+03 -0.14814778749E+03 -0.48191291340E+03  0.53999556852E+03  0.12500000000E+03 0.  0.
         21    1    1    2  502  501  0.16048592911E+03  0.11939329226E+03 -0.92330819674E+03  0.94472668950E+03  0.00000000000E+00 0.  1.
         21    1    1    2  503  502 -0.12897342198E+02  0.28754495233E+02 -0.25462797171E+02  0.40515632435E+02  0.00000000000E+00 0. -1.
<mgrwt>
<rscale>  4 0.47932642E+03</rscale>
<asrwt>0</asrwt>
<pdfrwt beam="1">  1        2 0.22737862E+00 0.47932642E+03</pdfrwt>
<pdfrwt beam="2">  1       -2 0.72733827E-02 0.47932642E+03</pdfrwt>
<totfact> 0.15273444E+03</totfact>
</mgrwt>
</event>
<event>
 5    0  0.4025551E-002  0.4922758E+03  0.7546771E-02  0.1015815E+00
         -2   -1    0    0    0  501 -0.00000000000E+00  0.00000000000E+00  0.22737070590E+03  0.22737070590E+03  0.00000000000E+00 0.  1.
          2   -1    0    0  503    0  0.00000000000E+00 -0.00000000000E+00 -0.48659986963E+03  0.48659986963E+03  0.00000000000E+00 0. -1.
         25    1    1    2    0    0  0.23661665297E+03  0.14765323432E+02 -0.17027479951E+03  0.31752789261E+03  0.12500000000E+03 0.  0.
         21    1    1    2  502  501 -0.22234500853E+03 -0.82442121970E-01 -0.19053709493E+03  0.29281682697E+03  0.00000000000E+00 0. -1.
         21    1    1    2  503  502 -0.14271644440E+02 -0.14682881310E+02  0.10158273072E+03  0.10362585594E+03  0.00000000000E+00 0.  1.
<mgrwt>
<rscale>  4 0.49227579E+03</rscale>
<asrwt>0</asrwt>
<pdfrwt beam="1">  1        2 0.74861518E-01 0.49227579E+03</pdfrwt>
<pdfrwt beam="2">  1       -2 0.34980109E-01 0.49227579E+03</pdfrwt>
<totfact> 0.49303133E+02</totfact>
</mgrwt>
</event>
<event>
 5    0  0.4025551E-002  0.5484790E+03  0.7546771E-02  0.1001847E+00
         -2   -1    0    0    0  501 -0.00000000000E+00  0.00000000000E+00  0.84681247537E+02  0.84681247537E+02  0.00000000000E+00 0.  1.
          2   -1    0    0  502    0  0.00000000000E+00 -0.00000000000E+00 -0.10908620123E+04  0.10908620123E+04  0.00000000000E+00 0. -1.
         25    1    1    2    0    0 -0.23428858540E+03 -0.14170209013E+03 -0.58395474322E+03  0.65696176884E+03  0.12500000000E+03 0.  0.
         21    1    1    2  502  503  0.21995541226E+02  0.15946980956E+02  0.26055433562E+01  0.27292835903E+02  0.00000000000E+00 0.  1.
         21    1    1    2  503  501  0.21229304418E+03  0.12575510917E+03 -0.42483156494E+03  0.49128865513E+03  0.00000000000E+00 0.  1.
<mgrwt>
<rscale>  4 0.54847901E+03</rscale>
<asrwt>0</asrwt>
<pdfrwt beam="1">  1        2 0.16782491E+00 0.54847901E+03</pdfrwt>
<pdfrwt beam="2">  1       -2 0.13027885E-01 0.54847901E+03</pdfrwt>
<totfact> 0.99116246E+02</totfact>
</mgrwt>
</event>
<event>
 5    0  0.4025551E-002  0.8261824E+03  0.7546771E-02  0.9522874E-01
         -2   -1    0    0    0  501 -0.00000000000E+00  0.00000000000E+00  0.47667222092E+02  0.47667222092E+02  0.00000000000E+00 0.  1.
          2   -1    0    0  502    0  0.00000000000E+00 -0.00000000000E+00 -0.40427414069E+04  0.40427414069E+04  0.00000000000E+00 0. -1.
         25    1    1    2    0    0 -0.69163170740E+02  0.39271816453E+03 -0.20214938286E+04  0.20642367597E+04  0.12500000000E+03 0.  0.
         21    1    1    2  502  503 -0.25197277739E+02  0.44947771230E+01 -0.26863544592E+02  0.37104660825E+02  0.00000000000E+00 0.  1.
         21    1    1    2  503  501  0.94360448479E+02 -0.39721294165E+03 -0.19467168116E+04  0.19890672084E+04  0.00000000000E+00 0.  1.
<mgrwt>
<rscale>  4 0.82618241E+03</rscale>
<asrwt>0</asrwt>
<pdfrwt beam="1">  1        2 0.62196017E+00 0.82618241E+03</pdfrwt>
<pdfrwt beam="2">  1       -2 0.73334193E-02 0.82618241E+03</pdfrwt>
<totfact> 0.38909565E+01</totfact>
</mgrwt>
</event>
<event>
 5    0  0.4025551E-002  0.6897625E+03  0.7546771E-02  0.9734902E-01
         -3   -1    0    0    0  501 -0.00000000000E+00  0.00000000000E+00  0.27534654066E+03  0.27534654066E+03  0.00000000000E+00 0. -1.
          3   -1    0    0  503    0  0.00000000000E+00 -0.00000000000E+00 -0.43197586651E+03  0.43197586651E+03  0.00000000000E+00 0.  1.
         25    1    1    2    0    0 -0.27778597970E+03  0.93318175030E+02 -0.20801564350E+03  0.38048500660E+03  0.12500000000E+03 0.  0.
         21    1    1    2  502  501  0.95498020031E+02 -0.30927489636E+02 -0.46614146257E+02  0.11067637542E+03  0.00000000000E+00 0. -1.
         21    1    1    2  503  502  0.18228795967E+03 -0.62390685394E+02  0.98000463905E+02  0.21616102514E+03  0.00000000000E+00 0. -1.
<mgrwt>
<rscale>  4 0.68976245E+03</rscale>
<asrwt>0</asrwt>
<pdfrwt beam="1">  1        3 0.66457825E-01 0.68976245E+03</pdfrwt>
<pdfrwt beam="2">  1       -3 0.42361006E-01 0.68976245E+03</pdfrwt>
<totfact> 0.31918715E+01</totfact>
</mgrwt>
</event>
<event>
 5    0  0.4025551E-002  0.5664061E+03  0.7546771E-02  0.9977663E-01
         -1   -1    0    0    0  501 -0.00000000000E+00  0.00000000000E+00  0.24345690068E+03  0.24345690068E+03  0.00000000000E+00 0. -1.
          1   -1    0    0  503    0  0.00000000000E+00 -0.00000000000E+00 -0.96858098512E+03  0.96858098512E+03  0.00000000000E+00 0.  1.
         25    1    1    2    0    0  0.11943253176E+03  0.25038070076E+03 -0.68913712292E+03  0.75331905534E+03  0.12500000000E+03 0.  0.
         21    1    1    2  502  501 -0.10241133606E+03 -0.19778761779E+03 -0.19146121104E+03  0.29370975271E+03  0.00000000000E+00 0. -1.
         21    1    1    2  503  502 -0.17021195704E+02 -0.52593082964E+02  0.15547424951E+03  0.16500907775E+03  0.00000000000E+00 0. -1.
<mgrwt>
<rscale>  4 0.56640613E+03</rscale>
<asrwt>0</asrwt>
<pdfrwt beam="1">  1        1 0.14901246E+00 0.56640613E+03</pdfrwt>
<pdfrwt beam="2">  1       -1 0.37454908E-01 0.56640613E+03</pdfrwt>
<totfact> 0.11381382E+02</totfact>
</mgrwt>
</event>
<event>
 5    0  0.4025551E-002  0.6836327E+03  0.7546771E-02  0.9745639E-01
          2   -1    0    0  503    0  0.00000000000E+00  0.00000000000E+00  0.11160714089E+04  0.11160714089E+04  0.00000000000E+00 0.  1.
         -2   -1    0    0    0  501 -0.00000000000E+00 -0.00000000000E+00 -0.15383951298E+03  0.15383951298E+03  0.00000000000E+00 0. -1.
         25    1    1    2    0    0  0.18389409251E+03  0.18055015912E+03  0.13398298179E+03  0.31621485833E+03  0.12500000000E+03 0.  0.
         21    1    1    2  502  501 -0.13901731649E+03 -0.17878520639E+03  0.86593946049E+03  0.89506486555E+03  0.00000000000E+00 0.  1.
         21    1    1    2  503  502 -0.44876776018E+02 -0.17649527309E+01 -0.37690546412E+02  0.58631197947E+02  0.00000000000E+00 0. -1.
<mgrwt>
<rscale>  4 0.68363271E+03</rscale>
<asrwt>0</asrwt>
<pdfrwt beam="1">  1        2 0.17170329E+00 0.68363271E+03</pdfrwt>
<pdfrwt beam="2">  1       -2 0.23667618E-01 0.68363271E+03</pdfrwt>
<totfact> 0.34092364E+02</totfact>
</mgrwt>
</event>
<event>
 5    0  0.4025551E-002  0.5359684E+03  0.7546771E-02  0.1004795E+00
          4   -1    0    0  503    0  0.00000000000E+00  0.00000000000E+00  0.11553691997E+03  0.11553691997E+03  0.00000000000E+00 0.  1.
         -4   -1    0    0    0  501 -0.00000000000E+00 -0.00000000000E+00 -0.68323769744E+03  0.68323769744E+03  0.00000000000E+00 0. -1.
         25    1    1    2    0    0  0.19431250246E+03 -0.13513177246E+03 -0.32786631455E+03  0.42324846693E+03  0.12500000000E+03 0.  0.
         21    1    1    2  502  501 -0.21353795001E+03  0.15211627710E+03 -0.20815910227E+03  0.33476563400E+03  0.00000000000E+00 0.  1.
         21    1    1    2  503  502  0.19225447554E+02 -0.16984504637E+02 -0.31675360645E+02  0.40760516476E+02  0.00000000000E+00 0.  1.
<mgrwt>
<rscale>  4 0.53596840E+03</rscale>
<asrwt>0</asrwt>
<pdfrwt beam="1">  1        4 0.17774910E-01 0.53596840E+03</pdfrwt>
<pdfrwt beam="2">  1       -4 0.10511349E+00 0.53596840E+03</pdfrwt>
<totfact> 0.41188538E+01</totfact>
</mgrwt>
</event>
<event>
 5    0  0.4025551E-002  0.9559765E+03  0.7546771E-02  0.9358192E-01
          2   -1    0    0  502    0  0.00000000000E+00  0.00000000000E+00  0.22509270519E+04  0.22509270519E+04  0.00000000000E+00 0. -1.
         -2   -1    0    0    0  501 -0.00000000000E+00 -0.00000000000E+00 -0.12271110271E+03  0.12271110271E+03  0.00000000000E+00 0.  1.
         25    1    1    2    0    0  0.39466630914E+03  0.29023638374E+03  0.10632782314E+04  0.11773632623E+04  0.12500000000E+03 0.  0.
         21    1    1    2  502  503  0.34712945623E+01 -0.80018766602E+02  0.79465649009E+02  0.11282660266E+03  0.00000000000E+00 0.  1.
         21    1    1    2  503  501 -0.39813760371E+03 -0.21021761713E+03  0.98547206877E+03  0.10834482897E+04  0.00000000000E+00 0. -1.
<mgrwt>
<rscale>  4 0.95597651E+03</rscale>
<asrwt>0</asrwt>
<pdfrwt beam="1">  1        2 0.34629644E+00 0.95597651E+03</pdfrwt>
<pdfrwt beam="2">  1       -2 0.18878633E-01 0.95597651E+03</pdfrwt>
<totfact> 0.11538408E+02</totfact>
</mgrwt>
</event>
<event>
 5    0  0.4025551E-002  0.4358572E+03  0.7546771E-02  0.1032026E+00
         -1   -1    0    0    0  501 -0.00000000000E+00  0.00000000000E+00  0.26982688833E+03  0.26982688833E+03  0.00000000000E+00 0. -1.
          1   -1    0    0  502    0  0.00000000000E+00 -0.00000000000E+00 -0.37629508476E+03  0.37629508476E+03  0.00000000000E+00 0.  1.
         25    1    1    2    0    0  0.23063476356E+02  0.22729213674E+03 -0.12073918421E+03  0.28704806213E+03  0.12500000000E+03 0.  0.
         21    1    1    2  502  503  0.69608007288E+02 -0.79009922795E+02  0.11608952923E+03  0.15673104790E+03  0.00000000000E+00 0. -1.
         21    1    1    2  503  501 -0.92671483644E+02 -0.14828221395E+03 -0.10181854145E+03  0.20234286308E+03  0.00000000000E+00 0. -1.
<mgrwt>
<rscale>  4 0.43585724E+03</rscale>
<asrwt>0</asrwt>
<pdfrwt beam="1">  1        1 0.57891551E-01 0.43585724E+03</pdfrwt>
<pdfrwt beam="2">  1       -1 0.41511829E-01 0.43585724E+03</pdfrwt>
<totfact> 0.37791702E+02</totfact>
</mgrwt>
</event>
<event>
 5    0  0.4025551E-002  0.5450017E+03  0.7546771E-02  0.1002657E+00
          4   -1    0    0  502    0  0.00000000000E+00  0.00000000000E+00  0.12738970335E+04  0.12738970335E+04  0.00000000000E+00 0.  1.
         -4   -1    0    0    0  501 -0.00000000000E+00 -0.00000000000E+00 -0.94885062339E+02  0.94885062339E+02  0.00000000000E+00 0. -1.
         25    1    1    2    0    0 -0.20743049993E+03  0.86893333189E+02  0.86133032885E+03  0.89893981948E+03  0.12500000000E+03 0.  0.
         21    1    1    2  502  503 -0.15994538112E+02 -0.11679174435E+03  0.81229662946E+02  0.14315863558E+03  0.00000000000E+00 0.  1.
         21    1    1    2  503  501  0.22342503804E+03  0.29898411160E+02  0.23645197940E+03  0.32668364081E+03  0.00000000000E+00 0. -1.
<mgrwt>
<rscale>  4 0.54500172E+03</rscale>
<asrwt>0</asrwt>
<pdfrwt beam="1">  1        4 0.19598415E+00 0.54500172E+03</pdfrwt>
<pdfrwt beam="2">  1       -4 0.14597703E-01 0.54500172E+03</pdfrwt>
<totfact> 0.11389025E+01</totfact>
</mgrwt>
</event>
<event>
 5    0  0.4025551E-002  0.5363466E+03  0.7546771E-02  0.1004704E+00
         -2   -1    0    0    0  501 -0.00000000000E+00  0.00000000000E+00  0.48349660717E+02  0.48349660717E+02  0.00000000000E+00 0. -1.
          2   -1    0    0  503    0  0.00000000000E+00 -0.00000000000E+00 -0.17659607502E+04  0.17659607502E+04  0.00000000000E+00 0.  1.
         25    1    1    2    0    0  0.14162237802E+03  0.14488539476E+03 -0.13493899934E+04  0.13702288239E+04  0.12500000000E+03 0.  0.
         21    1    1    2  502  501 -0.16818447436E+03 -0.13616902899E+03 -0.34715310854E+03  0.40907615751E+03  0.00000000000E+00 0. -1.
         21    1    1    2  503  502  0.26562096341E+02 -0.87163657742E+01 -0.21067987491E+02  0.35005429454E+02  0.00000000000E+00 0. -1.
<mgrwt>
<rscale>  4 0.53634664E+03</rscale>
<asrwt>0</asrwt>
<pdfrwt beam="1">  1        2 0.27168630E+00 0.53634664E+03</pdfrwt>
<pdfrwt beam="2">  1       -2 0.74384085E-02 0.53634664E+03</pdfrwt>
<totfact> 0.10253274E+03</totfact>
</mgrwt>
</event>
<event>
 5    0  0.4025551E-002  0.4812976E+03  0.7546771E-02  0.1018779E+00
          1   -1    0    0  503    0  0.00000000000E+00  0.00000000000E+00  0.45668267236E+02  0.45668267236E+02  0.00000000000E+00 0. -1.
         -1   -1    0    0    0  501 -0.00000000000E+00 -0.00000000000E+00 -0.16084459770E+04  0.16084459770E+04  0.00000000000E+00 0.  1.
         25    1    1    2    0    0 -0.94268472668E+02 -0.21321918941E+03 -0.75484517032E+03  0.79985323581E+03  0.12500000000E+03 0.  0.
         21    1    1    2  502  501  0.11578341169E+03  0.18092096313E+03 -0.50403398678E+03  0.54789456390E+03  0.00000000000E+00 0. -1.
         21    1    1    2  503  502 -0.21514939019E+02  0.32298226281E+02 -0.30389855264E+03  0.30636644451E+03  0.00000000000E+00 0. -1.
<mgrwt>
<rscale>  4 0.48129762E+03</rscale>
<asrwt>0</asrwt>
<pdfrwt beam="1">  1        1 0.70258864E-02 0.48129762E+03</pdfrwt>
<pdfrwt beam="2">  1       -1 0.24745326E+00 0.48129762E+03</pdfrwt>
<totfact> 0.83614163E+01</totfact>
</mgrwt>
</event>
<event>
 5    0  0.4025551E-002  0.3920099E+03  0.7546771E-02  0.1046582E+00
          2   -1    0    0  503    0  0.00000000000E+00  0.00000000000E+00  0.14142391251E+04  0.14142391251E+04  0.00000000000E+00 0. -1.
         -2   -1    0    0    0  501 -0.00000000000E+00 -0.00000000000E+00 -0.42872343076E+02  0.42872343076E+02  0.00000000000E+00 0.  1.
         25    1    1    2    0    0  0.16610711096E+03 -0.13196274095E+03  0.81156524338E+03  0.84809721233E+03  0.12500000000E+03 0.  0.
         21    1    1    2  502  501 -0.13191738501E+03  0.61835452088E+02  0.45888065508E+03  0.48145329494E+03  0.00000000000E+00 0.  1.
         21    1    1    2  503  502 -0.34189725956E+02  0.70127288859E+02  0.10092088352E+03  0.12756096086E+03  0.00000000000E+00 0.  1.
<mgrwt>
<rscale>  4 0.39200991E+03</rscale>
<asrwt>0</asrwt>
<pdfrwt beam="1">  1        2 0.21757521E+00 0.39200991E+03</pdfrwt>
<pdfrwt beam="2">  1       -2 0.65957462E-02 0.39200991E+03</pdfrwt>
<totfact> 0.19357002E+03</totfact>
</mgrwt>
</event>
<event>
 5    0  0.4025551E-002  0.5755442E+03  0.7546771E-02  0.9957485E-01
          1   -1    0    0  503    0  0.00000000000E+00  0.00000000000E+00  0.11169203205E+03  0.11169203205E+03  0.00000000000E+00 0. -1.
         -1   -1    0    0    0  501 -0.00000000000E+00 -0.00000000000E+00 -0.94449808503E+03  0.94449808503E+03  0.00000000000E+00 0.  1.
         25    1    1    2    0    0 -0.14989373514E+02 -0.21819130139E+03 -0.10911220748E+03  0.27452249296E+03  0.12500000000E+03 0.  0.
         21    1    1    2  502  501  0.10039902915E+02  0.24868948605E+03 -0.53008062749E+03  0.58560458653E+03  0.00000000000E+00 0.  1.
         21    1    1    2  503  502  0.49494705990E+01 -0.30498184658E+02 -0.19361321801E+03  0.19606303760E+03  0.00000000000E+00 0. -1.
<mgrwt>
<rscale>  4 0.57554419E+03</rscale>
<asrwt>0</asrwt>
<pdfrwt beam="1">  1        1 0.17183389E-01 0.57554419E+03</pdfrwt>
<pdfrwt beam="2">  1       -1 0.14530740E+00 0.57554419E+03</pdfrwt>
<totfact> 0.12520812E+02</totfact>
</mgrwt>
</event>
<event>
 5    0  0.4025551E-002  0.5148588E+03  0.7546771E-02  0.1009972E+00
         -2   -1    0    0    0  501 -0.00000000000E+00  0.00000000000E+00  0.54067928672E+02  0.54067928672E+02  0.00000000000E+00 0. -1.
          2   -1    0    0  502    0  0.00000000000E+00 -0.00000000000E+00 -0.14943219077E+04  0.14943219077E+04  0.00000000000E+00 0.  1.
         25    1    1    2    0    0  0.86548590123E+02 -0.22822245783E+03 -0.96896384137E+03  0.10070213874E+04  0.12500000000E+03 0.  0.
         21    1    1    2  502  503 -0.26329536071E+02  0.12244426831E+02 -0.14366797319E+02  0.32397149926E+02  0.00000000000E+00 0.  1.
         21    1    1    2  503  501 -0.60219054051E+02  0.21597803100E+03 -0.45692334029E+03  0.50897129904E+03  0.00000000000E+00 0. -1.
<mgrwt>
<rscale>  4 0.51485879E+03</rscale>
<asrwt>0</asrwt>
<pdfrwt beam="1">  1        2 0.22989564E+00 0.51485879E+03</pdfrwt>
<pdfrwt beam="2">  1       -2 0.83181444E-02 0.51485879E+03</pdfrwt>
<totfact> 0.12074757E+03</totfact>
</mgrwt>
</event>
<event>
 5    0  0.4025551E-002  0.5890011E+03  0.7546771E-02  0.9928492E-01
          2   -1    0    0  503    0  0.00000000000E+00  0.00000000000E+00  0.11252004649E+04  0.11252004649E+04  0.00000000000E+00 0. -1.
         -2   -1    0    0    0  501 -0.00000000000E+00 -0.00000000000E+00 -0.86170179336E+02  0.86170179336E+02  0.00000000000E+00 0.  1.
         25    1    1    2    0    0  0.14092808568E+03 -0.20885727184E+03  0.26717249754E+03  0.38792812320E+03  0.12500000000E+03 0.  0.
         21    1    1    2  502  501 -0.12160490887E+03  0.20122542755E+03  0.76683341433E+03  0.80206789730E+03  0.00000000000E+00 0. -1.
         21    1    1    2  503  502 -0.19323176815E+02  0.76318442811E+01  0.50243737276E+01  0.21374623756E+02  0.00000000000E+00 0.  1.
<mgrwt>
<rscale>  4 0.58900111E+03</rscale>
<asrwt>0</asrwt>
<pdfrwt beam="1">  1        2 0.17310775E+00 0.58900111E+03</pdfrwt>
<pdfrwt beam="2">  1       -2 0.13256951E-01 0.58900111E+03</pdfrwt>
<totfact> 0.91672530E+02</totfact>
</mgrwt>
</event>
<event>
 5    0  0.4025551E-002  0.6660574E+03  0.7546771E-02  0.9777107E-01
         -2   -1    0    0    0  501 -0.00000000000E+00  0.00000000000E+00  0.37778560630E+02  0.37778560630E+02  0.00000000000E+00 0.  1.
          2   -1    0    0  503    0  0.00000000000E+00 -0.00000000000E+00 -0.34307763187E+04  0.34307763187E+04  0.00000000000E+00 0. -1.
         25    1    1    2    0    0  0.22725779466E+03 -0.15900881191E+01 -0.60099597184E+03  0.65457603972E+03  0.12500000000E+03 0.  0.
         21    1    1    2  502  501 -0.25806712072E+03  0.14490209419E+02 -0.27400638250E+04  0.27522278921E+04  0.00000000000E+00 0. -1.
         21    1    1    2  503  502  0.30809326061E+02 -0.12900121300E+02 -0.51937961251E+02  0.61750947530E+02  0.00000000000E+00 0.  1.
<mgrwt>
<rscale>  4 0.66605740E+03</rscale>
<asrwt>0</asrwt>
<pdfrwt beam="1">  1        2 0.52781196E+00 0.66605740E+03</pdfrwt>
<pdfrwt beam="2">  1       -2 0.58120839E-02 0.66605740E+03</pdfrwt>
<totfact> 0.16087563E+02</totfact>
</mgrwt>
</event>
<event>
 5    0  0.4025551E-002  0.5356220E+03  0.7546771E-02  0.1004878E+00
         -1   -1    0    0    0  501 -0.00000000000E+00  0.00000000000E+00  0.12065106485E+03  0.12065106485E+03  0.00000000000E+00 0. -1.
          1   -1    0    0  502    0  0.00000000000E+00 -0.00000000000E+00 -0.93273206250E+03  0.93273206250E+03  0.00000000000E+00 0.  1.
         25    1    1    2    0    0 -0.29326273697E+02 -0.25430334592E+03 -0.19828034643E+03  0.34708834302E+03  0.12500000000E+03 0.  0.
         21    1    1    2  502  503  0.39011935406E+02  0.10259139661E+03 -0.46889426646E+02  0.11935469867E+03  0.00000000000E+00 0.  1.
         21    1    1    2  503  501 -0.96856617085E+01  0.15171194931E+03 -0.56691122457E+03  0.58694008566E+03  0.00000000000E+00 0.  1.
<mgrwt>
<rscale>  4 0.53562204E+03</rscale>
<asrwt>0</asrwt>
<pdfrwt beam="1">  1        1 0.14349723E+00 0.53562204E+03</pdfrwt>
<pdfrwt beam="2">  1       -1 0.18561703E-01 0.53562204E+03</pdfrwt>
<totfact> 0.40426966E+02</totfact>
</mgrwt>
</event>
<event>
 5    0  0.4025551E-002  0.6703019E+03  0.7546771E-02  0.9769413E-01
         -1   -1    0    0    0  501 -0.00000000000E+00  0.00000000000E+00  0.45504197782E+03  0.45504197782E+03  0.00000000000E+00 0. -1.
          1   -1    0    0  502    0  0.00000000000E+00 -0.00000000000E+00 -0.33231088115E+03  0.33231088115E+03  0.00000000000E+00 0.  1.
         25    1    1    2    0    0  0.24861247277E+03  0.21344845558E+03 -0.13254806060E+02  0.35095454789E+03  0.12500000000E+03 0.  0.
         21    1    1    2  502  503 -0.25351457191E+02  0.13855868253E+02  0.11336185876E+03  0.11698543708E+03  0.00000000000E+00 0.  1.
         21    1    1    2  503  501 -0.22326101558E+03 -0.22730432383E+03  0.22624043967E+02  0.31941287400E+03  0.00000000000E+00 0.  1.
<mgrwt>
<rscale>  4 0.67030195E+03</rscale>
<asrwt>0</asrwt>
<pdfrwt beam="1">  1        1 0.51124751E-01 0.67030195E+03</pdfrwt>
<pdfrwt beam="2">  1       -1 0.70006458E-01 0.67030195E+03</pdfrwt>
<totfact> 0.16113458E+02</totfact>
</mgrwt>
</event>
<event>
 5    0  0.4025551E-002  0.5007946E+03  0.7546771E-02  0.1013572E+00
         -2   -1    0    0    0  501 -0.00000000000E+00  0.00000000000E+00  0.77153311513E+02  0.77153311513E+02  0.00000000000E+00 0. -1.
          2   -1    0    0  503    0  0.00000000000E+00 -0.00000000000E+00 -0.88878364848E+03  0.88878364848E+03  0.00000000000E+00 0.  1.
         25    1    1    2    0    0 -0.20136358233E+03  0.73529708360E+02 -0.58417664997E+03  0.63469777742E+03  0.12500000000E+03 0.  0.
         21    1    1    2  502  501  0.20566539689E+03 -0.52649040219E+02 -0.17677902367E+03  0.27626255650E+03  0.00000000000E+00 0. -1.
         21    1    1    2  503  502 -0.43018145595E+01 -0.20880668140E+02 -0.50674663335E+02  0.54976626075E+02  0.00000000000E+00 0. -1.
<mgrwt>
<rscale>  4 0.50079456E+03</rscale>
<asrwt>0</asrwt>
<pdfrwt beam="1">  1        2 0.13673595E+00 0.50079456E+03</pdfrwt>
<pdfrwt beam="2">  1       -2 0.11869740E-01 0.50079456E+03</pdfrwt>
<totfact> 0.15542739E+03</totfact>
</mgrwt>
</event>
<event>
 5    0  0.4025551E-002  0.5091722E+03  0.7546771E-02  0.1011412E+00
          2   -1    0    0  503    0  0.00000000000E+00  0.00000000000E+00  0.57837195247E+03  0.57837195247E+03  0.00000000000E+00 0. -1.
         -2   -1    0    0    0  501 -0.00000000000E+00 -0.00000000000E+00 -0.13202620386E+03  0.13202620386E+03  0.00000000000E+00 0.  1.
         25    1    1    2    0    0 -0.15640359024E+03 -0.15086326613E+03  0.36536225956E+03  0.44309862200E+03  0.12500000000E+03 0.  0.
         21    1    1    2  502  501  0.17704624638E+03  0.13441157323E+03  0.89402838186E+02  0.23959280425E+03  0.00000000000E+00 0.  1.
         21    1    1    2  503  502 -0.20642656137E+02  0.16451692902E+02 -0.84193491367E+01  0.27706730079E+02  0.00000000000E+00 0. -1.
<mgrwt>
<rscale>  4 0.50917216E+03</rscale>
<asrwt>0</asrwt>
<pdfrwt beam="1">  1        2 0.88980299E-01 0.50917216E+03</pdfrwt>
<pdfrwt beam="2">  1       -2 0.20311724E-01 0.50917216E+03</pdfrwt>
<totfact> 0.10798810E+03</totfact>
</mgrwt>
</event>
<event>
 5    0  0.4025551E-002  0.4197896E+03  0.7546771E-02  0.1037135E+00
         -2   -1    0    0    0  501 -0.00000000000E+00  0.00000000000E+00  0.60602483393E+02  0.60602483393E+02  0.00000000000E+00 0.  1.
          2   -1    0    0  502    0  0.00000000000E+00 -0.00000000000E+00 -0.12417905635E+04  0.12417905635E+04  0.00000000000E+00 0. -1.
         25    1    1    2    0    0  0.10666783689E+03  0.19899305807E+03 -0.67462082158E+03  0.72229808078E+03  0.12500000000E+03 0.  0.
         21    1    1    2  502  503  0.13000877111E+02 -0.15153061275E+03 -0.24113436066E+03  0.28509003718E+03  0.00000000000E+00 0. -1.
         21    1    1    2  503  501 -0.11966871400E+03 -0.47462445312E+02 -0.26543289783E+03  0.29500492890E+03  0.00000000000E+00 0. -1.
<mgrwt>
<rscale>  4 0.41978955E+03</rscale>
<asrwt>0</asrwt>
<pdfrwt beam="1">  1        2 0.19104470E+00 0.41978955E+03</pdfrwt>
<pdfrwt beam="2">  1       -2 0.93234591E-02 0.41978955E+03</pdfrwt>
<totfact> 0.13984317E+03</totfact>
</mgrwt>
</event>
<event>
 5    0  0.4025551E-002  0.7204881E+03  0.7546771E-02  0.9682822E-01
         -2   -1    0    0    0  501 -0.00000000000E+00  0.00000000000E+00  0.18161464942E+03  0.18161464942E+03  0.00000000000E+00 0. -1.
          2   -1    0    0  502    0  0.00000000000E+00 -0.00000000000E+00 -0.98760870065E+03  0.98760870065E+03  0.00000000000E+00 0.  1.
         25    1    1    2    0    0  0.21376733047E+03 -0.82520512686E+02 -0.48584743183E+02  0.26550251196E+03  0.12500000000E+03 0.  0.
         21    1    1    2  502  503 -0.29670206559E+03  0.55572380006E+02 -0.75866081119E+03  0.81650880680E+03  0.00000000000E+00 0.  1.
         21    1    1    2  503  501  0.82934735117E+02  0.26948132680E+02  0.12515031439E+01  0.87212031303E+02  0.00000000000E+00 0.  1.
<mgrwt>
<rscale>  4 0.72048810E+03</rscale>
<asrwt>0</asrwt>
<pdfrwt beam="1">  1        2 0.15193980E+00 0.72048810E+03</pdfrwt>
<pdfrwt beam="2">  1       -2 0.27940715E-01 0.72048810E+03</pdfrwt>
<totfact> 0.30291201E+02</totfact>
</mgrwt>
</event>
<event>
 5    0  0.4025551E-002  0.8723544E+03  0.7546771E-02  0.9460815E-01
          1   -1    0    0  502    0  0.00000000000E+00  0.00000000000E+00  0.35534663447E+03  0.35534663447E+03  0.00000000000E+00 0. -1.
         -1   -1    0    0    0  501 -0.00000000000E+00 -0.00000000000E+00 -0.53539428594E+03  0.53539428594E+03  0.00000000000E+00 0.  1.
         25    1    1    2    0    0 -0.19286588439E+03  0.19349870063E+03  0.23649667905E+03  0.38235412344E+03  0.12500000000E+03 0.  0.
         21    1    1    2  502  503  0.87050436708E+02 -0.34425719812E+02 -0.19169379712E+03  0.21332937109E+03  0.00000000000E+00 0.  1.
         21    1    1    2  503  501  0.10581544768E+03 -0.15907298082E+03 -0.22485053341E+03  0.29505742588E+03  0.00000000000E+00 0.  1.
<mgrwt>
<rscale>  4 0.87235442E+03</rscale>
<asrwt>0</asrwt>
<pdfrwt beam="1">  1        1 0.54668713E-01 0.87235442E+03</pdfrwt>
<pdfrwt beam="2">  1       -1 0.82368351E-01 0.87235442E+03</pdfrwt>
<totfact> 0.10387865E+02</totfact>
</mgrwt>
</event>
<event>
 5    0  0.4025551E-002  0.1095352E+04  0.7546771E-02  0.9209734E-01
          2   -1    0    0  503    0  0.00000000000E+00  0.00000000000E+00  0.17599454891E+04  0.17599454891E+04  0.00000000000E+00 0. -1.
         -2   -1    0    0    0  501 -0.00000000000E+00 -0.00000000000E+00 -0.23746343443E+03  0.23746343443E+03  0.00000000000E+00 0.  1.
         25    1    1    2    0    0 -0.30773544562E+03  0.45200873607E+03  0.77908371198E+03  0.96000491262E+03  0.12500000000E+03 0.  0.
         21    1    1    2  502  501  0.31920417480E+03 -0.42778143729E+03  0.80747992889E+03  0.96794219810E+03  0.00000000000E+00 0.  1.
         21    1    1    2  503  502 -0.11468729187E+02 -0.24227298782E+02 -0.64081586181E+02  0.69461812839E+02  0.00000000000E+00 0. -1.
<mgrwt>
<rscale>  4 0.10953519E+04</rscale>
<asrwt>0</asrwt>
<pdfrwt beam="1">  1        2 0.27076084E+00 0.10953519E+04</pdfrwt>
<pdfrwt beam="2">  1       -2 0.36532837E-01 0.10953519E+04</pdfrwt>
<totfact> 0.63667653E+01</totfact>
</mgrwt>
</event>
<event>
 5    0  0.4025551E-002  0.7314415E+03  0.7546771E-02  0.9664924E-01
          2   -1    0    0  502    0  0.00000000000E+00  0.00000000000E+00  0.20621224886E+04  0.20621224886E+04  0.00000000000E+00 0.  1.
         -2   -1    0    0    0  501 -0.00000000000E+00 -0.00000000000E+00 -0.71602103176E+02  0.71602103176E+02  0.00000000000E+00 0. -1.
         25    1    1    2    0    0  0.34217794582E+03  0.50878643499E+02  0.71454266411E+03  0.80366075044E+03  0.12500000000E+03 0.  0.
         21    1    1    2  502  503 -0.19635864007E+02  0.51794422431E+01  0.10373916408E+02  0.22803769840E+02  0.00000000000E+00 0.  1.
         21    1    1    2  503  501 -0.32254208182E+03 -0.56058085742E+02  0.12656038049E+04  0.13072600715E+04  0.00000000000E+00 0.  1.
<mgrwt>
<rscale>  4 0.73144151E+03</rscale>
<asrwt>0</asrwt>
<pdfrwt beam="1">  1        2 0.31724957E+00 0.73144151E+03</pdfrwt>
<pdfrwt beam="2">  1       -2 0.11015710E-01 0.73144151E+03</pdfrwt>
<totfact> 0.37114665E+02</totfact>
</mgrwt>
</event>
<event>
 5    0  0.4025551E-002  0.4358673E+03  0.7546771E-02  0.1032022E+00
         -2   -1    0    0    0  501 -0.00000000000E+00  0.00000000000E+00  0.23841800275E+03  0.23841800275E+03  0.00000000000E+00 0.  1.
          2   -1    0    0  502    0  0.00000000000E+00 -0.00000000000E+00 -0.29740344535E+03  0.29740344535E+03  0.00000000000E+00 0. -1.
         25    1    1    2    0    0  0.59618262843E+02  0.20660044871E+03 -0.56253032220E+02  0.25500487506E+03  0.12500000000E+03 0.  0.
         21    1    1    2  502  503  0.32772610636E+02 -0.44704690233E+02  0.62304335042E+02  0.83392946355E+02  0.00000000000E+00 0. -1.
         21    1    1    2  503  501 -0.92390873479E+02 -0.16189575848E+03 -0.65036745422E+02  0.19742362668E+03  0.00000000000E+00 0. -1.
<mgrwt>
<rscale>  4 0.43586734E+03</rscale>
<asrwt>0</asrwt>
<pdfrwt beam="1">  1        2 0.45754376E-01 0.43586734E+03</pdfrwt>
<pdfrwt beam="2">  1       -2 0.36679693E-01 0.43586734E+03</pdfrwt>
<totfact> 0.77942906E+02</totfact>
</mgrwt>
</event>
<event>
 5    0  0.4025551E-002  0.6012473E+03  0.7546771E-02  0.9902822E-01
          1   -1    0    0  503    0  0.00000000000E+00  0.00000000000E+00  0.25943308622E+04  0.25943308622E+04  0.00000000000E+00 0.  1.
         -1   -1    0    0    0  501 -0.00000000000E+00 -0.00000000000E+00 -0.48295612797E+02  0.48295612797E+02  0.00000000000E+00 0. -1.
         25    1    1    2    0    0  0.19744489779E+03 -0.14089600172E+03  0.57894136423E+03  0.64002677614E+03  0.12500000000E+03 0.  0.
         21    1    1    2  502  501 -0.19332213307E+03  0.72496282769E+02  0.18822497062E+04  0.18935398371E+04  0.00000000000E+00 0.  1.
         21    1    1    2  503  502 -0.41227647213E+01  0.68399718949E+02  0.84844178942E+02  0.10905986174E+03  0.00000000000E+00 0. -1.
<mgrwt>
<rscale>  4 0.60124729E+03</rscale>
<asrwt>0</asrwt>
<pdfrwt beam="1">  1        1 0.39912772E+00 0.60124729E+03</pdfrwt>
<pdfrwt beam="2">  1       -1 0.74300963E-02 0.60124729E+03</pdfrwt>
<totfact> 0.12458048E+02</totfact>
</mgrwt>
</event>
<event>
 5    0  0.4025551E-002  0.5034987E+03  0.7546771E-02  0.1012870E+00
         -1   -1    0    0    0  501 -0.00000000000E+00  0.00000000000E+00  0.18656340631E+03  0.18656340631E+03  0.00000000000E+00 0. -1.
          1   -1    0    0  502    0  0.00000000000E+00 -0.00000000000E+00 -0.40577725507E+03  0.40577725507E+03  0.00000000000E+00 0.  1.
         25    1    1    2    0    0  0.15228718494E+03  0.14691343977E+03 -0.84588523384E+02  0.25991376218E+03  0.12500000000E+03 0.  0.
         21    1    1    2  502  503  0.38107667297E+02  0.26287924882E+02 -0.25577091209E+02  0.52890801621E+02  0.00000000000E+00 0.  1.
         21    1    1    2  503  501 -0.19039485223E+03 -0.17320136465E+03 -0.10904823417E+03  0.27953609758E+03  0.00000000000E+00 0. -1.
<mgrwt>
<rscale>  4 0.50349872E+03</rscale>
<asrwt>0</asrwt>
<pdfrwt beam="1">  1        1 0.62427270E-01 0.50349872E+03</pdfrwt>
<pdfrwt beam="2">  1       -1 0.28702063E-01 0.50349872E+03</pdfrwt>
<totfact> 0.65493561E+02</totfact>
</mgrwt>
</event>
<event>
 5    0  0.4025551E-002  0.1151300E+04  0.7546771E-02  0.9156585E-01
          1   -1    0    0  503    0  0.00000000000E+00  0.00000000000E+00  0.64559461867E+03  0.64559461867E+03  0.00000000000E+00 0.  1.
         -1   -1    0    0    0  501 -0.00000000000E+00 -0.00000000000E+00 -0.85943263682E+03  0.85943263682E+03  0.00000000000E+00 0. -1.
         25    1    1    2    0    0 -0.21390004337E+03  0.49764912732E+03  0.22313907198E+03  0.59901913819E+03  0.12500000000E+03 0.  0.
         21    1    1    2  502  501  0.14948237666E+03 -0.52982916990E+03 -0.97626583169E+02  0.55910185114E+03  0.00000000000E+00 0. -1.
         21    1    1    2  503  502  0.64417666707E+02  0.32180042578E+02 -0.33935050696E+03  0.34690626615E+03  0.00000000000E+00 0. -1.
<mgrwt>
<rscale>  4 0.11512996E+04</rscale>
<asrwt>0</asrwt>
<pdfrwt beam="1">  1        1 0.99322249E-01 0.11512996E+04</pdfrwt>
<pdfrwt beam="2">  1       -1 0.13222041E+00 0.11512996E+04</pdfrwt>
<totfact> 0.14799282E+01</totfact>
</mgrwt>
</event>
<event>
 5    0  0.4025551E-002  0.5089969E+03  0.7546771E-02  0.1011457E+00
         -2   -1    0    0    0  501 -0.00000000000E+00  0.00000000000E+00  0.45004960206E+02  0.45004960206E+02  0.00000000000E+00 0.  1.
          2   -1    0    0  503    0  0.00000000000E+00 -0.00000000000E+00 -0.14391626170E+04  0.14391626170E+04  0.00000000000E+00 0. -1.
         25    1    1    2    0    0 -0.78703249190E+02 -0.20942679823E+03 -0.87483862361E+03  0.91160375307E+03  0.12500000000E+03 0.  0.
         21    1    1    2  502  501  0.38207110180E+02  0.19397308170E+03 -0.43119511904E+03  0.47435700731E+03  0.00000000000E+00 0.  1.
         21    1    1    2  503  502  0.40496139011E+02  0.15453716525E+02 -0.88123914155E+02  0.98206816847E+02  0.00000000000E+00 0.  1.
<mgrwt>
<rscale>  4 0.50899688E+03</rscale>
<asrwt>0</asrwt>
<pdfrwt beam="1">  1        2 0.22140959E+00 0.50899688E+03</pdfrwt>
<pdfrwt beam="2">  1       -2 0.69238415E-02 0.50899688E+03</pdfrwt>
<totfact> 0.17324357E+03</totfact>
</mgrwt>
</event>
<event>
 5    0  0.4025551E-002  0.4855952E+03  0.7546771E-02  0.1017609E+00
         -2   -1    0    0    0  501 -0.00000000000E+00  0.00000000000E+00  0.21498519946E+02  0.21498519946E+02  0.00000000000E+00 0.  1.
          2   -1    0    0  502    0  0.00000000000E+00 -0.00000000000E+00 -0.27420810905E+04  0.27420810905E+04  0.00000000000E+00 0. -1.
         25    1    1    2    0    0  0.24069311299E+02  0.20964413276E+03 -0.10489619517E+04  0.10772539952E+04  0.12500000000E+03 0.  0.
         21    1    1    2  502  503 -0.17662329357E+02 -0.26350084164E+02 -0.12911979631E+03  0.13295941716E+03  0.00000000000E+00 0.  1.
         21    1    1    2  503  501 -0.64069819424E+01 -0.18329404859E+03 -0.15425008225E+04  0.15533661980E+04  0.00000000000E+00 0. -1.
<mgrwt>
<rscale>  4 0.48559524E+03</rscale>
<asrwt>0</asrwt>
<pdfrwt beam="1">  1        2 0.42185879E+00 0.48559524E+03</pdfrwt>
<pdfrwt beam="2">  1       -2 0.33074633E-02 0.48559524E+03</pdfrwt>
<totfact> 0.10467436E+03</totfact>
</mgrwt>
</event>
<event>
 5    0  0.4025551E-002  0.5510670E+03  0.7546771E-02  0.1001247E+00
         -2   -1    0    0    0  501 -0.00000000000E+00  0.00000000000E+00  0.38563912133E+03  0.38563912133E+03  0.00000000000E+00 0. -1.
          2   -1    0    0  502    0  0.00000000000E+00 -0.00000000000E+00 -0.19686466049E+03  0.19686466049E+03  0.00000000000E+00 0.  1.
         25    1    1    2    0    0 -0.17164412129E+03 -0.19319521239E+03  0.10047339690E+03  0.30414798692E+03  0.12500000000E+03 0.  0.
         21    1    1    2  502  503  0.32686713585E+02  0.65409741574E+02  0.40616780895E+02  0.83645552351E+02  0.00000000000E+00 0. -1.
         21    1    1    2  503  501  0.13895740770E+03  0.12778547081E+03  0.47684283053E+02  0.19471024255E+03  0.00000000000E+00 0.  1.
<mgrwt>
<rscale>  4 0.55106702E+03</rscale>
<asrwt>0</asrwt>
<pdfrwt beam="1">  1        2 0.30286871E-01 0.55106702E+03</pdfrwt>
<pdfrwt beam="2">  1       -2 0.59329095E-01 0.55106702E+03</pdfrwt>
<totfact> 0.47109084E+02</totfact>
</mgrwt>
</event>
<event>
 5    0  0.4025551E-002  0.4514783E+03  0.7546771E-02  0.1027282E+00
          1   -1    0    0  502    0  0.00000000000E+00  0.00000000000E+00  0.42105914204E+03  0.42105914204E+03  0.00000000000E+00 0. -1.
         -1   -1    0    0    0  501 -0.00000000000E+00 -0.00000000000E+00 -0.23195006546E+03  0.23195006546E+03  0.00000000000E+00 0.  1.
         25    1    1    2    0    0  0.99132083792E+01 -0.20906215948E+03  0.25446627796E+03  0.35239657326E+03  0.12500000000E+03 0.  0.
         21    1    1    2  502  503 -0.79687902178E+01  0.25625561984E+02 -0.10882598410E+03  0.11208597530E+03  0.00000000000E+00 0.  1.
         21    1    1    2  503  501 -0.19444181614E+01  0.18343659750E+03  0.43468782716E+02  0.18852665895E+03  0.00000000000E+00 0.  1.
<mgrwt>
<rscale>  4 0.45147829E+03</rscale>
<asrwt>0</asrwt>
<pdfrwt beam="1">  1        1 0.64778329E-01 0.45147829E+03</pdfrwt>
<pdfrwt beam="2">  1       -1 0.35684626E-01 0.45147829E+03</pdfrwt>
<totfact> 0.42740286E+02</totfact>
</mgrwt>
</event>
<event>
 5    0  0.4025551E-002  0.4488854E+03  0.7546771E-02  0.1028055E+00
          2   -1    0    0  503    0  0.00000000000E+00  0.00000000000E+00  0.18429571793E+04  0.18429571793E+04  0.00000000000E+00 0. -1.
         -2   -1    0    0    0  501 -0.00000000000E+00 -0.00000000000E+00 -0.32964397463E+02  0.32964397463E+02  0.00000000000E+00 0.  1.
         25    1    1    2    0    0 -0.52519998700E+02 -0.20193377888E+03  0.76416953344E+03  0.80194493399E+03  0.12500000000E+03 0.  0.
         21    1    1    2  502  501  0.36842799297E+02  0.18726826202E+03  0.10294100344E+04  0.10469535867E+04  0.00000000000E+00 0. -1.
         21    1    1    2  503  502  0.15677199403E+02  0.14665516854E+02  0.16413214042E+02  0.27023056099E+02  0.00000000000E+00 0. -1.
<mgrwt>
<rscale>  4 0.44888537E+03</rscale>
<asrwt>0</asrwt>
<pdfrwt beam="1">  1        2 0.28353179E+00 0.44888537E+03</pdfrwt>
<pdfrwt beam="2">  1       -2 0.50714472E-02 0.44888537E+03</pdfrwt>
<totfact> 0.17041498E+03</totfact>
</mgrwt>
</event>
<event>
 5    0  0.4025551E-002  0.7733206E+03  0.7546771E-02  0.9599458E-01
          1   -1    0    0  503    0  0.00000000000E+00  0.00000000000E+00  0.66089488574E+03  0.66089488574E+03  0.00000000000E+00 0. -1.
         -1   -1    0    0    0  501 -0.00000000000E+00 -0.00000000000E+00 -0.37039286316E+03  0.37039286316E+03  0.00000000000E+00 0.  1.
         25    1    1    2    0    0 -0.19121960825E+03  0.33534927281E+03  0.20893793329E+03  0.45640347645E+03  0.12500000000E+03 0.  0.
         21    1    1    2  502  501  0.20504941355E+03 -0.30427565625E+03  0.22303151023E+03  0.42938559773E+03  0.00000000000E+00 0. -1.
         21    1    1    2  503  502 -0.13829805294E+02 -0.31073616563E+02 -0.14146742093E+03  0.14549867472E+03  0.00000000000E+00 0. -1.
<mgrwt>
<rscale>  4 0.77332056E+03</rscale>
<asrwt>0</asrwt>
<pdfrwt beam="1">  1        1 0.10167614E+00 0.77332056E+03</pdfrwt>
<pdfrwt beam="2">  1       -1 0.56983517E-01 0.77332056E+03</pdfrwt>
<totfact> 0.94202342E+01</totfact>
</mgrwt>
</event>
<event>
 5    0  0.4025551E-002  0.5977319E+03  0.7546771E-02  0.9910123E-01
          1   -1    0    0  502    0  0.00000000000E+00  0.00000000000E+00  0.12617153733E+04  0.12617153733E+04  0.00000000000E+00 0.  1.
         -1   -1    0    0    0  501 -0.00000000000E+00 -0.00000000000E+00 -0.70793200675E+02  0.70793200675E+02  0.00000000000E+00 0. -1.
         25    1    1    2    0    0 -0.24469604243E+03 -0.13863248235E+03  0.64475136915E+03  0.71443995295E+03  0.12500000000E+03 0.  0.
         21    1    1    2  502  503  0.17116387739E+03  0.11005510972E+03  0.32716367935E+03  0.38528596287E+03  0.00000000000E+00 0. -1.
         21    1    1    2  503  501  0.73532165040E+02  0.28577372630E+02  0.21900712410E+03  0.23278265813E+03  0.00000000000E+00 0. -1.
<mgrwt>
<rscale>  4 0.59773195E+03</rscale>
<asrwt>0</asrwt>
<pdfrwt beam="1">  1        1 0.19411004E+00 0.59773195E+03</pdfrwt>
<pdfrwt beam="2">  1       -1 0.10891263E-01 0.59773195E+03</pdfrwt>
<totfact> 0.54180052E+02</totfact>
</mgrwt>
</event>
<event>
 5    0  0.4025551E-002  0.6984518E+03  0.7546771E-02  0.9719884E-01
         -2   -1    0    0    0  501 -0.00000000000E+00  0.00000000000E+00  0.39839813478E+02  0.39839813478E+02  0.00000000000E+00 0. -1.
          2   -1    0    0  502    0  0.00000000000E+00 -0.00000000000E+00 -0.39744733703E+04  0.39744733703E+04  0.00000000000E+00 0.  1.
         25    1    1    2    0    0  0.19464030912E+03 -0.14095279821E+03 -0.33458339292E+04  0.33567815275E+04  0.12500000000E+03 0.  0.
         21    1    1    2  502  503  0.20401205678E+02  0.58065596479E+02 -0.10667137188E+03  0.12315276800E+03  0.00000000000E+00 0. -1.
         21    1    1    2  503  501 -0.21504151480E+03  0.82887201728E+02 -0.48212825570E+03  0.53437888828E+03  0.00000000000E+00 0. -1.
<mgrwt>
<rscale>  4 0.69845178E+03</rscale>
<asrwt>0</asrwt>
<pdfrwt beam="1">  1        2 0.61145749E+00 0.69845178E+03</pdfrwt>
<pdfrwt beam="2">  1       -2 0.61292016E-02 0.69845178E+03</pdfrwt>
<totfact> 0.59762511E+01</totfact>
</mgrwt>
</event>
<event>
 5    0  0.4025551E-002  0.4696131E+03  0.7546771E-02  0.1022029E+00
         -2   -1    0    0    0  501 -0.00000000000E+00  0.00000000000E+00  0.66012286577E+02  0.66012286577E+02  0.00000000000E+00 0.  1.
          2   -1    0    0  503    0  0.00000000000E+00 -0.00000000000E+00 -0.99204094387E+03  0.99204094387E+03  0.00000000000E+00 0. -1.
         25    1    1    2    0    0  0.11985571110E+03  0.18635698128E+03 -0.40012085087E+03  0.47414766820E+03  0.12500000000E+03 0.  0.
         21    1    1    2  502  501 -0.11973975685E+03 -0.16554783770E+03 -0.52468372146E+03  0.56306012423E+03  0.00000000000E+00 0. -1.
         21    1    1    2  503  502 -0.11595425289E+00 -0.20809143582E+02 -0.12240849633E+01  0.20845438014E+02  0.00000000000E+00 0. -1.
<mgrwt>
<rscale>  4 0.46961315E+03</rscale>
<asrwt>0</asrwt>
<pdfrwt beam="1">  1        2 0.15262168E+00 0.46961315E+03</pdfrwt>
<pdfrwt beam="2">  1       -2 0.10155737E-01 0.46961315E+03</pdfrwt>
<totfact> 0.17177315E+03</totfact>
</mgrwt>
</event>
<event>
 5    0  0.4025551E-002  0.5741727E+03  0.7546771E-02  0.9960487E-01
         -2   -1    0    0    0  501 -0.00000000000E+00  0.00000000000E+00  0.45484410137E+02  0.45484410137E+02  0.00000000000E+00 0. -1.
          2   -1    0    0  502    0  0.00000000000E+00 -0.00000000000E+00 -0.28985150030E+04  0.28985150030E+04  0.00000000000E+00 0.  1.
         25    1    1    2    0    0 -0.27706808330E+03 -0.11463745930E+03 -0.18567410873E+04  0.18849458706E+04  0.12500000000E+03 0.  0.
         21    1    1    2  502  503  0.42884828187E+02  0.70107488219E+02 -0.89736405853E+02  0.12168315795E+03  0.00000000000E+00 0. -1.
         21    1    1    2  503  501  0.23418325511E+03  0.44529971084E+02 -0.90655309980E+03  0.93737038466E+03  0.00000000000E+00 0. -1.
<mgrwt>
<rscale>  4 0.57417269E+03</rscale>
<asrwt>0</asrwt>
<pdfrwt beam="1">  1        2 0.44592515E+00 0.57417269E+03</pdfrwt>
<pdfrwt beam="2">  1       -2 0.69976053E-02 0.57417269E+03</pdfrwt>
<totfact> 0.26324784E+02</totfact>
</mgrwt>
</event>
<event>
 5    0  0.4025551E-002  0.4355961E+03  0.7546771E-02  0.1032107E+00
         -2   -1    0    0    0  501 -0.00000000000E+00  0.00000000000E+00  0.12408026481E+04  0.12408026481E+04  0.00000000000E+00 0. -1.
          2   -1    0    0  502    0  0.00000000000E+00 -0.00000000000E+00 -0.55972731147E+02  0.55972731147E+02  0.00000000000E+00 0.  1.
         25    1    1    2    0    0  0.18919526317E+03 -0.65129863000E+02  0.67029255358E+03  0.71060105125E+03  0.12500000000E+03 0.  0.
         21    1    1    2  502  503 -0.48418667285E+02 -0.64219745873E+01  0.36643180256E+03  0.36967265929E+03  0.00000000000E+00 0. -1.
         21    1    1    2  503  501 -0.14077659588E+03  0.71551837587E+02  0.14810556084E+03  0.21650166873E+03  0.00000000000E+00 0.  1.
<mgrwt>
<rscale>  4 0.43559612E+03</rscale>
<asrwt>0</asrwt>
<pdfrwt beam="1">  1        2 0.86111903E-02 0.43559612E+03</pdfrwt>
<pdfrwt beam="2">  1       -2 0.19089269E+00 0.43559612E+03</pdfrwt>
<totfact> 0.12675187E+02</totfact>
</mgrwt>
</event>
<event>
 5    0  0.4025551E-002  0.1140828E+04  0.7546771E-02  0.9166287E-01
         -2   -1    0    0    0  501 -0.00000000000E+00  0.00000000000E+00  0.27351326160E+03  0.27351326160E+03  0.00000000000E+00 0.  1.
          2   -1    0    0  502    0  0.00000000000E+00 -0.00000000000E+00 -0.17096450848E+04  0.17096450848E+04  0.00000000000E+00 0. -1.
         25    1    1    2    0    0 -0.12020377379E+03  0.44156768443E+03 -0.78428553871E+03  0.91660229838E+03  0.12500000000E+03 0.  0.
         21    1    1    2  502  503  0.10539750024E+03 -0.52793988964E+03 -0.15244626876E+03  0.55952571432E+03  0.00000000000E+00 0.  1.
         21    1    1    2  503  501  0.14806273554E+02  0.86372205216E+02 -0.49940001575E+03  0.50703033371E+03  0.00000000000E+00 0.  1.
<mgrwt>
<rscale>  4 0.11408275E+04</rscale>
<asrwt>0</asrwt>
<pdfrwt beam="1">  1        2 0.26302233E+00 0.11408275E+04</pdfrwt>
<pdfrwt beam="2">  1       -2 0.42078963E-01 0.11408275E+04</pdfrwt>
<totfact> 0.51326560E+01</totfact>
</mgrwt>
</event>
<event>
 5    0  0.4025551E-002  0.4143252E+03  0.7546771E-02  0.1038929E+00
         -2   -1    0    0    0  501 -0.00000000000E+00  0.00000000000E+00  0.49730284453E+02  0.49730284453E+02  0.00000000000E+00 0.  1.
          2   -1    0    0  503    0  0.00000000000E+00 -0.00000000000E+00 -0.12755884710E+04  0.12755884710E+04  0.00000000000E+00 0. -1.
         25    1    1    2    0    0  0.21770290575E+03  0.10691744120E+02 -0.59191294621E+03  0.64303561679E+03  0.12500000000E+03 0.  0.
         21    1    1    2  502  501 -0.15413243877E+03  0.20870054898E+01 -0.57272678758E+03  0.59310803189E+03  0.00000000000E+00 0. -1.
         21    1    1    2  503  502 -0.63570466975E+02 -0.12778749610E+02 -0.61218452778E+02  0.89175106804E+02  0.00000000000E+00 0.  1.
<mgrwt>
<rscale>  4 0.41432525E+03</rscale>
<asrwt>0</asrwt>
<pdfrwt beam="1">  1        2 0.19624438E+00 0.41432525E+03</pdfrwt>
<pdfrwt beam="2">  1       -2 0.76508132E-02 0.41432525E+03</pdfrwt>
<totfact> 0.18320363E+03</totfact>
</mgrwt>
</event>
<event>
 5    0  0.4025551E-002  0.7686135E+03  0.7546771E-02  0.9606593E-01
         -2   -1    0    0    0  501 -0.00000000000E+00  0.00000000000E+00  0.74455206851E+02  0.74455206851E+02  0.00000000000E+00 0. -1.
          2   -1    0    0  503    0  0.00000000000E+00 -0.00000000000E+00 -0.25876936024E+04  0.25876936024E+04  0.00000000000E+00 0.  1.
         25    1    1    2    0    0 -0.23184726984E+03  0.30151078860E+03 -0.13246706794E+04  0.13838494575E+04  0.12500000000E+03 0.  0.
         21    1    1    2  502  501  0.25778547840E+03 -0.26280288653E+03 -0.11726260933E+04  0.12290527510E+04  0.00000000000E+00 0. -1.
         21    1    1    2  503  502 -0.25938208558E+02 -0.38707902068E+02 -0.15941622840E+02  0.49246600740E+02  0.00000000000E+00 0. -1.
<mgrwt>
<rscale>  4 0.76861354E+03</rscale>
<asrwt>0</asrwt>
<pdfrwt beam="1">  1        2 0.39810674E+00 0.76861354E+03</pdfrwt>
<pdfrwt beam="2">  1       -2 0.11454646E-01 0.76861354E+03</pdfrwt>
<totfact> 0.17660129E+02</totfact>
</mgrwt>
</event>
<event>
 5    0  0.4025551E-002  0.7200014E+03  0.7546771E-02  0.9683626E-01
          2   -1    0    0  502    0  0.00000000000E+00  0.00000000000E+00  0.80958791899E+03  0.80958791899E+03  0.00000000000E+00 0.  1.
         -2   -1    0    0    0  501 -0.00000000000E+00 -0.00000000000E+00 -0.33326505398E+03  0.33326505398E+03  0.00000000000E+00 0. -1.
         25    1    1    2    0    0 -0.15284600207E+03 -0.27424892036E+03  0.57945360593E+03  0.67079494042E+03  0.12500000000E+03 0.  0.
         21    1    1    2  502  503 -0.17876530055E+02  0.41094947197E+02 -0.16969682677E+03  0.17551460915E+03  0.00000000000E+00 0. -1.
         21    1    1    2  503  501  0.17072253212E+03  0.23315397316E+03  0.66566085846E+02  0.29654342340E+03  0.00000000000E+00 0. -1.
<mgrwt>
<rscale>  4 0.72000144E+03</rscale>
<asrwt>0</asrwt>
<pdfrwt beam="1">  1        2 0.12455199E+00 0.72000144E+03</pdfrwt>
<pdfrwt beam="2">  1       -2 0.51271547E-01 0.72000144E+03</pdfrwt>
<totfact> 0.12352125E+02</totfact>
</mgrwt>
</event>
<event>
 5    0  0.4025551E-002  0.5758509E+03  0.7546771E-02  0.9956814E-01
          2   -1    0    0  503    0  0.00000000000E+00  0.00000000000E+00  0.11275800984E+04  0.11275800984E+04  0.00000000000E+00 0.  1.
         -2   -1    0    0    0  501 -0.00000000000E+00 -0.00000000000E+00 -0.11611025717E+03  0.11611025717E+03  0.00000000000E+00 0. -1.
         25    1    1    2    0    0  0.27693695407E+02 -0.27529290266E+03  0.26210366857E+03  0.40109407388E+03  0.12500000000E+03 0.  0.
         21    1    1    2  502  501 -0.50789775813E+02  0.16358821431E+03  0.69580658341E+03  0.71658042584E+03  0.00000000000E+00 0. -1.
         21    1    1    2  503  502  0.23096080406E+02  0.11170468835E+03  0.53559589290E+02  0.12601585589E+03  0.00000000000E+00 0. -1.
<mgrwt>
<rscale>  4 0.57585088E+03</rscale>
<asrwt>0</asrwt>
<pdfrwt beam="1">  1        2 0.17347385E+00 0.57585088E+03</pdfrwt>
<pdfrwt beam="2">  1       -2 0.17863117E-01 0.57585088E+03</pdfrwt>
<totfact> 0.55242975E+02</totfact>
</mgrwt>
</event>
<event>
 5    0  0.4025551E-002  0.4451051E+03  0.7546771E-02  0.1029192E+00
         -1   -1    0    0    0  501 -0.00000000000E+00  0.00000000000E+00  0.33905674646E+03  0.33905674646E+03  0.00000000000E+00 0. -1.
          1   -1    0    0  503    0  0.00000000000E+00 -0.00000000000E+00 -0.25942300862E+03  0.25942300862E+03  0.00000000000E+00 0.  1.
         25    1    1    2    0    0  0.15428299369E+03  0.17982721786E+03  0.26315994749E+01  0.26790482590E+03  0.12500000000E+03 0.  0.
         21    1    1    2  502  501 -0.42179482792E+02 -0.17073625793E+03 -0.26345339691E+02  0.17783153676E+03  0.00000000000E+00 0.  1.
         21    1    1    2  503  502 -0.11210351090E+03 -0.90909599256E+01  0.10334747806E+03  0.15274339243E+03  0.00000000000E+00 0.  1.
<mgrwt>
<rscale>  4 0.44510512E+03</rscale>
<asrwt>0</asrwt>
<pdfrwt beam="1">  1        1 0.39911232E-01 0.44510512E+03</pdfrwt>
<pdfrwt beam="2">  1       -1 0.52162576E-01 0.44510512E+03</pdfrwt>
<totfact> 0.39926875E+02</totfact>
</mgrwt>
</event>
<event>
 5    0  0.4025551E-002  0.7528985E+03  0.7546771E-02  0.9630814E-01
         -4   -1    0    0    0  501 -0.00000000000E+00  0.00000000000E+00  0.16554944346E+03  0.16554944346E+03  0.00000000000E+00 0.  1.
          4   -1    0    0  503    0  0.00000000000E+00 -0.00000000000E+00 -0.92334406972E+03  0.92334406972E+03  0.00000000000E+00 0. -1.
         25    1    1    2    0    0  0.42118641503E+02 -0.22527095928E+03 -0.79766070848E+03  0.83929052831E+03  0.12500000000E+03 0.  0.
         21    1    1    2  502  501 -0.30303083888E+02  0.19883632175E+03  0.64882004862E+02  0.21133819886E+03  0.00000000000E+00 0.  1.
         21    1    1    2  503  502 -0.11815557615E+02  0.26434637532E+02 -0.25015922642E+02  0.38264786016E+02  0.00000000000E+00 0. -1.
<mgrwt>
<rscale>  4 0.75289846E+03</rscale>
<asrwt>0</asrwt>
<pdfrwt beam="1">  1        4 0.14205293E+00 0.75289846E+03</pdfrwt>
<pdfrwt beam="2">  1       -4 0.25469145E-01 0.75289846E+03</pdfrwt>
<totfact> 0.10080363E+01</totfact>
</mgrwt>
</event>
<event>
 5    0  0.4025551E-002  0.5442725E+03  0.7546771E-02  0.1002828E+00
          2   -1    0    0  502    0  0.00000000000E+00  0.00000000000E+00  0.44681247400E+03  0.44681247400E+03  0.00000000000E+00 0.  1.
         -2   -1    0    0    0  501 -0.00000000000E+00 -0.00000000000E+00 -0.33460269728E+03  0.33460269728E+03  0.00000000000E+00 0. -1.
         25    1    1    2    0    0 -0.12753537499E+03 -0.16826593634E+03 -0.33680556901E+02  0.24766525214E+03  0.12500000000E+03 0.  0.
         21    1    1    2  502  503  0.30801037372E+02  0.90682077732E+01 -0.16675340301E+03  0.16981647067E+03  0.00000000000E+00 0.  1.
         21    1    1    2  503  501  0.96734337618E+02  0.15919772856E+03  0.31264373664E+03  0.36393344847E+03  0.00000000000E+00 0.  1.
<mgrwt>
<rscale>  4 0.54427246E+03</rscale>
<asrwt>0</asrwt>
<pdfrwt beam="1">  1        2 0.68740381E-01 0.54427246E+03</pdfrwt>
<pdfrwt beam="2">  1       -2 0.51477338E-01 0.54427246E+03</pdfrwt>
<totfact> 0.25409830E+02</totfact>
</mgrwt>
</event>
<event>
 5    0  0.4025551E-002  0.1140009E+04  0.7546771E-02  0.9167050E-01
          2   -1    0    0  502    0  0.00000000000E+00  0.00000000000E+00  0.11319061839E+04  0.11319061839E+04  0.00000000000E+00 0. -1.
         -2   -1    0    0    0  501 -0.00000000000E+00 -0.00000000000E+00 -0.28704263515E+03  0.28704263515E+03  0.00000000000E+00 0.  1.
         25    1    1    2    0    0 -0.27800327557E+03 -0.34250448749E+03  0.85418250119E+03  0.96945752384E+03  0.12500000000E+03 0.  0.
         21    1    1    2  502  503  0.41570193618E+02  0.14112516839E+02 -0.91358863199E+01  0.44840924921E+02  0.00000000000E+00 0. -1.
         21    1    1    2  503  501  0.23643308196E+03  0.32839197065E+03 -0.18306616837E+00  0.40465037025E+03  0.00000000000E+00 0.  1.
<mgrwt>
<rscale>  4 0.11400094E+04</rscale>
<asrwt>0</asrwt>
<pdfrwt beam="1">  1        2 0.17413941E+00 0.11400094E+04</pdfrwt>
<pdfrwt beam="2">  1       -2 0.44160406E-01 0.11400094E+04</pdfrwt>
<totfact> 0.10024963E+02</totfact>
</mgrwt>
</event>
<event>
 5    0  0.4025551E-002  0.8250918E+03  0.7546771E-02  0.9524391E-01
          1   -1    0    0  503    0  0.00000000000E+00  0.00000000000E+00  0.68405264404E+03  0.68405264404E+03  0.00000000000E+00 0.  1.
         -1   -1    0    0    0  501 -0.00000000000E+00 -0.00000000000E+00 -0.37787117787E+03  0.37787117787E+03  0.00000000000E+00 0. -1.
         25    1    1    2    0    0 -0.10390170034E+03 -0.20211728464E+03  0.39910292431E+03  0.47597805020E+03  0.12500000000E+03 0.  0.
         21    1    1    2  502  501 -0.40306368345E+02 -0.17200126087E+03 -0.13249261029E+02  0.17715693604E+03  0.00000000000E+00 0. -1.
         21    1    1    2  503  502  0.14420806868E+03  0.37411854551E+03 -0.79672197105E+02  0.40878883566E+03  0.00000000000E+00 0. -1.
<mgrwt>
<rscale>  4 0.82509178E+03</rscale>
<asrwt>0</asrwt>
<pdfrwt beam="1">  1        1 0.10523887E+00 0.82509178E+03</pdfrwt>
<pdfrwt beam="2">  1       -1 0.58134027E-01 0.82509178E+03</pdfrwt>
<totfact> 0.85739095E+01</totfact>
</mgrwt>
</event>
<event>
 5    0  0.4025551E-002  0.6424352E+03  0.7546771E-02  0.9821078E-01
         -2   -1    0    0    0  501 -0.00000000000E+00  0.00000000000E+00  0.71648840869E+02  0.71648840869E+02  0.00000000000E+00 0.  1.
          2   -1    0    0  502    0  0.00000000000E+00 -0.00000000000E+00 -0.18886238441E+04  0.18886238441E+04  0.00000000000E+00 0. -1.
         25    1    1    2    0    0  0.14612444251E+03  0.23358253204E+03 -0.12150072133E+04  0.12521104905E+04  0.12500000000E+03 0.  0.
         21    1    1    2  502  503 -0.14291853149E+02  0.40539421331E+02 -0.12376340494E+02  0.44731147451E+02  0.00000000000E+00 0.  1.
         21    1    1    2  503  501 -0.13183258936E+03 -0.27412195337E+03 -0.58959144943E+03  0.66343104704E+03  0.00000000000E+00 0. -1.
<mgrwt>
<rscale>  4 0.64243525E+03</rscale>
<asrwt>0</asrwt>
<pdfrwt beam="1">  1        2 0.29055750E+00 0.64243525E+03</pdfrwt>
<pdfrwt beam="2">  1       -2 0.11022899E-01 0.64243525E+03</pdfrwt>
<totfact> 0.46396414E+02</totfact>
</mgrwt>
</event>
<event>
 5    0  0.4025551E-002  0.6719876E+03  0.7546771E-02  0.9766374E-01
         -1   -1    0    0    0  501 -0.00000000000E+00  0.00000000000E+00  0.15101279817E+03  0.15101279817E+03  0.00000000000E+00 0. -1.
          1   -1    0    0  503    0  0.00000000000E+00 -0.00000000000E+00 -0.80460052312E+03  0.80460052312E+03  0.00000000000E+00 0.  1.
         25    1    1    2    0    0 -0.15404009432E+03  0.16001825161E+03 -0.13935802979E+02  0.25525163684E+03  0.12500000000E+03 0.  0.
         21    1    1    2  502  501  0.17393002499E+03 -0.16479863545E+03 -0.63592759197E+03  0.67956908852E+03  0.00000000000E+00 0.  1.
         21    1    1    2  503  502 -0.19889930672E+02  0.47803838435E+01 -0.37243299980E+01  0.20792595936E+02  0.00000000000E+00 0.  1.
<mgrwt>
<rscale>  4 0.67198762E+03</rscale>
<asrwt>0</asrwt>
<pdfrwt beam="1">  1        1 0.12378470E+00 0.67198762E+03</pdfrwt>
<pdfrwt beam="2">  1       -1 0.23232738E-01 0.67198762E+03</pdfrwt>
<totfact> 0.35214181E+02</totfact>
</mgrwt>
</event>
<event>
 5    0  0.4025551E-002  0.4773738E+03  0.7546771E-02  0.1019859E+00
          1   -1    0    0  503    0  0.00000000000E+00  0.00000000000E+00  0.42813873773E+03  0.42813873773E+03  0.00000000000E+00 0.  1.
         -1   -1    0    0    0  501 -0.00000000000E+00 -0.00000000000E+00 -0.16187769116E+03  0.16187769116E+03  0.00000000000E+00 0. -1.
         25    1    1    2    0    0  0.20834825221E+03 -0.21100355290E+02  0.26733529548E+03  0.36186652153E+03  0.12500000000E+03 0.  0.
         21    1    1    2  502  501 -0.16172279148E+03  0.12568727036E+02 -0.39708348171E+02  0.16699996137E+03  0.00000000000E+00 0. -1.
         21    1    1    2  503  502 -0.46625460731E+02  0.85316282542E+01  0.38634099259E+02  0.61149945990E+02  0.00000000000E+00 0. -1.
<mgrwt>
<rscale>  4 0.47737378E+03</rscale>
<asrwt>0</asrwt>
<pdfrwt beam="1">  1        1 0.65867498E-01 0.47737378E+03</pdfrwt>
<pdfrwt beam="2">  1       -1 0.24904260E-01 0.47737378E+03</pdfrwt>
<totfact> 0.77759317E+02</totfact>
</mgrwt>
</event>
<event>
 5    0  0.4025551E-002  0.6969013E+03  0.7546771E-02  0.9722546E-01
         -2   -1    0    0    0  501 -0.00000000000E+00  0.00000000000E+00  0.62480549329E+03  0.62480549329E+03  0.00000000000E+00 0.  1.
          2   -1    0    0  502    0  0.00000000000E+00 -0.00000000000E+00 -0.21347852129E+03  0.21347852129E+03  0.00000000000E+00 0. -1.
         25    1    1    2    0    0  0.39222978959E+02 -0.25594602599E+03  0.42014075095E+03  0.50910712125E+03  0.12500000000E+03 0.  0.
         21    1    1    2  502  503  0.22608700721E+02 -0.10840728848E+02  0.43649815406E+02  0.50338664416E+02  0.00000000000E+00 0.  1.
         21    1    1    2  503  501 -0.61831679680E+02  0.26678675484E+03 -0.52463594357E+02  0.27883822891E+03  0.00000000000E+00 0. -1.
<mgrwt>
<rscale>  4 0.69690127E+03</rscale>
<asrwt>0</asrwt>
<pdfrwt beam="1">  1        2 0.32842850E-01 0.69690127E+03</pdfrwt>
<pdfrwt beam="2">  1       -2 0.96123922E-01 0.69690127E+03</pdfrwt>
<totfact> 0.14721757E+02</totfact>
</mgrwt>
</event>
<event>
 5    0  0.4025551E-002  0.8541488E+03  0.7546771E-02  0.9484785E-01
         -1   -1    0    0    0  501 -0.00000000000E+00  0.00000000000E+00  0.79600983643E+02  0.79600983643E+02  0.00000000000E+00 0. -1.
          1   -1    0    0  503    0  0.00000000000E+00 -0.00000000000E+00 -0.33666516383E+04  0.33666516383E+04  0.00000000000E+00 0.  1.
         25    1    1    2    0    0 -0.35571989668E+03  0.23467320664E+03 -0.11878752405E+04  0.12681800920E+04  0.12500000000E+03 0.  0.
         21    1    1    2  502  501  0.31961183343E+03 -0.15524222742E+03 -0.20444073103E+04  0.20750549688E+04  0.00000000000E+00 0.  1.
         21    1    1    2  503  502  0.36108063244E+02 -0.79430979217E+02 -0.54768103825E+02  0.10301756106E+03  0.00000000000E+00 0.  1.
<mgrwt>
<rscale>  4 0.85414881E+03</rscale>
<asrwt>0</asrwt>
<pdfrwt beam="1">  1        1 0.51794638E+00 0.85414881E+03</pdfrwt>
<pdfrwt beam="2">  1       -1 0.12246306E-01 0.85414881E+03</pdfrwt>
<totfact> 0.15282070E+01</totfact>
</mgrwt>
</event>
<event>
 5    0  0.4025551E-002  0.5779480E+03  0.7546771E-02  0.9952244E-01
          2   -1    0    0  502    0  0.00000000000E+00  0.00000000000E+00  0.77308494221E+03  0.77308494221E+03  0.00000000000E+00 0.  1.
         -2   -1    0    0    0  501 -0.00000000000E+00 -0.00000000000E+00 -0.14888844569E+03  0.14888844569E+03  0.00000000000E+00 0. -1.
         25    1    1    2    0    0  0.22670197819E+03 -0.14216883791E+03  0.14681095411E+03  0.32982453158E+03  0.12500000000E+03 0.  0.
         21    1    1    2  502  503 -0.86842384619E+02 -0.45278816966E+02  0.63396600909E+02  0.11666576207E+03  0.00000000000E+00 0.  1.
         21    1    1    2  503  501 -0.13985959357E+03  0.18744765487E+03  0.41398894151E+03  0.47548309425E+03  0.00000000000E+00 0.  1.
<mgrwt>
<rscale>  4 0.57794796E+03</rscale>
<asrwt>0</asrwt>
<pdfrwt beam="1">  1        2 0.11893614E+00 0.57794796E+03</pdfrwt>
<pdfrwt beam="2">  1       -2 0.22905915E-01 0.57794796E+03</pdfrwt>
<totfact> 0.61021402E+02</totfact>
</mgrwt>
</event>
<event>
 5    0  0.4025551E-002  0.5516664E+03  0.7546771E-02  0.1001109E+00
          1   -1    0    0  503    0  0.00000000000E+00  0.00000000000E+00  0.18410816829E+04  0.18410816829E+04  0.00000000000E+00 0.  1.
         -1   -1    0    0    0  501 -0.00000000000E+00 -0.00000000000E+00 -0.78669944038E+02  0.78669944038E+02  0.00000000000E+00 0. -1.
         25    1    1    2    0    0  0.16861105054E+02 -0.30231153612E+03  0.10868730801E+04  0.11351628315E+04  0.12500000000E+03 0.  0.
         21    1    1    2  502  501  0.43240950450E+02  0.21851902907E+03  0.63645669536E+03  0.67431259141E+03  0.00000000000E+00 0. -1.
         21    1    1    2  503  502 -0.60102055505E+02  0.83792507042E+02  0.39081963375E+02  0.11027620402E+03  0.00000000000E+00 0. -1.
<mgrwt>
<rscale>  4 0.55166638E+03</rscale>
<asrwt>0</asrwt>
<pdfrwt beam="1">  1        1 0.28324330E+00 0.55166638E+03</pdfrwt>
<pdfrwt beam="2">  1       -1 0.12103070E-01 0.55166638E+03</pdfrwt>
<totfact> 0.18586128E+02</totfact>
</mgrwt>
</event>
<event>
 5    0  0.4025551E-002  0.4715846E+03  0.7546771E-02  0.1021474E+00
          2   -1    0    0  503    0  0.00000000000E+00  0.00000000000E+00  0.18713348895E+03  0.18713348895E+03  0.00000000000E+00 0.  1.
         -2   -1    0    0    0  501 -0.00000000000E+00 -0.00000000000E+00 -0.29710340965E+03  0.29710340965E+03  0.00000000000E+00 0. -1.
         25    1    1    2    0    0  0.15110722140E+03 -0.14607854213E+03 -0.73202002386E+01  0.24464447298E+03  0.12500000000E+03 0.  0.
         21    1    1    2  502  501 -0.94469889641E+02  0.79635256695E+02 -0.32947357335E+02  0.12787440132E+03  0.00000000000E+00 0. -1.
         21    1    1    2  503  502 -0.56637331763E+02  0.66443285433E+02 -0.69702363120E+02  0.11171802430E+03  0.00000000000E+00 0. -1.
<mgrwt>
<rscale>  4 0.47158455E+03</rscale>
<asrwt>0</asrwt>
<pdfrwt beam="1">  1        2 0.28789768E-01 0.47158455E+03</pdfrwt>
<pdfrwt beam="2">  1       -2 0.45708217E-01 0.47158455E+03</pdfrwt>
<totfact> 0.84900661E+02</totfact>
</mgrwt>
</event>
<event>
 5    0  0.4025551E-002  0.4615608E+03  0.7546771E-02  0.1024330E+00
          1   -1    0    0  502    0  0.00000000000E+00  0.00000000000E+00  0.89906691871E+03  0.89906691871E+03  0.00000000000E+00 0. -1.
         -1   -1    0    0    0  501 -0.00000000000E+00 -0.00000000000E+00 -0.10988322946E+03  0.10988322946E+03  0.00000000000E+00 0.  1.
         25    1    1    2    0    0 -0.46251064902E+02 -0.20686695476E+03  0.41966867623E+03  0.48649758045E+03  0.12500000000E+03 0.  0.
         21    1    1    2  502  503  0.19814654846E+02 -0.62052845610E+01 -0.48369392160E+02  0.52637669031E+02  0.00000000000E+00 0.  1.
         21    1    1    2  503  501  0.26436410056E+02  0.21307223932E+03  0.41788440517E+03  0.46981489869E+03  0.00000000000E+00 0.  1.
<mgrwt>
<rscale>  4 0.46156082E+03</rscale>
<asrwt>0</asrwt>
<pdfrwt beam="1">  1        1 0.13831798E+00 0.46156082E+03</pdfrwt>
<pdfrwt beam="2">  1       -1 0.16905113E-01 0.46156082E+03</pdfrwt>
<totfact> 0.50322388E+02</totfact>
</mgrwt>
</event>
