<event>
 5    0  0.4930573E+000  0.1767150E+03  0.7546771E-02  0.1171021E+00
         21   -1    0    0  503  502  0.00000000000E+00  0.00000000000E+00  0.36336256515E+03  0.36336256515E+03  0.00000000000E+00 0. -1.
          2   -1    0    0  502    0 -0.00000000000E+00 -0.00000000000E+00 -0.67698057166E+03  0.67698057166E+03  0.00000000000E+00 0. -1.
         25    1    1    2    0    0 -0.15699268341E+03  0.12612292824E+03 -0.21522350557E+03  0.32015598233E+03  0.12500000000E+03 0.  0.
         21    1    1    2  503  501  0.93639465761E+02 -0.77387957286E+02  0.29485375947E+03  0.31889807926E+03  0.00000000000E+00 0. -1.
          2    1    1    2  501    0  0.63353217652E+02 -0.48734970956E+02 -0.39324826041E+03  0.40128907522E+03  0.00000000000E+00 0. -1.
<mgrwt>
<rscale>  4 0.17671503E+03</rscale>
<asrwt>0</asrwt>
<pdfrwt beam="1">  1       21 0.55901934E-01 0.17671503E+03</pdfrwt>
<pdfrwt beam="2">  1        2 0.10415086E+00 0.17671503E+03</pdfrwt>
<totfact> 0.16727350E+03</totfact>
</mgrwt>
</event>
<event>
 5    0  0.4930573E+000  0.5282998E+03  0.7546771E-02  0.1006645E+00
         -3   -1    0    0    0  501 -0.00000000000E+00  0.00000000000E+00  0.22366358094E+04  0.22366358094E+04  0.00000000000E+00 0. -1.
         21   -1    0    0  501  502  0.00000000000E+00 -0.00000000000E+00 -0.97643467150E+03  0.97643467150E+03  0.00000000000E+00 0.  1.
         25    1    1    2    0    0 -0.16808597247E+03  0.30962866970E+03  0.14706126093E+04  0.15173823691E+04  0.12500000000E+03 0.  0.
         21    1    1    2  503  502  0.24203920486E+03 -0.46143485957E+03 -0.87039653198E+03  0.10144433100E+04  0.00000000000E+00 0.  1.
         -3    1    1    2    0  503 -0.73953232388E+02  0.15180618987E+03  0.65998506054E+03  0.68124480181E+03  0.00000000000E+00 0. -1.
<mgrwt>
<rscale>  4 0.52829982E+03</rscale>
<asrwt>0</asrwt>
<pdfrwt beam="1">  1       21 0.15022072E+00 0.52829982E+03</pdfrwt>
<pdfrwt beam="2">  1       -3 0.34409782E+00 0.52829982E+03</pdfrwt>
<totfact> 0.30214141E-01</totfact>
</mgrwt>
</event>
<event>
 5    0  0.4930573E+000  0.2703714E+03  0.7546771E-02  0.1101067E+00
         21   -1    0    0  503  502  0.00000000000E+00  0.00000000000E+00  0.63172077468E+02  0.63172077468E+02  0.00000000000E+00 0. -1.
          1   -1    0    0  502    0 -0.00000000000E+00 -0.00000000000E+00 -0.16476616703E+04  0.16476616703E+04  0.00000000000E+00 0.  1.
         25    1    1    2    0    0 -0.24376721047E+03  0.44881282938E+02 -0.37721765812E+03  0.46835343925E+03  0.12500000000E+03 0.  0.
         21    1    1    2  503  501  0.14725161002E+02  0.19237709118E+02 -0.19418287036E+02  0.31048183362E+02  0.00000000000E+00 0. -1.
          1    1    1    2  501    0  0.22904204947E+03 -0.64118992057E+02 -0.11878536477E+04  0.12114321252E+04  0.00000000000E+00 0.  1.
<mgrwt>
<rscale>  4 0.27037137E+03</rscale>
<asrwt>0</asrwt>
<pdfrwt beam="1">  1       21 0.97187799E-02 0.27037137E+03</pdfrwt>
<pdfrwt beam="2">  1        1 0.25348644E+00 0.27037137E+03</pdfrwt>
<totfact> 0.53984524E+03</totfact>
</mgrwt>
</event>
<event>
 5    0  0.4930573E+000  0.3120633E+03  0.7546771E-02  0.1079557E+00
         21   -1    0    0  503  502  0.00000000000E+00  0.00000000000E+00  0.17576132548E+03  0.17576132548E+03  0.00000000000E+00 0. -1.
          1   -1    0    0  502    0 -0.00000000000E+00 -0.00000000000E+00 -0.70171684678E+03  0.70171684678E+03  0.00000000000E+00 0. -1.
         25    1    1    2    0    0 -0.22833526789E+03  0.16910614743E+03 -0.59199799587E+02  0.31601186676E+03  0.12500000000E+03 0.  0.
         21    1    1    2  503  501  0.52463020915E+02 -0.91986533192E+02 -0.91599241646E+02  0.14001539888E+03  0.00000000000E+00 0. -1.
          1    1    1    2  501    0  0.17587224698E+03 -0.77119614235E+02 -0.37515648007E+03  0.42145090663E+03  0.00000000000E+00 0. -1.
<mgrwt>
<rscale>  4 0.31165098E+03</rscale>
<asrwt>0</asrwt>
<pdfrwt beam="1">  1       21 0.27040204E-01 0.31206331E+03</pdfrwt>
<pdfrwt beam="2">  1        1 0.10795644E+00 0.31206331E+03</pdfrwt>
<totfact> 0.39334675E+03</totfact>
</mgrwt>
</event>
<event>
 5    0  0.4930573E+000  0.2184018E+03  0.7546771E-02  0.1135080E+00
          2   -1    0    0  502    0 -0.00000000000E+00  0.00000000000E+00  0.36434474712E+03  0.36434474712E+03  0.00000000000E+00 0. -1.
         21   -1    0    0  503  502  0.00000000000E+00 -0.00000000000E+00 -0.23915869450E+03  0.23915869450E+03  0.00000000000E+00 0. -1.
         25    1    1    2    0    0  0.23605356429E+03  0.24366440120E+02 -0.47890522105E+02  0.27245827337E+03  0.12500000000E+03 0.  0.
         21    1    1    2  503  501 -0.70799917444E+02  0.50329226077E+01 -0.21416529431E+02  0.74139236258E+02  0.00000000000E+00 0. -1.
          2    1    1    2  501    0 -0.16525364685E+03 -0.29399362727E+02  0.19449310415E+03  0.25690593199E+03  0.00000000000E+00 0. -1.
<mgrwt>
<rscale>  4 0.21840182E+03</rscale>
<asrwt>0</asrwt>
<pdfrwt beam="1">  1       21 0.36793645E-01 0.21840182E+03</pdfrwt>
<pdfrwt beam="2">  1        2 0.56053038E-01 0.21840182E+03</pdfrwt>
<totfact> 0.77908399E+03</totfact>
</mgrwt>
</event>
<event>
 5    0  0.4930573E+000  0.2429324E+03  0.7546771E-02  0.1117855E+00
         21   -1    0    0  501  502  0.00000000000E+00  0.00000000000E+00  0.39488233550E+03  0.39488233550E+03  0.00000000000E+00 0.  1.
         -1   -1    0    0    0  501 -0.00000000000E+00 -0.00000000000E+00 -0.33101547015E+03  0.33101547015E+03  0.00000000000E+00 0.  1.
         25    1    1    2    0    0  0.20890943100E+03 -0.14853490856E+03  0.21292735788E+02  0.28597928250E+03  0.12500000000E+03 0.  0.
         21    1    1    2  503  502 -0.43452176592E+02  0.48512884397E+02  0.18737163832E+03  0.19836764467E+03  0.00000000000E+00 0.  1.
         -1    1    1    2    0  503 -0.16545725440E+03  0.10002202417E+03 -0.14479750876E+03  0.24155087849E+03  0.00000000000E+00 0.  1.
<mgrwt>
<rscale>  4 0.24293241E+03</rscale>
<asrwt>0</asrwt>
<pdfrwt beam="1">  1       21 0.60751129E-01 0.24293241E+03</pdfrwt>
<pdfrwt beam="2">  1       -1 0.50925457E-01 0.24293241E+03</pdfrwt>
<totfact> 0.90842295E+02</totfact>
</mgrwt>
</event>
<event>
 5    0  0.4930573E+000  0.3967350E+03  0.7546771E-02  0.1044916E+00
         21   -1    0    0  503  502  0.00000000000E+00  0.00000000000E+00  0.53292962698E+03  0.53292962698E+03  0.00000000000E+00 0.  1.
          2   -1    0    0  502    0 -0.00000000000E+00 -0.00000000000E+00 -0.39449455595E+04  0.39449455595E+04  0.00000000000E+00 0. -1.
         25    1    1    2    0    0  0.69689264291E+02  0.29552486135E+03 -0.20440476487E+03  0.38677880647E+03  0.12500000000E+03 0.  0.
         21    1    1    2  503  501  0.28571951095E+01  0.82240223822E+02  0.42767257324E+03  0.43551744842E+03  0.00000000000E+00 0.  1.
          2    1    1    2  501    0 -0.72546459401E+02 -0.37776508517E+03 -0.36352837409E+04  0.36555789316E+04  0.00000000000E+00 0. -1.
<mgrwt>
<rscale>  4 0.39673502E+03</rscale>
<asrwt>0</asrwt>
<pdfrwt beam="1">  1       21 0.81989172E-01 0.39673502E+03</pdfrwt>
<pdfrwt beam="2">  1        2 0.60691471E+00 0.39673502E+03</pdfrwt>
<totfact> 0.70161862E+00</totfact>
</mgrwt>
</event>
<event>
 5    0  0.4930573E+000  0.2488575E+03  0.7546771E-02  0.1114029E+00
          2   -1    0    0  502    0 -0.00000000000E+00  0.00000000000E+00  0.24952446661E+03  0.24952446661E+03  0.00000000000E+00 0.  1.
         21   -1    0    0  503  502  0.00000000000E+00 -0.00000000000E+00 -0.91504628501E+03  0.91504628501E+03  0.00000000000E+00 0.  1.
         25    1    1    2    0    0  0.19637114616E+03 -0.12788016541E+03 -0.13232469338E+03  0.29673184566E+03  0.12500000000E+03 0.  0.
         21    1    1    2  503  501 -0.16890834745E+02  0.20082339775E+02 -0.63464732971E+03  0.63518960459E+03  0.00000000000E+00 0.  1.
          2    1    1    2  501    0 -0.17948031141E+03  0.10779782564E+03  0.10145020469E+03  0.23264930137E+03  0.00000000000E+00 0.  1.
<mgrwt>
<rscale>  4 0.24885754E+03</rscale>
<asrwt>0</asrwt>
<pdfrwt beam="1">  1       21 0.14077635E+00 0.24885754E+03</pdfrwt>
<pdfrwt beam="2">  1        2 0.38388380E-01 0.24885754E+03</pdfrwt>
<totfact> 0.56460465E+02</totfact>
</mgrwt>
</event>
<event>
 5    0  0.4930573E+000  0.2211874E+03  0.7546771E-02  0.1133001E+00
         21   -1    0    0  501  502  0.00000000000E+00  0.00000000000E+00  0.20185377699E+03  0.20185377699E+03  0.00000000000E+00 0.  1.
         -2   -1    0    0    0  501 -0.00000000000E+00 -0.00000000000E+00 -0.38792932698E+03  0.38792932698E+03  0.00000000000E+00 0.  1.
         25    1    1    2    0    0  0.21581870872E+03 -0.71761660412E+02  0.24978139761E+01  0.25953552746E+03  0.12500000000E+03 0.  0.
         21    1    1    2  503  502 -0.14466866524E+03  0.41669377835E+02 -0.29507245805E+02  0.15341459288E+03  0.00000000000E+00 0.  1.
         -2    1    1    2    0  503 -0.71150043476E+02  0.30092282578E+02 -0.15906611816E+03  0.17683298364E+03  0.00000000000E+00 0.  1.
<mgrwt>
<rscale>  4 0.22118740E+03</rscale>
<asrwt>0</asrwt>
<pdfrwt beam="1">  1       21 0.31054427E-01 0.22118740E+03</pdfrwt>
<pdfrwt beam="2">  1       -2 0.59681434E-01 0.22118740E+03</pdfrwt>
<totfact> 0.21521730E+03</totfact>
</mgrwt>
</event>
<event>
 5    0  0.4930573E+000  0.2660234E+03  0.7546771E-02  0.1103577E+00
          1   -1    0    0  502    0 -0.00000000000E+00  0.00000000000E+00  0.31196473020E+04  0.31196473020E+04  0.00000000000E+00 0.  1.
         21   -1    0    0  503  502  0.00000000000E+00 -0.00000000000E+00 -0.71741276825E+02  0.71741276825E+02  0.00000000000E+00 0.  1.
         25    1    1    2    0    0 -0.16346658019E+03 -0.15790272940E+03  0.20714819677E+03  0.33194874637E+03  0.12500000000E+03 0.  0.
         21    1    1    2  503  501 -0.24462960784E+02  0.15898003942E+02  0.44082210733E+02  0.52862314391E+02  0.00000000000E+00 0. -1.
          1    1    1    2  501    0  0.18792954098E+03  0.14200472545E+03  0.27966756176E+04  0.28065775180E+04  0.00000000000E+00 0.  1.
<mgrwt>
<rscale>  4 0.26602344E+03</rscale>
<asrwt>0</asrwt>
<pdfrwt beam="1">  1       21 0.11037122E-01 0.26602344E+03</pdfrwt>
<pdfrwt beam="2">  1        1 0.47994563E+00 0.26602344E+03</pdfrwt>
<totfact> 0.44925583E+02</totfact>
</mgrwt>
</event>
<event>
 5    0  0.4930573E+000  0.2014445E+03  0.7546771E-02  0.1148526E+00
         -2   -1    0    0    0  501 -0.00000000000E+00  0.00000000000E+00  0.29308102982E+04  0.29308102982E+04  0.00000000000E+00 0. -1.
         21   -1    0    0  501  502  0.00000000000E+00 -0.00000000000E+00 -0.11807992101E+03  0.11807992101E+03  0.00000000000E+00 0. -1.
         25    1    1    2    0    0  0.40888904093E+02  0.20796742842E+03  0.67353897884E+02  0.25511546665E+03  0.12500000000E+03 0.  0.
         21    1    1    2  503  502  0.66889518760E+02 -0.93253393734E+02  0.12896789104E+03  0.17263580185E+03  0.00000000000E+00 0. -1.
         -2    1    1    2    0  503 -0.10777842285E+03 -0.11471403469E+03  0.26164085882E+04  0.26211389507E+04  0.00000000000E+00 0. -1.
<mgrwt>
<rscale>  4 0.20144452E+03</rscale>
<asrwt>0</asrwt>
<pdfrwt beam="1">  1       21 0.18166144E-01 0.20144452E+03</pdfrwt>
<pdfrwt beam="2">  1       -2 0.45089384E+00 0.20144452E+03</pdfrwt>
<totfact> 0.98728999E+00</totfact>
</mgrwt>
</event>
<event>
 5    0  0.4930573E+000  0.1883727E+03  0.7546771E-02  0.1159937E+00
         21   -1    0    0  503  502  0.00000000000E+00  0.00000000000E+00  0.13435447415E+03  0.13435447415E+03  0.00000000000E+00 0. -1.
          2   -1    0    0  502    0 -0.00000000000E+00 -0.00000000000E+00 -0.88540321276E+03  0.88540321276E+03  0.00000000000E+00 0. -1.
         25    1    1    2    0    0 -0.21675649297E+02  0.23429439073E+03 -0.61483155527E+02  0.27343897622E+03  0.12500000000E+03 0.  0.
         21    1    1    2  503  501  0.14030340133E+02 -0.10032167544E+03 -0.10249107715E+03  0.14410312246E+03  0.00000000000E+00 0. -1.
          2    1    1    2  501    0  0.76453091634E+01 -0.13397271530E+03 -0.58707450593E+03  0.60221558823E+03  0.00000000000E+00 0. -1.
<mgrwt>
<rscale>  4 0.18837266E+03</rscale>
<asrwt>0</asrwt>
<pdfrwt beam="1">  1       21 0.20669920E-01 0.18837266E+03</pdfrwt>
<pdfrwt beam="2">  1        2 0.13621587E+00 0.18837266E+03</pdfrwt>
<totfact> 0.85573432E+03</totfact>
</mgrwt>
</event>
<event>
 5    0  0.4930573E+000  0.2467939E+03  0.7546771E-02  0.1115348E+00
         21   -1    0    0  503  502  0.00000000000E+00  0.00000000000E+00  0.55465965135E+02  0.55465965135E+02  0.00000000000E+00 0. -1.
          1   -1    0    0  502    0 -0.00000000000E+00 -0.00000000000E+00 -0.17766680292E+04  0.17766680292E+04  0.00000000000E+00 0. -1.
         25    1    1    2    0    0  0.13612133940E+02  0.20528634579E+03 -0.35684618237E+03  0.43045553990E+03  0.12500000000E+03 0.  0.
         21    1    1    2  503  501 -0.24393791599E+02  0.91179739916E+01 -0.63446131315E+01  0.26803892144E+02  0.00000000000E+00 0. -1.
          1    1    1    2  501    0  0.10781657659E+02 -0.21440431979E+03 -0.13580112686E+04  0.13748745623E+04  0.00000000000E+00 0. -1.
<mgrwt>
<rscale>  4 0.24679386E+03</rscale>
<asrwt>0</asrwt>
<pdfrwt beam="1">  1       21 0.85332253E-02 0.24679386E+03</pdfrwt>
<pdfrwt beam="2">  1        1 0.27333355E+00 0.24679386E+03</pdfrwt>
<totfact> 0.56420161E+03</totfact>
</mgrwt>
</event>
<event>
 5    0  0.4930573E+000  0.3467492E+03  0.7546771E-02  0.1063957E+00
          2   -1    0    0  502    0 -0.00000000000E+00  0.00000000000E+00  0.13424100784E+04  0.13424100784E+04  0.00000000000E+00 0.  1.
         21   -1    0    0  503  502  0.00000000000E+00 -0.00000000000E+00 -0.53587341408E+03  0.53587341408E+03  0.00000000000E+00 0. -1.
         25    1    1    2    0    0 -0.23224500759E+03  0.27293512408E+03 -0.41531286790E+03  0.56261985723E+03  0.12500000000E+03 0.  0.
         21    1    1    2  503  501  0.53115384272E+02 -0.53126323688E+01  0.13552482393E+01  0.53397610498E+02  0.00000000000E+00 0.  1.
          2    1    1    2  501    0  0.17912962332E+03 -0.26762249171E+03  0.12204942839E+04  0.12622660247E+04  0.00000000000E+00 0.  1.
<mgrwt>
<rscale>  4 0.34674920E+03</rscale>
<asrwt>0</asrwt>
<pdfrwt beam="1">  1       21 0.82442064E-01 0.34674920E+03</pdfrwt>
<pdfrwt beam="2">  1        2 0.20652463E+00 0.34674920E+03</pdfrwt>
<totfact> 0.24952829E+02</totfact>
</mgrwt>
</event>
<event>
 5    0  0.4930573E+000  0.2739112E+03  0.7546771E-02  0.1099062E+00
          2   -1    0    0  502    0 -0.00000000000E+00  0.00000000000E+00  0.23108700675E+04  0.23108700675E+04  0.00000000000E+00 0.  1.
         21   -1    0    0  503  502  0.00000000000E+00 -0.00000000000E+00 -0.36824519486E+02  0.36824519486E+02  0.00000000000E+00 0.  1.
         25    1    1    2    0    0 -0.18238079304E+03 -0.17629967188E+03  0.86491404114E+03  0.90997012398E+03  0.12500000000E+03 0.  0.
         21    1    1    2  503  501  0.30265515421E+02 -0.87957051797E+01  0.63055569163E+02  0.70493763240E+02  0.00000000000E+00 0. -1.
          2    1    1    2  501    0  0.15211527762E+03  0.18509537706E+03  0.13460759377E+04  0.13672306997E+04  0.00000000000E+00 0.  1.
<mgrwt>
<rscale>  4 0.27391118E+03</rscale>
<asrwt>0</asrwt>
<pdfrwt beam="1">  1       21 0.56653125E-02 0.27391118E+03</pdfrwt>
<pdfrwt beam="2">  1        2 0.35551836E+00 0.27391118E+03</pdfrwt>
<totfact> 0.13982603E+04</totfact>
</mgrwt>
</event>
<event>
 5    0  0.4930573E+000  0.2407340E+03  0.7546771E-02  0.1119305E+00
          2   -1    0    0  502    0 -0.00000000000E+00  0.00000000000E+00  0.12235284860E+04  0.12235284860E+04  0.00000000000E+00 0.  1.
         21   -1    0    0  503  502  0.00000000000E+00 -0.00000000000E+00 -0.10573178090E+03  0.10573178090E+03  0.00000000000E+00 0.  1.
         25    1    1    2    0    0 -0.59532002837E+02  0.23753665083E+03  0.54582840922E+03  0.61116394868E+03  0.12500000000E+03 0.  0.
         21    1    1    2  503  501  0.47676152302E+02 -0.48249529574E+02 -0.39085626568E+02  0.78286134192E+02  0.00000000000E+00 0.  1.
          2    1    1    2  501    0  0.11855850535E+02 -0.18928712125E+03  0.61105392243E+03  0.63981018402E+03  0.00000000000E+00 0.  1.
<mgrwt>
<rscale>  4 0.24073403E+03</rscale>
<asrwt>0</asrwt>
<pdfrwt beam="1">  1       21 0.16266429E-01 0.24073403E+03</pdfrwt>
<pdfrwt beam="2">  1        2 0.18823514E+00 0.24073403E+03</pdfrwt>
<totfact> 0.82466281E+03</totfact>
</mgrwt>
</event>
<event>
 5    0  0.4930573E+000  0.3042461E+03  0.7546771E-02  0.1083137E+00
          2   -1    0    0  502    0 -0.00000000000E+00  0.00000000000E+00  0.22062298737E+04  0.22062298737E+04  0.00000000000E+00 0.  1.
         21   -1    0    0  503  502  0.00000000000E+00 -0.00000000000E+00 -0.39389887773E+02  0.39389887773E+02  0.00000000000E+00 0.  1.
         25    1    1    2    0    0 -0.98556186941E+02 -0.25928238450E+03  0.11692668322E+04  0.12082013912E+04  0.12500000000E+03 0.  0.
         21    1    1    2  503  501  0.88022604701E+02  0.21159755554E+03  0.72035466749E+03  0.75593144625E+03  0.00000000000E+00 0.  1.
          2    1    1    2  501    0  0.10533582240E+02  0.47684828956E+02  0.27721848627E+03  0.28148692402E+03  0.00000000000E+00 0.  1.
<mgrwt>
<rscale>  4 0.30424608E+03</rscale>
<asrwt>0</asrwt>
<pdfrwt beam="1">  1       21 0.60599845E-02 0.30424608E+03</pdfrwt>
<pdfrwt beam="2">  1        2 0.33941988E+00 0.30424608E+03</pdfrwt>
<totfact> 0.14041709E+04</totfact>
</mgrwt>
</event>
<event>
 5    0  0.4930573E+000  0.2463016E+03  0.7546771E-02  0.1115665E+00
         -3   -1    0    0    0  501 -0.00000000000E+00  0.00000000000E+00  0.32543205545E+03  0.32543205545E+03  0.00000000000E+00 0. -1.
         21   -1    0    0  501  502  0.00000000000E+00 -0.00000000000E+00 -0.25616934785E+03  0.25616934785E+03  0.00000000000E+00 0. -1.
         25    1    1    2    0    0 -0.23738304607E+03 -0.78278152026E+02  0.59701211110E+02  0.28577511133E+03  0.12500000000E+03 0.  0.
         21    1    1    2  503  502  0.18950685488E+03  0.52161855036E+02 -0.61773144068E+02  0.20603307621E+03  0.00000000000E+00 0. -1.
         -3    1    1    2    0  503  0.47876191192E+02  0.26116296991E+02  0.71334640559E+02  0.89793215752E+02  0.00000000000E+00 0. -1.
<mgrwt>
<rscale>  4 0.24630157E+03</rscale>
<asrwt>0</asrwt>
<pdfrwt beam="1">  1       21 0.39410669E-01 0.24630157E+03</pdfrwt>
<pdfrwt beam="2">  1       -3 0.50066470E-01 0.24630157E+03</pdfrwt>
<totfact> 0.12150949E+03</totfact>
</mgrwt>
</event>
<event>
 5    0  0.4930573E+000  0.1938149E+03  0.7546771E-02  0.1155065E+00
          2   -1    0    0  502    0 -0.00000000000E+00  0.00000000000E+00  0.22018266924E+04  0.22018266924E+04  0.00000000000E+00 0.  1.
         21   -1    0    0  503  502  0.00000000000E+00 -0.00000000000E+00 -0.61819251170E+03  0.61819251170E+03  0.00000000000E+00 0.  1.
         25    1    1    2    0    0 -0.91291581707E+02  0.27392784513E+03 -0.48579172282E+03  0.57878252840E+03  0.12500000000E+03 0.  0.
         21    1    1    2  503  501  0.21917403966E+02 -0.14381490441E+03 -0.19797483376E+02  0.14681634676E+03  0.00000000000E+00 0.  1.
          2    1    1    2  501    0  0.69374177741E+02 -0.13011294072E+03  0.20892233869E+04  0.20944203289E+04  0.00000000000E+00 0.  1.
<mgrwt>
<rscale>  4 0.19381495E+03</rscale>
<asrwt>0</asrwt>
<pdfrwt beam="1">  1       21 0.95106542E-01 0.19381495E+03</pdfrwt>
<pdfrwt beam="2">  1        2 0.33874256E+00 0.19381495E+03</pdfrwt>
<totfact> 0.69762018E+01</totfact>
</mgrwt>
</event>
<event>
 5    0  0.4930573E+000  0.4376382E+03  0.7546771E-02  0.1031474E+00
         -1   -1    0    0    0  501 -0.00000000000E+00  0.00000000000E+00  0.45997796616E+03  0.45997796616E+03  0.00000000000E+00 0. -1.
         21   -1    0    0  501  502  0.00000000000E+00 -0.00000000000E+00 -0.16799409236E+04  0.16799409236E+04  0.00000000000E+00 0. -1.
         25    1    1    2    0    0 -0.25384339826E+03  0.32201544402E+03 -0.34724177867E+03  0.55166318518E+03  0.12500000000E+03 0.  0.
         21    1    1    2  503  502  0.52102583869E+02  0.50165260734E+02 -0.11036554765E+04  0.11060228946E+04  0.00000000000E+00 0. -1.
         -1    1    1    2    0  503  0.20174081439E+03 -0.37218070475E+03  0.23093429770E+03  0.48223280999E+03  0.00000000000E+00 0. -1.
<mgrwt>
<rscale>  4 0.43763822E+03</rscale>
<asrwt>0</asrwt>
<pdfrwt beam="1">  1       21 0.25845245E+00 0.43763822E+03</pdfrwt>
<pdfrwt beam="2">  1       -1 0.70765841E-01 0.43763822E+03</pdfrwt>
<totfact> 0.95501095E+00</totfact>
</mgrwt>
</event>
<event>
 5    0  0.4930573E+000  0.3646597E+03  0.7546771E-02  0.1056754E+00
         21   -1    0    0  503  502  0.00000000000E+00  0.00000000000E+00  0.17258547487E+04  0.17258547487E+04  0.00000000000E+00 0.  1.
          4   -1    0    0  502    0 -0.00000000000E+00 -0.00000000000E+00 -0.26339821411E+03  0.26339821411E+03  0.00000000000E+00 0. -1.
         25    1    1    2    0    0 -0.34835217083E+03  0.27932395800E+03  0.12920917897E+04  0.13727699376E+04  0.12500000000E+03 0.  0.
         21    1    1    2  503  501  0.16340416914E+03 -0.16953356500E+03  0.28746618527E+03  0.37159031180E+03  0.00000000000E+00 0.  1.
          4    1    1    2  501    0  0.18494800170E+03 -0.10979039300E+03 -0.11710144043E+03  0.24489271340E+03  0.00000000000E+00 0. -1.
<mgrwt>
<rscale>  4 0.36465973E+03</rscale>
<asrwt>0</asrwt>
<pdfrwt beam="1">  1       21 0.26551611E+00 0.36465973E+03</pdfrwt>
<pdfrwt beam="2">  1        4 0.40522803E-01 0.36465973E+03</pdfrwt>
<totfact> 0.12129549E+01</totfact>
</mgrwt>
</event>
<event>
 5    0  0.4930573E+000  0.3711830E+03  0.7546771E-02  0.1054242E+00
         21   -1    0    0  503  502  0.00000000000E+00  0.00000000000E+00  0.75624238913E+03  0.75624238913E+03  0.00000000000E+00 0. -1.
          1   -1    0    0  502    0 -0.00000000000E+00 -0.00000000000E+00 -0.39804256995E+03  0.39804256995E+03  0.00000000000E+00 0.  1.
         25    1    1    2    0    0  0.58369397947E+02 -0.27766877968E+03  0.62650034491E+02  0.31631782221E+03  0.12500000000E+03 0.  0.
         21    1    1    2  503  501  0.11678055576E+03 -0.93601165833E+02  0.38913598222E+03  0.41692408075E+03  0.00000000000E+00 0. -1.
          1    1    1    2  501    0 -0.17514995371E+03  0.37126994552E+03 -0.93586197539E+02  0.42104305611E+03  0.00000000000E+00 0.  1.
<mgrwt>
<rscale>  4 0.37118295E+03</rscale>
<asrwt>0</asrwt>
<pdfrwt beam="1">  1       21 0.11634498E+00 0.37118295E+03</pdfrwt>
<pdfrwt beam="2">  1        1 0.61237319E-01 0.37118295E+03</pdfrwt>
<totfact> 0.35090232E+02</totfact>
</mgrwt>
</event>
<event>
 5    0  0.4930573E+000  0.3195842E+03  0.7546771E-02  0.1075841E+00
          2   -1    0    0  502    0 -0.00000000000E+00  0.00000000000E+00  0.11624298091E+03  0.11624298091E+03  0.00000000000E+00 0. -1.
         21   -1    0    0  503  502  0.00000000000E+00 -0.00000000000E+00 -0.36688863300E+04  0.36688863300E+04  0.00000000000E+00 0.  1.
         25    1    1    2    0    0  0.29156217628E+03  0.64337341660E+02 -0.28236388965E+04  0.28421311395E+04  0.12500000000E+03 0.  0.
         21    1    1    2  503  501  0.27162001717E+01 -0.73579871157E+02 -0.62714544967E+03  0.63145292003E+03  0.00000000000E+00 0. -1.
          2    1    1    2  501    0 -0.29427837646E+03  0.92425294966E+01 -0.10185900295E+03  0.31154525142E+03  0.00000000000E+00 0. -1.
<mgrwt>
<rscale>  4 0.31958419E+03</rscale>
<asrwt>0</asrwt>
<pdfrwt beam="1">  1       21 0.56444394E+00 0.31958419E+03</pdfrwt>
<pdfrwt beam="2">  1        2 0.17883539E-01 0.31958419E+03</pdfrwt>
<totfact> 0.20903103E+00</totfact>
</mgrwt>
</event>
<event>
 5    0  0.4930573E+000  0.2530092E+03  0.7546771E-02  0.1111418E+00
          1   -1    0    0  502    0 -0.00000000000E+00  0.00000000000E+00  0.16720491443E+04  0.16720491443E+04  0.00000000000E+00 0. -1.
         21   -1    0    0  503  502  0.00000000000E+00 -0.00000000000E+00 -0.55429506366E+03  0.55429506366E+03  0.00000000000E+00 0. -1.
         25    1    1    2    0    0  0.14919149162E+03 -0.26331051496E+03  0.39880819847E+03  0.51600727478E+03  0.12500000000E+03 0.  0.
         21    1    1    2  503  501 -0.67241482428E+02  0.72535318663E+02 -0.48176130080E+03  0.49180965867E+03  0.00000000000E+00 0. -1.
          1    1    1    2  501    0 -0.81950009190E+02  0.19077519629E+03  0.12007071829E+04  0.12185272745E+04  0.00000000000E+00 0. -1.
<mgrwt>
<rscale>  4 0.25300921E+03</rscale>
<asrwt>0</asrwt>
<pdfrwt beam="1">  1       21 0.85276164E-01 0.25300921E+03</pdfrwt>
<pdfrwt beam="2">  1        1 0.25723833E+00 0.25300921E+03</pdfrwt>
<totfact> 0.70914395E+01</totfact>
</mgrwt>
</event>
<event>
 5    0  0.4930573E+000  0.2813456E+03  0.7546771E-02  0.1094956E+00
         21   -1    0    0  503  502  0.00000000000E+00  0.00000000000E+00  0.17402253113E+03  0.17402253113E+03  0.00000000000E+00 0.  1.
          2   -1    0    0  502    0 -0.00000000000E+00 -0.00000000000E+00 -0.47925136851E+03  0.47925136851E+03  0.00000000000E+00 0.  1.
         25    1    1    2    0    0 -0.11633827839E+03  0.22973628743E+03 -0.14912902895E+03  0.32276589667E+03  0.12500000000E+03 0.  0.
         21    1    1    2  503  501 -0.17256818458E+02 -0.20252951351E+02  0.13349510064E+02  0.29768930795E+02  0.00000000000E+00 0.  1.
          2    1    1    2  501    0  0.13359509685E+03 -0.20948333607E+03 -0.16944931849E+03  0.30073907217E+03  0.00000000000E+00 0.  1.
<mgrwt>
<rscale>  4 0.28134562E+03</rscale>
<asrwt>0</asrwt>
<pdfrwt beam="1">  1       21 0.26772697E-01 0.28134562E+03</pdfrwt>
<pdfrwt beam="2">  1        2 0.73730980E-01 0.28134562E+03</pdfrwt>
<totfact> 0.10656386E+04</totfact>
</mgrwt>
</event>
<event>
 5    0  0.4930573E+000  0.2887560E+03  0.7546771E-02  0.1091000E+00
         21   -1    0    0  501  502  0.00000000000E+00  0.00000000000E+00  0.12129610774E+04  0.12129610774E+04  0.00000000000E+00 0. -1.
         -4   -1    0    0    0  501 -0.00000000000E+00 -0.00000000000E+00 -0.17707228294E+03  0.17707228294E+03  0.00000000000E+00 0. -1.
         25    1    1    2    0    0 -0.22722316073E+03  0.11658503757E+03  0.35905477821E+03  0.45800411517E+03  0.12500000000E+03 0.  0.
         21    1    1    2  503  502 -0.16305527296E+02 -0.19400094595E+02  0.66923512596E+03  0.66971478087E+03  0.00000000000E+00 0. -1.
         -4    1    1    2    0  503  0.24352868802E+03 -0.97184942975E+02  0.75988902490E+01  0.26231446427E+03  0.00000000000E+00 0. -1.
<mgrwt>
<rscale>  4 0.28875599E+03</rscale>
<asrwt>0</asrwt>
<pdfrwt beam="1">  1       21 0.18660939E+00 0.28875599E+03</pdfrwt>
<pdfrwt beam="2">  1       -4 0.27241890E-01 0.28875599E+03</pdfrwt>
<totfact> 0.84954431E+01</totfact>
</mgrwt>
</event>
<event>
 5    0  0.4930573E+000  0.2670533E+03  0.7546771E-02  0.1102978E+00
          2   -1    0    0  502    0 -0.00000000000E+00  0.00000000000E+00  0.32333223613E+04  0.32333223613E+04  0.00000000000E+00 0. -1.
         21   -1    0    0  503  502  0.00000000000E+00 -0.00000000000E+00 -0.10854762624E+03  0.10854762624E+03  0.00000000000E+00 0.  1.
         25    1    1    2    0    0 -0.22431269104E+03 -0.33250438166E+02  0.79476145112E+02  0.27085647978E+03  0.12500000000E+03 0.  0.
         21    1    1    2  503  501 -0.12173593892E+02  0.28973445359E+02  0.21730658934E+02  0.38208355917E+02  0.00000000000E+00 0. -1.
          2    1    1    2  501    0  0.23648628493E+03  0.42769928076E+01  0.30235679311E+04  0.30328051519E+04  0.00000000000E+00 0. -1.
<mgrwt>
<rscale>  4 0.26705327E+03</rscale>
<asrwt>0</asrwt>
<pdfrwt beam="1">  1       21 0.16699637E-01 0.26705327E+03</pdfrwt>
<pdfrwt beam="2">  1        2 0.49743414E+00 0.26705327E+03</pdfrwt>
<totfact> 0.60690065E+02</totfact>
</mgrwt>
</event>
<event>
 5    0  0.4930573E+000  0.4235103E+03  0.7546771E-02  0.1035930E+00
          2   -1    0    0  502    0 -0.00000000000E+00  0.00000000000E+00  0.67938556165E+03  0.67938556165E+03  0.00000000000E+00 0. -1.
         21   -1    0    0  503  502  0.00000000000E+00 -0.00000000000E+00 -0.61336180580E+03  0.61336180580E+03  0.00000000000E+00 0. -1.
         25    1    1    2    0    0 -0.36708294707E+03 -0.10624360063E+03 -0.37049863096E+03  0.54674658503E+03  0.12500000000E+03 0.  0.
         21    1    1    2  503  501 -0.34211343587E+02  0.30532679832E+02 -0.77167888113E+02  0.89763820794E+02  0.00000000000E+00 0. -1.
          2    1    1    2  501    0  0.40129429066E+03  0.75710920797E+02  0.51369027492E+03  0.65623696162E+03  0.00000000000E+00 0. -1.
<mgrwt>
<rscale>  4 0.42351030E+03</rscale>
<asrwt>0</asrwt>
<pdfrwt beam="1">  1       21 0.94363354E-01 0.42351030E+03</pdfrwt>
<pdfrwt beam="2">  1        2 0.10452086E+00 0.42351030E+03</pdfrwt>
<totfact> 0.46636007E+02</totfact>
</mgrwt>
</event>
<event>
 5    0  0.4930573E+000  0.2308910E+03  0.7546771E-02  0.1126014E+00
         21   -1    0    0  503  502  0.00000000000E+00  0.00000000000E+00  0.53427552693E+03  0.53427552693E+03  0.00000000000E+00 0. -1.
          3   -1    0    0  502    0 -0.00000000000E+00 -0.00000000000E+00 -0.11335252233E+04  0.11335252233E+04  0.00000000000E+00 0.  1.
         25    1    1    2    0    0  0.21341901975E+03 -0.42435690812E+02  0.38295538842E+03  0.45785182687E+03  0.12500000000E+03 0.  0.
         21    1    1    2  503  501 -0.29778906275E+02 -0.19125639501E+02  0.10231829471E+03  0.10826636956E+03  0.00000000000E+00 0. -1.
          3    1    1    2  501    0 -0.18364011347E+03  0.61561330313E+02 -0.10845233795E+04  0.11016825538E+04  0.00000000000E+00 0.  1.
<mgrwt>
<rscale>  4 0.23089096E+03</rscale>
<asrwt>0</asrwt>
<pdfrwt beam="1">  1       21 0.82196236E-01 0.23089096E+03</pdfrwt>
<pdfrwt beam="2">  1        3 0.17438849E+00 0.23089096E+03</pdfrwt>
<totfact> 0.14616141E+01</totfact>
</mgrwt>
</event>
<event>
 5    0  0.4930573E+000  0.2442922E+03  0.7546771E-02  0.1116966E+00
          2   -1    0    0  502    0 -0.00000000000E+00  0.00000000000E+00  0.85014663865E+03  0.85014663865E+03  0.00000000000E+00 0. -1.
         21   -1    0    0  503  502  0.00000000000E+00 -0.00000000000E+00 -0.22067091809E+03  0.22067091809E+03  0.00000000000E+00 0.  1.
         25    1    1    2    0    0 -0.24706875308E+03  0.34995712993E+02 -0.52155755992E+02  0.28392409471E+03  0.12500000000E+03 0.  0.
         21    1    1    2  503  501  0.40851915364E+02 -0.50317484841E+02 -0.94859538286E+01  0.65503523491E+02  0.00000000000E+00 0. -1.
          2    1    1    2  501    0  0.20621683772E+03  0.15321771848E+02  0.69111743038E+03  0.72138993854E+03  0.00000000000E+00 0. -1.
<mgrwt>
<rscale>  4 0.24429216E+03</rscale>
<asrwt>0</asrwt>
<pdfrwt beam="1">  1       21 0.33949372E-01 0.24429216E+03</pdfrwt>
<pdfrwt beam="2">  1        2 0.13079179E+00 0.24429216E+03</pdfrwt>
<totfact> 0.34018792E+03</totfact>
</mgrwt>
</event>
<event>
 5    0  0.4930573E+000  0.2793508E+03  0.7546771E-02  0.1096044E+00
         21   -1    0    0  503  502  0.00000000000E+00  0.00000000000E+00  0.72178502862E+03  0.72178502862E+03  0.00000000000E+00 0. -1.
          2   -1    0    0  502    0 -0.00000000000E+00 -0.00000000000E+00 -0.17480548519E+04  0.17480548519E+04  0.00000000000E+00 0. -1.
         25    1    1    2    0    0  0.33833394583E+03  0.10609379147E+03 -0.51634229811E+02  0.37949551404E+03  0.12500000000E+03 0.  0.
         21    1    1    2  503  501 -0.16481451811E+03  0.67915577835E+02  0.53341004441E+03  0.56240788274E+03  0.00000000000E+00 0. -1.
          2    1    1    2  501    0 -0.17351942773E+03 -0.17400936931E+03 -0.15080456379E+04  0.15279364837E+04  0.00000000000E+00 0. -1.
<mgrwt>
<rscale>  4 0.27935078E+03</rscale>
<asrwt>0</asrwt>
<pdfrwt beam="1">  1       21 0.11104385E+00 0.27935078E+03</pdfrwt>
<pdfrwt beam="2">  1        2 0.26893151E+00 0.27935078E+03</pdfrwt>
<totfact> 0.77149300E+01</totfact>
</mgrwt>
</event>
<event>
 5    0  0.4930573E+000  0.2622391E+03  0.7546771E-02  0.1105805E+00
         21   -1    0    0  503  502  0.00000000000E+00  0.00000000000E+00  0.31684794840E+03  0.31684794840E+03  0.00000000000E+00 0.  1.
          2   -1    0    0  502    0 -0.00000000000E+00 -0.00000000000E+00 -0.11023012550E+04  0.11023012550E+04  0.00000000000E+00 0. -1.
         25    1    1    2    0    0 -0.18780998378E+03  0.20990663702E+03 -0.66824145562E+03  0.73587025302E+03  0.12500000000E+03 0.  0.
         21    1    1    2  503  501  0.73360766517E+02 -0.52564331041E+02  0.25105025171E+03  0.26677900938E+03  0.00000000000E+00 0.  1.
          2    1    1    2  501    0  0.11444921727E+03 -0.15734230598E+03 -0.36826210265E+03  0.41649994098E+03  0.00000000000E+00 0. -1.
<mgrwt>
<rscale>  4 0.26223906E+03</rscale>
<asrwt>0</asrwt>
<pdfrwt beam="1">  1       21 0.48745839E-01 0.26223906E+03</pdfrwt>
<pdfrwt beam="2">  1        2 0.16958481E+00 0.26223906E+03</pdfrwt>
<totfact> 0.11251948E+03</totfact>
</mgrwt>
</event>
<event>
 5    0  0.4930573E+000  0.2619850E+03  0.7546771E-02  0.1105956E+00
          2   -1    0    0  502    0 -0.00000000000E+00  0.00000000000E+00  0.23777361934E+04  0.23777361934E+04  0.00000000000E+00 0.  1.
         21   -1    0    0  503  502  0.00000000000E+00 -0.00000000000E+00 -0.45095924457E+02  0.45095924457E+02  0.00000000000E+00 0.  1.
         25    1    1    2    0    0 -0.18566831580E+03  0.22616608830E+03  0.10169582441E+04  0.10655763197E+04  0.12500000000E+03 0.  0.
         21    1    1    2  503  501  0.39836881471E+02 -0.79246685629E+02  0.15783675903E+03  0.18105097848E+03  0.00000000000E+00 0.  1.
          2    1    1    2  501    0  0.14583143433E+03 -0.14691940267E+03  0.11578452658E+04  0.11762048196E+04  0.00000000000E+00 0.  1.
<mgrwt>
<rscale>  4 0.26198497E+03</rscale>
<asrwt>0</asrwt>
<pdfrwt beam="1">  1       21 0.69378364E-02 0.26198497E+03</pdfrwt>
<pdfrwt beam="2">  1        2 0.36580547E+00 0.26198497E+03</pdfrwt>
<totfact> 0.91032818E+03</totfact>
</mgrwt>
</event>
<event>
 5    0  0.4930573E+000  0.3517338E+03  0.7546771E-02  0.1061906E+00
          2   -1    0    0  502    0 -0.00000000000E+00  0.00000000000E+00  0.64348864664E+03  0.64348864664E+03  0.00000000000E+00 0.  1.
         21   -1    0    0  503  502  0.00000000000E+00 -0.00000000000E+00 -0.46881078484E+03  0.46881078484E+03  0.00000000000E+00 0.  1.
         25    1    1    2    0    0 -0.61755198475E+02  0.31639256918E+03 -0.25144806807E+03  0.42751502114E+03  0.12500000000E+03 0.  0.
         21    1    1    2  503  501  0.20726938865E+03 -0.31257110557E+03  0.22793252960E+03  0.43887872306E+03  0.00000000000E+00 0.  1.
          2    1    1    2  501    0 -0.14551419017E+03 -0.38214636083E+01  0.19819340026E+03  0.24590568727E+03  0.00000000000E+00 0.  1.
<mgrwt>
<rscale>  4 0.35173376E+03</rscale>
<asrwt>0</asrwt>
<pdfrwt beam="1">  1       21 0.72124736E-01 0.35173376E+03</pdfrwt>
<pdfrwt beam="2">  1        2 0.98998253E-01 0.35173376E+03</pdfrwt>
<totfact> 0.94904047E+02</totfact>
</mgrwt>
</event>
<event>
 5    0  0.4930573E+000  0.2228921E+03  0.7546771E-02  0.1131745E+00
          1   -1    0    0  502    0 -0.00000000000E+00  0.00000000000E+00  0.24094266454E+03  0.24094266454E+03  0.00000000000E+00 0. -1.
         21   -1    0    0  503  502  0.00000000000E+00 -0.00000000000E+00 -0.44029589980E+03  0.44029589980E+03  0.00000000000E+00 0.  1.
         25    1    1    2    0    0 -0.20347474915E+03 -0.99745708671E+02  0.92641710022E+02  0.27487936695E+03  0.12500000000E+03 0.  0.
         21    1    1    2  503  501  0.15917419615E+03  0.81928826044E+02 -0.30778897748E+03  0.35606574100E+03  0.00000000000E+00 0.  1.
          1    1    1    2  501    0  0.44300553002E+02  0.17816882627E+02  0.15794032190E+02  0.50293456390E+02  0.00000000000E+00 0. -1.
<mgrwt>
<rscale>  4 0.22289214E+03</rscale>
<asrwt>0</asrwt>
<pdfrwt beam="1">  1       21 0.67737830E-01 0.22289214E+03</pdfrwt>
<pdfrwt beam="2">  1        1 0.37068103E-01 0.22289214E+03</pdfrwt>
<totfact> 0.24812141E+03</totfact>
</mgrwt>
</event>
<event>
 5    0  0.4930573E+000  0.2795588E+03  0.7546771E-02  0.1095930E+00
         -3   -1    0    0    0  501 -0.00000000000E+00  0.00000000000E+00  0.43051383263E+03  0.43051383263E+03  0.00000000000E+00 0. -1.
         21   -1    0    0  501  502  0.00000000000E+00 -0.00000000000E+00 -0.28879555402E+03  0.28879555402E+03  0.00000000000E+00 0. -1.
         25    1    1    2    0    0  0.27064705595E+03 -0.17275827953E+02 -0.11957054692E+03  0.32166815014E+03  0.12500000000E+03 0.  0.
         21    1    1    2  503  502 -0.25410643865E+02  0.45195210293E+01 -0.13489101762E+02  0.29121860489E+02  0.00000000000E+00 0. -1.
         -3    1    1    2    0  503 -0.24523641209E+03  0.12756306924E+02  0.27477792728E+03  0.36851937602E+03  0.00000000000E+00 0. -1.
<mgrwt>
<rscale>  4 0.27955883E+03</rscale>
<asrwt>0</asrwt>
<pdfrwt beam="1">  1       21 0.44430085E-01 0.27955883E+03</pdfrwt>
<pdfrwt beam="2">  1       -3 0.66232898E-01 0.27955883E+03</pdfrwt>
<totfact> 0.53015241E+02</totfact>
</mgrwt>
</event>
<event>
 5    0  0.4930573E+000  0.2080308E+03  0.7546771E-02  0.1143135E+00
         21   -1    0    0  503  502  0.00000000000E+00  0.00000000000E+00  0.56254238534E+03  0.56254238534E+03  0.00000000000E+00 0.  1.
          1   -1    0    0  502    0 -0.00000000000E+00 -0.00000000000E+00 -0.74159413586E+03  0.74159413586E+03  0.00000000000E+00 0.  1.
         25    1    1    2    0    0  0.29865124653E+03 -0.10475662004E+02 -0.18295596097E+02  0.32444111236E+03  0.12500000000E+03 0.  0.
         21    1    1    2  503  501 -0.15440478309E+03  0.99927722583E+01  0.38514234382E+03  0.41506061912E+03  0.00000000000E+00 0.  1.
          1    1    1    2  501    0 -0.14424646344E+03  0.48288974570E+00 -0.54589849824E+03  0.56463478973E+03  0.00000000000E+00 0.  1.
<mgrwt>
<rscale>  4 0.20803080E+03</rscale>
<asrwt>0</asrwt>
<pdfrwt beam="1">  1       21 0.86544983E-01 0.20803080E+03</pdfrwt>
<pdfrwt beam="2">  1        1 0.11409140E+00 0.20803080E+03</pdfrwt>
<totfact> 0.32831105E+02</totfact>
</mgrwt>
</event>
<event>
 5    0  0.4930573E+000  0.3458749E+03  0.7546771E-02  0.1064321E+00
          2   -1    0    0  502    0 -0.00000000000E+00  0.00000000000E+00  0.10178858350E+03  0.10178858350E+03  0.00000000000E+00 0. -1.
         21   -1    0    0  503  502  0.00000000000E+00 -0.00000000000E+00 -0.24312623333E+04  0.24312623333E+04  0.00000000000E+00 0.  1.
         25    1    1    2    0    0  0.30511125963E+03 -0.14922024737E+03 -0.19746255511E+04  0.20075185255E+04  0.12500000000E+03 0.  0.
         21    1    1    2  503  501 -0.97718259567E+01  0.26162946500E+02 -0.13371394774E+03  0.13659944426E+03  0.00000000000E+00 0. -1.
          2    1    1    2  501    0 -0.29533943367E+03  0.12305730087E+03 -0.22113425093E+03  0.38893294706E+03  0.00000000000E+00 0. -1.
<mgrwt>
<rscale>  4 0.34587493E+03</rscale>
<asrwt>0</asrwt>
<pdfrwt beam="1">  1       21 0.37404031E+00 0.34587493E+03</pdfrwt>
<pdfrwt beam="2">  1        2 0.15659784E-01 0.34587493E+03</pdfrwt>
<totfact> 0.48685298E+01</totfact>
</mgrwt>
</event>
<event>
 5    0  0.4930573E+000  0.2518231E+03  0.7546771E-02  0.1112158E+00
          2   -1    0    0  502    0 -0.00000000000E+00  0.00000000000E+00  0.94813961989E+03  0.94813961989E+03  0.00000000000E+00 0.  1.
         21   -1    0    0  503  502  0.00000000000E+00 -0.00000000000E+00 -0.13257933882E+03  0.13257933882E+03  0.00000000000E+00 0.  1.
         25    1    1    2    0    0  0.20833908840E+03  0.33909555866E+01  0.45853827980E+03  0.51894029365E+03  0.12500000000E+03 0.  0.
         21    1    1    2  503  501  0.19789627804E+02  0.48000657363E+01 -0.72531839419E+02  0.75336164816E+02  0.00000000000E+00 0.  1.
          2    1    1    2  501    0 -0.22812871621E+03 -0.81910213229E+01  0.42955384069E+03  0.48644250024E+03  0.00000000000E+00 0.  1.
<mgrwt>
<rscale>  4 0.25182308E+03</rscale>
<asrwt>0</asrwt>
<pdfrwt beam="1">  1       21 0.20396822E-01 0.25182308E+03</pdfrwt>
<pdfrwt beam="2">  1        2 0.14586763E+00 0.25182308E+03</pdfrwt>
<totfact> 0.78527895E+03</totfact>
</mgrwt>
</event>
<event>
 5    0  0.4930573E+000  0.4080127E+03  0.7546771E-02  0.1041040E+00
          1   -1    0    0  502    0 -0.00000000000E+00  0.00000000000E+00  0.65004318990E+03  0.65004318990E+03  0.00000000000E+00 0. -1.
         21   -1    0    0  503  502  0.00000000000E+00 -0.00000000000E+00 -0.11602432914E+04  0.11602432914E+04  0.00000000000E+00 0.  1.
         25    1    1    2    0    0  0.13111533550E+03 -0.41933270626E+03 -0.88869943986E+03  0.99922111874E+03  0.12500000000E+03 0.  0.
         21    1    1    2  503  501 -0.55028043518E+01  0.55387460240E+02 -0.14839592903E+03  0.15849101981E+03  0.00000000000E+00 0.  1.
          1    1    1    2  501    0 -0.12561253114E+03  0.36394524602E+03  0.52689526736E+03  0.65257434277E+03  0.00000000000E+00 0. -1.
<mgrwt>
<rscale>  4 0.40801266E+03</rscale>
<asrwt>0</asrwt>
<pdfrwt beam="1">  1       21 0.17849897E+00 0.40801266E+03</pdfrwt>
<pdfrwt beam="2">  1        1 0.10000665E+00 0.40801266E+03</pdfrwt>
<totfact> 0.56323738E+01</totfact>
</mgrwt>
</event>
<event>
 5    0  0.4930573E+000  0.2466603E+03  0.7546771E-02  0.1115434E+00
          2   -1    0    0  502    0 -0.00000000000E+00  0.00000000000E+00  0.55428144826E+03  0.55428144826E+03  0.00000000000E+00 0. -1.
         21   -1    0    0  503  502  0.00000000000E+00 -0.00000000000E+00 -0.39985117106E+03  0.39985117106E+03  0.00000000000E+00 0. -1.
         25    1    1    2    0    0  0.13905734246E+03 -0.21429850397E+03 -0.28635982136E+03  0.40359353387E+03  0.12500000000E+03 0.  0.
         21    1    1    2  503  501 -0.68665845829E+02  0.16360222693E+02  0.10051708284E+02  0.71300014792E+02  0.00000000000E+00 0. -1.
          2    1    1    2  501    0 -0.70391496626E+02  0.19793828128E+03  0.43073839027E+03  0.47923907065E+03  0.00000000000E+00 0. -1.
<mgrwt>
<rscale>  4 0.24666031E+03</rscale>
<asrwt>0</asrwt>
<pdfrwt beam="1">  1       21 0.61515565E-01 0.24666031E+03</pdfrwt>
<pdfrwt beam="2">  1        2 0.85274069E-01 0.24666031E+03</pdfrwt>
<totfact> 0.16656297E+03</totfact>
</mgrwt>
</event>
<event>
 5    0  0.4930573E+000  0.2456881E+03  0.7546771E-02  0.1116061E+00
          1   -1    0    0  502    0 -0.00000000000E+00  0.00000000000E+00  0.65745790519E+03  0.65745790519E+03  0.00000000000E+00 0. -1.
         21   -1    0    0  503  502  0.00000000000E+00 -0.00000000000E+00 -0.90462986611E+02  0.90462986611E+02  0.00000000000E+00 0.  1.
         25    1    1    2    0    0  0.18469462912E+03 -0.83607194043E+02  0.30811276949E+03  0.38943644879E+03  0.12500000000E+03 0.  0.
         21    1    1    2  503  501  0.23082758795E+02  0.84021737382E+01  0.12613330936E+02  0.27613518327E+02  0.00000000000E+00 0.  1.
          1    1    1    2  501    0 -0.20777738792E+03  0.75205020305E+02  0.24626881815E+03  0.33087092468E+03  0.00000000000E+00 0. -1.
<mgrwt>
<rscale>  4 0.24568810E+03</rscale>
<asrwt>0</asrwt>
<pdfrwt beam="1">  1       21 0.13917383E-01 0.24568810E+03</pdfrwt>
<pdfrwt beam="2">  1        1 0.10114737E+00 0.24568810E+03</pdfrwt>
<totfact> 0.15282249E+04</totfact>
</mgrwt>
</event>
<event>
 5    0  0.4930573E+000  0.2466242E+03  0.7546771E-02  0.1115457E+00
          1   -1    0    0  502    0 -0.00000000000E+00  0.00000000000E+00  0.40948925648E+04  0.40948925648E+04  0.00000000000E+00 0.  1.
         21   -1    0    0  503  502  0.00000000000E+00 -0.00000000000E+00 -0.13960167101E+03  0.13960167101E+03  0.00000000000E+00 0. -1.
         25    1    1    2    0    0 -0.28356079688E+03 -0.92345546993E+02  0.18556599166E+04  0.18836223485E+04  0.12500000000E+03 0.  0.
         21    1    1    2  503  501  0.10307470368E+03  0.39632131049E+02 -0.96531806165E+02  0.14667477612E+03  0.00000000000E+00 0. -1.
          1    1    1    2  501    0  0.18048609320E+03  0.52713415944E+02  0.21961627833E+04  0.22041971112E+04  0.00000000000E+00 0.  1.
<mgrwt>
<rscale>  4 0.24662420E+03</rscale>
<asrwt>0</asrwt>
<pdfrwt beam="1">  1       21 0.21477183E-01 0.24662420E+03</pdfrwt>
<pdfrwt beam="2">  1        1 0.62998338E+00 0.24662420E+03</pdfrwt>
<totfact> 0.23476267E+01</totfact>
</mgrwt>
</event>
<event>
 5    0  0.4930573E+000  0.2526533E+03  0.7546771E-02  0.1111639E+00
          1   -1    0    0  502    0 -0.00000000000E+00  0.00000000000E+00  0.59972754633E+03  0.59972754633E+03  0.00000000000E+00 0. -1.
         21   -1    0    0  503  502  0.00000000000E+00 -0.00000000000E+00 -0.20289321474E+03  0.20289321474E+03  0.00000000000E+00 0. -1.
         25    1    1    2    0    0  0.90934926549E+02 -0.19185678718E+03 -0.35528955208E+02  0.24892869323E+03  0.12500000000E+03 0.  0.
         21    1    1    2  503  501  0.28606976318E+02  0.58496945851E+01 -0.29576851697E+02  0.41561619038E+02  0.00000000000E+00 0. -1.
          1    1    1    2  501    0 -0.11954190287E+03  0.18600709260E+03  0.46194013849E+03  0.51213044880E+03  0.00000000000E+00 0. -1.
<mgrwt>
<rscale>  4 0.25265329E+03</rscale>
<asrwt>0</asrwt>
<pdfrwt beam="1">  1       21 0.31214341E-01 0.25265329E+03</pdfrwt>
<pdfrwt beam="2">  1        1 0.92265775E-01 0.25265329E+03</pdfrwt>
<totfact> 0.37759123E+03</totfact>
</mgrwt>
</event>
<event>
 5    0  0.4930573E+000  0.4088180E+03  0.7546771E-02  0.1040768E+00
         21   -1    0    0  503  502  0.00000000000E+00  0.00000000000E+00  0.25243282568E+03  0.25243282568E+03  0.00000000000E+00 0. -1.
          2   -1    0    0  502    0 -0.00000000000E+00 -0.00000000000E+00 -0.74963379928E+03  0.74963379928E+03  0.00000000000E+00 0.  1.
         25    1    1    2    0    0 -0.35981869939E+03  0.15441091589E+03 -0.19581570182E+03  0.45528124984E+03  0.12500000000E+03 0.  0.
         21    1    1    2  503  501 -0.49572422009E+01 -0.22443359226E+02  0.29168363162E+02  0.37135859128E+02  0.00000000000E+00 0. -1.
          2    1    1    2  501    0  0.36477594159E+03 -0.13196755667E+03 -0.33055363494E+03  0.50964951599E+03  0.00000000000E+00 0.  1.
<mgrwt>
<rscale>  4 0.40881799E+03</rscale>
<asrwt>0</asrwt>
<pdfrwt beam="1">  1       21 0.38835819E-01 0.40881799E+03</pdfrwt>
<pdfrwt beam="2">  1        2 0.11532828E+00 0.40881799E+03</pdfrwt>
<totfact> 0.29188637E+03</totfact>
</mgrwt>
</event>
<event>
 5    0  0.4930573E+000  0.2231305E+03  0.7546771E-02  0.1131570E+00
          2   -1    0    0  502    0 -0.00000000000E+00  0.00000000000E+00  0.66284651302E+03  0.66284651302E+03  0.00000000000E+00 0. -1.
         21   -1    0    0  503  502  0.00000000000E+00 -0.00000000000E+00 -0.11988260370E+03  0.11988260370E+03  0.00000000000E+00 0. -1.
         25    1    1    2    0    0  0.23094221359E+03  0.78816247042E+01  0.24018404281E+03  0.35596320098E+03  0.12500000000E+03 0.  0.
         21    1    1    2  503  501 -0.68647848116E+02  0.39597452007E+02 -0.81690618169E+00  0.79253722891E+02  0.00000000000E+00 0.  1.
          2    1    1    2  501    0 -0.16229436548E+03 -0.47479076712E+02  0.30359677269E+03  0.34751219285E+03  0.00000000000E+00 0. -1.
<mgrwt>
<rscale>  4 0.22313049E+03</rscale>
<asrwt>0</asrwt>
<pdfrwt beam="1">  1       21 0.18443478E-01 0.22313049E+03</pdfrwt>
<pdfrwt beam="2">  1        2 0.10197638E+00 0.22313049E+03</pdfrwt>
<totfact> 0.15053935E+04</totfact>
</mgrwt>
</event>
<event>
 5    0  0.4930573E+000  0.2073055E+03  0.7546771E-02  0.1143718E+00
          4   -1    0    0  502    0 -0.00000000000E+00  0.00000000000E+00  0.47629381232E+03  0.47629381232E+03  0.00000000000E+00 0.  1.
         21   -1    0    0  503  502  0.00000000000E+00 -0.00000000000E+00 -0.36396795696E+03  0.36396795696E+03  0.00000000000E+00 0.  1.
         25    1    1    2    0    0 -0.85202207894E+02 -0.23895407060E+03  0.31529916036E+02  0.28456563336E+03  0.12500000000E+03 0.  0.
         21    1    1    2  503  501  0.27000717982E+02  0.98300466691E+02 -0.20665388517E+03  0.23042970463E+03  0.00000000000E+00 0.  1.
          4    1    1    2  501    0  0.58201489912E+02  0.14065360391E+03  0.28744982449E+03  0.32526643128E+03  0.00000000000E+00 0.  1.
<mgrwt>
<rscale>  4 0.20730550E+03</rscale>
<asrwt>0</asrwt>
<pdfrwt beam="1">  1       21 0.55995070E-01 0.20730550E+03</pdfrwt>
<pdfrwt beam="2">  1        4 0.73275972E-01 0.20730550E+03</pdfrwt>
<totfact> 0.21732289E+02</totfact>
</mgrwt>
</event>
<event>
 5    0  0.4930573E+000  0.1923815E+03  0.7546771E-02  0.1156331E+00
         -1   -1    0    0    0  501 -0.00000000000E+00  0.00000000000E+00  0.50528807351E+03  0.50528807351E+03  0.00000000000E+00 0. -1.
         21   -1    0    0  501  502  0.00000000000E+00 -0.00000000000E+00 -0.30251833677E+03  0.30251833677E+03  0.00000000000E+00 0.  1.
         25    1    1    2    0    0  0.75037001943E+02  0.24577075586E+03 -0.76535291645E+02  0.29583182210E+03  0.12500000000E+03 0.  0.
         21    1    1    2  503  502 -0.29370173727E+01 -0.12726063540E+03 -0.63436103181E+02  0.14222529515E+03  0.00000000000E+00 0.  1.
         -1    1    1    2    0  503 -0.72099984571E+02 -0.11851012046E+03  0.34274113157E+03  0.36974929303E+03  0.00000000000E+00 0. -1.
<mgrwt>
<rscale>  4 0.19238147E+03</rscale>
<asrwt>0</asrwt>
<pdfrwt beam="1">  1       21 0.46541283E-01 0.19238147E+03</pdfrwt>
<pdfrwt beam="2">  1       -1 0.77736627E-01 0.19238147E+03</pdfrwt>
<totfact> 0.71481208E+02</totfact>
</mgrwt>
</event>
<event>
 5    0  0.4930573E+000  0.2198995E+03  0.7546771E-02  0.1133958E+00
          2   -1    0    0  502    0 -0.00000000000E+00  0.00000000000E+00  0.21134784298E+04  0.21134784298E+04  0.00000000000E+00 0. -1.
         21   -1    0    0  503  502  0.00000000000E+00 -0.00000000000E+00 -0.52370461548E+02  0.52370461548E+02  0.00000000000E+00 0. -1.
         25    1    1    2    0    0 -0.73489614763E+02 -0.21865384735E+03  0.91230585943E+03  0.94928247092E+03  0.12500000000E+03 0.  0.
         21    1    1    2  503  501  0.93008313839E+02  0.14261019491E+03  0.19227433254E+03  0.25682218185E+03  0.00000000000E+00 0. -1.
          2    1    1    2  501    0 -0.19518699076E+02  0.76043652440E+02  0.95652777630E+03  0.95974423860E+03  0.00000000000E+00 0. -1.
<mgrwt>
<rscale>  4 0.21989954E+03</rscale>
<asrwt>0</asrwt>
<pdfrwt beam="1">  1       21 0.80569957E-02 0.21989954E+03</pdfrwt>
<pdfrwt beam="2">  1        2 0.32515046E+00 0.21989954E+03</pdfrwt>
<totfact> 0.98532085E+03</totfact>
</mgrwt>
</event>
<event>
 5    0  0.4930573E+000  0.3155344E+03  0.7546771E-02  0.1077723E+00
         -3   -1    0    0    0  501 -0.00000000000E+00  0.00000000000E+00  0.13070060232E+04  0.13070060232E+04  0.00000000000E+00 0. -1.
         21   -1    0    0  501  502  0.00000000000E+00 -0.00000000000E+00 -0.49228649759E+03  0.49228649759E+03  0.00000000000E+00 0.  1.
         25    1    1    2    0    0 -0.54071859962E+02 -0.36944989813E+03 -0.30892959071E+03  0.50047925560E+03  0.12500000000E+03 0.  0.
         21    1    1    2  503  502  0.89825693510E+02  0.85077669768E+02 -0.15017929046E+02  0.12462906282E+03  0.00000000000E+00 0.  1.
         -3    1    1    2    0  503 -0.35753833548E+02  0.28437222836E+03  0.11386670454E+04  0.11741842024E+04  0.00000000000E+00 0. -1.
<mgrwt>
<rscale>  4 0.31553439E+03</rscale>
<asrwt>0</asrwt>
<pdfrwt beam="1">  1       21 0.75736384E-01 0.31553439E+03</pdfrwt>
<pdfrwt beam="2">  1       -3 0.20107785E+00 0.31553439E+03</pdfrwt>
<totfact> 0.11392148E+01</totfact>
</mgrwt>
</event>
<event>
 5    0  0.4930573E+000  0.5444052E+03  0.7546771E-02  0.1002797E+00
         21   -1    0    0  503  502  0.00000000000E+00  0.00000000000E+00  0.47317919707E+03  0.47317919707E+03  0.00000000000E+00 0.  1.
          2   -1    0    0  502    0 -0.00000000000E+00 -0.00000000000E+00 -0.70778358770E+03  0.70778358770E+03  0.00000000000E+00 0.  1.
         25    1    1    2    0    0  0.11653064907E+03  0.53404956881E+03 -0.49466768275E+02  0.56290345112E+03  0.12500000000E+03 0.  0.
         21    1    1    2  503  501  0.20701025555E+02 -0.33546057274E+02  0.36513541348E+02  0.53731825945E+02  0.00000000000E+00 0.  1.
          2    1    1    2  501    0 -0.13723167463E+03 -0.50050351154E+03 -0.22165116370E+03  0.56432750770E+03  0.00000000000E+00 0.  1.
<mgrwt>
<rscale>  4 0.54440523E+03</rscale>
<asrwt>0</asrwt>
<pdfrwt beam="1">  1       21 0.72796800E-01 0.54440523E+03</pdfrwt>
<pdfrwt beam="2">  1        2 0.10888978E+00 0.54440523E+03</pdfrwt>
<totfact> 0.78812983E+02</totfact>
</mgrwt>
</event>
<event>
 5    0  0.4930573E+000  0.2903169E+03  0.7546771E-02  0.1090184E+00
          1   -1    0    0  502    0 -0.00000000000E+00  0.00000000000E+00  0.51495216566E+03  0.51495216566E+03  0.00000000000E+00 0.  1.
         21   -1    0    0  503  502  0.00000000000E+00 -0.00000000000E+00 -0.20756432430E+03  0.20756432430E+03  0.00000000000E+00 0.  1.
         25    1    1    2    0    0 -0.17765182387E+03 -0.19261026940E+03  0.34684624782E+03  0.45231206708E+03  0.12500000000E+03 0.  0.
         21    1    1    2  503  501  0.23779173581E+02  0.46668093238E+02 -0.23861750257E+02  0.57556434462E+02  0.00000000000E+00 0. -1.
          1    1    1    2  501    0  0.15387265029E+03  0.14594217616E+03 -0.15596656196E+02  0.21264798841E+03  0.00000000000E+00 0.  1.
<mgrwt>
<rscale>  4 0.29031687E+03</rscale>
<asrwt>0</asrwt>
<pdfrwt beam="1">  1       21 0.31932973E-01 0.29031687E+03</pdfrwt>
<pdfrwt beam="2">  1        1 0.79223410E-01 0.29031687E+03</pdfrwt>
<totfact> 0.44025317E+03</totfact>
</mgrwt>
</event>
<event>
 5    0  0.4930573E+000  0.4520547E+03  0.7546771E-02  0.1027111E+00
          2   -1    0    0  502    0 -0.00000000000E+00  0.00000000000E+00  0.23055565231E+04  0.23055565231E+04  0.00000000000E+00 0. -1.
         21   -1    0    0  503  502  0.00000000000E+00 -0.00000000000E+00 -0.49526635411E+03  0.49526635411E+03  0.00000000000E+00 0. -1.
         25    1    1    2    0    0 -0.39270762753E+03  0.16569348962E+03  0.38722490875E+03  0.58927221483E+03  0.12500000000E+03 0.  0.
         21    1    1    2  503  501 -0.23873060394E+01  0.20169915795E+02 -0.36773209624E+03  0.36829257302E+03  0.00000000000E+00 0. -1.
          2    1    1    2  501    0  0.39509493357E+03 -0.18586340542E+03  0.17907973565E+04  0.18432580894E+04  0.00000000000E+00 0. -1.
<mgrwt>
<rscale>  4 0.45205467E+03</rscale>
<asrwt>0</asrwt>
<pdfrwt beam="1">  1       21 0.76194825E-01 0.45205467E+03</pdfrwt>
<pdfrwt beam="2">  1        2 0.35470100E+00 0.45205467E+03</pdfrwt>
<totfact> 0.86451565E+01</totfact>
</mgrwt>
</event>
<event>
 5    0  0.4930573E+000  0.2673632E+03  0.7546771E-02  0.1102798E+00
         21   -1    0    0  503  502  0.00000000000E+00  0.00000000000E+00  0.17502497961E+03  0.17502497961E+03  0.00000000000E+00 0. -1.
          2   -1    0    0  502    0 -0.00000000000E+00 -0.00000000000E+00 -0.17859233285E+04  0.17859233285E+04  0.00000000000E+00 0.  1.
         25    1    1    2    0    0 -0.20635530703E+03 -0.54430640880E+02  0.48312840108E+02  0.25200067049E+03  0.12500000000E+03 0.  0.
         21    1    1    2  503  501 -0.31428787777E+02  0.45608407379E+02 -0.31064274486E+02  0.63504997237E+02  0.00000000000E+00 0.  1.
          2    1    1    2  501    0  0.23778409481E+03  0.88222335012E+01 -0.16281469146E+04  0.16454426404E+04  0.00000000000E+00 0.  1.
<mgrwt>
<rscale>  4 0.26736324E+03</rscale>
<asrwt>0</asrwt>
<pdfrwt beam="1">  1       21 0.26926920E-01 0.26736324E+03</pdfrwt>
<pdfrwt beam="2">  1        2 0.27475744E+00 0.26736324E+03</pdfrwt>
<totfact> 0.15698499E+03</totfact>
</mgrwt>
</event>
<event>
 5    0  0.4930573E+000  0.3211349E+03  0.7546771E-02  0.1075128E+00
          4   -1    0    0  502    0 -0.00000000000E+00  0.00000000000E+00  0.46593860474E+03  0.46593860474E+03  0.00000000000E+00 0.  1.
         21   -1    0    0  503  502  0.00000000000E+00 -0.00000000000E+00 -0.51138875513E+03  0.51138875513E+03  0.00000000000E+00 0.  1.
         25    1    1    2    0    0  0.13364287022E+03  0.32864127054E+03 -0.26791118437E+03  0.46180829808E+03  0.12500000000E+03 0.  0.
         21    1    1    2  503  501 -0.77719666661E+01 -0.71205363286E+02 -0.74148118505E+02  0.10309486265E+03  0.00000000000E+00 0. -1.
          4    1    1    2  501    0 -0.12587090355E+03 -0.25743590726E+03  0.29660915248E+03  0.41242419915E+03  0.00000000000E+00 0.  1.
<mgrwt>
<rscale>  4 0.32113489E+03</rscale>
<asrwt>0</asrwt>
<pdfrwt beam="1">  1       21 0.78675193E-01 0.32113489E+03</pdfrwt>
<pdfrwt beam="2">  1        4 0.71682862E-01 0.32113489E+03</pdfrwt>
<totfact> 0.10571106E+02</totfact>
</mgrwt>
</event>
<event>
 5    0  0.4930573E+000  0.4926569E+03  0.7546771E-02  0.1015714E+00
         21   -1    0    0  503  502  0.00000000000E+00  0.00000000000E+00  0.18571181339E+03  0.18571181339E+03  0.00000000000E+00 0. -1.
          1   -1    0    0  502    0 -0.00000000000E+00 -0.00000000000E+00 -0.19578665747E+04  0.19578665747E+04  0.00000000000E+00 0. -1.
         25    1    1    2    0    0  0.51900171048E+03  0.30001929671E+02 -0.41602217918E+03  0.67746759689E+03  0.12500000000E+03 0.  0.
         21    1    1    2  503  501 -0.55755419500E+02 -0.16007047684E+02 -0.39208994554E+02  0.70015981269E+02  0.00000000000E+00 0. -1.
          1    1    1    2  501    0 -0.46324629097E+03 -0.13994881987E+02 -0.13169235875E+04  0.13960948099E+04  0.00000000000E+00 0. -1.
<mgrwt>
<rscale>  4 0.49265688E+03</rscale>
<asrwt>0</asrwt>
<pdfrwt beam="1">  1       21 0.28571048E-01 0.49265688E+03</pdfrwt>
<pdfrwt beam="2">  1        1 0.30121024E+00 0.49265688E+03</pdfrwt>
<totfact> 0.42057270E+02</totfact>
</mgrwt>
</event>
<event>
 5    0  0.4930573E+000  0.3576829E+03  0.7546771E-02  0.1059505E+00
          1   -1    0    0  502    0 -0.00000000000E+00  0.00000000000E+00  0.10441127463E+04  0.10441127463E+04  0.00000000000E+00 0. -1.
         21   -1    0    0  503  502  0.00000000000E+00 -0.00000000000E+00 -0.25756472193E+03  0.25756472193E+03  0.00000000000E+00 0. -1.
         25    1    1    2    0    0  0.32530029730E+03 -0.73011057829E+02 -0.87464525346E+01  0.35616344341E+03  0.12500000000E+03 0.  0.
         21    1    1    2  503  501  0.61616165135E+01  0.20830673343E+02 -0.39903535255E+02  0.45433188264E+02  0.00000000000E+00 0.  1.
          1    1    1    2  501    0 -0.33146191382E+03  0.52180384486E+02  0.83519801219E+03  0.90008083659E+03  0.00000000000E+00 0. -1.
<mgrwt>
<rscale>  4 0.35768295E+03</rscale>
<asrwt>0</asrwt>
<pdfrwt beam="1">  1       21 0.39625342E-01 0.35768295E+03</pdfrwt>
<pdfrwt beam="2">  1        1 0.16063273E+00 0.35768295E+03</pdfrwt>
<totfact> 0.95411160E+02</totfact>
</mgrwt>
</event>
<event>
 5    0  0.4930573E+000  0.3040657E+03  0.7546771E-02  0.1083226E+00
         21   -1    0    0  503  502  0.00000000000E+00  0.00000000000E+00  0.10981995609E+04  0.10981995609E+04  0.00000000000E+00 0. -1.
          1   -1    0    0  502    0 -0.00000000000E+00 -0.00000000000E+00 -0.70001514592E+03  0.70001514592E+03  0.00000000000E+00 0. -1.
         25    1    1    2    0    0 -0.19667099777E+02 -0.24551227667E+03  0.10193603326E+04  0.10561172097E+04  0.12500000000E+03 0.  0.
         21    1    1    2  503  501 -0.71919744447E+01 -0.31226199179E+02  0.23687182686E+02  0.39848245070E+02  0.00000000000E+00 0. -1.
          1    1    1    2  501    0  0.26859074221E+02  0.27673847585E+03 -0.64486310033E+03  0.70224925209E+03  0.00000000000E+00 0. -1.
<mgrwt>
<rscale>  4 0.30406567E+03</rscale>
<asrwt>0</asrwt>
<pdfrwt beam="1">  1       21 0.16895378E+00 0.30406567E+03</pdfrwt>
<pdfrwt beam="2">  1        1 0.10769464E+00 0.30406567E+03</pdfrwt>
<totfact> 0.62467813E+01</totfact>
</mgrwt>
</event>
<event>
 5    0  0.4930573E+000  0.3430707E+03  0.7546771E-02  0.1065496E+00
         21   -1    0    0  503  502  0.00000000000E+00  0.00000000000E+00  0.82361063108E+03  0.82361063108E+03  0.00000000000E+00 0. -1.
          2   -1    0    0  502    0 -0.00000000000E+00 -0.00000000000E+00 -0.48631096533E+03  0.48631096533E+03  0.00000000000E+00 0. -1.
         25    1    1    2    0    0  0.26325895825E+03 -0.92738532569E+02  0.61552480294E+03  0.68731470052E+03  0.12500000000E+03 0.  0.
         21    1    1    2  503  501  0.42588880080E+02 -0.11474629831E+02  0.10940879250E+03  0.11796509532E+03  0.00000000000E+00 0.  1.
          2    1    1    2  501    0 -0.30584783833E+03  0.10421316240E+03 -0.38763392970E+03  0.50464180057E+03  0.00000000000E+00 0. -1.
<mgrwt>
<rscale>  4 0.34307075E+03</rscale>
<asrwt>0</asrwt>
<pdfrwt beam="1">  1       21 0.12670933E+00 0.34307075E+03</pdfrwt>
<pdfrwt beam="2">  1        2 0.74817072E-01 0.34307075E+03</pdfrwt>
<totfact> 0.34244482E+02</totfact>
</mgrwt>
</event>
<event>
 5    0  0.4930573E+000  0.2791544E+03  0.7546771E-02  0.1096152E+00
          2   -1    0    0  502    0 -0.00000000000E+00  0.00000000000E+00  0.17052921718E+04  0.17052921718E+04  0.00000000000E+00 0. -1.
         21   -1    0    0  503  502  0.00000000000E+00 -0.00000000000E+00 -0.50627692432E+02  0.50627692432E+02  0.00000000000E+00 0. -1.
         25    1    1    2    0    0  0.22290440816E+03  0.13242270874E+03  0.10751510676E+04  0.11130125638E+04  0.12500000000E+03 0.  0.
         21    1    1    2  503  501 -0.24467771875E+02 -0.17840477486E+01  0.11268891138E+02  0.26997084924E+02  0.00000000000E+00 0. -1.
          2    1    1    2  501    0 -0.19843663628E+03 -0.13063866099E+03  0.56824452059E+03  0.61591021549E+03  0.00000000000E+00 0. -1.
<mgrwt>
<rscale>  4 0.27915436E+03</rscale>
<asrwt>0</asrwt>
<pdfrwt beam="1">  1       21 0.77888771E-02 0.27915436E+03</pdfrwt>
<pdfrwt beam="2">  1        2 0.26235260E+00 0.27915436E+03</pdfrwt>
<totfact> 0.16799060E+04</totfact>
</mgrwt>
</event>
<event>
 5    0  0.4930573E+000  0.2459798E+03  0.7546771E-02  0.1115872E+00
         21   -1    0    0  503  502  0.00000000000E+00  0.00000000000E+00  0.78850975621E+02  0.78850975621E+02  0.00000000000E+00 0. -1.
          2   -1    0    0  502    0 -0.00000000000E+00 -0.00000000000E+00 -0.17575348864E+04  0.17575348864E+04  0.00000000000E+00 0. -1.
         25    1    1    2    0    0 -0.11088036425E+03 -0.20828423437E+03 -0.38122223136E+03  0.46543760822E+03  0.12500000000E+03 0.  0.
         21    1    1    2  503  501  0.21489346743E+02  0.21302844776E+02  0.20655848646E+02  0.36636966336E+02  0.00000000000E+00 0. -1.
          2    1    1    2  501    0  0.89391017504E+02  0.18698138960E+03 -0.13181175281E+04  0.13343112875E+04  0.00000000000E+00 0. -1.
<mgrwt>
<rscale>  4 0.24597975E+03</rscale>
<asrwt>0</asrwt>
<pdfrwt beam="1">  1       21 0.12130922E-01 0.24597975E+03</pdfrwt>
<pdfrwt beam="2">  1        2 0.27038993E+00 0.24597975E+03</pdfrwt>
<totfact> 0.72513698E+03</totfact>
</mgrwt>
</event>
<event>
 5    0  0.4930573E+000  0.2903133E+03  0.7546771E-02  0.1090186E+00
         21   -1    0    0  503  502  0.00000000000E+00  0.00000000000E+00  0.28045889309E+03  0.28045889309E+03  0.00000000000E+00 0.  1.
          1   -1    0    0  502    0 -0.00000000000E+00 -0.00000000000E+00 -0.40888156501E+03  0.40888156501E+03  0.00000000000E+00 0. -1.
         25    1    1    2    0    0 -0.46574847212E+02  0.29348049413E+03  0.21889582747E+02  0.32311634230E+03  0.12500000000E+03 0.  0.
         21    1    1    2  503  501 -0.14913426905E+02 -0.51929970239E+02  0.26938561042E+02  0.60372329606E+02  0.00000000000E+00 0.  1.
          1    1    1    2  501    0  0.61488274117E+02 -0.24155052389E+03 -0.17725081571E+03  0.30585178619E+03  0.00000000000E+00 0. -1.
<mgrwt>
<rscale>  4 0.29031331E+03</rscale>
<asrwt>0</asrwt>
<pdfrwt beam="1">  1       21 0.43147522E-01 0.29031331E+03</pdfrwt>
<pdfrwt beam="2">  1        1 0.62904856E-01 0.29031331E+03</pdfrwt>
<totfact> 0.32481099E+03</totfact>
</mgrwt>
</event>
<event>
 5    0  0.4930573E+000  0.2473872E+03  0.7546771E-02  0.1114967E+00
         21   -1    0    0  503  502  0.00000000000E+00  0.00000000000E+00  0.33416270388E+03  0.33416270388E+03  0.00000000000E+00 0.  1.
          1   -1    0    0  502    0 -0.00000000000E+00 -0.00000000000E+00 -0.38158905470E+03  0.38158905470E+03  0.00000000000E+00 0.  1.
         25    1    1    2    0    0  0.14495361350E+03 -0.17599374677E+03 -0.16906051861E+03  0.31014804195E+03  0.12500000000E+03 0.  0.
         21    1    1    2  503  501  0.21046303009E+02  0.60530818506E+02  0.18331859070E+03  0.19419740615E+03  0.00000000000E+00 0.  1.
          1    1    1    2  501    0 -0.16599991651E+03  0.11546292827E+03 -0.61684422903E+02  0.21140631049E+03  0.00000000000E+00 0.  1.
<mgrwt>
<rscale>  4 0.24738720E+03</rscale>
<asrwt>0</asrwt>
<pdfrwt beam="1">  1       21 0.51409647E-01 0.24738720E+03</pdfrwt>
<pdfrwt beam="2">  1        1 0.58706008E-01 0.24738720E+03</pdfrwt>
<totfact> 0.24943013E+03</totfact>
</mgrwt>
</event>
<event>
 5    0  0.4930573E+000  0.3139301E+03  0.7546771E-02  0.1078477E+00
         21   -1    0    0  503  502  0.00000000000E+00  0.00000000000E+00  0.51241517220E+03  0.51241517220E+03  0.00000000000E+00 0. -1.
          2   -1    0    0  502    0 -0.00000000000E+00 -0.00000000000E+00 -0.16098615195E+04  0.16098615195E+04  0.00000000000E+00 0.  1.
         25    1    1    2    0    0  0.33419286756E+03 -0.42895988633E+03  0.17642624040E+03  0.58518601753E+03  0.12500000000E+03 0.  0.
         21    1    1    2  503  501 -0.19284314627E+03  0.18986109075E+03 -0.41474893614E+02  0.27378071452E+03  0.00000000000E+00 0. -1.
          2    1    1    2  501    0 -0.14134972130E+03  0.23909879558E+03 -0.12323976941E+04  0.12633099596E+04  0.00000000000E+00 0.  1.
<mgrwt>
<rscale>  4 0.31393008E+03</rscale>
<asrwt>0</asrwt>
<pdfrwt beam="1">  1       21 0.78833103E-01 0.31393008E+03</pdfrwt>
<pdfrwt beam="2">  1        2 0.24767100E+00 0.31393008E+03</pdfrwt>
<totfact> 0.20113534E+02</totfact>
</mgrwt>
</event>
<event>
 5    0  0.4930573E+000  0.2409563E+03  0.7546771E-02  0.1119157E+00
          2   -1    0    0  502    0 -0.00000000000E+00  0.00000000000E+00  0.27238306709E+04  0.27238306709E+04  0.00000000000E+00 0. -1.
         21   -1    0    0  503  502  0.00000000000E+00 -0.00000000000E+00 -0.61856280766E+02  0.61856280766E+02  0.00000000000E+00 0. -1.
         25    1    1    2    0    0  0.22410221825E+03  0.21158345562E+02  0.25821363086E+03  0.36464881595E+03  0.12500000000E+03 0.  0.
         21    1    1    2  503  501 -0.23041603914E+02  0.16075971134E+02  0.42542212745E+02  0.50982273626E+02  0.00000000000E+00 0. -1.
          2    1    1    2  501    0 -0.20106061433E+03 -0.37234316696E+02  0.23612185465E+04  0.23700558621E+04  0.00000000000E+00 0. -1.
<mgrwt>
<rscale>  4 0.24095635E+03</rscale>
<asrwt>0</asrwt>
<pdfrwt beam="1">  1       21 0.95163530E-02 0.24095635E+03</pdfrwt>
<pdfrwt beam="2">  1        2 0.41905078E+00 0.24095635E+03</pdfrwt>
<totfact> 0.34038018E+03</totfact>
</mgrwt>
</event>
<event>
 5    0  0.4930573E+000  0.4044417E+03  0.7546771E-02  0.1042252E+00
         21   -1    0    0  503  502  0.00000000000E+00  0.00000000000E+00  0.10132461933E+03  0.10132461933E+03  0.00000000000E+00 0. -1.
          2   -1    0    0  502    0 -0.00000000000E+00 -0.00000000000E+00 -0.30983454770E+04  0.30983454770E+04  0.00000000000E+00 0. -1.
         25    1    1    2    0    0  0.11261567781E+03 -0.36901335204E+03 -0.66698566248E+03  0.78060746783E+03  0.12500000000E+03 0.  0.
         21    1    1    2  503  501  0.22971276728E+02  0.92248049168E+01  0.23616597949E+02  0.34212867155E+02  0.00000000000E+00 0. -1.
          2    1    1    2  501    0 -0.13558695453E+03  0.35978854712E+03 -0.23536517931E+04  0.23848497614E+04  0.00000000000E+00 0. -1.
<mgrwt>
<rscale>  4 0.40444173E+03</rscale>
<asrwt>0</asrwt>
<pdfrwt beam="1">  1       21 0.15588406E-01 0.40444173E+03</pdfrwt>
<pdfrwt beam="2">  1        2 0.47666843E+00 0.40444173E+03</pdfrwt>
<totfact> 0.78071076E+02</totfact>
</mgrwt>
</event>
<event>
 5    0  0.4930573E+000  0.3250886E+03  0.7546771E-02  0.1073331E+00
         -1   -1    0    0    0  501 -0.00000000000E+00  0.00000000000E+00  0.48962260996E+03  0.48962260996E+03  0.00000000000E+00 0.  1.
         21   -1    0    0  501  502  0.00000000000E+00 -0.00000000000E+00 -0.43461556305E+03  0.43461556305E+03  0.00000000000E+00 0.  1.
         25    1    1    2    0    0  0.68220629704E+02 -0.30217234315E+03 -0.88571306889E+02  0.34558943226E+03  0.12500000000E+03 0.  0.
         21    1    1    2  503  502  0.13551143620E+03  0.29558331933E+03 -0.69723202906E+01  0.32524062055E+03  0.00000000000E+00 0.  1.
         -1    1    1    2    0  503 -0.20373206591E+03  0.65890238217E+01  0.15055067409E+03  0.25340812020E+03  0.00000000000E+00 0.  1.
<mgrwt>
<rscale>  4 0.32508858E+03</rscale>
<asrwt>0</asrwt>
<pdfrwt beam="1">  1       21 0.66863933E-01 0.32508858E+03</pdfrwt>
<pdfrwt beam="2">  1       -1 0.75326556E-01 0.32508858E+03</pdfrwt>
<totfact> 0.33379945E+02</totfact>
</mgrwt>
</event>
<event>
 5    0  0.4930573E+000  0.2116049E+03  0.7546771E-02  0.1140301E+00
          2   -1    0    0  502    0 -0.00000000000E+00  0.00000000000E+00  0.14775188504E+03  0.14775188504E+03  0.00000000000E+00 0.  1.
         21   -1    0    0  503  502  0.00000000000E+00 -0.00000000000E+00 -0.11237209048E+04  0.11237209048E+04  0.00000000000E+00 0.  1.
         25    1    1    2    0    0  0.18290677751E+03 -0.12183432350E+03 -0.49372590181E+03  0.55469699634E+03  0.12500000000E+03 0.  0.
         21    1    1    2  503  501 -0.59454302351E+02  0.11735368682E+02 -0.53861884982E+03  0.54201734135E+03  0.00000000000E+00 0.  1.
          2    1    1    2  501    0 -0.12345247516E+03  0.11009895481E+03  0.56375731820E+02  0.17475845219E+03  0.00000000000E+00 0.  1.
<mgrwt>
<rscale>  4 0.21160494E+03</rscale>
<asrwt>0</asrwt>
<pdfrwt beam="1">  1       21 0.17288014E+00 0.21160494E+03</pdfrwt>
<pdfrwt beam="2">  1        2 0.22731059E-01 0.21160494E+03</pdfrwt>
<totfact> 0.59120378E+02</totfact>
</mgrwt>
</event>
<event>
 5    0  0.4930573E+000  0.2168047E+03  0.7546771E-02  0.1136288E+00
          2   -1    0    0  502    0 -0.00000000000E+00  0.00000000000E+00  0.12212007132E+04  0.12212007132E+04  0.00000000000E+00 0.  1.
         21   -1    0    0  503  502  0.00000000000E+00 -0.00000000000E+00 -0.64984238150E+03  0.64984238150E+03  0.00000000000E+00 0. -1.
         25    1    1    2    0    0 -0.10608552072E+03 -0.18156397804E+03  0.50829991804E+03  0.56410408836E+03  0.12500000000E+03 0.  0.
         21    1    1    2  503  501  0.23478631909E+02  0.38402214929E+02 -0.61113004729E+03  0.61278537105E+03  0.00000000000E+00 0. -1.
          2    1    1    2  501    0  0.82606888812E+02  0.14316176311E+03  0.67418846094E+03  0.69415363527E+03  0.00000000000E+00 0.  1.
<mgrwt>
<rscale>  4 0.21680467E+03</rscale>
<asrwt>0</asrwt>
<pdfrwt beam="1">  1       21 0.99975751E-01 0.21680467E+03</pdfrwt>
<pdfrwt beam="2">  1        2 0.18787703E+00 0.21680467E+03</pdfrwt>
<totfact> 0.20015487E+02</totfact>
</mgrwt>
</event>
