<event>
 5    0  0.1943430E+001  0.2582617E+03  0.7546771E-02  0.1108192E+00
         21   -1    0    0  503  501  0.00000000000E+00  0.00000000000E+00  0.21401623917E+03  0.21401623917E+03  0.00000000000E+00 0. -1.
         21   -1    0    0  504  502 -0.00000000000E+00 -0.00000000000E+00 -0.15660937543E+04  0.15660937543E+04  0.00000000000E+00 0. -1.
         25    1    1    2    0    0  0.14062152354E+03  0.15865087648E+03  0.62197821599E+02  0.25384657276E+03  0.12500000000E+03 0.  0.
         21    1    1    2  503  502  0.18217173336E+03  0.50467587828E+02 -0.44696712598E+03  0.48529694988E+03  0.00000000000E+00 0. -1.
         21    1    1    2  504  501 -0.32279325690E+03 -0.20911846431E+03 -0.96730821073E+03  0.10409664708E+04  0.00000000000E+00 0. -1.
<mgrwt>
<rscale>  4 0.25826166E+03</rscale>
<asrwt>0</asrwt>
<pdfrwt beam="1">  1       21 0.32925577E-01 0.25826166E+03</pdfrwt>
<pdfrwt beam="2">  1       21 0.24093749E+00 0.25826166E+03</pdfrwt>
<totfact> 0.62127127E+02</totfact>
</mgrwt>
</event>
<event>
 5    0  0.1943430E+001  0.2464759E+03  0.7546771E-02  0.1115552E+00
         21   -1    0    0  504  501  0.00000000000E+00  0.00000000000E+00  0.46405988557E+02  0.46405988557E+02  0.00000000000E+00 0. -1.
         21   -1    0    0  501  502 -0.00000000000E+00 -0.00000000000E+00 -0.19626551372E+04  0.19626551372E+04  0.00000000000E+00 0. -1.
         25    1    1    2    0    0  0.20742600716E+03 -0.10874237031E+03 -0.49059731327E+03  0.55781822786E+03  0.12500000000E+03 0.  0.
         21    1    1    2  503  502 -0.17512926243E+03  0.55053351466E+02 -0.72824261679E+03  0.75102492567E+03  0.00000000000E+00 0. -1.
         21    1    1    2  504  503 -0.32296744724E+02  0.53689018844E+02 -0.69740921863E+03  0.70021797227E+03  0.00000000000E+00 0. -1.
<mgrwt>
<rscale>  4 0.24647595E+03</rscale>
<asrwt>0</asrwt>
<pdfrwt beam="1">  1       21 0.71393819E-02 0.24647595E+03</pdfrwt>
<pdfrwt beam="2">  1       21 0.30194699E+00 0.24647595E+03</pdfrwt>
<totfact> 0.45979241E+03</totfact>
</mgrwt>
</event>
<event>
 5    0  0.1943430E+001  0.5332087E+03  0.7546771E-02  0.1005457E+00
         21   -1    0    0  504  501  0.00000000000E+00  0.00000000000E+00  0.77713134234E+03  0.77713134234E+03  0.00000000000E+00 0. -1.
         21   -1    0    0  501  502 -0.00000000000E+00 -0.00000000000E+00 -0.12058644273E+04  0.12058644273E+04  0.00000000000E+00 0. -1.
         25    1    1    2    0    0 -0.23771014688E+03 -0.46285809948E+03  0.61133350123E+03  0.81246377391E+03  0.12500000000E+03 0.  0.
         21    1    1    2  503  502 -0.13668858793E+02  0.31390049502E+02 -0.10559993555E+03  0.11101134760E+03  0.00000000000E+00 0.  1.
         21    1    1    2  504  503  0.25137900567E+03  0.43146804998E+03 -0.93446665065E+03  0.10595206481E+04  0.00000000000E+00 0. -1.
<mgrwt>
<rscale>  4 0.53320869E+03</rscale>
<asrwt>0</asrwt>
<pdfrwt beam="1">  1       21 0.11955867E+00 0.53320869E+03</pdfrwt>
<pdfrwt beam="2">  1       21 0.18551760E+00 0.53320869E+03</pdfrwt>
<totfact> 0.67366922E+01</totfact>
</mgrwt>
</event>
<event>
 5    0  0.1943430E+001  0.2445388E+03  0.7546771E-02  0.1116806E+00
         21   -1    0    0  503  501  0.00000000000E+00  0.00000000000E+00  0.28907203549E+03  0.28907203549E+03  0.00000000000E+00 0. -1.
         21   -1    0    0  504  502 -0.00000000000E+00 -0.00000000000E+00 -0.69411920410E+03  0.69411920410E+03  0.00000000000E+00 0. -1.
         25    1    1    2    0    0 -0.18750540783E+03  0.88016740207E+02  0.20198741351E+03  0.31516525782E+03  0.12500000000E+03 0.  0.
         21    1    1    2  503  502 -0.36070729482E+02 -0.56141153034E+01 -0.12644857082E+03  0.13161252554E+03  0.00000000000E+00 0. -1.
         21    1    1    2  504  501  0.22357613731E+03 -0.82402624903E+02 -0.48058601130E+03  0.53641345623E+03  0.00000000000E+00 0. -1.
<mgrwt>
<rscale>  4 0.24453881E+03</rscale>
<asrwt>0</asrwt>
<pdfrwt beam="1">  1       21 0.44472621E-01 0.24453881E+03</pdfrwt>
<pdfrwt beam="2">  1       21 0.10678757E+00 0.24453881E+03</pdfrwt>
<totfact> 0.32716952E+03</totfact>
</mgrwt>
</event>
<event>
 5    0  0.1943430E+001  0.3513283E+03  0.7546771E-02  0.1062071E+00
         21   -1    0    0  504  501  0.00000000000E+00  0.00000000000E+00  0.48715997468E+03  0.48715997468E+03  0.00000000000E+00 0.  1.
         21   -1    0    0  501  502 -0.00000000000E+00 -0.00000000000E+00 -0.91661827108E+03  0.91661827108E+03  0.00000000000E+00 0.  1.
         25    1    1    2    0    0  0.42971857495E+01  0.37035605521E+03  0.25240584564E+03  0.46531256629E+03  0.12500000000E+03 0.  0.
         21    1    1    2  503  502 -0.91074831795E+02 -0.10831940318E+03 -0.64457356345E+03  0.65992635709E+03  0.00000000000E+00 0.  1.
         21    1    1    2  504  503  0.86777646046E+02 -0.26203665203E+03 -0.37290578583E+02  0.27853932238E+03  0.00000000000E+00 0.  1.
<mgrwt>
<rscale>  4 0.35132831E+03</rscale>
<asrwt>0</asrwt>
<pdfrwt beam="1">  1       21 0.74947689E-01 0.35132831E+03</pdfrwt>
<pdfrwt beam="2">  1       21 0.14101819E+00 0.35132831E+03</pdfrwt>
<totfact> 0.49071449E+02</totfact>
</mgrwt>
</event>
<event>
 5    0  0.1943430E+001  0.2353779E+03  0.7546771E-02  0.1122911E+00
         21   -1    0    0  503  501  0.00000000000E+00  0.00000000000E+00  0.15739614991E+04  0.15739614991E+04  0.00000000000E+00 0. -1.
         21   -1    0    0  504  502 -0.00000000000E+00 -0.00000000000E+00 -0.17407989209E+03  0.17407989209E+03  0.00000000000E+00 0. -1.
         25    1    1    2    0    0 -0.19463090133E+03  0.65610435652E+02  0.12201906058E+04  0.12436543055E+04  0.12500000000E+03 0.  0.
         21    1    1    2  503  502  0.18026189339E+03 -0.48732760231E+02  0.31558774227E+03  0.36669449846E+03  0.00000000000E+00 0. -1.
         21    1    1    2  504  501  0.14369007938E+02 -0.16877675421E+02 -0.13589674114E+03  0.13769258720E+03  0.00000000000E+00 0. -1.
<mgrwt>
<rscale>  4 0.23537791E+03</rscale>
<asrwt>0</asrwt>
<pdfrwt beam="1">  1       21 0.24214791E+00 0.23537791E+03</pdfrwt>
<pdfrwt beam="2">  1       21 0.26781523E-01 0.23537791E+03</pdfrwt>
<totfact> 0.93607267E+02</totfact>
</mgrwt>
</event>
<event>
 5    0  0.1943430E+001  0.2548286E+03  0.7546771E-02  0.1110291E+00
         21   -1    0    0  504  501  0.00000000000E+00  0.00000000000E+00  0.33263601280E+03  0.33263601280E+03  0.00000000000E+00 0.  1.
         21   -1    0    0  501  502 -0.00000000000E+00 -0.00000000000E+00 -0.29164311662E+03  0.29164311662E+03  0.00000000000E+00 0.  1.
         25    1    1    2    0    0 -0.68693854285E+02  0.21889947554E+03  0.19594271305E+03  0.32657981078E+03  0.12500000000E+03 0.  0.
         21    1    1    2  503  502 -0.34384710865E+01 -0.26915392040E+02 -0.71155781834E+02  0.76153835757E+02  0.00000000000E+00 0. -1.
         21    1    1    2  504  503  0.72132325371E+02 -0.19198408350E+03 -0.83794035035E+02  0.22154548289E+03  0.00000000000E+00 0.  1.
<mgrwt>
<rscale>  4 0.25482864E+03</rscale>
<asrwt>0</asrwt>
<pdfrwt beam="1">  1       21 0.51174772E-01 0.25482864E+03</pdfrwt>
<pdfrwt beam="2">  1       21 0.44868171E-01 0.25482864E+03</pdfrwt>
<totfact> 0.16714124E+04</totfact>
</mgrwt>
</event>
<event>
 5    0  0.1943430E+001  0.3052685E+03  0.7546771E-02  0.1082636E+00
         21   -1    0    0  503  501  0.00000000000E+00  0.00000000000E+00  0.92812641678E+03  0.92812641678E+03  0.00000000000E+00 0. -1.
         21   -1    0    0  504  502 -0.00000000000E+00 -0.00000000000E+00 -0.48456687759E+03  0.48456687759E+03  0.00000000000E+00 0.  1.
         25    1    1    2    0    0  0.29801781041E+03  0.10496039362E+03  0.64830521088E+03  0.73195351355E+03  0.12500000000E+03 0.  0.
         21    1    1    2  503  502 -0.22038296451E+03 -0.60765248817E+02  0.17672342518E+03  0.28895023018E+03  0.00000000000E+00 0. -1.
         21    1    1    2  504  501 -0.77634845896E+02 -0.44195144803E+02 -0.38146909687E+03  0.39178955064E+03  0.00000000000E+00 0.  1.
<mgrwt>
<rscale>  4 0.30526848E+03</rscale>
<asrwt>0</asrwt>
<pdfrwt beam="1">  1       21 0.14278868E+00 0.30526848E+03</pdfrwt>
<pdfrwt beam="2">  1       21 0.74548751E-01 0.30526848E+03</pdfrwt>
<totfact> 0.49529435E+02</totfact>
</mgrwt>
</event>
<event>
 5    0  0.1943430E+001  0.3632829E+03  0.7546771E-02  0.1057292E+00
         21   -1    0    0  503  501  0.00000000000E+00  0.00000000000E+00  0.11977006090E+04  0.11977006090E+04  0.00000000000E+00 0. -1.
         21   -1    0    0  504  502 -0.00000000000E+00 -0.00000000000E+00 -0.21291186473E+03  0.21291186473E+03  0.00000000000E+00 0.  1.
         25    1    1    2    0    0 -0.17117784325E+03  0.27920071953E+03  0.78359472518E+03  0.85842914042E+03  0.12500000000E+03 0.  0.
         21    1    1    2  503  502 -0.62663961906E+02  0.18812975015E+02 -0.62619807600E+02  0.90564565115E+02  0.00000000000E+00 0. -1.
         21    1    1    2  504  501  0.23384180515E+03 -0.29801369454E+03  0.26381382665E+03  0.46161876815E+03  0.00000000000E+00 0.  1.
<mgrwt>
<rscale>  4 0.36328285E+03</rscale>
<asrwt>0</asrwt>
<pdfrwt beam="1">  1       21 0.18426163E+00 0.36328285E+03</pdfrwt>
<pdfrwt beam="2">  1       21 0.32755672E-01 0.36328285E+03</pdfrwt>
<totfact> 0.13422687E+03</totfact>
</mgrwt>
</event>
<event>
 5    0  0.1943430E+001  0.2561954E+03  0.7546771E-02  0.1109451E+00
         21   -1    0    0  504  501  0.00000000000E+00  0.00000000000E+00  0.30966863421E+03  0.30966863421E+03  0.00000000000E+00 0. -1.
         21   -1    0    0  501  502 -0.00000000000E+00 -0.00000000000E+00 -0.31077827466E+03  0.31077827466E+03  0.00000000000E+00 0. -1.
         25    1    1    2    0    0  0.94239399832E+02  0.20990417999E+03  0.84797233376E+02  0.27523880549E+03  0.12500000000E+03 0.  0.
         21    1    1    2  503  502 -0.91556125696E+02  0.16241363414E+02 -0.73817506179E+02  0.11872375608E+03  0.00000000000E+00 0. -1.
         21    1    1    2  504  503 -0.26832741357E+01 -0.22614554341E+03 -0.12089367655E+02  0.22648434730E+03  0.00000000000E+00 0. -1.
<mgrwt>
<rscale>  4 0.25619536E+03</rscale>
<asrwt>0</asrwt>
<pdfrwt beam="1">  1       21 0.47641328E-01 0.25619536E+03</pdfrwt>
<pdfrwt beam="2">  1       21 0.47812042E-01 0.25619536E+03</pdfrwt>
<totfact> 0.17006336E+04</totfact>
</mgrwt>
</event>
<event>
 5    0  0.1943430E+001  0.2755586E+03  0.7546771E-02  0.1098140E+00
         21   -1    0    0  503  501  0.00000000000E+00  0.00000000000E+00  0.88267357007E+03  0.88267357007E+03  0.00000000000E+00 0.  1.
         21   -1    0    0  504  502 -0.00000000000E+00 -0.00000000000E+00 -0.16063986420E+03  0.16063986420E+03  0.00000000000E+00 0.  1.
         25    1    1    2    0    0 -0.18672074028E+03 -0.13362265495E+03  0.27655260770E+03  0.38056010509E+03  0.12500000000E+03 0.  0.
         21    1    1    2  503  502  0.20326779795E+03  0.15333878688E+03  0.52266770138E+03  0.58138808666E+03  0.00000000000E+00 0.  1.
         21    1    1    2  504  501 -0.16547057671E+02 -0.19716131930E+02 -0.77186603204E+02  0.81365242518E+02  0.00000000000E+00 0.  1.
<mgrwt>
<rscale>  4 0.27555860E+03</rscale>
<asrwt>0</asrwt>
<pdfrwt beam="1">  1       21 0.13579593E+00 0.27555860E+03</pdfrwt>
<pdfrwt beam="2">  1       21 0.24713826E-01 0.27555860E+03</pdfrwt>
<totfact> 0.56587864E+03</totfact>
</mgrwt>
</event>
