<event>
 5    0  0.1257040E+001  0.3934504E+03  0.7546771E-02  0.1046071E+00
         21   -1    0    0  502  501  0.00000000000E+00  0.00000000000E+00  0.47885571895E+03  0.47885571895E+03  0.00000000000E+00 0. -1.
         21   -1    0    0  504  502 -0.00000000000E+00 -0.00000000000E+00 -0.38588789394E+03  0.38588789394E+03  0.00000000000E+00 0. -1.
         25    1    1    2    0    0 -0.29395089608E+03 -0.24375218464E+03  0.11224032856E+02  0.40196173417E+03  0.12500000000E+03 0.  0.
         21    1    1    2  503  501  0.29401928954E+03  0.22065230261E+03  0.14520603386E+03  0.39524621888E+03  0.00000000000E+00 0. -1.
         21    1    1    2  504  503 -0.68393462978E-01  0.23099882031E+02 -0.63462241707E+02  0.67535659840E+02  0.00000000000E+00 0.  1.
<mgrwt>
<rscale>  4 0.39345039E+03</rscale>
<asrwt>0</asrwt>
<pdfrwt beam="1">  1       21 0.73670111E-01 0.39345039E+03</pdfrwt>
<pdfrwt beam="2">  1       21 0.59367368E-01 0.39345039E+03</pdfrwt>
<totfact> 0.39192837E+03</totfact>
</mgrwt>
</event>
<event>
 5    0  0.1257040E+001  0.4565375E+03  0.7546771E-02  0.1025790E+00
         21   -1    0    0  502  501  0.00000000000E+00  0.00000000000E+00  0.11348966004E+04  0.11348966004E+04  0.00000000000E+00 0. -1.
         21   -1    0    0  504  502 -0.00000000000E+00 -0.00000000000E+00 -0.67998552594E+03  0.67998552594E+03  0.00000000000E+00 0. -1.
         25    1    1    2    0    0 -0.94126163333E+00  0.42464441920E+03 -0.50847317925E+03  0.67416151087E+03  0.12500000000E+03 0.  0.
         21    1    1    2  503  501 -0.23502750406E+02 -0.43964226216E+03  0.10009271864E+04  0.10934774486E+04  0.00000000000E+00 0. -1.
         21    1    1    2  504  503  0.24444012040E+02  0.14997842965E+02 -0.37542932751E+02  0.47243166889E+02  0.00000000000E+00 0.  1.
<mgrwt>
<rscale>  4 0.45653754E+03</rscale>
<asrwt>0</asrwt>
<pdfrwt beam="1">  1       21 0.17459948E+00 0.45653754E+03</pdfrwt>
<pdfrwt beam="2">  1       21 0.10461316E+00 0.45653754E+03</pdfrwt>
<totfact> 0.11688537E+02</totfact>
</mgrwt>
</event>
<event>
 5    0  0.1257040E+001  0.2757938E+03  0.7546771E-02  0.1098009E+00
         21   -1    0    0  502  501  0.00000000000E+00  0.00000000000E+00  0.17266944673E+04  0.17266944673E+04  0.00000000000E+00 0. -1.
         21   -1    0    0  504  502 -0.00000000000E+00 -0.00000000000E+00 -0.87347658911E+02  0.87347658911E+02  0.00000000000E+00 0. -1.
         25    1    1    2    0    0 -0.22290520261E+03 -0.44856989957E+01  0.19579402415E+03  0.32197383549E+03  0.12500000000E+03 0.  0.
         21    1    1    2  503  501  0.24965001502E+03  0.62861264555E+01  0.14438236882E+04  0.14652615767E+04  0.00000000000E+00 0. -1.
         21    1    1    2  504  503 -0.26744812406E+02 -0.18004274598E+01 -0.27090397751E+00  0.26806714059E+02  0.00000000000E+00 0. -1.
<mgrwt>
<rscale>  4 0.27579379E+03</rscale>
<asrwt>0</asrwt>
<pdfrwt beam="1">  1       21 0.26564528E+00 0.27579379E+03</pdfrwt>
<pdfrwt beam="2">  1       21 0.13438103E-01 0.27579379E+03</pdfrwt>
<totfact> 0.23789807E+03</totfact>
</mgrwt>
</event>
<event>
 5    0  0.1257040E+001  0.2085050E+03  0.7546771E-02  0.1142755E+00
         21   -1    0    0  502  501  0.00000000000E+00  0.00000000000E+00  0.39480491117E+02  0.39480491117E+02  0.00000000000E+00 0. -1.
         21   -1    0    0  504  502 -0.00000000000E+00 -0.00000000000E+00 -0.18524888523E+04  0.18524888523E+04  0.00000000000E+00 0. -1.
         25    1    1    2    0    0  0.17295037731E+03 -0.10589609162E+03 -0.12298066019E+04  0.12526671917E+04  0.12500000000E+03 0.  0.
         21    1    1    2  503  501 -0.11327232653E+03  0.11371881785E+03 -0.22677955098E+03  0.27783368088E+03  0.00000000000E+00 0. -1.
         21    1    1    2  504  503 -0.59678050783E+02 -0.78227262290E+01 -0.35642220838E+03  0.36146847085E+03  0.00000000000E+00 0. -1.
<mgrwt>
<rscale>  4 0.20850497E+03</rscale>
<asrwt>0</asrwt>
<pdfrwt beam="1">  1       21 0.60739222E-02 0.20850497E+03</pdfrwt>
<pdfrwt beam="2">  1       21 0.28499826E+00 0.20850497E+03</pdfrwt>
<totfact> 0.79103544E+03</totfact>
</mgrwt>
</event>
<event>
 5    0  0.1257040E+001  0.3084633E+03  0.7546771E-02  0.1081085E+00
         21   -1    0    0  503  501  0.00000000000E+00  0.00000000000E+00  0.47440556505E+03  0.47440556505E+03  0.00000000000E+00 0. -1.
         21   -1    0    0  504  502 -0.00000000000E+00 -0.00000000000E+00 -0.68860755250E+03  0.68860755250E+03  0.00000000000E+00 0.  1.
         25    1    1    2    0    0  0.93128656870E+02 -0.24589076576E+03 -0.49389226937E+03  0.57331473831E+03  0.12500000000E+03 0.  0.
         21    1    1    2  503  502  0.14130790148E+02 -0.16714769143E+02 -0.10750613604E+03  0.10971158564E+03  0.00000000000E+00 0.  1.
         21    1    1    2  504  501 -0.10725944702E+03  0.26260553490E+03  0.38719641797E+03  0.47998679359E+03  0.00000000000E+00 0. -1.
<mgrwt>
<rscale>  4 0.30846330E+03</rscale>
<asrwt>0</asrwt>
<pdfrwt beam="1">  1       21 0.72985471E-01 0.30846330E+03</pdfrwt>
<pdfrwt beam="2">  1       21 0.10593962E+00 0.30846330E+03</pdfrwt>
<totfact> 0.11029475E+03</totfact>
</mgrwt>
</event>
<event>
 5    0  0.1257040E+001  0.2325987E+03  0.7546771E-02  0.1124824E+00
         21   -1    0    0  502  501  0.00000000000E+00  0.00000000000E+00  0.60430539207E+02  0.60430539207E+02  0.00000000000E+00 0.  1.
         21   -1    0    0  504  502 -0.00000000000E+00 -0.00000000000E+00 -0.11250675231E+04  0.11250675231E+04  0.00000000000E+00 0.  1.
         25    1    1    2    0    0  0.18695847658E+03  0.86511138697E+02 -0.55916042282E+03  0.60887028793E+03  0.12500000000E+03 0.  0.
         21    1    1    2  503  501 -0.18676096328E+03 -0.47347281727E+02 -0.23758698405E+03  0.30589049917E+03  0.00000000000E+00 0.  1.
         21    1    1    2  504  503 -0.19751329345E+00 -0.39163856970E+02 -0.26788957700E+03  0.27073727518E+03  0.00000000000E+00 0. -1.
<mgrwt>
<rscale>  4 0.23259870E+03</rscale>
<asrwt>0</asrwt>
<pdfrwt beam="1">  1       21 0.92970065E-02 0.23259870E+03</pdfrwt>
<pdfrwt beam="2">  1       21 0.17308730E+00 0.23259870E+03</pdfrwt>
<totfact> 0.18231826E+04</totfact>
</mgrwt>
</event>
<event>
 5    0  0.1257040E+001  0.3792221E+03  0.7546771E-02  0.1051222E+00
         21   -1    0    0  502  501  0.00000000000E+00  0.00000000000E+00  0.80935327616E+03  0.80935327616E+03  0.00000000000E+00 0. -1.
         21   -1    0    0  504  502 -0.00000000000E+00 -0.00000000000E+00 -0.19012048939E+03  0.19012048939E+03  0.00000000000E+00 0. -1.
         25    1    1    2    0    0 -0.34991756210E+03  0.10561553430E+03  0.35830540977E+03  0.52688206273E+03  0.12500000000E+03 0.  0.
         21    1    1    2  503  501  0.34031616748E+03 -0.84603988644E+02  0.27491046116E+03  0.44558802767E+03  0.00000000000E+00 0. -1.
         21    1    1    2  504  503  0.96013946112E+01 -0.21011545661E+02 -0.13983084161E+02  0.27003675161E+02  0.00000000000E+00 0. -1.
<mgrwt>
<rscale>  4 0.37922212E+03</rscale>
<asrwt>0</asrwt>
<pdfrwt beam="1">  1       21 0.12451589E+00 0.37922212E+03</pdfrwt>
<pdfrwt beam="2">  1       21 0.29249306E-01 0.37922212E+03</pdfrwt>
<totfact> 0.48423010E+03</totfact>
</mgrwt>
</event>
<event>
 5    0  0.1257040E+001  0.2691371E+03  0.7546771E-02  0.1101774E+00
         21   -1    0    0  504  501  0.00000000000E+00  0.00000000000E+00  0.16633536282E+03  0.16633536282E+03  0.00000000000E+00 0. -1.
         21   -1    0    0  503  502 -0.00000000000E+00 -0.00000000000E+00 -0.49219033907E+03  0.49219033907E+03  0.00000000000E+00 0. -1.
         25    1    1    2    0    0  0.57943484040E+02  0.23119765635E+03 -0.41993130390E+02  0.27239351432E+03  0.12500000000E+03 0.  0.
         21    1    1    2  503  501  0.25082191811E+02 -0.57422345825E+02 -0.11038791587E+03  0.12693279370E+03  0.00000000000E+00 0.  1.
         21    1    1    2  504  502 -0.83025675851E+02 -0.17377531052E+03 -0.17347392999E+03  0.25919939387E+03  0.00000000000E+00 0. -1.
<mgrwt>
<rscale>  4 0.26913715E+03</rscale>
<asrwt>0</asrwt>
<pdfrwt beam="1">  1       21 0.25590055E-01 0.26913715E+03</pdfrwt>
<pdfrwt beam="2">  1       21 0.75721592E-01 0.26913715E+03</pdfrwt>
<totfact> 0.21663482E+04</totfact>
</mgrwt>
</event>
<event>
 5    0  0.1257040E+001  0.2554208E+03  0.7546771E-02  0.1109926E+00
         21   -1    0    0  502  501  0.00000000000E+00  0.00000000000E+00  0.25720818843E+03  0.25720818843E+03  0.00000000000E+00 0. -1.
         21   -1    0    0  504  502 -0.00000000000E+00 -0.00000000000E+00 -0.30512380921E+03  0.30512380921E+03  0.00000000000E+00 0. -1.
         25    1    1    2    0    0 -0.73675532479E+02  0.20412190861E+03  0.70217801697E+02  0.26009493908E+03  0.12500000000E+03 0.  0.
         21    1    1    2  503  501 -0.23303247237E+02 -0.90238081228E+00  0.25967159895E+02  0.34901991576E+02  0.00000000000E+00 0.  1.
         21    1    1    2  504  503  0.96978779715E+02 -0.20321952780E+03 -0.14410058237E+03  0.26733506697E+03  0.00000000000E+00 0. -1.
<mgrwt>
<rscale>  4 0.25542077E+03</rscale>
<asrwt>0</asrwt>
<pdfrwt beam="1">  1       21 0.39570491E-01 0.25542077E+03</pdfrwt>
<pdfrwt beam="2">  1       21 0.46942124E-01 0.25542077E+03</pdfrwt>
<totfact> 0.25898143E+04</totfact>
</mgrwt>
</event>
<event>
 5    0  0.1257040E+001  0.2800275E+03  0.7546771E-02  0.1095674E+00
         21   -1    0    0  504  501  0.00000000000E+00  0.00000000000E+00  0.29488127096E+03  0.29488127096E+03  0.00000000000E+00 0.  1.
         21   -1    0    0  503  502 -0.00000000000E+00 -0.00000000000E+00 -0.76209625960E+03  0.76209625960E+03  0.00000000000E+00 0. -1.
         25    1    1    2    0    0 -0.23833595435E+03 -0.12523572501E+03  0.16297179960E+03  0.33863375705E+03  0.12500000000E+03 0.  0.
         21    1    1    2  503  501  0.21744323019E+03  0.12104597927E+03 -0.64569182139E+03  0.69199105172E+03  0.00000000000E+00 0. -1.
         21    1    1    2  504  502  0.20892724155E+02  0.41897457376E+01  0.15505033161E+02  0.26352721781E+02  0.00000000000E+00 0.  1.
<mgrwt>
<rscale>  4 0.28002754E+03</rscale>
<asrwt>0</asrwt>
<pdfrwt beam="1">  1       21 0.45366350E-01 0.28002754E+03</pdfrwt>
<pdfrwt beam="2">  1       21 0.11724558E+00 0.28002754E+03</pdfrwt>
<totfact> 0.24398369E+03</totfact>
</mgrwt>
</event>
<event>
 5    0  0.1257040E+001  0.2645073E+03  0.7546771E-02  0.1104465E+00
         21   -1    0    0  503  501  0.00000000000E+00  0.00000000000E+00  0.23729631251E+03  0.23729631251E+03  0.00000000000E+00 0.  1.
         21   -1    0    0  504  502 -0.00000000000E+00 -0.00000000000E+00 -0.50480164999E+03  0.50480164999E+03  0.00000000000E+00 0.  1.
         25    1    1    2    0    0  0.22868762891E+03  0.13643342130E+03  0.53245154877E+02  0.29895176297E+03  0.12500000000E+03 0.  0.
         21    1    1    2  503  502 -0.19791684587E+03 -0.11019783173E+03 -0.33131401736E+03  0.40135223694E+03  0.00000000000E+00 0.  1.
         21    1    1    2  504  501 -0.30770783040E+02 -0.26235589569E+02  0.10563525004E+02  0.41793962595E+02  0.00000000000E+00 0.  1.
<mgrwt>
<rscale>  4 0.26450733E+03</rscale>
<asrwt>0</asrwt>
<pdfrwt beam="1">  1       21 0.36507125E-01 0.26450733E+03</pdfrwt>
<pdfrwt beam="2">  1       21 0.77661792E-01 0.26450733E+03</pdfrwt>
<totfact> 0.10187121E+04</totfact>
</mgrwt>
</event>
<event>
 5    0  0.1257040E+001  0.2417366E+03  0.7546771E-02  0.1118641E+00
         21   -1    0    0  504  501  0.00000000000E+00  0.00000000000E+00  0.25274408281E+03  0.25274408281E+03  0.00000000000E+00 0.  1.
         21   -1    0    0  503  502 -0.00000000000E+00 -0.00000000000E+00 -0.64357348992E+03  0.64357348992E+03  0.00000000000E+00 0.  1.
         25    1    1    2    0    0  0.87921265120E+01 -0.25010318799E+03 -0.15842633920E+03  0.32148532017E+03  0.12500000000E+03 0.  0.
         21    1    1    2  503  501 -0.18286208708E+03  0.11633999859E+03 -0.27609117941E+03  0.35099840101E+03  0.00000000000E+00 0.  1.
         21    1    1    2  504  502  0.17406996057E+03  0.13376318940E+03  0.43688111508E+02  0.22383385155E+03  0.00000000000E+00 0.  1.
<mgrwt>
<rscale>  4 0.24173663E+03</rscale>
<asrwt>0</asrwt>
<pdfrwt beam="1">  1       21 0.38883706E-01 0.24173663E+03</pdfrwt>
<pdfrwt beam="2">  1       21 0.99011304E-01 0.24173663E+03</pdfrwt>
<totfact> 0.51732077E+03</totfact>
</mgrwt>
</event>
<event>
 5    0  0.1257040E+001  0.2531930E+03  0.7546771E-02  0.1111303E+00
         21   -1    0    0  504  501  0.00000000000E+00  0.00000000000E+00  0.17246439988E+04  0.17246439988E+04  0.00000000000E+00 0.  1.
         21   -1    0    0  503  502 -0.00000000000E+00 -0.00000000000E+00 -0.29267702790E+03  0.29267702790E+03  0.00000000000E+00 0. -1.
         25    1    1    2    0    0  0.15990154164E+03  0.12137462821E+03 -0.14881397129E+03  0.27941170599E+03  0.12500000000E+03 0.  0.
         21    1    1    2  503  501  0.12905303592E+02  0.16156260933E+02 -0.69707588405E+02  0.72709830900E+02  0.00000000000E+00 0. -1.
         21    1    1    2  504  502 -0.17280684523E+03 -0.13753088914E+03  0.16504885305E+04  0.16651994898E+04  0.00000000000E+00 0.  1.
<mgrwt>
<rscale>  4 0.25319300E+03</rscale>
<asrwt>0</asrwt>
<pdfrwt beam="1">  1       21 0.26532984E+00 0.25319300E+03</pdfrwt>
<pdfrwt beam="2">  1       21 0.45027236E-01 0.25319300E+03</pdfrwt>
<totfact> 0.23716480E+02</totfact>
</mgrwt>
</event>
<event>
 5    0  0.1257040E+001  0.2704525E+03  0.7546771E-02  0.1101021E+00
         21   -1    0    0  503  501  0.00000000000E+00  0.00000000000E+00  0.84365366701E+02  0.84365366701E+02  0.00000000000E+00 0. -1.
         21   -1    0    0  501  502 -0.00000000000E+00 -0.00000000000E+00 -0.94212412165E+03  0.94212412165E+03  0.00000000000E+00 0. -1.
         25    1    1    2    0    0 -0.82407104382E+02 -0.20806070557E+03 -0.58472853829E+03  0.63844549614E+03  0.12500000000E+03 0.  0.
         21    1    1    2  503  504 -0.48651847235E+01 -0.23170460616E+02 -0.49203272669E+02  0.54603134607E+02  0.00000000000E+00 0. -1.
         21    1    1    2  504  502  0.87272289106E+02  0.23123116619E+03 -0.22382694399E+03  0.33344085760E+03  0.00000000000E+00 0. -1.
<mgrwt>
<rscale>  4 0.27045249E+03</rscale>
<asrwt>0</asrwt>
<pdfrwt beam="1">  1       21 0.12979287E-01 0.27045249E+03</pdfrwt>
<pdfrwt beam="2">  1       21 0.14494217E+00 0.27045249E+03</pdfrwt>
<totfact> 0.15906310E+04</totfact>
</mgrwt>
</event>
<event>
 5    0  0.1257040E+001  0.2640213E+03  0.7546771E-02  0.1104751E+00
         21   -1    0    0  502  501  0.00000000000E+00  0.00000000000E+00  0.11179926546E+03  0.11179926546E+03  0.00000000000E+00 0. -1.
         21   -1    0    0  504  502 -0.00000000000E+00 -0.00000000000E+00 -0.10258637397E+04  0.10258637397E+04  0.00000000000E+00 0. -1.
         25    1    1    2    0    0 -0.12504939283E+03 -0.19910821893E+03 -0.81265774905E+03  0.85517194212E+03  0.12500000000E+03 0.  0.
         21    1    1    2  503  501  0.27452420474E+02 -0.39462278439E+01  0.12055338756E+02  0.30241350774E+02  0.00000000000E+00 0. -1.
         21    1    1    2  504  503  0.97596972359E+02  0.20305444678E+03 -0.11346206390E+03  0.25224971222E+03  0.00000000000E+00 0. -1.
<mgrwt>
<rscale>  4 0.26402128E+03</rscale>
<asrwt>0</asrwt>
<pdfrwt beam="1">  1       21 0.17199888E-01 0.26402128E+03</pdfrwt>
<pdfrwt beam="2">  1       21 0.15782519E+00 0.26402128E+03</pdfrwt>
<totfact> 0.75842948E+03</totfact>
</mgrwt>
</event>
<event>
 5    0  0.1257040E+001  0.2052213E+03  0.7546771E-02  0.1145407E+00
         21   -1    0    0  502  501  0.00000000000E+00  0.00000000000E+00  0.23854541244E+03  0.23854541244E+03  0.00000000000E+00 0. -1.
         21   -1    0    0  504  502 -0.00000000000E+00 -0.00000000000E+00 -0.31989791444E+03  0.31989791444E+03  0.00000000000E+00 0. -1.
         25    1    1    2    0    0  0.12555971053E+03 -0.18182553320E+03  0.60213091901E+02  0.26091451065E+03  0.12500000000E+03 0.  0.
         21    1    1    2  503  501 -0.11599042689E+03  0.98756301043E+02 -0.14961832567E+03  0.21352336992E+03  0.00000000000E+00 0. -1.
         21    1    1    2  504  503 -0.95692836408E+01  0.83069232158E+02  0.80527317651E+01  0.84005446309E+02  0.00000000000E+00 0. -1.
<mgrwt>
<rscale>  4 0.20522133E+03</rscale>
<asrwt>0</asrwt>
<pdfrwt beam="1">  1       21 0.36699295E-01 0.20522133E+03</pdfrwt>
<pdfrwt beam="2">  1       21 0.49215063E-01 0.20522133E+03</pdfrwt>
<totfact> 0.28002245E+04</totfact>
</mgrwt>
</event>
<event>
 5    0  0.1257040E+001  0.2317917E+03  0.7546771E-02  0.1125385E+00
         21   -1    0    0  502  501  0.00000000000E+00  0.00000000000E+00  0.15194028938E+03  0.15194028938E+03  0.00000000000E+00 0.  1.
         21   -1    0    0  504  502 -0.00000000000E+00 -0.00000000000E+00 -0.69940838392E+03  0.69940838392E+03  0.00000000000E+00 0.  1.
         25    1    1    2    0    0 -0.21132995659E+03 -0.77701299953E+02 -0.45599201358E+03  0.52369032741E+03  0.12500000000E+03 0.  0.
         21    1    1    2  503  501  0.18291168231E+03  0.53104818095E+02  0.36802047583E+02  0.19398761800E+03  0.00000000000E+00 0.  1.
         21    1    1    2  504  503  0.28418274274E+02  0.24596481858E+02 -0.12827812854E+03  0.13367072789E+03  0.00000000000E+00 0. -1.
<mgrwt>
<rscale>  4 0.23179168E+03</rscale>
<asrwt>0</asrwt>
<pdfrwt beam="1">  1       21 0.23375429E-01 0.23179168E+03</pdfrwt>
<pdfrwt beam="2">  1       21 0.10760129E+00 0.23179168E+03</pdfrwt>
<totfact> 0.11556242E+04</totfact>
</mgrwt>
</event>
<event>
 5    0  0.1257040E+001  0.2525349E+03  0.7546771E-02  0.1111713E+00
         21   -1    0    0  503  501  0.00000000000E+00  0.00000000000E+00  0.12797295014E+03  0.12797295014E+03  0.00000000000E+00 0. -1.
         21   -1    0    0  504  502 -0.00000000000E+00 -0.00000000000E+00 -0.10466167551E+04  0.10466167551E+04  0.00000000000E+00 0. -1.
         25    1    1    2    0    0 -0.21256991282E+03 -0.10184495144E+03 -0.77913818265E+03  0.82355307639E+03  0.12500000000E+03 0.  0.
         21    1    1    2  503  502  0.17734067071E+03  0.71969795555E+02 -0.19874663611E+03  0.27591591169E+03  0.00000000000E+00 0. -1.
         21    1    1    2  504  501  0.35229242112E+02  0.29875155880E+02  0.59241013766E+02  0.75120717187E+02  0.00000000000E+00 0. -1.
<mgrwt>
<rscale>  4 0.25253490E+03</rscale>
<asrwt>0</asrwt>
<pdfrwt beam="1">  1       21 0.19688147E-01 0.25253490E+03</pdfrwt>
<pdfrwt beam="2">  1       21 0.16101795E+00 0.25253490E+03</pdfrwt>
<totfact> 0.56216797E+03</totfact>
</mgrwt>
</event>
<event>
 5    0  0.1257040E+001  0.2433042E+03  0.7546771E-02  0.1117611E+00
         21   -1    0    0  504  501  0.00000000000E+00  0.00000000000E+00  0.27494219352E+03  0.27494219352E+03  0.00000000000E+00 0. -1.
         21   -1    0    0  503  502 -0.00000000000E+00 -0.00000000000E+00 -0.31686373472E+03  0.31686373472E+03  0.00000000000E+00 0. -1.
         25    1    1    2    0    0 -0.11616033157E+03 -0.17423992681E+03  0.10383934791E+03  0.26506675555E+03  0.12500000000E+03 0.  0.
         21    1    1    2  503  501  0.13808548718E+03  0.15681881361E+03 -0.18462973378E+03  0.27883306953E+03  0.00000000000E+00 0. -1.
         21    1    1    2  504  502 -0.21925155612E+02  0.17421113198E+02  0.38868844666E+02  0.47906103154E+02  0.00000000000E+00 0.  1.
<mgrwt>
<rscale>  4 0.24330421E+03</rscale>
<asrwt>0</asrwt>
<pdfrwt beam="1">  1       21 0.42298799E-01 0.24330421E+03</pdfrwt>
<pdfrwt beam="2">  1       21 0.48748267E-01 0.24330421E+03</pdfrwt>
<totfact> 0.21012391E+04</totfact>
</mgrwt>
</event>
<event>
 5    0  0.1257040E+001  0.2458845E+03  0.7546771E-02  0.1115934E+00
         21   -1    0    0  503  501  0.00000000000E+00  0.00000000000E+00  0.91152853549E+03  0.91152853549E+03  0.00000000000E+00 0.  1.
         21   -1    0    0  501  502 -0.00000000000E+00 -0.00000000000E+00 -0.68107732880E+02  0.68107732880E+02  0.00000000000E+00 0.  1.
         25    1    1    2    0    0  0.94113815529E+02 -0.18967544220E+03  0.59208763395E+03  0.64111383538E+03  0.12500000000E+03 0.  0.
         21    1    1    2  503  504 -0.36152868710E+02  0.15474372031E+02  0.71091116958E+02  0.81243049032E+02  0.00000000000E+00 0.  1.
         21    1    1    2  504  502 -0.57960946819E+02  0.17420107017E+03  0.18024205171E+03  0.25727938396E+03  0.00000000000E+00 0.  1.
<mgrwt>
<rscale>  4 0.24588449E+03</rscale>
<asrwt>0</asrwt>
<pdfrwt beam="1">  1       21 0.14023515E+00 0.24588449E+03</pdfrwt>
<pdfrwt beam="2">  1       21 0.10478113E-01 0.24588449E+03</pdfrwt>
<totfact> 0.25810321E+04</totfact>
</mgrwt>
</event>
<event>
 5    0  0.1257040E+001  0.2034236E+03  0.7546771E-02  0.1146882E+00
         21   -1    0    0  503  501  0.00000000000E+00  0.00000000000E+00  0.17788417449E+03  0.17788417449E+03  0.00000000000E+00 0.  1.
         21   -1    0    0  504  502 -0.00000000000E+00 -0.00000000000E+00 -0.46208835288E+03  0.46208835288E+03  0.00000000000E+00 0.  1.
         25    1    1    2    0    0 -0.12284252937E+03  0.16594010851E+03 -0.30735576907E+03  0.39079275251E+03  0.12500000000E+03 0.  0.
         21    1    1    2  503  502  0.49313954745E+02 -0.30217823553E+02 -0.51748781945E+02  0.77607470166E+02  0.00000000000E+00 0.  1.
         21    1    1    2  504  501  0.73528574621E+02 -0.13572228496E+03  0.74900372625E+02  0.17157230470E+03  0.00000000000E+00 0.  1.
<mgrwt>
<rscale>  4 0.20342359E+03</rscale>
<asrwt>0</asrwt>
<pdfrwt beam="1">  1       21 0.27366796E-01 0.20342359E+03</pdfrwt>
<pdfrwt beam="2">  1       21 0.71090515E-01 0.20342359E+03</pdfrwt>
<totfact> 0.22658431E+04</totfact>
</mgrwt>
</event>
<event>
 5    0  0.1257040E+001  0.2462829E+03  0.7546771E-02  0.1115677E+00
         21   -1    0    0  504  501  0.00000000000E+00  0.00000000000E+00  0.13411334378E+03  0.13411334378E+03  0.00000000000E+00 0. -1.
         21   -1    0    0  501  502 -0.00000000000E+00 -0.00000000000E+00 -0.63904576536E+03  0.63904576536E+03  0.00000000000E+00 0. -1.
         25    1    1    2    0    0  0.16284276487E+03 -0.18096049705E+03 -0.12697677824E+03  0.30168289606E+03  0.12500000000E+03 0.  0.
         21    1    1    2  503  502 -0.20178267320E+02  0.36354670547E+02  0.90968646725E+00  0.41589085973E+02  0.00000000000E+00 0. -1.
         21    1    1    2  504  503 -0.14266449755E+03  0.14460582650E+03 -0.37886532981E+03  0.42988712710E+03  0.00000000000E+00 0. -1.
<mgrwt>
<rscale>  4 0.24628286E+03</rscale>
<asrwt>0</asrwt>
<pdfrwt beam="1">  1       21 0.20632822E-01 0.24628286E+03</pdfrwt>
<pdfrwt beam="2">  1       21 0.98314736E-01 0.24628286E+03</pdfrwt>
<totfact> 0.18042144E+04</totfact>
</mgrwt>
</event>
<event>
 5    0  0.1257040E+001  0.3830903E+03  0.7546771E-02  0.1049797E+00
         21   -1    0    0  503  501  0.00000000000E+00  0.00000000000E+00  0.26924896378E+03  0.26924896378E+03  0.00000000000E+00 0. -1.
         21   -1    0    0  504  502 -0.00000000000E+00 -0.00000000000E+00 -0.24132766273E+04  0.24132766273E+04  0.00000000000E+00 0.  1.
         25    1    1    2    0    0  0.79776381081E+02  0.43295607951E+03 -0.16449325950E+04  0.17074084104E+04  0.12500000000E+03 0.  0.
         21    1    1    2  503  502 -0.77461355113E+02 -0.76685535766E+02 -0.59600825364E+03  0.60589336631E+03  0.00000000000E+00 0.  1.
         21    1    1    2  504  501 -0.23150259684E+01 -0.35627054374E+03  0.96913185100E+02  0.36922381441E+03  0.00000000000E+00 0. -1.
<mgrwt>
<rscale>  4 0.38309025E+03</rscale>
<asrwt>0</asrwt>
<pdfrwt beam="1">  1       21 0.41422917E-01 0.38309025E+03</pdfrwt>
<pdfrwt beam="2">  1       21 0.37127333E+00 0.38309025E+03</pdfrwt>
<totfact> 0.57841532E+01</totfact>
</mgrwt>
</event>
<event>
 5    0  0.1257040E+001  0.2192143E+03  0.7546771E-02  0.1134470E+00
         21   -1    0    0  502  501  0.00000000000E+00  0.00000000000E+00  0.79798827080E+02  0.79798827080E+02  0.00000000000E+00 0. -1.
         21   -1    0    0  504  502 -0.00000000000E+00 -0.00000000000E+00 -0.98865060964E+03  0.98865060964E+03  0.00000000000E+00 0. -1.
         25    1    1    2    0    0 -0.18482909345E+03 -0.79309077384E+02 -0.77746236166E+03  0.81272655140E+03  0.12500000000E+03 0.  0.
         21    1    1    2  503  501  0.20725795429E+02  0.13966523334E+02 -0.60383340570E+02  0.65351129972E+02  0.00000000000E+00 0. -1.
         21    1    1    2  504  503  0.16410329802E+03  0.65342554050E+02 -0.71006080328E+02  0.19037175535E+03  0.00000000000E+00 0. -1.
<mgrwt>
<rscale>  4 0.21921429E+03</rscale>
<asrwt>0</asrwt>
<pdfrwt beam="1">  1       21 0.12276742E-01 0.21921429E+03</pdfrwt>
<pdfrwt beam="2">  1       21 0.15210010E+00 0.21921429E+03</pdfrwt>
<totfact> 0.15940796E+04</totfact>
</mgrwt>
</event>
<event>
 5    0  0.1257040E+001  0.2626418E+03  0.7546771E-02  0.1105566E+00
         21   -1    0    0  502  501  0.00000000000E+00  0.00000000000E+00  0.18081931023E+03  0.18081931023E+03  0.00000000000E+00 0. -1.
         21   -1    0    0  504  502 -0.00000000000E+00 -0.00000000000E+00 -0.53482665115E+03  0.53482665115E+03  0.00000000000E+00 0. -1.
         25    1    1    2    0    0  0.17624700631E+03 -0.17804585317E+03 -0.27041846644E+03  0.38924860958E+03  0.12500000000E+03 0.  0.
         21    1    1    2  503  501 -0.17453310334E+03  0.14197456083E+03  0.10893163545E+02  0.22524928656E+03  0.00000000000E+00 0. -1.
         21    1    1    2  504  503 -0.17139029749E+01  0.36071292342E+02 -0.94482038021E+02  0.10114806525E+03  0.00000000000E+00 0.  1.
<mgrwt>
<rscale>  4 0.26264181E+03</rscale>
<asrwt>0</asrwt>
<pdfrwt beam="1">  1       21 0.27818356E-01 0.26264181E+03</pdfrwt>
<pdfrwt beam="2">  1       21 0.82281022E-01 0.26264181E+03</pdfrwt>
<totfact> 0.15302071E+04</totfact>
</mgrwt>
</event>
<event>
 5    0  0.1257040E+001  0.2179077E+03  0.7546771E-02  0.1135453E+00
         21   -1    0    0  502  501  0.00000000000E+00  0.00000000000E+00  0.98298247113E+03  0.98298247113E+03  0.00000000000E+00 0. -1.
         21   -1    0    0  504  502 -0.00000000000E+00 -0.00000000000E+00 -0.84009914989E+02  0.84009914989E+02  0.00000000000E+00 0. -1.
         25    1    1    2    0    0 -0.15437035634E+03 -0.16323757310E+03  0.65136385297E+03  0.70026893487E+03  0.12500000000E+03 0.  0.
         21    1    1    2  503  501  0.36666286415E+01  0.83894404061E+02  0.14592976740E+03  0.16836630367E+03  0.00000000000E+00 0. -1.
         21    1    1    2  504  503  0.15070372770E+03  0.79343169041E+02  0.10167893577E+03  0.19835714757E+03  0.00000000000E+00 0. -1.
<mgrwt>
<rscale>  4 0.21790773E+03</rscale>
<asrwt>0</asrwt>
<pdfrwt beam="1">  1       21 0.15122806E+00 0.21790773E+03</pdfrwt>
<pdfrwt beam="2">  1       21 0.12924603E-01 0.21790773E+03</pdfrwt>
<totfact> 0.14766911E+04</totfact>
</mgrwt>
</event>
<event>
 5    0  0.1257040E+001  0.2354338E+03  0.7546771E-02  0.1122873E+00
         21   -1    0    0  504  501  0.00000000000E+00  0.00000000000E+00  0.20413538335E+03  0.20413538335E+03  0.00000000000E+00 0.  1.
         21   -1    0    0  503  502 -0.00000000000E+00 -0.00000000000E+00 -0.65986198484E+03  0.65986198484E+03  0.00000000000E+00 0. -1.
         25    1    1    2    0    0  0.10224874463E+03  0.19644869925E+03  0.84449056547E+02  0.26796182632E+03  0.12500000000E+03 0.  0.
         21    1    1    2  503  501 -0.87274878455E+02 -0.17697312054E+03 -0.53593384184E+03  0.57110548293E+03  0.00000000000E+00 0. -1.
         21    1    1    2  504  502 -0.14973866172E+02 -0.19475578706E+02 -0.42418161932E+01  0.24930058939E+02  0.00000000000E+00 0. -1.
<mgrwt>
<rscale>  4 0.23543382E+03</rscale>
<asrwt>0</asrwt>
<pdfrwt beam="1">  1       21 0.31405444E-01 0.23543382E+03</pdfrwt>
<pdfrwt beam="2">  1       21 0.10151723E+00 0.23543382E+03</pdfrwt>
<totfact> 0.74921918E+03</totfact>
</mgrwt>
</event>
<event>
 5    0  0.1257040E+001  0.2273310E+03  0.7546771E-02  0.1128533E+00
         21   -1    0    0  503  501  0.00000000000E+00  0.00000000000E+00  0.34106398813E+03  0.34106398813E+03  0.00000000000E+00 0. -1.
         21   -1    0    0  504  502 -0.00000000000E+00 -0.00000000000E+00 -0.15188028550E+03  0.15188028550E+03  0.00000000000E+00 0. -1.
         25    1    1    2    0    0  0.15552454015E+03  0.13076182573E+03  0.11719861052E+03  0.26579513157E+03  0.12500000000E+03 0.  0.
         21    1    1    2  503  502 -0.14228829705E+03 -0.11374784428E+03  0.36739406077E+02  0.18583410751E+03  0.00000000000E+00 0. -1.
         21    1    1    2  504  501 -0.13236243102E+02 -0.17013981448E+02  0.35245686031E+02  0.41315034551E+02  0.00000000000E+00 0. -1.
<mgrwt>
<rscale>  4 0.22733097E+03</rscale>
<asrwt>0</asrwt>
<pdfrwt beam="1">  1       21 0.52471383E-01 0.22733097E+03</pdfrwt>
<pdfrwt beam="2">  1       21 0.23366198E-01 0.22733097E+03</pdfrwt>
<totfact> 0.58413237E+04</totfact>
</mgrwt>
</event>
<event>
 5    0  0.1257040E+001  0.3144580E+03  0.7546771E-02  0.1078229E+00
         21   -1    0    0  504  501  0.00000000000E+00  0.00000000000E+00  0.75764333414E+02  0.75764333414E+02  0.00000000000E+00 0.  1.
         21   -1    0    0  503  502 -0.00000000000E+00 -0.00000000000E+00 -0.14706705233E+04  0.14706705233E+04  0.00000000000E+00 0.  1.
         25    1    1    2    0    0 -0.23710980122E+03  0.14591164803E+03 -0.72775580425E+03  0.78915446998E+03  0.12500000000E+03 0.  0.
         21    1    1    2  503  501  0.25315525585E+03 -0.15917368450E+03 -0.67232569605E+03  0.73582993074E+03  0.00000000000E+00 0.  1.
         21    1    1    2  504  502 -0.16045454621E+02  0.13262036468E+02  0.51753104026E+01  0.21450456010E+02  0.00000000000E+00 0. -1.
<mgrwt>
<rscale>  4 0.31445802E+03</rscale>
<asrwt>0</asrwt>
<pdfrwt beam="1">  1       21 0.11656051E-01 0.31445802E+03</pdfrwt>
<pdfrwt beam="2">  1       21 0.22625701E+00 0.31445802E+03</pdfrwt>
<totfact> 0.51890201E+03</totfact>
</mgrwt>
</event>
<event>
 5    0  0.1257040E+001  0.2578623E+03  0.7546771E-02  0.1108434E+00
         21   -1    0    0  504  501  0.00000000000E+00  0.00000000000E+00  0.10293840376E+03  0.10293840376E+03  0.00000000000E+00 0. -1.
         21   -1    0    0  503  502 -0.00000000000E+00 -0.00000000000E+00 -0.99516447494E+03  0.99516447494E+03  0.00000000000E+00 0. -1.
         25    1    1    2    0    0  0.63552366665E+02 -0.21065174134E+03 -0.40415323376E+03  0.47684158354E+03  0.12500000000E+03 0.  0.
         21    1    1    2  503  501  0.20041632230E+02 -0.17139253629E+01 -0.35801306246E+03  0.35857768677E+03  0.00000000000E+00 0. -1.
         21    1    1    2  504  502 -0.83593998894E+02  0.21236566670E+03 -0.13005977497E+03  0.26268360838E+03  0.00000000000E+00 0. -1.
<mgrwt>
<rscale>  4 0.25786233E+03</rscale>
<asrwt>0</asrwt>
<pdfrwt beam="1">  1       21 0.15836677E-01 0.25786233E+03</pdfrwt>
<pdfrwt beam="2">  1       21 0.15310223E+00 0.25786233E+03</pdfrwt>
<totfact> 0.96249702E+03</totfact>
</mgrwt>
</event>
<event>
 5    0  0.1257040E+001  0.2000688E+03  0.7546771E-02  0.1149681E+00
         21   -1    0    0  504  501  0.00000000000E+00  0.00000000000E+00  0.74604445590E+02  0.74604445590E+02  0.00000000000E+00 0. -1.
         21   -1    0    0  503  502 -0.00000000000E+00 -0.00000000000E+00 -0.14574456901E+04  0.14574456901E+04  0.00000000000E+00 0. -1.
         25    1    1    2    0    0 -0.20316777486E+03  0.15563332661E+02 -0.18471177219E+03  0.30209733671E+03  0.12500000000E+03 0.  0.
         21    1    1    2  503  501  0.13819687960E+03 -0.65300293219E+02 -0.10469722875E+04  0.10580706387E+04  0.00000000000E+00 0. -1.
         21    1    1    2  504  502  0.64970895259E+02  0.49736960558E+02 -0.15115718484E+03  0.17188216023E+03  0.00000000000E+00 0. -1.
<mgrwt>
<rscale>  4 0.20006881E+03</rscale>
<asrwt>0</asrwt>
<pdfrwt beam="1">  1       21 0.11477607E-01 0.20006881E+03</pdfrwt>
<pdfrwt beam="2">  1       21 0.22422242E+00 0.20006881E+03</pdfrwt>
<totfact> 0.59807609E+03</totfact>
</mgrwt>
</event>
<event>
 5    0  0.1257040E+001  0.2808138E+03  0.7546771E-02  0.1095245E+00
         21   -1    0    0  502  501  0.00000000000E+00  0.00000000000E+00  0.32633268571E+03  0.32633268571E+03  0.00000000000E+00 0.  1.
         21   -1    0    0  504  502 -0.00000000000E+00 -0.00000000000E+00 -0.79709511206E+03  0.79709511206E+03  0.00000000000E+00 0. -1.
         25    1    1    2    0    0  0.11483475775E+03  0.25380640756E+03  0.21305264079E+03  0.37231860261E+03  0.12500000000E+03 0.  0.
         21    1    1    2  503  501 -0.24188272639E+02 -0.21451462713E+02 -0.11989731113E+02  0.34481755146E+02  0.00000000000E+00 0.  1.
         21    1    1    2  504  503 -0.90646485108E+02 -0.23235494485E+03 -0.67182533602E+03  0.71662744001E+03  0.00000000000E+00 0. -1.
<mgrwt>
<rscale>  4 0.28081377E+03</rscale>
<asrwt>0</asrwt>
<pdfrwt beam="1">  1       21 0.50205029E-01 0.28081377E+03</pdfrwt>
<pdfrwt beam="2">  1       21 0.12263002E+00 0.28081377E+03</pdfrwt>
<totfact> 0.17631039E+03</totfact>
</mgrwt>
</event>
<event>
 5    0  0.1257040E+001  0.2499855E+03  0.7546771E-02  0.1113314E+00
         21   -1    0    0  504  501  0.00000000000E+00  0.00000000000E+00  0.26442993278E+03  0.26442993278E+03  0.00000000000E+00 0.  1.
         21   -1    0    0  503  502 -0.00000000000E+00 -0.00000000000E+00 -0.82380392386E+03  0.82380392386E+03  0.00000000000E+00 0. -1.
         25    1    1    2    0    0  0.18584123367E+03  0.16174233713E+03 -0.68243775111E+03  0.73623626092E+03  0.12500000000E+03 0.  0.
         21    1    1    2  503  501 -0.27310283632E+02 -0.17367758372E+02 -0.61231936143E+02  0.69259227737E+02  0.00000000000E+00 0.  1.
         21    1    1    2  504  502 -0.15853095003E+03 -0.14437457875E+03  0.18429569616E+03  0.28273836799E+03  0.00000000000E+00 0.  1.
<mgrwt>
<rscale>  4 0.24998554E+03</rscale>
<asrwt>0</asrwt>
<pdfrwt beam="1">  1       21 0.40681529E-01 0.24998554E+03</pdfrwt>
<pdfrwt beam="2">  1       21 0.12673906E+00 0.24998554E+03</pdfrwt>
<totfact> 0.25612149E+03</totfact>
</mgrwt>
</event>
<event>
 5    0  0.1257040E+001  0.3961755E+03  0.7546771E-02  0.1045112E+00
         21   -1    0    0  504  501  0.00000000000E+00  0.00000000000E+00  0.11129146107E+04  0.11129146107E+04  0.00000000000E+00 0. -1.
         21   -1    0    0  501  502 -0.00000000000E+00 -0.00000000000E+00 -0.27017792522E+03  0.27017792522E+03  0.00000000000E+00 0. -1.
         25    1    1    2    0    0  0.30731088256E+03 -0.21290615208E+03  0.29255981057E+01  0.39421132310E+03  0.12500000000E+03 0.  0.
         21    1    1    2  503  502 -0.24702616353E+03  0.31141693342E+03  0.72020045671E+03  0.82261238122E+03  0.00000000000E+00 0. -1.
         21    1    1    2  504  503 -0.60284719030E+02 -0.98510781343E+02  0.11961063065E+03  0.16626883158E+03  0.00000000000E+00 0. -1.
<mgrwt>
<rscale>  4 0.39617552E+03</rscale>
<asrwt>0</asrwt>
<pdfrwt beam="1">  1       21 0.17121763E+00 0.39617552E+03</pdfrwt>
<pdfrwt beam="2">  1       21 0.41565835E-01 0.39617552E+03</pdfrwt>
<totfact> 0.10051475E+03</totfact>
</mgrwt>
</event>
<event>
 5    0  0.1257040E+001  0.2883108E+03  0.7546771E-02  0.1091234E+00
         21   -1    0    0  502  501  0.00000000000E+00  0.00000000000E+00  0.89331947926E+02  0.89331947926E+02  0.00000000000E+00 0.  1.
         21   -1    0    0  504  502 -0.00000000000E+00 -0.00000000000E+00 -0.13643375388E+04  0.13643375388E+04  0.00000000000E+00 0.  1.
         25    1    1    2    0    0 -0.26404348442E+03  0.12013701177E+03 -0.74664798540E+03  0.81071578088E+03  0.12500000000E+03 0.  0.
         21    1    1    2  503  501  0.78845157181E+02  0.29701251961E+02 -0.28006716592E+02  0.88786819705E+02  0.00000000000E+00 0.  1.
         21    1    1    2  504  503  0.18519832724E+03 -0.14983826374E+03 -0.50035088886E+03  0.55416688612E+03  0.00000000000E+00 0.  1.
<mgrwt>
<rscale>  4 0.28831082E+03</rscale>
<asrwt>0</asrwt>
<pdfrwt beam="1">  1       21 0.13743378E-01 0.28831082E+03</pdfrwt>
<pdfrwt beam="2">  1       21 0.20989806E+00 0.28831082E+03</pdfrwt>
<totfact> 0.49583053E+03</totfact>
</mgrwt>
</event>
<event>
 5    0  0.1257040E+001  0.2488004E+03  0.7546771E-02  0.1114065E+00
         21   -1    0    0  503  501  0.00000000000E+00  0.00000000000E+00  0.53309598049E+03  0.53309598049E+03  0.00000000000E+00 0.  1.
         21   -1    0    0  504  502 -0.00000000000E+00 -0.00000000000E+00 -0.51694054545E+03  0.51694054545E+03  0.00000000000E+00 0.  1.
         25    1    1    2    0    0  0.24340732137E+03 -0.11728889004E+02  0.40098361997E+03  0.48558990353E+03  0.12500000000E+03 0.  0.
         21    1    1    2  503  502 -0.21275095461E+03 -0.19808017468E+02 -0.44281265087E+03  0.49166896385E+03  0.00000000000E+00 0.  1.
         21    1    1    2  504  501 -0.30656366758E+02  0.31536906472E+02  0.57984465945E+02  0.72777658547E+02  0.00000000000E+00 0.  1.
<mgrwt>
<rscale>  4 0.24880040E+03</rscale>
<asrwt>0</asrwt>
<pdfrwt beam="1">  1       21 0.82014766E-01 0.24880040E+03</pdfrwt>
<pdfrwt beam="2">  1       21 0.79529315E-01 0.24880040E+03</pdfrwt>
<totfact> 0.17293896E+03</totfact>
</mgrwt>
</event>
<event>
 5    0  0.1257040E+001  0.2568328E+03  0.7546771E-02  0.1109061E+00
         21   -1    0    0  502  501  0.00000000000E+00  0.00000000000E+00  0.11587808642E+04  0.11587808642E+04  0.00000000000E+00 0.  1.
         21   -1    0    0  504  502 -0.00000000000E+00 -0.00000000000E+00 -0.18782127176E+03  0.18782127176E+03  0.00000000000E+00 0. -1.
         25    1    1    2    0    0  0.97572392674E+02  0.18253623571E+03 -0.23405960846E+02  0.24292527280E+03  0.12500000000E+03 0.  0.
         21    1    1    2  503  501 -0.95083624073E+02 -0.20500572006E+03  0.10338059065E+04  0.10582168460E+04  0.00000000000E+00 0.  1.
         21    1    1    2  504  503 -0.24887686004E+01  0.22469484345E+02 -0.39440353241E+02  0.45460017154E+02  0.00000000000E+00 0.  1.
<mgrwt>
<rscale>  4 0.25683277E+03</rscale>
<asrwt>0</asrwt>
<pdfrwt beam="1">  1       21 0.17827397E+00 0.25683277E+03</pdfrwt>
<pdfrwt beam="2">  1       21 0.28895581E-01 0.25683277E+03</pdfrwt>
<totfact> 0.20257353E+03</totfact>
</mgrwt>
</event>
<event>
 5    0  0.1257040E+001  0.2878647E+03  0.7546771E-02  0.1091469E+00
         21   -1    0    0  503  501  0.00000000000E+00  0.00000000000E+00  0.17681295853E+04  0.17681295853E+04  0.00000000000E+00 0.  1.
         21   -1    0    0  504  502 -0.00000000000E+00 -0.00000000000E+00 -0.59183701661E+02  0.59183701661E+02  0.00000000000E+00 0.  1.
         25    1    1    2    0    0 -0.14843494857E+03 -0.23852815452E+03  0.75619049014E+03  0.81631958927E+03  0.12500000000E+03 0.  0.
         21    1    1    2  503  502  0.17244771852E+03  0.17568148475E+03  0.54894058863E+03  0.60161280700E+03  0.00000000000E+00 0.  1.
         21    1    1    2  504  501 -0.24012769945E+02  0.62846669772E+02  0.40381480492E+03  0.40938089073E+03  0.00000000000E+00 0.  1.
<mgrwt>
<rscale>  4 0.28786472E+03</rscale>
<asrwt>0</asrwt>
<pdfrwt beam="1">  1       21 0.27201990E+00 0.28786472E+03</pdfrwt>
<pdfrwt beam="2">  1       21 0.91051862E-02 0.28786472E+03</pdfrwt>
<totfact> 0.43449869E+03</totfact>
</mgrwt>
</event>
<event>
 5    0  0.1257040E+001  0.2400866E+03  0.7546771E-02  0.1119735E+00
         21   -1    0    0  504  501  0.00000000000E+00  0.00000000000E+00  0.49498101904E+03  0.49498101904E+03  0.00000000000E+00 0.  1.
         21   -1    0    0  501  502 -0.00000000000E+00 -0.00000000000E+00 -0.10556239740E+03  0.10556239740E+03  0.00000000000E+00 0.  1.
         25    1    1    2    0    0  0.19817450992E+03 -0.52377697653E+02  0.16437508788E+03  0.29096516820E+03  0.12500000000E+03 0.  0.
         21    1    1    2  503  502 -0.20999887361E+02 -0.65846255243E+01  0.45462118868E+02  0.50508977563E+02  0.00000000000E+00 0.  1.
         21    1    1    2  504  503 -0.17717462256E+03  0.58962323178E+02  0.17958141490E+03  0.25906927068E+03  0.00000000000E+00 0.  1.
<mgrwt>
<rscale>  4 0.24008657E+03</rscale>
<asrwt>0</asrwt>
<pdfrwt beam="1">  1       21 0.76150925E-01 0.24008657E+03</pdfrwt>
<pdfrwt beam="2">  1       21 0.16240369E-01 0.24008657E+03</pdfrwt>
<totfact> 0.51010256E+04</totfact>
</mgrwt>
</event>
<event>
 5    0  0.1257040E+001  0.2948537E+03  0.7546771E-02  0.1087842E+00
         21   -1    0    0  504  501  0.00000000000E+00  0.00000000000E+00  0.67125634000E+03  0.67125634000E+03  0.00000000000E+00 0.  1.
         21   -1    0    0  503  502 -0.00000000000E+00 -0.00000000000E+00 -0.23463876446E+03  0.23463876446E+03  0.00000000000E+00 0. -1.
         25    1    1    2    0    0  0.10248707677E+03 -0.28326188512E+03  0.30589103308E+03  0.44714116405E+03  0.12500000000E+03 0.  0.
         21    1    1    2  503  501 -0.10101521781E+03  0.23717115579E+03 -0.58204647216E+02  0.26427639382E+03  0.00000000000E+00 0. -1.
         21    1    1    2  504  502 -0.14718589609E+01  0.46090729323E+02  0.18893118968E+03  0.19447754660E+03  0.00000000000E+00 0. -1.
<mgrwt>
<rscale>  4 0.29485369E+03</rscale>
<asrwt>0</asrwt>
<pdfrwt beam="1">  1       21 0.10327021E+00 0.29485369E+03</pdfrwt>
<pdfrwt beam="2">  1       21 0.36098272E-01 0.29485369E+03</pdfrwt>
<totfact> 0.52667167E+03</totfact>
</mgrwt>
</event>
<event>
 5    0  0.1257040E+001  0.3461939E+03  0.7546771E-02  0.1064188E+00
         21   -1    0    0  502  501  0.00000000000E+00  0.00000000000E+00  0.68744004792E+03  0.68744004792E+03  0.00000000000E+00 0.  1.
         21   -1    0    0  504  502 -0.00000000000E+00 -0.00000000000E+00 -0.20216037244E+03  0.20216037244E+03  0.00000000000E+00 0.  1.
         25    1    1    2    0    0  0.19043713192E+03  0.26068926697E+03  0.43207849009E+03  0.55366236708E+03  0.12500000000E+03 0.  0.
         21    1    1    2  503  501 -0.18720951695E+03 -0.23204778152E+03  0.31400672775E+02  0.29979923014E+03  0.00000000000E+00 0.  1.
         21    1    1    2  504  503 -0.32276149635E+01 -0.28641485449E+02  0.21800512622E+02  0.36138823136E+02  0.00000000000E+00 0. -1.
<mgrwt>
<rscale>  4 0.34619387E+03</rscale>
<asrwt>0</asrwt>
<pdfrwt beam="1">  1       21 0.10576001E+00 0.34619387E+03</pdfrwt>
<pdfrwt beam="2">  1       21 0.31101596E-01 0.34619387E+03</pdfrwt>
<totfact> 0.65326860E+03</totfact>
</mgrwt>
</event>
<event>
 5    0  0.1257040E+001  0.1985165E+03  0.7546771E-02  0.1150997E+00
         21   -1    0    0  502  501  0.00000000000E+00  0.00000000000E+00  0.42308801492E+03  0.42308801492E+03  0.00000000000E+00 0.  1.
         21   -1    0    0  504  502 -0.00000000000E+00 -0.00000000000E+00 -0.31542541799E+03  0.31542541799E+03  0.00000000000E+00 0.  1.
         25    1    1    2    0    0 -0.11318044050E+02  0.25839873794E+03  0.33994778006E+02  0.28927262370E+03  0.12500000000E+03 0.  0.
         21    1    1    2  503  501  0.32054124614E+02 -0.12291168106E+03  0.21667034137E+03  0.25115888413E+03  0.00000000000E+00 0.  1.
         21    1    1    2  504  503 -0.20736080563E+02 -0.13548705688E+03 -0.14300252244E+03  0.19808192508E+03  0.00000000000E+00 0.  1.
<mgrwt>
<rscale>  4 0.19851648E+03</rscale>
<asrwt>0</asrwt>
<pdfrwt beam="1">  1       21 0.65090464E-01 0.19851648E+03</pdfrwt>
<pdfrwt beam="2">  1       21 0.48526988E-01 0.19851648E+03</pdfrwt>
<totfact> 0.87746863E+03</totfact>
</mgrwt>
</event>
<event>
 5    0  0.1257040E+001  0.3366142E+03  0.7546771E-02  0.1068247E+00
         21   -1    0    0  503  501  0.00000000000E+00  0.00000000000E+00  0.72616997313E+03  0.72616997313E+03  0.00000000000E+00 0.  1.
         21   -1    0    0  504  502 -0.00000000000E+00 -0.00000000000E+00 -0.25993381526E+03  0.25993381526E+03  0.00000000000E+00 0. -1.
         25    1    1    2    0    0  0.24944227867E+02 -0.22898395262E+03  0.52858637621E+02  0.26734790187E+03  0.12500000000E+03 0.  0.
         21    1    1    2  503  502 -0.11884057417E+03 -0.14826268438E+03  0.78266825043E+02  0.20550085536E+03  0.00000000000E+00 0. -1.
         21    1    1    2  504  501  0.93896346305E+02  0.37724663700E+03  0.33511069520E+03  0.51325503117E+03  0.00000000000E+00 0.  1.
<mgrwt>
<rscale>  4 0.33661419E+03</rscale>
<asrwt>0</asrwt>
<pdfrwt beam="1">  1       21 0.11171846E+00 0.33661419E+03</pdfrwt>
<pdfrwt beam="2">  1       21 0.39989818E-01 0.33661419E+03</pdfrwt>
<totfact> 0.34563171E+03</totfact>
</mgrwt>
</event>
<event>
 5    0  0.1257040E+001  0.3309505E+03  0.7546771E-02  0.1070717E+00
         21   -1    0    0  503  501  0.00000000000E+00  0.00000000000E+00  0.85766494312E+02  0.85766494312E+02  0.00000000000E+00 0. -1.
         21   -1    0    0  504  502 -0.00000000000E+00 -0.00000000000E+00 -0.21139812000E+04  0.21139812000E+04  0.00000000000E+00 0. -1.
         25    1    1    2    0    0 -0.16088875369E+03  0.25631866950E+03 -0.32383661205E+03  0.46052101222E+03  0.12500000000E+03 0.  0.
         21    1    1    2  503  502  0.16593486428E+03 -0.27664318227E+03 -0.16431263043E+04  0.16744939180E+04  0.00000000000E+00 0. -1.
         21    1    1    2  504  501 -0.50461105900E+01  0.20324512767E+02 -0.61251789375E+02  0.64732764137E+02  0.00000000000E+00 0.  1.
<mgrwt>
<rscale>  4 0.33095052E+03</rscale>
<asrwt>0</asrwt>
<pdfrwt beam="1">  1       21 0.13194845E-01 0.33095052E+03</pdfrwt>
<pdfrwt beam="2">  1       21 0.32522787E+00 0.33095052E+03</pdfrwt>
<totfact> 0.10457139E+03</totfact>
</mgrwt>
</event>
<event>
 5    0  0.1257040E+001  0.1866105E+03  0.7546771E-02  0.1161554E+00
         21   -1    0    0  502  501  0.00000000000E+00  0.00000000000E+00  0.30116005870E+03  0.30116005870E+03  0.00000000000E+00 0.  1.
         21   -1    0    0  504  502 -0.00000000000E+00 -0.00000000000E+00 -0.23629454866E+03  0.23629454866E+03  0.00000000000E+00 0.  1.
         25    1    1    2    0    0  0.19966571139E+03  0.11877309095E+02  0.12799732166E+03  0.26835756208E+03  0.12500000000E+03 0.  0.
         21    1    1    2  503  501 -0.69825499851E+02 -0.14183726336E+02  0.57723749760E+02  0.91699562750E+02  0.00000000000E+00 0. -1.
         21    1    1    2  504  503 -0.12984021154E+03  0.23064172414E+01 -0.12085556138E+03  0.17739748253E+03  0.00000000000E+00 0.  1.
<mgrwt>
<rscale>  4 0.18661053E+03</rscale>
<asrwt>0</asrwt>
<pdfrwt beam="1">  1       21 0.46332317E-01 0.18661053E+03</pdfrwt>
<pdfrwt beam="2">  1       21 0.36353007E-01 0.18661053E+03</pdfrwt>
<totfact> 0.32668131E+04</totfact>
</mgrwt>
</event>
<event>
 5    0  0.1257040E+001  0.2178460E+03  0.7546771E-02  0.1135499E+00
         21   -1    0    0  504  501  0.00000000000E+00  0.00000000000E+00  0.13048660233E+03  0.13048660233E+03  0.00000000000E+00 0.  1.
         21   -1    0    0  503  502 -0.00000000000E+00 -0.00000000000E+00 -0.63804669443E+03  0.63804669443E+03  0.00000000000E+00 0.  1.
         25    1    1    2    0    0 -0.13748733268E+03 -0.16061345214E+03 -0.34413241580E+03  0.42279021661E+03  0.12500000000E+03 0.  0.
         21    1    1    2  503  501  0.12247353124E+03  0.99501008807E+02 -0.21338621028E+03  0.26539384195E+03  0.00000000000E+00 0.  1.
         21    1    1    2  504  502  0.15013801443E+02  0.61112443329E+02  0.49958533969E+02  0.80349238203E+02  0.00000000000E+00 0.  1.
<mgrwt>
<rscale>  4 0.21784600E+03</rscale>
<asrwt>0</asrwt>
<pdfrwt beam="1">  1       21 0.20074862E-01 0.21784600E+03</pdfrwt>
<pdfrwt beam="2">  1       21 0.98161029E-01 0.21784600E+03</pdfrwt>
<totfact> 0.19363826E+04</totfact>
</mgrwt>
</event>
<event>
 5    0  0.1257040E+001  0.2206317E+03  0.7546771E-02  0.1133413E+00
         21   -1    0    0  504  501  0.00000000000E+00  0.00000000000E+00  0.34206258471E+03  0.34206258471E+03  0.00000000000E+00 0.  1.
         21   -1    0    0  503  502 -0.00000000000E+00 -0.00000000000E+00 -0.94135454138E+03  0.94135454138E+03  0.00000000000E+00 0.  1.
         25    1    1    2    0    0 -0.93282266349E+02  0.21174989905E+03 -0.44415483428E+03  0.51617644055E+03  0.12500000000E+03 0.  0.
         21    1    1    2  503  501  0.30293399915E+02 -0.44087739805E+02 -0.43319896918E+03  0.43648913592E+03  0.00000000000E+00 0.  1.
         21    1    1    2  504  502  0.62988866435E+02 -0.16766215924E+03  0.27806184679E+03  0.33075154962E+03  0.00000000000E+00 0.  1.
<mgrwt>
<rscale>  4 0.22063175E+03</rscale>
<asrwt>0</asrwt>
<pdfrwt beam="1">  1       21 0.52625014E-01 0.22063175E+03</pdfrwt>
<pdfrwt beam="2">  1       21 0.14482377E+00 0.22063175E+03</pdfrwt>
<totfact> 0.10914346E+03</totfact>
</mgrwt>
</event>
<event>
 5    0  0.1257040E+001  0.3076303E+03  0.7546771E-02  0.1081487E+00
         21   -1    0    0  502  501  0.00000000000E+00  0.00000000000E+00  0.10646097580E+03  0.10646097580E+03  0.00000000000E+00 0. -1.
         21   -1    0    0  504  502 -0.00000000000E+00 -0.00000000000E+00 -0.13784275783E+04  0.13784275783E+04  0.00000000000E+00 0. -1.
         25    1    1    2    0    0 -0.31181019251E+03 -0.27931566944E+02 -0.48002685285E+03  0.58656333677E+03  0.12500000000E+03 0.  0.
         21    1    1    2  503  501  0.26036054637E+03 -0.40487203835E+02 -0.30124452268E+03  0.40021880293E+03  0.00000000000E+00 0. -1.
         21    1    1    2  504  503  0.51449646143E+02  0.68418770779E+02 -0.49069522698E+03  0.49810641440E+03  0.00000000000E+00 0. -1.
<mgrwt>
<rscale>  4 0.30763032E+03</rscale>
<asrwt>0</asrwt>
<pdfrwt beam="1">  1       21 0.16378613E-01 0.30763032E+03</pdfrwt>
<pdfrwt beam="2">  1       21 0.21206577E+00 0.30763032E+03</pdfrwt>
<totfact> 0.34365549E+03</totfact>
</mgrwt>
</event>
<event>
 5    0  0.1257040E+001  0.4138206E+03  0.7546771E-02  0.1039096E+00
         21   -1    0    0  502  501  0.00000000000E+00  0.00000000000E+00  0.89016080391E+03  0.89016080391E+03  0.00000000000E+00 0. -1.
         21   -1    0    0  504  502 -0.00000000000E+00 -0.00000000000E+00 -0.31209834828E+03  0.31209834828E+03  0.00000000000E+00 0.  1.
         25    1    1    2    0    0 -0.33569683696E+03 -0.29467501934E+02 -0.34817493977E+02  0.36110657416E+03  0.12500000000E+03 0.  0.
         21    1    1    2  503  501  0.41261199149E+03 -0.36902086495E+02  0.61264962350E+03  0.73956066735E+03  0.00000000000E+00 0. -1.
         21    1    1    2  504  503 -0.76915154528E+02  0.66369588429E+02  0.23032610081E+00  0.10159191067E+03  0.00000000000E+00 0.  1.
<mgrwt>
<rscale>  4 0.41382063E+03</rscale>
<asrwt>0</asrwt>
<pdfrwt beam="1">  1       21 0.13694781E+00 0.41382063E+03</pdfrwt>
<pdfrwt beam="2">  1       21 0.48015131E-01 0.41382063E+03</pdfrwt>
<totfact> 0.13576643E+03</totfact>
</mgrwt>
</event>
