<event>
 5    0  0.1257040E+001  0.3733583E+03  0.7546771E-02  0.1053416E+00
         21   -1    0    0  503  501  0.00000000000E+00  0.00000000000E+00  0.64799092538E+03  0.64799092538E+03  0.00000000000E+00 0.  1.
         21   -1    0    0  504  502 -0.00000000000E+00 -0.00000000000E+00 -0.96066878979E+03  0.96066878979E+03  0.00000000000E+00 0.  1.
         25    1    1    2    0    0 -0.37819639774E+03  0.40933261904E+02  0.52225140346E+03  0.65808781755E+03  0.12500000000E+03 0.  0.
         21    1    1    2  503  502  0.34963205593E+03 -0.19065327317E+02 -0.84375993819E+03  0.91352990894E+03  0.00000000000E+00 0.  1.
         21    1    1    2  504  501  0.28564341814E+02 -0.21867934587E+02  0.88306703196E+01  0.37041988670E+02  0.00000000000E+00 0.  1.
<mgrwt>
<rscale>  4 0.37335828E+03</rscale>
<asrwt>0</asrwt>
<pdfrwt beam="1">  1       21 0.99690911E-01 0.37335828E+03</pdfrwt>
<pdfrwt beam="2">  1       21 0.14779520E+00 0.37335828E+03</pdfrwt>
<totfact> 0.21935733E+02</totfact>
</mgrwt>
</event>
<event>
 5    0  0.1257040E+001  0.3575989E+03  0.7546771E-02  0.1059539E+00
         21   -1    0    0  502  501  0.00000000000E+00  0.00000000000E+00  0.50844673306E+03  0.50844673306E+03  0.00000000000E+00 0.  1.
         21   -1    0    0  504  502 -0.00000000000E+00 -0.00000000000E+00 -0.77744461562E+03  0.77744461562E+03  0.00000000000E+00 0.  1.
         25    1    1    2    0    0  0.37362434991E+03  0.25769731723E+03 -0.24998178067E+03  0.53302809759E+03  0.12500000000E+03 0.  0.
         21    1    1    2  503  501 -0.22935809403E+03 -0.21486849523E+03  0.27819691632E+03  0.41972268200E+03  0.00000000000E+00 0.  1.
         21    1    1    2  504  503 -0.14426625588E+03 -0.42828822007E+02 -0.29721301821E+03  0.33314056909E+03  0.00000000000E+00 0.  1.
<mgrwt>
<rscale>  4 0.35759889E+03</rscale>
<asrwt>0</asrwt>
<pdfrwt beam="1">  1       21 0.78222575E-01 0.35759889E+03</pdfrwt>
<pdfrwt beam="2">  1       21 0.11960686E+00 0.35759889E+03</pdfrwt>
<totfact> 0.67828500E+02</totfact>
</mgrwt>
</event>
<event>
 5    0  0.1257040E+001  0.5496866E+03  0.7546771E-02  0.1001566E+00
         21   -1    0    0  502  501  0.00000000000E+00  0.00000000000E+00  0.19436441540E+03  0.19436441540E+03  0.00000000000E+00 0.  1.
         21   -1    0    0  504  502 -0.00000000000E+00 -0.00000000000E+00 -0.20808135223E+04  0.20808135223E+04  0.00000000000E+00 0.  1.
         25    1    1    2    0    0  0.20142097255E+03 -0.50399917141E+03 -0.12577604514E+04  0.13755624036E+04  0.12500000000E+03 0.  0.
         21    1    1    2  503  501 -0.16813177809E+03  0.50532114088E+03 -0.39371265863E+03  0.66228951961E+03  0.00000000000E+00 0.  1.
         21    1    1    2  504  503 -0.33289194463E+02 -0.13219694635E+01 -0.23497599682E+03  0.23732601449E+03  0.00000000000E+00 0.  1.
<mgrwt>
<rscale>  4 0.54968657E+03</rscale>
<asrwt>0</asrwt>
<pdfrwt beam="1">  1       21 0.29902216E-01 0.54968657E+03</pdfrwt>
<pdfrwt beam="2">  1       21 0.32012518E+00 0.54968657E+03</pdfrwt>
<totfact> 0.20668391E+02</totfact>
</mgrwt>
</event>
<event>
 5    0  0.1257040E+001  0.3750178E+03  0.7546771E-02  0.1052791E+00
         21   -1    0    0  504  501  0.00000000000E+00  0.00000000000E+00  0.10516645161E+04  0.10516645161E+04  0.00000000000E+00 0. -1.
         21   -1    0    0  503  502 -0.00000000000E+00 -0.00000000000E+00 -0.27950955471E+03  0.27950955471E+03  0.00000000000E+00 0.  1.
         25    1    1    2    0    0 -0.46094809050E+03 -0.13603133229E+03  0.49059087453E+03  0.69805592303E+03  0.12500000000E+03 0.  0.
         21    1    1    2  503  501  0.18986881913E+03  0.41109140789E+02 -0.43772741993E+02  0.19913860218E+03  0.00000000000E+00 0.  1.
         21    1    1    2  504  502  0.27107927137E+03  0.94922191504E+02  0.32533682887E+03  0.43397954563E+03  0.00000000000E+00 0. -1.
<mgrwt>
<rscale>  4 0.37501785E+03</rscale>
<asrwt>0</asrwt>
<pdfrwt beam="1">  1       21 0.16179454E+00 0.37501785E+03</pdfrwt>
<pdfrwt beam="2">  1       21 0.43001471E-01 0.37501785E+03</pdfrwt>
<totfact> 0.11105706E+03</totfact>
</mgrwt>
</event>
<event>
 5    0  0.1257040E+001  0.4110400E+03  0.7546771E-02  0.1040023E+00
         21   -1    0    0  502  501  0.00000000000E+00  0.00000000000E+00  0.17360801073E+03  0.17360801073E+03  0.00000000000E+00 0.  1.
         21   -1    0    0  504  502 -0.00000000000E+00 -0.00000000000E+00 -0.12852264175E+04  0.12852264175E+04  0.00000000000E+00 0.  1.
         25    1    1    2    0    0 -0.40397802412E+03 -0.61001127372E+01 -0.28603701825E+03  0.51056599099E+03  0.12500000000E+03 0.  0.
         21    1    1    2  503  501  0.37324129725E+03 -0.24081969997E+02 -0.52493092179E+03  0.64454750012E+03  0.00000000000E+00 0.  1.
         21    1    1    2  504  503  0.30736726865E+02  0.30182082735E+02 -0.30065046677E+03  0.30372093715E+03  0.00000000000E+00 0. -1.
<mgrwt>
<rscale>  4 0.41103998E+03</rscale>
<asrwt>0</asrwt>
<pdfrwt beam="1">  1       21 0.26708925E-01 0.41103998E+03</pdfrwt>
<pdfrwt beam="2">  1       21 0.19772714E+00 0.41103998E+03</pdfrwt>
<totfact> 0.15885529E+03</totfact>
</mgrwt>
</event>
<event>
 5    0  0.1257040E+001  0.3756696E+03  0.7546771E-02  0.1052546E+00
         21   -1    0    0  503  501  0.00000000000E+00  0.00000000000E+00  0.24434780741E+03  0.24434780741E+03  0.00000000000E+00 0. -1.
         21   -1    0    0  504  502 -0.00000000000E+00 -0.00000000000E+00 -0.11527273220E+04  0.11527273220E+04  0.00000000000E+00 0. -1.
         25    1    1    2    0    0 -0.15706419112E+03 -0.31059763390E+03 -0.89531430160E+03  0.96868609414E+03  0.12500000000E+03 0.  0.
         21    1    1    2  503  502 -0.20969970649E+02  0.30471294556E+01 -0.65805244273E+02  0.69132878146E+02  0.00000000000E+00 0. -1.
         21    1    1    2  504  501  0.17803416177E+03  0.30755050445E+03  0.52740031269E+02  0.35925615714E+03  0.00000000000E+00 0. -1.
<mgrwt>
<rscale>  4 0.37566964E+03</rscale>
<asrwt>0</asrwt>
<pdfrwt beam="1">  1       21 0.37591971E-01 0.37566964E+03</pdfrwt>
<pdfrwt beam="2">  1       21 0.17734266E+00 0.37566964E+03</pdfrwt>
<totfact> 0.11288690E+03</totfact>
</mgrwt>
</event>
<event>
 5    0  0.1257040E+001  0.8405363E+03  0.7546771E-02  0.9503128E-01
         21   -1    0    0  502  501  0.00000000000E+00  0.00000000000E+00  0.64568039432E+03  0.64568039432E+03  0.00000000000E+00 0. -1.
         21   -1    0    0  504  502 -0.00000000000E+00 -0.00000000000E+00 -0.12133061048E+04  0.12133061048E+04  0.00000000000E+00 0. -1.
         25    1    1    2    0    0  0.27466707357E+03 -0.75696056295E+03 -0.13645683975E+03  0.82624255777E+03  0.12500000000E+03 0.  0.
         21    1    1    2  503  501 -0.51323190273E+02 -0.65776577229E+02 -0.17841770237E+02  0.85316802196E+02  0.00000000000E+00 0.  1.
         21    1    1    2  504  503 -0.22334388329E+03  0.82273714018E+03 -0.41332710052E+03  0.94742713918E+03  0.00000000000E+00 0. -1.
<mgrwt>
<rscale>  4 0.84053628E+03</rscale>
<asrwt>0</asrwt>
<pdfrwt beam="1">  1       21 0.99335447E-01 0.84053628E+03</pdfrwt>
<pdfrwt beam="2">  1       21 0.18666247E+00 0.84053628E+03</pdfrwt>
<totfact> 0.93826583E+01</totfact>
</mgrwt>
</event>
<event>
 5    0  0.1257040E+001  0.2903470E+03  0.7546771E-02  0.1090168E+00
         21   -1    0    0  502  501  0.00000000000E+00  0.00000000000E+00  0.27881391881E+03  0.27881391881E+03  0.00000000000E+00 0. -1.
         21   -1    0    0  504  502 -0.00000000000E+00 -0.00000000000E+00 -0.43748661867E+03  0.43748661867E+03  0.00000000000E+00 0. -1.
         25    1    1    2    0    0 -0.10445182480E+03  0.22251485123E+03  0.27284881244E+02  0.27711461070E+03  0.12500000000E+03 0.  0.
         21    1    1    2  503  501 -0.36314867256E+02  0.64480954459E+01  0.62886011431E+02  0.72904032484E+02  0.00000000000E+00 0. -1.
         21    1    1    2  504  503  0.14076669206E+03 -0.22896294667E+03 -0.24884359253E+03  0.36628189429E+03  0.00000000000E+00 0. -1.
<mgrwt>
<rscale>  4 0.29034704E+03</rscale>
<asrwt>0</asrwt>
<pdfrwt beam="1">  1       21 0.42894449E-01 0.29034704E+03</pdfrwt>
<pdfrwt beam="2">  1       21 0.67305634E-01 0.29034704E+03</pdfrwt>
<totfact> 0.99814649E+03</totfact>
</mgrwt>
</event>
<event>
 5    0  0.1257040E+001  0.2326777E+03  0.7546771E-02  0.1124769E+00
         21   -1    0    0  504  501  0.00000000000E+00  0.00000000000E+00  0.95658540353E+03  0.95658540353E+03  0.00000000000E+00 0.  1.
         21   -1    0    0  503  502 -0.00000000000E+00 -0.00000000000E+00 -0.11529319076E+03  0.11529319076E+03  0.00000000000E+00 0.  1.
         25    1    1    2    0    0  0.19587501710E+03  0.12687028951E+03  0.34028611973E+03  0.43114120189E+03  0.12500000000E+03 0.  0.
         21    1    1    2  503  501 -0.85109781046E+02  0.23395161837E+02 -0.17204805890E+02  0.89927825353E+02  0.00000000000E+00 0.  1.
         21    1    1    2  504  502 -0.11076523605E+03 -0.15026545134E+03  0.51821089893E+03  0.55080956705E+03  0.00000000000E+00 0.  1.
<mgrwt>
<rscale>  4 0.23267772E+03</rscale>
<asrwt>0</asrwt>
<pdfrwt beam="1">  1       21 0.14716698E+00 0.23267772E+03</pdfrwt>
<pdfrwt beam="2">  1       21 0.17737415E-01 0.23267772E+03</pdfrwt>
<totfact> 0.88068571E+03</totfact>
</mgrwt>
</event>
<event>
 5    0  0.1257040E+001  0.2412730E+03  0.7546771E-02  0.1118948E+00
         21   -1    0    0  502  501  0.00000000000E+00  0.00000000000E+00  0.21681667744E+03  0.21681667744E+03  0.00000000000E+00 0. -1.
         21   -1    0    0  504  502 -0.00000000000E+00 -0.00000000000E+00 -0.31572990793E+03  0.31572990793E+03  0.00000000000E+00 0. -1.
         25    1    1    2    0    0 -0.64979369706E+02 -0.19497041071E+03 -0.35250745143E+02  0.24311189722E+03  0.12500000000E+03 0.  0.
         21    1    1    2  503  501  0.19145319438E+02  0.20816805529E+03 -0.97787806571E+02  0.23078764615E+03  0.00000000000E+00 0. -1.
         21    1    1    2  504  503  0.45834050268E+02 -0.13197644586E+02  0.34125321222E+02  0.58647041998E+02  0.00000000000E+00 0. -1.
<mgrwt>
<rscale>  4 0.24127302E+03</rscale>
<asrwt>0</asrwt>
<pdfrwt beam="1">  1       21 0.33356412E-01 0.24127302E+03</pdfrwt>
<pdfrwt beam="2">  1       21 0.48573832E-01 0.24127302E+03</pdfrwt>
<totfact> 0.34193667E+04</totfact>
</mgrwt>
</event>
<event>
 5    0  0.1257040E+001  0.1902994E+03  0.7546771E-02  0.1158192E+00
         21   -1    0    0  504  501  0.00000000000E+00  0.00000000000E+00  0.22992074190E+03  0.22992074190E+03  0.00000000000E+00 0. -1.
         21   -1    0    0  503  502 -0.00000000000E+00 -0.00000000000E+00 -0.26940034075E+03  0.26940034075E+03  0.00000000000E+00 0. -1.
         25    1    1    2    0    0  0.44307676979E+02 -0.20177396398E+03 -0.27505750734E+01  0.24147146507E+03  0.12500000000E+03 0.  0.
         21    1    1    2  503  501 -0.22233666008E+02  0.12482489677E+03 -0.95338819500E+02  0.15863505685E+03  0.00000000000E+00 0. -1.
         21    1    1    2  504  502 -0.22074010971E+02  0.76949067216E+02  0.58609795722E+02  0.99214560728E+02  0.00000000000E+00 0. -1.
<mgrwt>
<rscale>  4 0.19029937E+03</rscale>
<asrwt>0</asrwt>
<pdfrwt beam="1">  1       21 0.35372422E-01 0.19029937E+03</pdfrwt>
<pdfrwt beam="2">  1       21 0.41446206E-01 0.19029937E+03</pdfrwt>
<totfact> 0.43244285E+04</totfact>
</mgrwt>
</event>
<event>
 5    0  0.1257040E+001  0.2814634E+03  0.7546771E-02  0.1094892E+00
         21   -1    0    0  503  501  0.00000000000E+00  0.00000000000E+00  0.55222009016E+03  0.55222009016E+03  0.00000000000E+00 0. -1.
         21   -1    0    0  504  502 -0.00000000000E+00 -0.00000000000E+00 -0.94485525370E+03  0.94485525370E+03  0.00000000000E+00 0.  1.
         25    1    1    2    0    0 -0.21293369403E+03  0.17081965613E+03  0.43959944985E+03  0.53234649364E+03  0.12500000000E+03 0.  0.
         21    1    1    2  503  502  0.20750878247E+03 -0.14201924677E+03 -0.87638013814E+03  0.91174092142E+03  0.00000000000E+00 0.  1.
         21    1    1    2  504  501  0.54249115608E+01 -0.28800409360E+02  0.44145524741E+02  0.52987928808E+02  0.00000000000E+00 0. -1.
<mgrwt>
<rscale>  4 0.28146336E+03</rscale>
<asrwt>0</asrwt>
<pdfrwt beam="1">  1       21 0.84956937E-01 0.28146336E+03</pdfrwt>
<pdfrwt beam="2">  1       21 0.14536235E+00 0.28146336E+03</pdfrwt>
<totfact> 0.35682368E+02</totfact>
</mgrwt>
</event>
<event>
 5    0  0.1257040E+001  0.2450155E+03  0.7546771E-02  0.1116496E+00
         21   -1    0    0  503  501  0.00000000000E+00  0.00000000000E+00  0.99225260828E+03  0.99225260828E+03  0.00000000000E+00 0. -1.
         21   -1    0    0  504  502 -0.00000000000E+00 -0.00000000000E+00 -0.11193582020E+03  0.11193582020E+03  0.00000000000E+00 0.  1.
         25    1    1    2    0    0 -0.32225792233E+02 -0.21153898679E+03  0.64773693800E+02  0.25614034439E+03  0.12500000000E+03 0.  0.
         21    1    1    2  503  502  0.24687165926E+02  0.15633069706E+02  0.51092894189E+02  0.58858583626E+02  0.00000000000E+00 0.  1.
         21    1    1    2  504  501  0.75386263074E+01  0.19590591708E+03  0.76445020009E+03  0.78918950047E+03  0.00000000000E+00 0. -1.
<mgrwt>
<rscale>  4 0.24501549E+03</rscale>
<asrwt>0</asrwt>
<pdfrwt beam="1">  1       21 0.15265424E+00 0.24501549E+03</pdfrwt>
<pdfrwt beam="2">  1       21 0.17220896E-01 0.24501549E+03</pdfrwt>
<totfact> 0.83752230E+03</totfact>
</mgrwt>
</event>
<event>
 5    0  0.1257040E+001  0.2499801E+03  0.7546771E-02  0.1113317E+00
         21   -1    0    0  503  501  0.00000000000E+00  0.00000000000E+00  0.22038452434E+03  0.22038452434E+03  0.00000000000E+00 0. -1.
         21   -1    0    0  501  502 -0.00000000000E+00 -0.00000000000E+00 -0.32220379503E+03  0.32220379503E+03  0.00000000000E+00 0. -1.
         25    1    1    2    0    0  0.22427395202E+03 -0.17799130344E+02 -0.94971769278E+02  0.27433601943E+03  0.12500000000E+03 0.  0.
         21    1    1    2  503  504 -0.11583450869E+02  0.27303510744E+02 -0.43065914538E+02  0.52290831203E+02  0.00000000000E+00 0.  1.
         21    1    1    2  504  502 -0.21269050116E+03 -0.95043804000E+01  0.36218413120E+02  0.21596146873E+03  0.00000000000E+00 0. -1.
<mgrwt>
<rscale>  4 0.24998006E+03</rscale>
<asrwt>0</asrwt>
<pdfrwt beam="1">  1       21 0.33905312E-01 0.24998006E+03</pdfrwt>
<pdfrwt beam="2">  1       21 0.49569814E-01 0.24998006E+03</pdfrwt>
<totfact> 0.31605111E+04</totfact>
</mgrwt>
</event>
<event>
 5    0  0.1257040E+001  0.2751546E+03  0.7546771E-02  0.1098365E+00
         21   -1    0    0  504  501  0.00000000000E+00  0.00000000000E+00  0.32152716400E+03  0.32152716400E+03  0.00000000000E+00 0.  1.
         21   -1    0    0  503  502 -0.00000000000E+00 -0.00000000000E+00 -0.56981943538E+03  0.56981943538E+03  0.00000000000E+00 0.  1.
         25    1    1    2    0    0  0.14800342839E+03  0.21016963608E+03 -0.43849740344E+03  0.52343219577E+03  0.12500000000E+03 0.  0.
         21    1    1    2  503  501 -0.20190927345E+02 -0.84986069449E+02 -0.22274936957E+02  0.90146982001E+02  0.00000000000E+00 0.  1.
         21    1    1    2  504  502 -0.12781250104E+03 -0.12518356663E+03  0.21248006902E+03  0.27776742161E+03  0.00000000000E+00 0.  1.
<mgrwt>
<rscale>  4 0.27515461E+03</rscale>
<asrwt>0</asrwt>
<pdfrwt beam="1">  1       21 0.49465717E-01 0.27515461E+03</pdfrwt>
<pdfrwt beam="2">  1       21 0.87664529E-01 0.27515461E+03</pdfrwt>
<totfact> 0.41087657E+03</totfact>
</mgrwt>
</event>
<event>
 5    0  0.1257040E+001  0.3366274E+03  0.7546771E-02  0.1068242E+00
         21   -1    0    0  503  501  0.00000000000E+00  0.00000000000E+00  0.17401577785E+04  0.17401577785E+04  0.00000000000E+00 0. -1.
         21   -1    0    0  501  502 -0.00000000000E+00 -0.00000000000E+00 -0.71704272884E+02  0.71704272884E+02  0.00000000000E+00 0. -1.
         25    1    1    2    0    0 -0.29692680987E+03 -0.10788974933E+03  0.11452080650E+04  0.11945426910E+04  0.12500000000E+03 0.  0.
         21    1    1    2  503  504  0.29416126914E+03  0.87437682385E+02  0.48777612124E+03  0.57628269539E+03  0.00000000000E+00 0. -1.
         21    1    1    2  504  502  0.27655407370E+01  0.20452066942E+02  0.35469319358E+02  0.41036664990E+02  0.00000000000E+00 0. -1.
<mgrwt>
<rscale>  4 0.33662737E+03</rscale>
<asrwt>0</asrwt>
<pdfrwt beam="1">  1       21 0.26771655E+00 0.33662737E+03</pdfrwt>
<pdfrwt beam="2">  1       21 0.11031428E-01 0.33662737E+03</pdfrwt>
<totfact> 0.31641594E+03</totfact>
</mgrwt>
</event>
<event>
 5    0  0.1257040E+001  0.1875338E+03  0.7546771E-02  0.1160705E+00
         21   -1    0    0  504  501  0.00000000000E+00  0.00000000000E+00  0.53528086374E+03  0.53528086374E+03  0.00000000000E+00 0. -1.
         21   -1    0    0  503  502 -0.00000000000E+00 -0.00000000000E+00 -0.36568009324E+03  0.36568009324E+03  0.00000000000E+00 0.  1.
         25    1    1    2    0    0 -0.19863353194E+03  0.51943641252E+02  0.33773363116E+03  0.41453881301E+03  0.12500000000E+03 0.  0.
         21    1    1    2  503  501  0.96098355210E+02 -0.20102668811E+02 -0.30041581557E+03  0.31605169421E+03  0.00000000000E+00 0.  1.
         21    1    1    2  504  502  0.10253517673E+03 -0.31840972440E+02  0.13228295491E+03  0.17037044976E+03  0.00000000000E+00 0. -1.
<mgrwt>
<rscale>  4 0.18753379E+03</rscale>
<asrwt>0</asrwt>
<pdfrwt beam="1">  1       21 0.82350902E-01 0.18753379E+03</pdfrwt>
<pdfrwt beam="2">  1       21 0.56258476E-01 0.18753379E+03</pdfrwt>
<totfact> 0.38455211E+03</totfact>
</mgrwt>
</event>
<event>
 5    0  0.1257040E+001  0.2226408E+03  0.7546771E-02  0.1131929E+00
         21   -1    0    0  502  501  0.00000000000E+00  0.00000000000E+00  0.73288402042E+03  0.73288402042E+03  0.00000000000E+00 0.  1.
         21   -1    0    0  504  502 -0.00000000000E+00 -0.00000000000E+00 -0.98679786140E+02  0.98679786140E+02  0.00000000000E+00 0.  1.
         25    1    1    2    0    0  0.16842028552E+03  0.13790355242E+03  0.39432857460E+03  0.46744283832E+03  0.12500000000E+03 0.  0.
         21    1    1    2  503  501 -0.34673734432E+02 -0.26103698438E+02  0.17144106439E+03  0.17684939777E+03  0.00000000000E+00 0.  1.
         21    1    1    2  504  503 -0.13374655109E+03 -0.11179985398E+03  0.68434595292E+02  0.18727157048E+03  0.00000000000E+00 0.  1.
<mgrwt>
<rscale>  4 0.22264078E+03</rscale>
<asrwt>0</asrwt>
<pdfrwt beam="1">  1       21 0.11275138E+00 0.22264078E+03</pdfrwt>
<pdfrwt beam="2">  1       21 0.15181506E-01 0.22264078E+03</pdfrwt>
<totfact> 0.23191699E+04</totfact>
</mgrwt>
</event>
<event>
 5    0  0.1257040E+001  0.2727133E+03  0.7546771E-02  0.1099737E+00
         21   -1    0    0  503  501  0.00000000000E+00  0.00000000000E+00  0.51448051149E+03  0.51448051149E+03  0.00000000000E+00 0.  1.
         21   -1    0    0  504  502 -0.00000000000E+00 -0.00000000000E+00 -0.20453239630E+03  0.20453239630E+03  0.00000000000E+00 0.  1.
         25    1    1    2    0    0  0.15003651988E+03 -0.17652878282E+03  0.30988566334E+03  0.40660483619E+03  0.12500000000E+03 0.  0.
         21    1    1    2  503  502 -0.14153774109E+03  0.20061629156E+03 -0.55093279955E+02  0.25162491548E+03  0.00000000000E+00 0.  1.
         21    1    1    2  504  501 -0.84987787951E+01 -0.24087508742E+02  0.55155731798E+02  0.60783156125E+02  0.00000000000E+00 0.  1.
<mgrwt>
<rscale>  4 0.27271332E+03</rscale>
<asrwt>0</asrwt>
<pdfrwt beam="1">  1       21 0.79150847E-01 0.27271332E+03</pdfrwt>
<pdfrwt beam="2">  1       21 0.31466523E-01 0.27271332E+03</pdfrwt>
<totfact> 0.13065787E+04</totfact>
</mgrwt>
</event>
<event>
 5    0  0.1257040E+001  0.2347491E+03  0.7546771E-02  0.1123341E+00
         21   -1    0    0  502  501  0.00000000000E+00  0.00000000000E+00  0.12875404020E+04  0.12875404020E+04  0.00000000000E+00 0.  1.
         21   -1    0    0  504  502 -0.00000000000E+00 -0.00000000000E+00 -0.18199237545E+03  0.18199237545E+03  0.00000000000E+00 0. -1.
         25    1    1    2    0    0  0.53530677209E+02  0.19497742026E+03 -0.46600446327E+02  0.24223610262E+03  0.12500000000E+03 0.  0.
         21    1    1    2  503  501 -0.28326971681E+02 -0.19655481717E+03  0.11759468610E+04  0.11925968445E+04  0.00000000000E+00 0.  1.
         21    1    1    2  504  503 -0.25203705528E+02  0.15773969045E+01 -0.23798388109E+02  0.34699830402E+02  0.00000000000E+00 0.  1.
<mgrwt>
<rscale>  4 0.23474909E+03</rscale>
<asrwt>0</asrwt>
<pdfrwt beam="1">  1       21 0.19808313E+00 0.23474909E+03</pdfrwt>
<pdfrwt beam="2">  1       21 0.27998828E-01 0.23474909E+03</pdfrwt>
<totfact> 0.16149224E+03</totfact>
</mgrwt>
</event>
<event>
 5    0  0.1257040E+001  0.2368733E+03  0.7546771E-02  0.1121893E+00
         21   -1    0    0  503  501  0.00000000000E+00  0.00000000000E+00  0.10779252306E+04  0.10779252306E+04  0.00000000000E+00 0. -1.
         21   -1    0    0  504  502 -0.00000000000E+00 -0.00000000000E+00 -0.18287790205E+03  0.18287790205E+03  0.00000000000E+00 0. -1.
         25    1    1    2    0    0 -0.53992139717E+02  0.23954862524E+03  0.27257600318E+03  0.38758401994E+03  0.12500000000E+03 0.  0.
         21    1    1    2  503  502  0.26911560182E+02 -0.49703538413E+02 -0.10589289666E+03  0.12003324275E+03  0.00000000000E+00 0. -1.
         21    1    1    2  504  501  0.27080579536E+02 -0.18984508683E+03  0.72836422206E+03  0.75318586999E+03  0.00000000000E+00 0. -1.
<mgrwt>
<rscale>  4 0.23687326E+03</rscale>
<asrwt>0</asrwt>
<pdfrwt beam="1">  1       21 0.16583465E+00 0.23687326E+03</pdfrwt>
<pdfrwt beam="2">  1       21 0.28135063E-01 0.23687326E+03</pdfrwt>
<totfact> 0.26524547E+03</totfact>
</mgrwt>
</event>
<event>
 5    0  0.1257040E+001  0.2691849E+03  0.7546771E-02  0.1101747E+00
         21   -1    0    0  504  501  0.00000000000E+00  0.00000000000E+00  0.27749445667E+03  0.27749445667E+03  0.00000000000E+00 0.  1.
         21   -1    0    0  503  502 -0.00000000000E+00 -0.00000000000E+00 -0.61508882990E+03  0.61508882990E+03  0.00000000000E+00 0.  1.
         25    1    1    2    0    0 -0.22937863834E+03  0.10177754318E+03  0.14042683402E+03  0.31355689074E+03  0.12500000000E+03 0.  0.
         21    1    1    2  503  501  0.20647928612E+03 -0.11640789225E+03 -0.49370018789E+03  0.54765351135E+03  0.00000000000E+00 0.  1.
         21    1    1    2  504  502  0.22899352216E+02  0.14630349071E+02  0.15678980639E+02  0.31372884466E+02  0.00000000000E+00 0.  1.
<mgrwt>
<rscale>  4 0.26918486E+03</rscale>
<asrwt>0</asrwt>
<pdfrwt beam="1">  1       21 0.42691455E-01 0.26918486E+03</pdfrwt>
<pdfrwt beam="2">  1       21 0.94629051E-01 0.26918486E+03</pdfrwt>
<totfact> 0.46806616E+03</totfact>
</mgrwt>
</event>
<event>
 5    0  0.1257040E+001  0.2546325E+03  0.7546771E-02  0.1110412E+00
         21   -1    0    0  502  501  0.00000000000E+00  0.00000000000E+00  0.46187112579E+03  0.46187112579E+03  0.00000000000E+00 0. -1.
         21   -1    0    0  504  502 -0.00000000000E+00 -0.00000000000E+00 -0.59784140130E+03  0.59784140130E+03  0.00000000000E+00 0.  1.
         25    1    1    2    0    0  0.20840745415E+03  0.83936820241E+02  0.39361611701E+03  0.47014647112E+03  0.12500000000E+03 0.  0.
         21    1    1    2  503  501 -0.48097028866E+02  0.95161825949E+01 -0.32108861092E+02  0.58607686164E+02  0.00000000000E+00 0. -1.
         21    1    1    2  504  503 -0.16031042528E+03 -0.93453002836E+02 -0.49747753143E+03  0.53095836981E+03  0.00000000000E+00 0.  1.
<mgrwt>
<rscale>  4 0.25463254E+03</rscale>
<asrwt>0</asrwt>
<pdfrwt beam="1">  1       21 0.71057096E-01 0.25463254E+03</pdfrwt>
<pdfrwt beam="2">  1       21 0.91975600E-01 0.25463254E+03</pdfrwt>
<totfact> 0.17016829E+03</totfact>
</mgrwt>
</event>
<event>
 5    0  0.1257040E+001  0.2609672E+03  0.7546771E-02  0.1106563E+00
         21   -1    0    0  502  501  0.00000000000E+00  0.00000000000E+00  0.89045783681E+03  0.89045783681E+03  0.00000000000E+00 0.  1.
         21   -1    0    0  504  502 -0.00000000000E+00 -0.00000000000E+00 -0.95785902232E+02  0.95785902232E+02  0.00000000000E+00 0.  1.
         25    1    1    2    0    0 -0.21501772575E+03 -0.13342751758E+03  0.30466371144E+03  0.41530771953E+03  0.12500000000E+03 0.  0.
         21    1    1    2  503  501  0.16926301460E+03  0.13939901927E+03  0.47371040448E+03  0.52199961877E+03  0.00000000000E+00 0.  1.
         21    1    1    2  504  503  0.45754711143E+02 -0.59715016936E+01  0.16297818655E+02  0.48936400738E+02  0.00000000000E+00 0. -1.
<mgrwt>
<rscale>  4 0.26096723E+03</rscale>
<asrwt>0</asrwt>
<pdfrwt beam="1">  1       21 0.13699351E+00 0.26096723E+03</pdfrwt>
<pdfrwt beam="2">  1       21 0.14736293E-01 0.26096723E+03</pdfrwt>
<totfact> 0.14702430E+04</totfact>
</mgrwt>
</event>
<event>
 5    0  0.1257040E+001  0.3392975E+03  0.7546771E-02  0.1067096E+00
         21   -1    0    0  504  501  0.00000000000E+00  0.00000000000E+00  0.46263855694E+03  0.46263855694E+03  0.00000000000E+00 0.  1.
         21   -1    0    0  503  502 -0.00000000000E+00 -0.00000000000E+00 -0.31680537957E+03  0.31680537957E+03  0.00000000000E+00 0.  1.
         25    1    1    2    0    0 -0.72187403939E+02 -0.27390151047E+03  0.67897079530E+02  0.31696698903E+03  0.12500000000E+03 0.  0.
         21    1    1    2  503  501  0.19577597812E+02 -0.69192644342E+02 -0.55264683814E+02  0.90692279959E+02  0.00000000000E+00 0.  1.
         21    1    1    2  504  502  0.52609806127E+02  0.34309415481E+03  0.13320078165E+03  0.37178466752E+03  0.00000000000E+00 0.  1.
<mgrwt>
<rscale>  4 0.33929755E+03</rscale>
<asrwt>0</asrwt>
<pdfrwt beam="1">  1       21 0.71175163E-01 0.33929755E+03</pdfrwt>
<pdfrwt beam="2">  1       21 0.48739289E-01 0.33929755E+03</pdfrwt>
<totfact> 0.66075828E+03</totfact>
</mgrwt>
</event>
<event>
 5    0  0.1257040E+001  0.2799822E+03  0.7546771E-02  0.1095699E+00
         21   -1    0    0  502  501  0.00000000000E+00  0.00000000000E+00  0.16541454470E+03  0.16541454470E+03  0.00000000000E+00 0. -1.
         21   -1    0    0  504  502 -0.00000000000E+00 -0.00000000000E+00 -0.54609583940E+03  0.54609583940E+03  0.00000000000E+00 0. -1.
         25    1    1    2    0    0  0.19261936330E+03  0.15501456712E+03 -0.66281031973E+02  0.28486823329E+03  0.12500000000E+03 0.  0.
         21    1    1    2  503  501 -0.18660140504E+03 -0.17628621009E+03 -0.24908555968E+03  0.35768775248E+03  0.00000000000E+00 0. -1.
         21    1    1    2  504  503 -0.60179582695E+01  0.21271642970E+02 -0.65314703046E+02  0.68954398340E+02  0.00000000000E+00 0.  1.
<mgrwt>
<rscale>  4 0.27998223E+03</rscale>
<asrwt>0</asrwt>
<pdfrwt beam="1">  1       21 0.25448391E-01 0.27998223E+03</pdfrwt>
<pdfrwt beam="2">  1       21 0.84014745E-01 0.27998223E+03</pdfrwt>
<totfact> 0.17192094E+04</totfact>
</mgrwt>
</event>
<event>
 5    0  0.1257040E+001  0.2308609E+03  0.7546771E-02  0.1126035E+00
         21   -1    0    0  503  501  0.00000000000E+00  0.00000000000E+00  0.57759973192E+03  0.57759973192E+03  0.00000000000E+00 0. -1.
         21   -1    0    0  504  502 -0.00000000000E+00 -0.00000000000E+00 -0.30440247930E+03  0.30440247930E+03  0.00000000000E+00 0. -1.
         25    1    1    2    0    0 -0.22117445141E+03 -0.57733175334E+02  0.24928518737E+03  0.36058197700E+03  0.12500000000E+03 0.  0.
         21    1    1    2  503  502  0.14472807037E+03  0.12674438373E+03 -0.19843387861E+03  0.27638081942E+03  0.00000000000E+00 0. -1.
         21    1    1    2  504  501  0.76446381042E+02 -0.69011208400E+02  0.22234594386E+03  0.24503941481E+03  0.00000000000E+00 0.  1.
<mgrwt>
<rscale>  4 0.23086090E+03</rscale>
<asrwt>0</asrwt>
<pdfrwt beam="1">  1       21 0.88861497E-01 0.23086090E+03</pdfrwt>
<pdfrwt beam="2">  1       21 0.46831151E-01 0.23086090E+03</pdfrwt>
<totfact> 0.45891425E+03</totfact>
</mgrwt>
</event>
<event>
 5    0  0.1257040E+001  0.3268550E+03  0.7546771E-02  0.1072537E+00
         21   -1    0    0  502  501  0.00000000000E+00  0.00000000000E+00  0.40527554806E+03  0.40527554806E+03  0.00000000000E+00 0.  1.
         21   -1    0    0  504  502 -0.00000000000E+00 -0.00000000000E+00 -0.41176225106E+03  0.41176225106E+03  0.00000000000E+00 0.  1.
         25    1    1    2    0    0  0.34060000321E+03 -0.70001238526E+01 -0.17684169358E+03  0.40367728262E+03  0.12500000000E+03 0.  0.
         21    1    1    2  503  501 -0.29173618421E+03  0.74141257320E+01  0.20219941399E+03  0.35503460881E+03  0.00000000000E+00 0.  1.
         21    1    1    2  504  503 -0.48863818996E+02 -0.41400187946E+00 -0.31844423419E+02  0.58325907686E+02  0.00000000000E+00 0. -1.
<mgrwt>
<rscale>  4 0.32685500E+03</rscale>
<asrwt>0</asrwt>
<pdfrwt beam="1">  1       21 0.62350084E-01 0.32685500E+03</pdfrwt>
<pdfrwt beam="2">  1       21 0.63348039E-01 0.32685500E+03</pdfrwt>
<totfact> 0.50721871E+03</totfact>
</mgrwt>
</event>
<event>
 5    0  0.1257040E+001  0.4263970E+03  0.7546771E-02  0.1035004E+00
         21   -1    0    0  504  501  0.00000000000E+00  0.00000000000E+00  0.74806789466E+03  0.74806789466E+03  0.00000000000E+00 0. -1.
         21   -1    0    0  501  502 -0.00000000000E+00 -0.00000000000E+00 -0.29709806779E+03  0.29709806779E+03  0.00000000000E+00 0. -1.
         25    1    1    2    0    0 -0.35040549780E+03  0.18694654739E+03  0.20615255972E+01  0.41636795548E+03  0.12500000000E+03 0.  0.
         21    1    1    2  503  502  0.35335754021E+03 -0.21173589528E+03  0.43880472612E+03  0.60186645383E+03  0.00000000000E+00 0. -1.
         21    1    1    2  504  503 -0.29520424175E+01  0.24789347893E+02  0.10103575159E+02  0.26931553137E+02  0.00000000000E+00 0.  1.
<mgrwt>
<rscale>  4 0.42639699E+03</rscale>
<asrwt>0</asrwt>
<pdfrwt beam="1">  1       21 0.11508737E+00 0.42639699E+03</pdfrwt>
<pdfrwt beam="2">  1       21 0.45707395E-01 0.42639699E+03</pdfrwt>
<totfact> 0.23403244E+03</totfact>
</mgrwt>
</event>
<event>
 5    0  0.1257040E+001  0.2069465E+03  0.7546771E-02  0.1144007E+00
         21   -1    0    0  502  501  0.00000000000E+00  0.00000000000E+00  0.32803820296E+03  0.32803820296E+03  0.00000000000E+00 0. -1.
         21   -1    0    0  504  502 -0.00000000000E+00 -0.00000000000E+00 -0.83710449110E+03  0.83710449110E+03  0.00000000000E+00 0. -1.
         25    1    1    2    0    0  0.31354502627E+02  0.21526385386E+03 -0.60418145854E+03  0.65420323024E+03  0.12500000000E+03 0.  0.
         21    1    1    2  503  501 -0.25657265779E+02 -0.16104054535E+03  0.27679240526E+03  0.32125751065E+03  0.00000000000E+00 0. -1.
         21    1    1    2  504  503 -0.56972368480E+01 -0.54223308506E+02 -0.18167723486E+03  0.18968195317E+03  0.00000000000E+00 0. -1.
<mgrwt>
<rscale>  4 0.20694645E+03</rscale>
<asrwt>0</asrwt>
<pdfrwt beam="1">  1       21 0.50467416E-01 0.20694645E+03</pdfrwt>
<pdfrwt beam="2">  1       21 0.12878531E+00 0.20694645E+03</pdfrwt>
<totfact> 0.16318909E+03</totfact>
</mgrwt>
</event>
<event>
 5    0  0.1257040E+001  0.1940642E+03  0.7546771E-02  0.1154846E+00
         21   -1    0    0  502  501  0.00000000000E+00  0.00000000000E+00  0.67300470316E+03  0.67300470316E+03  0.00000000000E+00 0. -1.
         21   -1    0    0  504  502 -0.00000000000E+00 -0.00000000000E+00 -0.17881585747E+03  0.17881585747E+03  0.00000000000E+00 0. -1.
         25    1    1    2    0    0 -0.30847433294E+02  0.21169479481E+03 -0.96814671744E+01  0.24796165247E+03  0.12500000000E+03 0.  0.
         21    1    1    2  503  501 -0.33485292399E+02 -0.14027562691E+03  0.48488853516E+03  0.50588082375E+03  0.00000000000E+00 0. -1.
         21    1    1    2  504  503  0.64332725694E+02 -0.71419167895E+02  0.18981777704E+02  0.97978084401E+02  0.00000000000E+00 0. -1.
<mgrwt>
<rscale>  4 0.19406423E+03</rscale>
<asrwt>0</asrwt>
<pdfrwt beam="1">  1       21 0.10353918E+00 0.19406423E+03</pdfrwt>
<pdfrwt beam="2">  1       21 0.27510132E-01 0.19406423E+03</pdfrwt>
<totfact> 0.95157369E+03</totfact>
</mgrwt>
</event>
<event>
 5    0  0.1257040E+001  0.3086514E+03  0.7546771E-02  0.1080994E+00
         21   -1    0    0  502  501  0.00000000000E+00  0.00000000000E+00  0.19758029405E+03  0.19758029405E+03  0.00000000000E+00 0.  1.
         21   -1    0    0  504  502 -0.00000000000E+00 -0.00000000000E+00 -0.83017840219E+03  0.83017840219E+03  0.00000000000E+00 0.  1.
         25    1    1    2    0    0  0.26018926969E+03 -0.11285901915E+03 -0.63907430584E+03  0.71026514954E+03  0.12500000000E+03 0.  0.
         21    1    1    2  503  501 -0.26643473817E+03  0.78960153231E+02  0.23817878034E+02  0.27890763134E+03  0.00000000000E+00 0.  1.
         21    1    1    2  504  503  0.62454684874E+01  0.33898865915E+02 -0.17341680331E+02  0.38585915354E+02  0.00000000000E+00 0. -1.
<mgrwt>
<rscale>  4 0.30865135E+03</rscale>
<asrwt>0</asrwt>
<pdfrwt beam="1">  1       21 0.30396969E-01 0.30865135E+03</pdfrwt>
<pdfrwt beam="2">  1       21 0.12771975E+00 0.30865135E+03</pdfrwt>
<totfact> 0.43461508E+03</totfact>
</mgrwt>
</event>
<event>
 5    0  0.1257040E+001  0.2673164E+03  0.7546771E-02  0.1102825E+00
         21   -1    0    0  504  501  0.00000000000E+00  0.00000000000E+00  0.31101481328E+03  0.31101481328E+03  0.00000000000E+00 0. -1.
         21   -1    0    0  503  502 -0.00000000000E+00 -0.00000000000E+00 -0.62217464244E+03  0.62217464244E+03  0.00000000000E+00 0. -1.
         25    1    1    2    0    0 -0.15946736072E+03  0.19905906890E+03  0.10879166149E+03  0.30416274864E+03  0.12500000000E+03 0.  0.
         21    1    1    2  503  501  0.15692565122E+03 -0.17352691013E+03 -0.49619253214E+03  0.54858388374E+03  0.00000000000E+00 0. -1.
         21    1    1    2  504  502  0.25417095039E+01 -0.25532158771E+02  0.76241041500E+02  0.80442823345E+02  0.00000000000E+00 0.  1.
<mgrwt>
<rscale>  4 0.26731635E+03</rscale>
<asrwt>0</asrwt>
<pdfrwt beam="1">  1       21 0.47848434E-01 0.26731635E+03</pdfrwt>
<pdfrwt beam="2">  1       21 0.95719174E-01 0.26731635E+03</pdfrwt>
<totfact> 0.36010352E+03</totfact>
</mgrwt>
</event>
<event>
 5    0  0.1257040E+001  0.2572423E+03  0.7546771E-02  0.1108812E+00
         21   -1    0    0  502  501  0.00000000000E+00  0.00000000000E+00  0.22482805870E+03  0.22482805870E+03  0.00000000000E+00 0.  1.
         21   -1    0    0  504  502 -0.00000000000E+00 -0.00000000000E+00 -0.60422594224E+03  0.60422594224E+03  0.00000000000E+00 0.  1.
         25    1    1    2    0    0  0.87040932704E+02 -0.25274153227E+03 -0.13011977478E+03  0.32250668503E+03  0.12500000000E+03 0.  0.
         21    1    1    2  503  501 -0.22067685764E+01  0.58858861317E+02  0.89475004421E+02  0.10712148150E+03  0.00000000000E+00 0.  1.
         21    1    1    2  504  503 -0.84834164128E+02  0.19388267095E+03 -0.33875311318E+03  0.39942583440E+03  0.00000000000E+00 0.  1.
<mgrwt>
<rscale>  4 0.25724227E+03</rscale>
<asrwt>0</asrwt>
<pdfrwt beam="1">  1       21 0.34588933E-01 0.25724227E+03</pdfrwt>
<pdfrwt beam="2">  1       21 0.92957835E-01 0.25724227E+03</pdfrwt>
<totfact> 0.75263388E+03</totfact>
</mgrwt>
</event>
<event>
 5    0  0.1257040E+001  0.2376718E+03  0.7546771E-02  0.1121354E+00
         21   -1    0    0  503  501  0.00000000000E+00  0.00000000000E+00  0.20349901542E+04  0.20349901542E+04  0.00000000000E+00 0. -1.
         21   -1    0    0  504  502 -0.00000000000E+00 -0.00000000000E+00 -0.43528798809E+02  0.43528798809E+02  0.00000000000E+00 0. -1.
         25    1    1    2    0    0 -0.14008073793E+03  0.17461845917E+03  0.47731541778E+03  0.54182029075E+03  0.12500000000E+03 0.  0.
         21    1    1    2  503  502  0.25016997535E+02 -0.13779556529E+02  0.38912577481E+02  0.48269193385E+02  0.00000000000E+00 0. -1.
         21    1    1    2  504  501  0.11506374040E+03 -0.16083890264E+03  0.14752333601E+04  0.14884294688E+04  0.00000000000E+00 0. -1.
<mgrwt>
<rscale>  4 0.23767178E+03</rscale>
<asrwt>0</asrwt>
<pdfrwt beam="1">  1       21 0.31307533E+00 0.23767178E+03</pdfrwt>
<pdfrwt beam="2">  1       21 0.66967399E-02 0.23767178E+03</pdfrwt>
<totfact> 0.44604665E+03</totfact>
</mgrwt>
</event>
<event>
 5    0  0.1257040E+001  0.1961825E+03  0.7546771E-02  0.1153000E+00
         21   -1    0    0  502  501  0.00000000000E+00  0.00000000000E+00  0.21434872478E+04  0.21434872478E+04  0.00000000000E+00 0. -1.
         21   -1    0    0  504  502 -0.00000000000E+00 -0.00000000000E+00 -0.94691640065E+02  0.94691640065E+02  0.00000000000E+00 0. -1.
         25    1    1    2    0    0 -0.26529558282E+03  0.33475036170E+02  0.16155198084E+04  0.16422641614E+04  0.12500000000E+03 0.  0.
         21    1    1    2  503  501  0.13064982899E+03  0.23698837175E+02  0.42952966705E+03  0.44958508380E+03  0.00000000000E+00 0. -1.
         21    1    1    2  504  503  0.13464575384E+03 -0.57173873345E+02  0.37461322422E+01  0.14632964268E+03  0.00000000000E+00 0. -1.
<mgrwt>
<rscale>  4 0.19618250E+03</rscale>
<asrwt>0</asrwt>
<pdfrwt beam="1">  1       21 0.32976723E+00 0.19618250E+03</pdfrwt>
<pdfrwt beam="2">  1       21 0.14567946E-01 0.19618250E+03</pdfrwt>
<totfact> 0.94558419E+02</totfact>
</mgrwt>
</event>
<event>
 5    0  0.1257040E+001  0.2121049E+03  0.7546771E-02  0.1139910E+00
         21   -1    0    0  502  501  0.00000000000E+00  0.00000000000E+00  0.72796845011E+02  0.72796845011E+02  0.00000000000E+00 0. -1.
         21   -1    0    0  504  502 -0.00000000000E+00 -0.00000000000E+00 -0.11244904147E+04  0.11244904147E+04  0.00000000000E+00 0. -1.
         25    1    1    2    0    0 -0.20511264544E+03  0.13267605431E+03 -0.41986611947E+03  0.50158418136E+03  0.12500000000E+03 0.  0.
         21    1    1    2  503  501  0.98003800267E+02 -0.10219886060E+03 -0.17301702885E+03  0.22357156404E+03  0.00000000000E+00 0. -1.
         21    1    1    2  504  503  0.10710884518E+03 -0.30477193707E+02 -0.45881042139E+03  0.47213151434E+03  0.00000000000E+00 0. -1.
<mgrwt>
<rscale>  4 0.21210494E+03</rscale>
<asrwt>0</asrwt>
<pdfrwt beam="1">  1       21 0.11199515E-01 0.21210494E+03</pdfrwt>
<pdfrwt beam="2">  1       21 0.17299852E+00 0.21210494E+03</pdfrwt>
<totfact> 0.13302360E+04</totfact>
</mgrwt>
</event>
<event>
 5    0  0.1257040E+001  0.3027627E+03  0.7546771E-02  0.1083868E+00
         21   -1    0    0  502  501  0.00000000000E+00  0.00000000000E+00  0.15062515461E+04  0.15062515461E+04  0.00000000000E+00 0.  1.
         21   -1    0    0  504  502 -0.00000000000E+00 -0.00000000000E+00 -0.21855447453E+03  0.21855447453E+03  0.00000000000E+00 0.  1.
         25    1    1    2    0    0 -0.34118866595E+03 -0.18381691965E+03  0.12306139868E+03  0.42540271928E+03  0.12500000000E+03 0.  0.
         21    1    1    2  503  501  0.15239787846E+03  0.10538935370E+03  0.10475587591E+04  0.10638192436E+04  0.00000000000E+00 0.  1.
         21    1    1    2  504  503  0.18879078749E+03  0.78427565950E+02  0.11707691380E+03  0.23558405780E+03  0.00000000000E+00 0.  1.
<mgrwt>
<rscale>  4 0.30276271E+03</rscale>
<asrwt>0</asrwt>
<pdfrwt beam="1">  1       21 0.23173100E+00 0.30276271E+03</pdfrwt>
<pdfrwt beam="2">  1       21 0.33623766E-01 0.30276271E+03</pdfrwt>
<totfact> 0.65261607E+02</totfact>
</mgrwt>
</event>
<event>
 5    0  0.1257040E+001  0.2149071E+03  0.7546771E-02  0.1137738E+00
         21   -1    0    0  503  501  0.00000000000E+00  0.00000000000E+00  0.67632114382E+03  0.67632114382E+03  0.00000000000E+00 0.  1.
         21   -1    0    0  504  502 -0.00000000000E+00 -0.00000000000E+00 -0.30675281267E+03  0.30675281267E+03  0.00000000000E+00 0. -1.
         25    1    1    2    0    0 -0.21728467258E+03  0.26451976103E+01  0.54785894798E+03  0.60248987784E+03  0.12500000000E+03 0.  0.
         21    1    1    2  503  502  0.17196651115E+03 -0.17175622854E+02 -0.24427464164E+03  0.29922831338E+03  0.00000000000E+00 0. -1.
         21    1    1    2  504  501  0.45318161435E+02  0.14530425244E+02  0.65984024814E+02  0.81355765280E+02  0.00000000000E+00 0. -1.
<mgrwt>
<rscale>  4 0.21490712E+03</rscale>
<asrwt>0</asrwt>
<pdfrwt beam="1">  1       21 0.10404941E+00 0.21490712E+03</pdfrwt>
<pdfrwt beam="2">  1       21 0.47192740E-01 0.21490712E+03</pdfrwt>
<totfact> 0.31492847E+03</totfact>
</mgrwt>
</event>
<event>
 5    0  0.1387168E+001  0.3281205E+03  0.7546771E-02  0.1071972E+00
         21   -1    0    0  502  501  0.00000000000E+00  0.00000000000E+00  0.64771529712E+03  0.64771529712E+03  0.00000000000E+00 0.  1.
         21   -1    0    0  504  502 -0.00000000000E+00 -0.00000000000E+00 -0.63736394194E+03  0.63736394194E+03  0.00000000000E+00 0. -1.
         25    1    1    2    0    0  0.13930058246E+03  0.28933947645E+03 -0.53227004974E+03  0.63408074467E+03  0.12500000000E+03 0.  0.
         21    1    1    2  503  501 -0.13956627035E+03 -0.26805104172E+03  0.55074445171E+03  0.62821139426E+03  0.00000000000E+00 0.  1.
         21    1    1    2  504  503  0.26568789202E+00 -0.21288434731E+02 -0.81230467907E+01  0.22787100134E+02  0.00000000000E+00 0.  1.
<mgrwt>
<rscale>  4 0.32812048E+03</rscale>
<asrwt>0</asrwt>
<pdfrwt beam="1">  1       21 0.99648507E-01 0.32812048E+03</pdfrwt>
<pdfrwt beam="2">  1       21 0.98055991E-01 0.32812048E+03</pdfrwt>
<totfact> 0.63748367E+02</totfact>
</mgrwt>
</event>
<event>
 5    0  0.1257040E+001  0.2674986E+03  0.7546771E-02  0.1102720E+00
         21   -1    0    0  504  501  0.00000000000E+00  0.00000000000E+00  0.12849364442E+03  0.12849364442E+03  0.00000000000E+00 0.  1.
         21   -1    0    0  503  502 -0.00000000000E+00 -0.00000000000E+00 -0.75542092837E+03  0.75542092837E+03  0.00000000000E+00 0. -1.
         25    1    1    2    0    0  0.11745452266E+02 -0.26153417427E+03 -0.34677537689E+03  0.45212414443E+03  0.12500000000E+03 0.  0.
         21    1    1    2  503  501 -0.25217280102E+02  0.36068601959E+02 -0.17895806480E+03  0.18429010885E+03  0.00000000000E+00 0.  1.
         21    1    1    2  504  502  0.13471827836E+02  0.22546557231E+03 -0.10119384226E+03  0.24750031950E+03  0.00000000000E+00 0.  1.
<mgrwt>
<rscale>  4 0.26749861E+03</rscale>
<asrwt>0</asrwt>
<pdfrwt beam="1">  1       21 0.19768253E-01 0.26749861E+03</pdfrwt>
<pdfrwt beam="2">  1       21 0.11621861E+00 0.26749861E+03</pdfrwt>
<totfact> 0.12887383E+04</totfact>
</mgrwt>
</event>
<event>
 5    0  0.1257040E+001  0.3023255E+03  0.7546771E-02  0.1084084E+00
         21   -1    0    0  503  501  0.00000000000E+00  0.00000000000E+00  0.55433853582E+03  0.55433853582E+03  0.00000000000E+00 0.  1.
         21   -1    0    0  501  502 -0.00000000000E+00 -0.00000000000E+00 -0.20839844971E+03  0.20839844971E+03  0.00000000000E+00 0.  1.
         25    1    1    2    0    0  0.27492406361E+03 -0.13874316208E+02 -0.11979342361E+02  0.30256279025E+03  0.12500000000E+03 0.  0.
         21    1    1    2  503  504 -0.58269939950E+02 -0.14192946171E+02  0.32468880064E+02  0.68198634850E+02  0.00000000000E+00 0.  1.
         21    1    1    2  504  502 -0.21665412366E+03  0.28067262379E+02  0.32545054841E+03  0.39197556043E+03  0.00000000000E+00 0.  1.
<mgrwt>
<rscale>  4 0.30232555E+03</rscale>
<asrwt>0</asrwt>
<pdfrwt beam="1">  1       21 0.85282851E-01 0.30232555E+03</pdfrwt>
<pdfrwt beam="2">  1       21 0.32061300E-01 0.30232555E+03</pdfrwt>
<totfact> 0.10462333E+04</totfact>
</mgrwt>
</event>
<event>
 5    0  0.1257040E+001  0.2592369E+03  0.7546771E-02  0.1107603E+00
         21   -1    0    0  504  501  0.00000000000E+00  0.00000000000E+00  0.83803049899E+02  0.83803049899E+02  0.00000000000E+00 0. -1.
         21   -1    0    0  501  502 -0.00000000000E+00 -0.00000000000E+00 -0.79344601114E+03  0.79344601114E+03  0.00000000000E+00 0. -1.
         25    1    1    2    0    0  0.15525195645E+03 -0.15336988749E+03 -0.38825411704E+03  0.46259242511E+03  0.12500000000E+03 0.  0.
         21    1    1    2  503  502 -0.17777189972E+03  0.15178261852E+03 -0.26198822562E+03  0.35111058369E+03  0.00000000000E+00 0. -1.
         21    1    1    2  504  503  0.22519943269E+02  0.15872689747E+01 -0.59400618583E+02  0.63546052243E+02  0.00000000000E+00 0.  1.
<mgrwt>
<rscale>  4 0.25923685E+03</rscale>
<asrwt>0</asrwt>
<pdfrwt beam="1">  1       21 0.12892777E-01 0.25923685E+03</pdfrwt>
<pdfrwt beam="2">  1       21 0.12206861E+00 0.25923685E+03</pdfrwt>
<totfact> 0.25181287E+04</totfact>
</mgrwt>
</event>
<event>
 5    0  0.1257040E+001  0.3811109E+03  0.7546771E-02  0.1050524E+00
         21   -1    0    0  503  501  0.00000000000E+00  0.00000000000E+00  0.17155299106E+04  0.17155299106E+04  0.00000000000E+00 0. -1.
         21   -1    0    0  504  502 -0.00000000000E+00 -0.00000000000E+00 -0.13353530975E+03  0.13353530975E+03  0.00000000000E+00 0. -1.
         25    1    1    2    0    0 -0.39990370442E+03 -0.74610220423E+01  0.49944933182E+03  0.65196109908E+03  0.12500000000E+03 0.  0.
         21    1    1    2  503  502  0.55893163111E+02  0.50179357131E+02  0.17584087413E+02  0.77144109916E+02  0.00000000000E+00 0. -1.
         21    1    1    2  504  501  0.34401054131E+03 -0.42718335089E+02  0.10649611816E+04  0.11199600113E+04  0.00000000000E+00 0. -1.
<mgrwt>
<rscale>  4 0.38111088E+03</rscale>
<asrwt>0</asrwt>
<pdfrwt beam="1">  1       21 0.26392766E+00 0.38111088E+03</pdfrwt>
<pdfrwt beam="2">  1       21 0.20543895E-01 0.38111088E+03</pdfrwt>
<totfact> 0.10279567E+03</totfact>
</mgrwt>
</event>
<event>
 5    0  0.1257040E+001  0.3729225E+03  0.7546771E-02  0.1053581E+00
         21   -1    0    0  502  501  0.00000000000E+00  0.00000000000E+00  0.11269257922E+03  0.11269257922E+03  0.00000000000E+00 0. -1.
         21   -1    0    0  504  502 -0.00000000000E+00 -0.00000000000E+00 -0.13768631391E+04  0.13768631391E+04  0.00000000000E+00 0. -1.
         25    1    1    2    0    0  0.34725844886E+03  0.37134680893E+02 -0.40097117087E+03  0.54623282097E+03  0.12500000000E+03 0.  0.
         21    1    1    2  503  501 -0.11856322638E+00  0.25173866604E+02 -0.34620349482E+02  0.42805446094E+02  0.00000000000E+00 0. -1.
         21    1    1    2  504  503 -0.34713988564E+03 -0.62308547497E+02 -0.82857903952E+03  0.90051745126E+03  0.00000000000E+00 0. -1.
<mgrwt>
<rscale>  4 0.37292252E+03</rscale>
<asrwt>0</asrwt>
<pdfrwt beam="1">  1       21 0.17337319E-01 0.37292252E+03</pdfrwt>
<pdfrwt beam="2">  1       21 0.21182511E+00 0.37292252E+03</pdfrwt>
<totfact> 0.29900036E+03</totfact>
</mgrwt>
</event>
