<event>
 5    0  0.1911311E+001  0.8153111E+03  0.7546771E-02  0.9538675E-01
         21   -1    0    0  504  501  0.00000000000E+00  0.00000000000E+00  0.89754660934E+03  0.89754660934E+03  0.00000000000E+00 0. -1.
         21   -1    0    0  503  502 -0.00000000000E+00 -0.00000000000E+00 -0.77503794441E+03  0.77503794441E+03  0.00000000000E+00 0. -1.
         25    1    1    2    0    0  0.80368100305E+03 -0.25027311069E+02  0.24109636858E+03  0.84869427941E+03  0.12500000000E+03 0.  0.
         21    1    1    2  503  501 -0.40620061585E+02 -0.27938290295E+02 -0.17637308820E+02  0.52360406131E+02  0.00000000000E+00 0. -1.
         21    1    1    2  504  502 -0.76306094147E+03  0.52965601363E+02 -0.10095039483E+03  0.77152986821E+03  0.00000000000E+00 0. -1.
<mgrwt>
<rscale>  4 0.81491521E+03</rscale>
<asrwt>0</asrwt>
<pdfrwt beam="1">  1       21 0.13808409E+00 0.81531107E+03</pdfrwt>
<pdfrwt beam="2">  1       21 0.11923661E+00 0.81531107E+03</pdfrwt>
<totfact> 0.14100797E+02</totfact>
</mgrwt>
</event>
<event>
 5    0  0.1911311E+001  0.2423676E+03  0.7546771E-02  0.1118226E+00
         21   -1    0    0  503  501  0.00000000000E+00  0.00000000000E+00  0.62623510270E+03  0.62623510270E+03  0.00000000000E+00 0.  1.
         21   -1    0    0  501  502 -0.00000000000E+00 -0.00000000000E+00 -0.14862071420E+03  0.14862071420E+03  0.00000000000E+00 0.  1.
         25    1    1    2    0    0  0.12649794593E+03 -0.19641666219E+03  0.21244218488E+03  0.33961436576E+03  0.12500000000E+03 0.  0.
         21    1    1    2  503  504 -0.14505865067E+03  0.13514548298E+03  0.41457306619E+02  0.20254634526E+03  0.00000000000E+00 0.  1.
         21    1    1    2  504  502  0.18560704736E+02  0.61271179212E+02  0.22371489699E+03  0.23269510588E+03  0.00000000000E+00 0.  1.
<mgrwt>
<rscale>  4 0.24236763E+03</rscale>
<asrwt>0</asrwt>
<pdfrwt beam="1">  1       21 0.96343861E-01 0.24236763E+03</pdfrwt>
<pdfrwt beam="2">  1       21 0.22864726E-01 0.24236763E+03</pdfrwt>
<totfact> 0.15615918E+04</totfact>
</mgrwt>
</event>
<event>
 5    0  0.1911311E+001  0.2640220E+03  0.7546771E-02  0.1104751E+00
         21   -1    0    0  504  501  0.00000000000E+00  0.00000000000E+00  0.24195059537E+04  0.24195059537E+04  0.00000000000E+00 0. -1.
         21   -1    0    0  503  502 -0.00000000000E+00 -0.00000000000E+00 -0.29443454269E+02  0.29443454269E+02  0.00000000000E+00 0. -1.
         25    1    1    2    0    0  0.27299629990E+02 -0.23222881323E+03  0.12782867799E+04  0.13054951487E+04  0.12500000000E+03 0.  0.
         21    1    1    2  503  501  0.27479268308E+02  0.65849608326E+01  0.59563600728E+02  0.65926431934E+02  0.00000000000E+00 0. -1.
         21    1    1    2  504  502 -0.54778898297E+02  0.22564385240E+03  0.10522121188E+04  0.10775278273E+04  0.00000000000E+00 0. -1.
<mgrwt>
<rscale>  4 0.26402204E+03</rscale>
<asrwt>0</asrwt>
<pdfrwt beam="1">  1       21 0.37223153E+00 0.26402204E+03</pdfrwt>
<pdfrwt beam="2">  1       21 0.45297641E-02 0.26402204E+03</pdfrwt>
<totfact> 0.37754075E+03</totfact>
</mgrwt>
</event>
<event>
 5    0  0.1911311E+001  0.2284489E+03  0.7546771E-02  0.1127736E+00
         21   -1    0    0  504  501  0.00000000000E+00  0.00000000000E+00  0.61293926359E+02  0.61293926359E+02  0.00000000000E+00 0. -1.
         21   -1    0    0  501  502 -0.00000000000E+00 -0.00000000000E+00 -0.99255762705E+03  0.99255762705E+03  0.00000000000E+00 0. -1.
         25    1    1    2    0    0  0.42275451049E+02  0.21457707474E+03 -0.42467564407E+03  0.49376607562E+03  0.12500000000E+03 0.  0.
         21    1    1    2  503  502 -0.10749610658E+02 -0.38949550124E+02 -0.27576448889E+02  0.48919138560E+02  0.00000000000E+00 0. -1.
         21    1    1    2  504  503 -0.31525840391E+02 -0.17562752462E+03 -0.47901160774E+03  0.51116633923E+03  0.00000000000E+00 0. -1.
<mgrwt>
<rscale>  4 0.22844889E+03</rscale>
<asrwt>0</asrwt>
<pdfrwt beam="1">  1       21 0.94298347E-02 0.22844889E+03</pdfrwt>
<pdfrwt beam="2">  1       21 0.15270118E+00 0.22844889E+03</pdfrwt>
<totfact> 0.25097816E+04</totfact>
</mgrwt>
</event>
