<event>
 5    0  0.3372079E-003  0.5523499E+03  0.7546771E-02  0.1000951E+00
         21   -1    0    0  501  502  0.00000000000E+00  0.00000000000E+00  0.20448493663E+03  0.20448493663E+03  0.00000000000E+00 0.  1.
         21   -1    0    0  502  503 -0.00000000000E+00 -0.00000000000E+00 -0.37299869344E+03  0.37299869344E+03  0.00000000000E+00 0.  1.
         25    1    1    2    0    0  0.23191452826E+03  0.59220403024E+02 -0.61372355773E+02  0.27691690199E+03  0.12500000000E+03 0.  0.
          1    1    1    2  501    0  0.10414248732E+02 -0.31326712302E+02  0.25469329481E+01  0.33110517178E+02  0.00000000000E+00 0. -1.
         -1    1    1    2    0  503 -0.24232877699E+03 -0.27893690722E+02 -0.10968833398E+03  0.26745621091E+03  0.00000000000E+00 0.  1.
<mgrwt>
<rscale>  4 0.55234994E+03</rscale>
<asrwt>0</asrwt>
<pdfrwt beam="1">  1       21 0.31459221E-01 0.55234994E+03</pdfrwt>
<pdfrwt beam="2">  1       21 0.57384414E-01 0.55234994E+03</pdfrwt>
<totfact> 0.24583169E+04</totfact>
</mgrwt>
</event>
<event>
 5    0  0.3372079E-003  0.5719685E+03  0.7546771E-02  0.9965332E-01
         21   -1    0    0  503  502  0.00000000000E+00  0.00000000000E+00  0.57199985503E+03  0.57199985503E+03  0.00000000000E+00 0.  1.
         21   -1    0    0  501  503 -0.00000000000E+00 -0.00000000000E+00 -0.14298428091E+03  0.14298428091E+03  0.00000000000E+00 0.  1.
         25    1    1    2    0    0  0.16480038530E+03 -0.19583660882E+03  0.20505435078E+03  0.35097497222E+03  0.12500000000E+03 0.  0.
          4    1    1    2  501    0 -0.34683404508E+02  0.55139295626E+01 -0.89991413152E+01  0.36253641360E+02  0.00000000000E+00 0. -1.
         -4    1    1    2    0  502 -0.13011698080E+03  0.19032267926E+03  0.23296036466E+03  0.32775552235E+03  0.00000000000E+00 0.  1.
<mgrwt>
<rscale>  4 0.57196849E+03</rscale>
<asrwt>0</asrwt>
<pdfrwt beam="1">  1       21 0.87999976E-01 0.57196849E+03</pdfrwt>
<pdfrwt beam="2">  1       21 0.21997582E-01 0.57196849E+03</pdfrwt>
<totfact> 0.18727357E+04</totfact>
</mgrwt>
</event>
<event>
 5    0  0.3372079E-003  0.7346681E+03  0.7546771E-02  0.9659715E-01
         21   -1    0    0  501  502  0.00000000000E+00  0.00000000000E+00  0.21234172840E+04  0.21234172840E+04  0.00000000000E+00 0. -1.
         21   -1    0    0  502  503 -0.00000000000E+00 -0.00000000000E+00 -0.63545833432E+02  0.63545833432E+02  0.00000000000E+00 0. -1.
         25    1    1    2    0    0 -0.20485063833E+03 -0.16142561780E+02  0.23441070916E+03  0.33585375819E+03  0.12500000000E+03 0.  0.
          4    1    1    2  501    0  0.26145072981E+02  0.10400185378E+03  0.58027809680E+03  0.59010390615E+03  0.00000000000E+00 0. -1.
         -4    1    1    2    0  503  0.17870556535E+03 -0.87859292002E+02  0.12451826447E+04  0.12610054531E+04  0.00000000000E+00 0.  1.
<mgrwt>
<rscale>  4 0.73466815E+03</rscale>
<asrwt>0</asrwt>
<pdfrwt beam="1">  1       21 0.32667953E+00 0.73466815E+03</pdfrwt>
<pdfrwt beam="2">  1       21 0.97762837E-02 0.73466815E+03</pdfrwt>
<totfact> 0.14543790E+03</totfact>
</mgrwt>
</event>
<event>
 5    0  0.3372079E-003  0.4655793E+03  0.7546771E-02  0.1023175E+00
         21   -1    0    0  503  502  0.00000000000E+00  0.00000000000E+00  0.13202607341E+03  0.13202607341E+03  0.00000000000E+00 0.  1.
         21   -1    0    0  501  503 -0.00000000000E+00 -0.00000000000E+00 -0.41045701456E+03  0.41045701456E+03  0.00000000000E+00 0.  1.
         25    1    1    2    0    0 -0.17495973417E+03  0.10919932837E+03 -0.13035695144E+03  0.27414108901E+03  0.12500000000E+03 0.  0.
          3    1    1    2  501    0  0.16671622450E+03 -0.81719455991E+02 -0.15125090368E+03  0.23947694015E+03  0.00000000000E+00 0.  1.
         -3    1    1    2    0  502  0.82435096769E+01 -0.27479872378E+02  0.31769139660E+01  0.28865058809E+02  0.00000000000E+00 0. -1.
<mgrwt>
<rscale>  4 0.46557933E+03</rscale>
<asrwt>0</asrwt>
<pdfrwt beam="1">  1       21 0.20311704E-01 0.46557933E+03</pdfrwt>
<pdfrwt beam="2">  1       21 0.63147232E-01 0.46557933E+03</pdfrwt>
<totfact> 0.47691659E+04</totfact>
</mgrwt>
</event>
<event>
 5    0  0.3372079E-003  0.8114426E+03  0.7546771E-02  0.9543600E-01
         21   -1    0    0  503  502  0.00000000000E+00  0.00000000000E+00  0.37072923304E+03  0.37072923304E+03  0.00000000000E+00 0.  1.
         21   -1    0    0  501  503 -0.00000000000E+00 -0.00000000000E+00 -0.44401619763E+03  0.44401619763E+03  0.00000000000E+00 0.  1.
         25    1    1    2    0    0 -0.28070057034E+03  0.66617449203E+01  0.22830121234E+03  0.38286241992E+03  0.12500000000E+03 0.  0.
          2    1    1    2  501    0  0.87565578226E+02 -0.30123821370E+02 -0.18010002621E+03  0.20251220839E+03  0.00000000000E+00 0. -1.
         -2    1    1    2    0  502  0.19313499211E+03  0.23462076450E+02 -0.12148815072E+03  0.22937080236E+03  0.00000000000E+00 0.  1.
<mgrwt>
<rscale>  4 0.81144263E+03</rscale>
<asrwt>0</asrwt>
<pdfrwt beam="1">  1       21 0.57035267E-01 0.81144263E+03</pdfrwt>
<pdfrwt beam="2">  1       21 0.68310184E-01 0.81144263E+03</pdfrwt>
<totfact> 0.45606165E+03</totfact>
</mgrwt>
</event>
<event>
 5    0  0.3372079E-003  0.4735074E+03  0.7546771E-02  0.1020935E+00
         21   -1    0    0  503  502  0.00000000000E+00  0.00000000000E+00  0.91492403318E+02  0.91492403318E+02  0.00000000000E+00 0. -1.
         21   -1    0    0  501  503 -0.00000000000E+00 -0.00000000000E+00 -0.61264434661E+03  0.61264434661E+03  0.00000000000E+00 0. -1.
         25    1    1    2    0    0  0.10091727752E+03  0.18229816081E+03 -0.33716168840E+03  0.41559586194E+03  0.12500000000E+03 0.  0.
          3    1    1    2  501    0 -0.92335651802E+02 -0.12437518396E+03 -0.16653342255E+03  0.22743887048E+03  0.00000000000E+00 0.  1.
         -3    1    1    2    0  502 -0.85816257154E+01 -0.57922976853E+02 -0.17456832337E+02  0.61102017501E+02  0.00000000000E+00 0. -1.
<mgrwt>
<rscale>  4 0.47350735E+03</rscale>
<asrwt>0</asrwt>
<pdfrwt beam="1">  1       21 0.14075755E-01 0.47350735E+03</pdfrwt>
<pdfrwt beam="2">  1       21 0.94252974E-01 0.47350735E+03</pdfrwt>
<totfact> 0.37724978E+04</totfact>
</mgrwt>
</event>
<event>
 5    0  0.3372079E-003  0.7363475E+03  0.7546771E-02  0.9657016E-01
         21   -1    0    0  503  502  0.00000000000E+00  0.00000000000E+00  0.59337999428E+03  0.59337999428E+03  0.00000000000E+00 0.  1.
         21   -1    0    0  501  503 -0.00000000000E+00 -0.00000000000E+00 -0.22844032713E+03  0.22844032713E+03  0.00000000000E+00 0.  1.
         25    1    1    2    0    0 -0.86330500632E+02  0.32059218500E+03  0.27734281207E+03  0.45030693958E+03  0.12500000000E+03 0.  0.
          2    1    1    2  501    0 -0.79782833284E+01 -0.11685389968E+03 -0.25889418142E+02  0.11995311104E+03  0.00000000000E+00 0. -1.
         -2    1    1    2    0  502  0.94308783961E+02 -0.20373828532E+03  0.11348627322E+03  0.25156027080E+03  0.00000000000E+00 0.  1.
<mgrwt>
<rscale>  4 0.73634753E+03</rscale>
<asrwt>0</asrwt>
<pdfrwt beam="1">  1       21 0.91289229E-01 0.73634753E+03</pdfrwt>
<pdfrwt beam="2">  1       21 0.35144666E-01 0.73634753E+03</pdfrwt>
<totfact> 0.65510730E+03</totfact>
</mgrwt>
</event>
<event>
 5    0  0.3372079E-003  0.5841533E+03  0.7546771E-02  0.9938839E-01
         21   -1    0    0  501  502  0.00000000000E+00  0.00000000000E+00  0.68123017589E+03  0.68123017589E+03  0.00000000000E+00 0. -1.
         21   -1    0    0  502  503 -0.00000000000E+00 -0.00000000000E+00 -0.12522753675E+03  0.12522753675E+03  0.00000000000E+00 0. -1.
         25    1    1    2    0    0  0.25308802229E+03 -0.29258797717E+02  0.35427448156E+03  0.45392183529E+03  0.12500000000E+03 0.  0.
          3    1    1    2  501    0 -0.50176558205E+02 -0.31285316562E+02  0.10329902121E+03  0.11902581992E+03  0.00000000000E+00 0.  1.
         -3    1    1    2    0  503 -0.20291146409E+03  0.60544114279E+02  0.98429136376E+02  0.23351005743E+03  0.00000000000E+00 0. -1.
<mgrwt>
<rscale>  4 0.58415333E+03</rscale>
<asrwt>0</asrwt>
<pdfrwt beam="1">  1       21 0.10480464E+00 0.58415333E+03</pdfrwt>
<pdfrwt beam="2">  1       21 0.19265775E-01 0.58415333E+03</pdfrwt>
<totfact> 0.15777333E+04</totfact>
</mgrwt>
</event>
<event>
 5    0  0.3372079E-003  0.5996023E+03  0.7546771E-02  0.9906231E-01
         21   -1    0    0  503  502  0.00000000000E+00  0.00000000000E+00  0.21475723648E+03  0.21475723648E+03  0.00000000000E+00 0.  1.
         21   -1    0    0  501  503 -0.00000000000E+00 -0.00000000000E+00 -0.41852249483E+03  0.41852249483E+03  0.00000000000E+00 0.  1.
         25    1    1    2    0    0  0.18796663456E+03 -0.10070426560E+03  0.56332188733E+02  0.25351749507E+03  0.12500000000E+03 0.  0.
          3    1    1    2  501    0 -0.16997260662E+02  0.10287598722E+03 -0.11774348561E+03  0.15727652088E+03  0.00000000000E+00 0.  1.
         -3    1    1    2    0  502 -0.17096937390E+03 -0.21717216246E+01 -0.14235396147E+03  0.22248571535E+03  0.00000000000E+00 0. -1.
<mgrwt>
<rscale>  4 0.59960232E+03</rscale>
<asrwt>0</asrwt>
<pdfrwt beam="1">  1       21 0.33039575E-01 0.59960232E+03</pdfrwt>
<pdfrwt beam="2">  1       21 0.64388075E-01 0.59960232E+03</pdfrwt>
<totfact> 0.17106918E+04</totfact>
</mgrwt>
</event>
<event>
 5    0  0.3372079E-003  0.4541080E+03  0.7546771E-02  0.1026504E+00
         21   -1    0    0  501  502  0.00000000000E+00  0.00000000000E+00  0.63790669175E+02  0.63790669175E+02  0.00000000000E+00 0. -1.
         21   -1    0    0  502  503 -0.00000000000E+00 -0.00000000000E+00 -0.80816690871E+03  0.80816690871E+03  0.00000000000E+00 0. -1.
         25    1    1    2    0    0  0.20119580250E+03 -0.66919844488E+01 -0.30596702785E+03  0.38699529162E+03  0.12500000000E+03 0.  0.
          2    1    1    2  501    0 -0.14459680391E+03 -0.11356652275E+02 -0.34517200528E+03  0.37440742845E+03  0.00000000000E+00 0. -1.
         -2    1    1    2    0  503 -0.56598998590E+02  0.18048636723E+02 -0.93237206410E+02  0.11055485782E+03  0.00000000000E+00 0.  1.
<mgrwt>
<rscale>  4 0.45410795E+03</rscale>
<asrwt>0</asrwt>
<pdfrwt beam="1">  1       21 0.98139493E-02 0.45410795E+03</pdfrwt>
<pdfrwt beam="2">  1       21 0.12433337E+00 0.45410795E+03</pdfrwt>
<totfact> 0.36799272E+04</totfact>
</mgrwt>
</event>
<event>
 5    0  0.3372079E-003  0.4820728E+03  0.7546771E-02  0.1018567E+00
         21   -1    0    0  503  502  0.00000000000E+00  0.00000000000E+00  0.28941099877E+03  0.28941099877E+03  0.00000000000E+00 0. -1.
         21   -1    0    0  501  503 -0.00000000000E+00 -0.00000000000E+00 -0.20074753283E+03  0.20074753283E+03  0.00000000000E+00 0. -1.
         25    1    1    2    0    0 -0.12443102905E+02  0.20655606858E+03  0.12583230494E+03  0.27254175688E+03  0.12500000000E+03 0.  0.
          3    1    1    2  501    0 -0.53713039567E+00 -0.45481331148E+02 -0.32590259005E+02  0.55955026353E+02  0.00000000000E+00 0.  1.
         -3    1    1    2    0  502  0.12980233301E+02 -0.16107473743E+03 -0.45785799889E+01  0.16166174838E+03  0.00000000000E+00 0. -1.
<mgrwt>
<rscale>  4 0.48207279E+03</rscale>
<asrwt>0</asrwt>
<pdfrwt beam="1">  1       21 0.44524769E-01 0.48207279E+03</pdfrwt>
<pdfrwt beam="2">  1       21 0.30884236E-01 0.48207279E+03</pdfrwt>
<totfact> 0.44510845E+04</totfact>
</mgrwt>
</event>
<event>
 5    0  0.3372079E-003  0.4623183E+03  0.7546771E-02  0.1024111E+00
         21   -1    0    0  501  502  0.00000000000E+00  0.00000000000E+00  0.33531741742E+02  0.33531741742E+02  0.00000000000E+00 0. -1.
         21   -1    0    0  502  503 -0.00000000000E+00 -0.00000000000E+00 -0.15935510726E+04  0.15935510726E+04  0.00000000000E+00 0. -1.
         25    1    1    2    0    0 -0.18754094217E+03 -0.99807818968E+02 -0.79704995221E+03  0.83429421191E+03  0.12500000000E+03 0.  0.
          4    1    1    2  501    0  0.16893484298E+03  0.87624911241E+02 -0.63511829638E+03  0.66301761413E+03  0.00000000000E+00 0. -1.
         -4    1    1    2    0  503  0.18606099191E+02  0.12182907727E+02 -0.12785108224E+03  0.12977098828E+03  0.00000000000E+00 0.  1.
<mgrwt>
<rscale>  4 0.46231826E+03</rscale>
<asrwt>0</asrwt>
<pdfrwt beam="1">  1       21 0.51587298E-02 0.46231826E+03</pdfrwt>
<pdfrwt beam="2">  1       21 0.24516169E+00 0.46231826E+03</pdfrwt>
<totfact> 0.15594884E+04</totfact>
</mgrwt>
</event>
<event>
 5    0  0.3372079E-003  0.4919036E+03  0.7546771E-02  0.1015914E+00
         21   -1    0    0  501  502  0.00000000000E+00  0.00000000000E+00  0.34828454913E+02  0.34828454913E+02  0.00000000000E+00 0. -1.
         21   -1    0    0  502  503 -0.00000000000E+00 -0.00000000000E+00 -0.17368638996E+04  0.17368638996E+04  0.00000000000E+00 0. -1.
         25    1    1    2    0    0 -0.16030730219E+03  0.12638530851E+03 -0.95674614027E+03  0.98623519216E+03  0.12500000000E+03 0.  0.
          4    1    1    2  501    0  0.47077316417E+02  0.25769443895E+02 -0.10890265220E+03  0.12140891901E+03  0.00000000000E+00 0. -1.
         -4    1    1    2    0  503  0.11322998577E+03 -0.15215475241E+03 -0.63638665222E+03  0.66404824334E+03  0.00000000000E+00 0.  1.
<mgrwt>
<rscale>  4 0.49190359E+03</rscale>
<asrwt>0</asrwt>
<pdfrwt beam="1">  1       21 0.53582254E-02 0.49190359E+03</pdfrwt>
<pdfrwt beam="2">  1       21 0.26720975E+00 0.49190359E+03</pdfrwt>
<totfact> 0.10581449E+04</totfact>
</mgrwt>
</event>
<event>
 5    0  0.3372079E-003  0.7418465E+03  0.7546771E-02  0.9648229E-01
         21   -1    0    0  503  502  0.00000000000E+00  0.00000000000E+00  0.92256464686E+02  0.92256464686E+02  0.00000000000E+00 0. -1.
         21   -1    0    0  501  503 -0.00000000000E+00 -0.00000000000E+00 -0.14913216895E+04  0.14913216895E+04  0.00000000000E+00 0. -1.
         25    1    1    2    0    0 -0.28173372444E+03  0.18178897393E+03 -0.89595240742E+03  0.96476776423E+03  0.12500000000E+03 0.  0.
          2    1    1    2  501    0  0.26191900437E+03 -0.16965770194E+03 -0.50691150834E+03  0.59526849234E+03  0.00000000000E+00 0. -1.
         -2    1    1    2    0  502  0.19814720078E+02 -0.12131271991E+02  0.37986909309E+01  0.23541897643E+02  0.00000000000E+00 0.  1.
<mgrwt>
<rscale>  4 0.74184653E+03</rscale>
<asrwt>0</asrwt>
<pdfrwt beam="1">  1       21 0.14193304E-01 0.74184653E+03</pdfrwt>
<pdfrwt beam="2">  1       21 0.22943408E+00 0.74184653E+03</pdfrwt>
<totfact> 0.29396225E+03</totfact>
</mgrwt>
</event>
<event>
 5    0  0.3372079E-003  0.5263961E+03  0.7546771E-02  0.1007110E+00
         21   -1    0    0  501  502  0.00000000000E+00  0.00000000000E+00  0.29320896404E+04  0.29320896404E+04  0.00000000000E+00 0. -1.
         21   -1    0    0  502  503 -0.00000000000E+00 -0.00000000000E+00 -0.23625881421E+02  0.23625881421E+02  0.00000000000E+00 0. -1.
         25    1    1    2    0    0  0.23883462625E+02 -0.23253791915E+03  0.14633493877E+04  0.14871653352E+04  0.12500000000E+03 0.  0.
          3    1    1    2  501    0  0.22868240623E+02  0.33737268507E+02  0.49814452743E+03  0.49980909348E+03  0.00000000000E+00 0.  1.
         -3    1    1    2    0  503 -0.46751703247E+02  0.19880065064E+03  0.94696984385E+03  0.96874109318E+03  0.00000000000E+00 0. -1.
<mgrwt>
<rscale>  4 0.52639606E+03</rscale>
<asrwt>0</asrwt>
<pdfrwt beam="1">  1       21 0.45109043E+00 0.52639606E+03</pdfrwt>
<pdfrwt beam="2">  1       21 0.36347533E-02 0.52639606E+03</pdfrwt>
<totfact> 0.14187213E+03</totfact>
</mgrwt>
</event>
<event>
 5    0  0.3372079E-003  0.7393693E+03  0.7546771E-02  0.9652177E-01
         21   -1    0    0  501  502  0.00000000000E+00  0.00000000000E+00  0.27320291427E+03  0.27320291427E+03  0.00000000000E+00 0.  1.
         21   -1    0    0  502  503 -0.00000000000E+00 -0.00000000000E+00 -0.50023901818E+03  0.50023901818E+03  0.00000000000E+00 0.  1.
         25    1    1    2    0    0 -0.14623741323E+03  0.31882873237E+03 -0.11626565358E+03  0.39010235043E+03  0.12500000000E+03 0.  0.
          4    1    1    2  501    0  0.14096677345E+03 -0.22671545096E+03 -0.11566346019E+03  0.29094597942E+03  0.00000000000E+00 0.  1.
         -4    1    1    2    0  503  0.52706397847E+01 -0.92113281407E+02  0.48930098513E+01  0.92393602596E+02  0.00000000000E+00 0. -1.
<mgrwt>
<rscale>  4 0.73936935E+03</rscale>
<asrwt>0</asrwt>
<pdfrwt beam="1">  1       21 0.42031218E-01 0.73936935E+03</pdfrwt>
<pdfrwt beam="2">  1       21 0.76959849E-01 0.73936935E+03</pdfrwt>
<totfact> 0.67653544E+03</totfact>
</mgrwt>
</event>
<event>
 5    0  0.3372079E-003  0.6472647E+03  0.7546771E-02  0.9811925E-01
         21   -1    0    0  501  502  0.00000000000E+00  0.00000000000E+00  0.58330743806E+03  0.58330743806E+03  0.00000000000E+00 0.  1.
         21   -1    0    0  502  503 -0.00000000000E+00 -0.00000000000E+00 -0.17955867508E+03  0.17955867508E+03  0.00000000000E+00 0.  1.
         25    1    1    2    0    0  0.69935973819E+02 -0.28332386419E+03  0.14826507559E+03  0.35038690771E+03  0.12500000000E+03 0.  0.
          2    1    1    2  501    0 -0.81148054563E+02  0.89124156550E+02  0.52918238815E+02  0.13163761635E+03  0.00000000000E+00 0. -1.
         -2    1    1    2    0  503  0.11212080744E+02  0.19419970764E+03  0.20256544857E+03  0.28084158908E+03  0.00000000000E+00 0.  1.
<mgrwt>
<rscale>  4 0.64726474E+03</rscale>
<asrwt>0</asrwt>
<pdfrwt beam="1">  1       21 0.89739605E-01 0.64726474E+03</pdfrwt>
<pdfrwt beam="2">  1       21 0.27624412E-01 0.64726474E+03</pdfrwt>
<totfact> 0.11276459E+04</totfact>
</mgrwt>
</event>
<event>
 5    0  0.3372079E-003  0.6670175E+03  0.7546771E-02  0.9775361E-01
         21   -1    0    0  501  502  0.00000000000E+00  0.00000000000E+00  0.11048589531E+04  0.11048589531E+04  0.00000000000E+00 0.  1.
         21   -1    0    0  502  503 -0.00000000000E+00 -0.00000000000E+00 -0.10067175557E+03  0.10067175557E+03  0.00000000000E+00 0.  1.
         25    1    1    2    0    0  0.59579279300E+02 -0.19321841799E+03  0.33901152581E+03  0.41404934755E+03  0.12500000000E+03 0.  0.
          1    1    1    2  501    0 -0.87045075637E+01 -0.76113125484E+02  0.51227635279E+01  0.76780329702E+02  0.00000000000E+00 0.  1.
         -1    1    1    2    0  503 -0.50874771737E+02  0.26933154347E+03  0.66005290821E+03  0.71470103144E+03  0.00000000000E+00 0. -1.
<mgrwt>
<rscale>  4 0.66701751E+03</rscale>
<asrwt>0</asrwt>
<pdfrwt beam="1">  1       21 0.16997829E+00 0.66701751E+03</pdfrwt>
<pdfrwt beam="2">  1       21 0.15487963E-01 0.66701751E+03</pdfrwt>
<totfact> 0.64790493E+03</totfact>
</mgrwt>
</event>
<event>
 5    0  0.3372079E-003  0.6189529E+03  0.7546771E-02  0.9866847E-01
         21   -1    0    0  501  502  0.00000000000E+00  0.00000000000E+00  0.22044146239E+04  0.22044146239E+04  0.00000000000E+00 0.  1.
         21   -1    0    0  502  503 -0.00000000000E+00 -0.00000000000E+00 -0.43447209138E+02  0.43447209138E+02  0.00000000000E+00 0.  1.
         25    1    1    2    0    0 -0.78866680193E+02 -0.19716436210E+03  0.50324490434E+03  0.56033398315E+03  0.12500000000E+03 0.  0.
          4    1    1    2  501    0  0.12823862391E+03  0.13201086860E+03  0.14858539383E+04  0.14972087163E+04  0.00000000000E+00 0. -1.
         -4    1    1    2    0  503 -0.49371943716E+02  0.65153493499E+02  0.17186857211E+03  0.19031913362E+03  0.00000000000E+00 0.  1.
<mgrwt>
<rscale>  4 0.61895287E+03</rscale>
<asrwt>0</asrwt>
<pdfrwt beam="1">  1       21 0.33914062E+00 0.61895287E+03</pdfrwt>
<pdfrwt beam="2">  1       21 0.66841877E-02 0.61895287E+03</pdfrwt>
<totfact> 0.25008673E+03</totfact>
</mgrwt>
</event>
<event>
 5    0  0.3372079E-003  0.5736333E+03  0.7546771E-02  0.9961671E-01
         21   -1    0    0  501  502  0.00000000000E+00  0.00000000000E+00  0.12817212657E+03  0.12817212657E+03  0.00000000000E+00 0.  1.
         21   -1    0    0  502  503 -0.00000000000E+00 -0.00000000000E+00 -0.64182271281E+03  0.64182271281E+03  0.00000000000E+00 0.  1.
         25    1    1    2    0    0 -0.91832896890E+02 -0.24591247133E+03 -0.30891671289E+03  0.42421782142E+03  0.12500000000E+03 0.  0.
          1    1    1    2  501    0  0.36597136475E+02  0.20853373150E+03 -0.14954237389E+03  0.25920761787E+03  0.00000000000E+00 0.  1.
         -1    1    1    2    0  503  0.55235760415E+02  0.37378739827E+02 -0.55191499457E+02  0.86569400090E+02  0.00000000000E+00 0. -1.
<mgrwt>
<rscale>  4 0.57363327E+03</rscale>
<asrwt>0</asrwt>
<pdfrwt beam="1">  1       21 0.19718789E-01 0.57363327E+03</pdfrwt>
<pdfrwt beam="2">  1       21 0.98741953E-01 0.57363327E+03</pdfrwt>
<totfact> 0.17514426E+04</totfact>
</mgrwt>
</event>
<event>
 5    0  0.3372079E-003  0.5079542E+03  0.7546771E-02  0.1011723E+00
         21   -1    0    0  501  502  0.00000000000E+00  0.00000000000E+00  0.63416576505E+03  0.63416576505E+03  0.00000000000E+00 0. -1.
         21   -1    0    0  502  503 -0.00000000000E+00 -0.00000000000E+00 -0.10171529071E+03  0.10171529071E+03  0.00000000000E+00 0. -1.
         25    1    1    2    0    0 -0.23630261702E+03 -0.38352983590E+01  0.26690993222E+03  0.37778240859E+03  0.12500000000E+03 0.  0.
          2    1    1    2  501    0  0.42357127774E+02 -0.54976033954E+01  0.73456930386E+02  0.84972175082E+02  0.00000000000E+00 0.  1.
         -2    1    1    2    0  503  0.19394548925E+03  0.93329017544E+01  0.19208361173E+03  0.27312647208E+03  0.00000000000E+00 0. -1.
<mgrwt>
<rscale>  4 0.50795415E+03</rscale>
<asrwt>0</asrwt>
<pdfrwt beam="1">  1       21 0.97563961E-01 0.50795415E+03</pdfrwt>
<pdfrwt beam="2">  1       21 0.15648507E-01 0.50795415E+03</pdfrwt>
<totfact> 0.28297662E+04</totfact>
</mgrwt>
</event>
<event>
 5    0  0.3372079E-003  0.6037166E+03  0.7546771E-02  0.9897725E-01
         21   -1    0    0  503  502  0.00000000000E+00  0.00000000000E+00  0.38023554456E+03  0.38023554456E+03  0.00000000000E+00 0.  1.
         21   -1    0    0  501  503 -0.00000000000E+00 -0.00000000000E+00 -0.23963678952E+03  0.23963678952E+03  0.00000000000E+00 0.  1.
         25    1    1    2    0    0  0.11842720844E+03  0.20710814936E+03  0.22489886993E+03  0.35088928585E+03  0.12500000000E+03 0.  0.
          3    1    1    2  501    0 -0.16300225498E+02 -0.58224873236E+02 -0.62778800545E+02  0.87160834166E+02  0.00000000000E+00 0.  1.
         -3    1    1    2    0  502 -0.10212698294E+03 -0.14888327612E+03 -0.21521314352E+02  0.18182221406E+03  0.00000000000E+00 0. -1.
<mgrwt>
<rscale>  4 0.60371657E+03</rscale>
<asrwt>0</asrwt>
<pdfrwt beam="1">  1       21 0.58497776E-01 0.60371657E+03</pdfrwt>
<pdfrwt beam="2">  1       21 0.36867198E-01 0.60371657E+03</pdfrwt>
<totfact> 0.16912327E+04</totfact>
</mgrwt>
</event>
<event>
 5    0  0.3372079E-003  0.5608347E+03  0.7546771E-02  0.9990168E-01
         21   -1    0    0  501  502  0.00000000000E+00  0.00000000000E+00  0.11849603182E+03  0.11849603182E+03  0.00000000000E+00 0. -1.
         21   -1    0    0  502  503 -0.00000000000E+00 -0.00000000000E+00 -0.66359924548E+03  0.66359924548E+03  0.00000000000E+00 0. -1.
         25    1    1    2    0    0 -0.21318319248E+03 -0.51540410467E+01 -0.30370997355E+03  0.39158445543E+03  0.12500000000E+03 0.  0.
          2    1    1    2  501    0  0.68766912842E+00  0.28126278572E+02  0.32568751836E+02  0.43038169469E+02  0.00000000000E+00 0.  1.
         -2    1    1    2    0  503  0.21249552335E+03 -0.22972237525E+02 -0.27396199194E+03  0.34747265240E+03  0.00000000000E+00 0. -1.
<mgrwt>
<rscale>  4 0.56083465E+03</rscale>
<asrwt>0</asrwt>
<pdfrwt beam="1">  1       21 0.18230159E-01 0.56083465E+03</pdfrwt>
<pdfrwt beam="2">  1       21 0.10209219E+00 0.56083465E+03</pdfrwt>
<totfact> 0.18791410E+04</totfact>
</mgrwt>
</event>
<event>
 5    0  0.3372079E-003  0.5123353E+03  0.7546771E-02  0.1010608E+00
         21   -1    0    0  501  502  0.00000000000E+00  0.00000000000E+00  0.18741083704E+03  0.18741083704E+03  0.00000000000E+00 0.  1.
         21   -1    0    0  502  503 -0.00000000000E+00 -0.00000000000E+00 -0.35014982940E+03  0.35014982940E+03  0.00000000000E+00 0.  1.
         25    1    1    2    0    0 -0.71083660747E+02  0.20853815391E+03 -0.14545778925E+03  0.29210275061E+03  0.12500000000E+03 0.  0.
          3    1    1    2  501    0  0.78837935154E+01 -0.14960631849E+03  0.20381815227E+02  0.15119399169E+03  0.00000000000E+00 0. -1.
         -3    1    1    2    0  503  0.63199867232E+02 -0.58931835420E+02 -0.37663018329E+02  0.94263924137E+02  0.00000000000E+00 0.  1.
<mgrwt>
<rscale>  4 0.51233533E+03</rscale>
<asrwt>0</asrwt>
<pdfrwt beam="1">  1       21 0.28832437E-01 0.51233533E+03</pdfrwt>
<pdfrwt beam="2">  1       21 0.53869204E-01 0.51233533E+03</pdfrwt>
<totfact> 0.33829828E+04</totfact>
</mgrwt>
</event>
<event>
 5    0  0.3372079E-003  0.4654898E+03  0.7546771E-02  0.1023201E+00
         21   -1    0    0  501  502  0.00000000000E+00  0.00000000000E+00  0.52534872130E+03  0.52534872130E+03  0.00000000000E+00 0.  1.
         21   -1    0    0  502  503 -0.00000000000E+00 -0.00000000000E+00 -0.10311283855E+03  0.10311283855E+03  0.00000000000E+00 0.  1.
         25    1    1    2    0    0 -0.16784878950E+03 -0.12467382895E+03  0.18957855354E+03  0.30867751412E+03  0.12500000000E+03 0.  0.
          4    1    1    2  501    0  0.15235346071E+03  0.87323014841E+02  0.20882671530E+03  0.27284699547E+03  0.00000000000E+00 0. -1.
         -4    1    1    2    0  503  0.15495328787E+02  0.37350814108E+02  0.23830613911E+02  0.46937050271E+02  0.00000000000E+00 0.  1.
<mgrwt>
<rscale>  4 0.46548984E+03</rscale>
<asrwt>0</asrwt>
<pdfrwt beam="1">  1       21 0.80822879E-01 0.46548984E+03</pdfrwt>
<pdfrwt beam="2">  1       21 0.15863514E-01 0.46548984E+03</pdfrwt>
<totfact> 0.43480619E+04</totfact>
</mgrwt>
</event>
<event>
 5    0  0.3372079E-003  0.5869447E+03  0.7546771E-02  0.9932868E-01
         21   -1    0    0  501  502  0.00000000000E+00  0.00000000000E+00  0.74208216428E+03  0.74208216428E+03  0.00000000000E+00 0. -1.
         21   -1    0    0  502  503 -0.00000000000E+00 -0.00000000000E+00 -0.11605994398E+03  0.11605994398E+03  0.00000000000E+00 0. -1.
         25    1    1    2    0    0  0.17967859364E+03 -0.18868142444E+03  0.30320820667E+03  0.41886190269E+03  0.12500000000E+03 0.  0.
          1    1    1    2  501    0  0.20312709129E+02  0.20113851714E+01  0.72995245323E+01  0.21677981475E+02  0.00000000000E+00 0.  1.
         -1    1    1    2    0  503 -0.19999130276E+03  0.18667003926E+03  0.31551448910E+03  0.41760222410E+03  0.00000000000E+00 0. -1.
<mgrwt>
<rscale>  4 0.58694468E+03</rscale>
<asrwt>0</asrwt>
<pdfrwt beam="1">  1       21 0.11416648E+00 0.58694468E+03</pdfrwt>
<pdfrwt beam="2">  1       21 0.17855376E-01 0.58694468E+03</pdfrwt>
<totfact> 0.14713243E+04</totfact>
</mgrwt>
</event>
<event>
 5    0  0.3372079E-003  0.7830910E+03  0.7546771E-02  0.9584820E-01
         21   -1    0    0  503  502  0.00000000000E+00  0.00000000000E+00  0.41368633868E+03  0.41368633868E+03  0.00000000000E+00 0. -1.
         21   -1    0    0  501  503 -0.00000000000E+00 -0.00000000000E+00 -0.37058968414E+03  0.37058968414E+03  0.00000000000E+00 0. -1.
         25    1    1    2    0    0  0.32532364055E+03  0.13903563295E+03  0.15054033745E+03  0.40429416460E+03  0.12500000000E+03 0.  0.
          2    1    1    2  501    0 -0.26812556022E+03 -0.85970019992E+02 -0.57615117242E+02  0.28740504887E+03  0.00000000000E+00 0. -1.
         -2    1    1    2    0  502 -0.57198080332E+02 -0.53065612954E+02 -0.49828565664E+02  0.92576809342E+02  0.00000000000E+00 0.  1.
<mgrwt>
<rscale>  4 0.78309103E+03</rscale>
<asrwt>0</asrwt>
<pdfrwt beam="1">  1       21 0.63644052E-01 0.78309103E+03</pdfrwt>
<pdfrwt beam="2">  1       21 0.57013798E-01 0.78309103E+03</pdfrwt>
<totfact> 0.53813445E+03</totfact>
</mgrwt>
</event>
<event>
 5    0  0.3372079E-003  0.6782050E+03  0.7546771E-02  0.9755248E-01
         21   -1    0    0  501  502  0.00000000000E+00  0.00000000000E+00  0.56819549616E+03  0.56819549616E+03  0.00000000000E+00 0.  1.
         21   -1    0    0  502  503 -0.00000000000E+00 -0.00000000000E+00 -0.20237842299E+03  0.20237842299E+03  0.00000000000E+00 0.  1.
         25    1    1    2    0    0  0.67050766093E+02  0.26194492746E+03 -0.11843194862E+02  0.29812113565E+03  0.12500000000E+03 0.  0.
          3    1    1    2  501    0 -0.84782440027E+02 -0.22886855700E+03  0.34560027336E+03  0.42309387548E+03  0.00000000000E+00 0.  1.
         -3    1    1    2    0  503  0.17731673934E+02 -0.33076370452E+02  0.32059994676E+02  0.49358908025E+02  0.00000000000E+00 0. -1.
<mgrwt>
<rscale>  4 0.67820501E+03</rscale>
<asrwt>0</asrwt>
<pdfrwt beam="1">  1       21 0.87414691E-01 0.67820501E+03</pdfrwt>
<pdfrwt beam="2">  1       21 0.31135142E-01 0.67820501E+03</pdfrwt>
<totfact> 0.93951699E+03</totfact>
</mgrwt>
</event>
<event>
 5    0  0.3372079E-003  0.6982215E+03  0.7546771E-02  0.9720278E-01
         21   -1    0    0  501  502  0.00000000000E+00  0.00000000000E+00  0.98036235728E+03  0.98036235728E+03  0.00000000000E+00 0. -1.
         21   -1    0    0  502  503 -0.00000000000E+00 -0.00000000000E+00 -0.12431967533E+03  0.12431967533E+03  0.00000000000E+00 0. -1.
         25    1    1    2    0    0  0.62693043208E+02  0.25336954882E+03  0.55598259082E+03  0.62679198083E+03  0.12500000000E+03 0.  0.
          1    1    1    2  501    0 -0.11212569789E+03 -0.57877121570E+01  0.51235430425E+02  0.12341288049E+03  0.00000000000E+00 0.  1.
         -1    1    1    2    0  503  0.49432654681E+02 -0.24758183666E+03  0.24882466070E+03  0.35447717129E+03  0.00000000000E+00 0. -1.
<mgrwt>
<rscale>  4 0.69822154E+03</rscale>
<asrwt>0</asrwt>
<pdfrwt beam="1">  1       21 0.15082497E+00 0.69822154E+03</pdfrwt>
<pdfrwt beam="2">  1       21 0.19126105E-01 0.69822154E+03</pdfrwt>
<totfact> 0.60497247E+03</totfact>
</mgrwt>
</event>
<event>
 5    0  0.3372079E-003  0.5808329E+03  0.7546771E-02  0.9945989E-01
         21   -1    0    0  501  502  0.00000000000E+00  0.00000000000E+00  0.29822945873E+03  0.29822945873E+03  0.00000000000E+00 0.  1.
         21   -1    0    0  502  503 -0.00000000000E+00 -0.00000000000E+00 -0.28280810049E+03  0.28280810049E+03  0.00000000000E+00 0.  1.
         25    1    1    2    0    0  0.13403310647E+03  0.15241267163E+03 -0.16654419269E+03  0.29078594227E+03  0.12500000000E+03 0.  0.
          1    1    1    2  501    0 -0.10714039249E+03 -0.13926350419E+03  0.19046439375E+03  0.25913331046E+03  0.00000000000E+00 0.  1.
         -1    1    1    2    0  503 -0.26892713979E+02 -0.13149167443E+02 -0.84988428240E+01  0.31118306493E+02  0.00000000000E+00 0. -1.
<mgrwt>
<rscale>  4 0.58083287E+03</rscale>
<asrwt>0</asrwt>
<pdfrwt beam="1">  1       21 0.45881455E-01 0.58083287E+03</pdfrwt>
<pdfrwt beam="2">  1       21 0.43508938E-01 0.58083287E+03</pdfrwt>
<totfact> 0.20329844E+04</totfact>
</mgrwt>
</event>
<event>
 5    0  0.3372079E-003  0.6168611E+03  0.7546771E-02  0.9871029E-01
         21   -1    0    0  503  502  0.00000000000E+00  0.00000000000E+00  0.32198141789E+03  0.32198141789E+03  0.00000000000E+00 0.  1.
         21   -1    0    0  501  503 -0.00000000000E+00 -0.00000000000E+00 -0.29545002362E+03  0.29545002362E+03  0.00000000000E+00 0.  1.
         25    1    1    2    0    0 -0.18218345644E+03 -0.14558759433E+03 -0.16121150708E+03  0.30983981255E+03  0.12500000000E+03 0.  0.
          1    1    1    2  501    0  0.82648417249E+02  0.10670148347E+03  0.12326573644E+03  0.18278514499E+03  0.00000000000E+00 0.  1.
         -1    1    1    2    0  502  0.99535039194E+02  0.38886110856E+02  0.64477164912E+02  0.12480648397E+03  0.00000000000E+00 0. -1.
<mgrwt>
<rscale>  4 0.61686114E+03</rscale>
<asrwt>0</asrwt>
<pdfrwt beam="1">  1       21 0.49535603E-01 0.61686114E+03</pdfrwt>
<pdfrwt beam="2">  1       21 0.45453850E-01 0.61686114E+03</pdfrwt>
<totfact> 0.15645088E+04</totfact>
</mgrwt>
</event>
<event>
 5    0  0.3372079E-003  0.8851745E+03  0.7546771E-02  0.9444306E-01
         21   -1    0    0  501  502  0.00000000000E+00  0.00000000000E+00  0.25439931693E+03  0.25439931693E+03  0.00000000000E+00 0. -1.
         21   -1    0    0  502  503 -0.00000000000E+00 -0.00000000000E+00 -0.76998426046E+03  0.76998426046E+03  0.00000000000E+00 0. -1.
         25    1    1    2    0    0  0.16696050907E+03 -0.39026869007E+03 -0.26630072747E+03  0.51645574785E+03  0.12500000000E+03 0.  0.
          2    1    1    2  501    0 -0.25417823958E+02  0.40574655136E+02  0.11588894927E+02  0.49261251504E+02  0.00000000000E+00 0.  1.
         -2    1    1    2    0  503 -0.14154268511E+03  0.34969403493E+03 -0.26087311098E+03  0.45866657804E+03  0.00000000000E+00 0. -1.
<mgrwt>
<rscale>  4 0.88517449E+03</rscale>
<asrwt>0</asrwt>
<pdfrwt beam="1">  1       21 0.39138357E-01 0.88517449E+03</pdfrwt>
<pdfrwt beam="2">  1       21 0.11845912E+00 0.88517449E+03</pdfrwt>
<totfact> 0.26707493E+03</totfact>
</mgrwt>
</event>
<event>
 5    0  0.3372079E-003  0.4841600E+03  0.7546771E-02  0.1017998E+00
         21   -1    0    0  501  502  0.00000000000E+00  0.00000000000E+00  0.44208438262E+02  0.44208438262E+02  0.00000000000E+00 0. -1.
         21   -1    0    0  502  503 -0.00000000000E+00 -0.00000000000E+00 -0.13256004765E+04  0.13256004765E+04  0.00000000000E+00 0. -1.
         25    1    1    2    0    0 -0.88025951416E+02  0.20515358407E+03 -0.70837904616E+03  0.75316826422E+03  0.12500000000E+03 0.  0.
          3    1    1    2  501    0  0.47483557012E+02 -0.56836686641E+02 -0.18616505845E+03  0.20035599847E+03  0.00000000000E+00 0.  1.
         -3    1    1    2    0  503  0.40542394404E+02 -0.14831689743E+03 -0.38684793366E+03  0.41628465211E+03  0.00000000000E+00 0. -1.
<mgrwt>
<rscale>  4 0.48416000E+03</rscale>
<asrwt>0</asrwt>
<pdfrwt beam="1">  1       21 0.68012975E-02 0.48416000E+03</pdfrwt>
<pdfrwt beam="2">  1       21 0.20393856E+00 0.48416000E+03</pdfrwt>
<totfact> 0.17509998E+04</totfact>
</mgrwt>
</event>
<event>
 5    0  0.3372079E-003  0.4605284E+03  0.7546771E-02  0.1024628E+00
         21   -1    0    0  503  502  0.00000000000E+00  0.00000000000E+00  0.62921650630E+03  0.62921650630E+03  0.00000000000E+00 0.  1.
         21   -1    0    0  501  503 -0.00000000000E+00 -0.00000000000E+00 -0.84266057727E+02  0.84266057727E+02  0.00000000000E+00 0.  1.
         25    1    1    2    0    0 -0.76415681696E+02 -0.19143045165E+03  0.29532605299E+03  0.38121837810E+03  0.12500000000E+03 0.  0.
          4    1    1    2  501    0  0.33128771038E+02  0.26021915498E+02  0.21846118613E+02  0.47454277522E+02  0.00000000000E+00 0. -1.
         -4    1    1    2    0  502  0.43286910658E+02  0.16540853615E+03  0.22777827698E+03  0.28480990841E+03  0.00000000000E+00 0.  1.
<mgrwt>
<rscale>  4 0.46052837E+03</rscale>
<asrwt>0</asrwt>
<pdfrwt beam="1">  1       21 0.96802537E-01 0.46052837E+03</pdfrwt>
<pdfrwt beam="2">  1       21 0.12964009E-01 0.46052837E+03</pdfrwt>
<totfact> 0.41291931E+04</totfact>
</mgrwt>
</event>
<event>
 5    0  0.3372079E-003  0.6094406E+03  0.7546771E-02  0.9886011E-01
         21   -1    0    0  501  502  0.00000000000E+00  0.00000000000E+00  0.18710674188E+03  0.18710674188E+03  0.00000000000E+00 0. -1.
         21   -1    0    0  502  503 -0.00000000000E+00 -0.00000000000E+00 -0.49626467021E+03  0.49626467021E+03  0.00000000000E+00 0. -1.
         25    1    1    2    0    0  0.21094073312E+03  0.19659122676E+03 -0.16882330333E+03  0.35674978778E+03  0.12500000000E+03 0.  0.
          4    1    1    2  501    0 -0.17662133430E+03 -0.12881232996E+03 -0.11112614488E+03  0.24522791879E+03  0.00000000000E+00 0. -1.
         -4    1    1    2    0  503 -0.34319398819E+02 -0.67778896802E+02 -0.29208480130E+02  0.81393705521E+02  0.00000000000E+00 0.  1.
<mgrwt>
<rscale>  4 0.60944061E+03</rscale>
<asrwt>0</asrwt>
<pdfrwt beam="1">  1       21 0.28785653E-01 0.60944061E+03</pdfrwt>
<pdfrwt beam="2">  1       21 0.76348409E-01 0.60944061E+03</pdfrwt>
<totfact> 0.15294807E+04</totfact>
</mgrwt>
</event>
<event>
 5    0  0.3372079E-003  0.5821201E+03  0.7546771E-02  0.9943212E-01
         21   -1    0    0  503  502  0.00000000000E+00  0.00000000000E+00  0.11887038663E+03  0.11887038663E+03  0.00000000000E+00 0. -1.
         21   -1    0    0  501  503 -0.00000000000E+00 -0.00000000000E+00 -0.71267495057E+03  0.71267495057E+03  0.00000000000E+00 0. -1.
         25    1    1    2    0    0 -0.19475048353E+03 -0.17539147252E+03 -0.23952211404E+03  0.37641169294E+03  0.12500000000E+03 0.  0.
          1    1    1    2  501    0  0.32342555973E+01  0.45359114350E+02 -0.10775855040E+03  0.11696074063E+03  0.00000000000E+00 0.  1.
         -1    1    1    2    0  502  0.19151622793E+03  0.13003235817E+03 -0.24652389949E+03  0.33817290364E+03  0.00000000000E+00 0. -1.
<mgrwt>
<rscale>  4 0.58212008E+03</rscale>
<asrwt>0</asrwt>
<pdfrwt beam="1">  1       21 0.18287752E-01 0.58212008E+03</pdfrwt>
<pdfrwt beam="2">  1       21 0.10964230E+00 0.58212008E+03</pdfrwt>
<totfact> 0.15577564E+04</totfact>
</mgrwt>
</event>
<event>
 5    0  0.3372079E-003  0.5044180E+03  0.7546771E-02  0.1012632E+00
         21   -1    0    0  503  502  0.00000000000E+00  0.00000000000E+00  0.52950328014E+03  0.52950328014E+03  0.00000000000E+00 0.  1.
         21   -1    0    0  501  503 -0.00000000000E+00 -0.00000000000E+00 -0.12013027034E+03  0.12013027034E+03  0.00000000000E+00 0.  1.
         25    1    1    2    0    0  0.97898239133E+02  0.18699864689E+03  0.83480734315E+02  0.25912659486E+03  0.12500000000E+03 0.  0.
          1    1    1    2  501    0 -0.44699069172E+02 -0.54211857414E+02  0.13227612335E+03  0.14977952156E+03  0.00000000000E+00 0. -1.
         -1    1    1    2    0  502 -0.53199169962E+02 -0.13278678947E+03  0.19361615213E+03  0.24072743406E+03  0.00000000000E+00 0.  1.
<mgrwt>
<rscale>  4 0.50441797E+03</rscale>
<asrwt>0</asrwt>
<pdfrwt beam="1">  1       21 0.81462042E-01 0.50441797E+03</pdfrwt>
<pdfrwt beam="2">  1       21 0.18481580E-01 0.50441797E+03</pdfrwt>
<totfact> 0.31771233E+04</totfact>
</mgrwt>
</event>
<event>
 5    0  0.3372079E-003  0.5398717E+03  0.7546771E-02  0.1003866E+00
         21   -1    0    0  501  502  0.00000000000E+00  0.00000000000E+00  0.32508688404E+02  0.32508688404E+02  0.00000000000E+00 0.  1.
         21   -1    0    0  502  503 -0.00000000000E+00 -0.00000000000E+00 -0.22414116393E+04  0.22414116393E+04  0.00000000000E+00 0.  1.
         25    1    1    2    0    0 -0.20164773706E+03  0.12605376175E+03 -0.14259643269E+04  0.14510515575E+04  0.12500000000E+03 0.  0.
          2    1    1    2  501    0  0.19644193977E+03 -0.88916575445E+02 -0.65891742129E+03  0.69330207065E+03  0.00000000000E+00 0.  1.
         -2    1    1    2    0  503  0.52057972917E+01 -0.37137186307E+02 -0.12402120270E+03  0.12956669963E+03  0.00000000000E+00 0. -1.
<mgrwt>
<rscale>  4 0.53987166E+03</rscale>
<asrwt>0</asrwt>
<pdfrwt beam="1">  1       21 0.50013357E-02 0.53987166E+03</pdfrwt>
<pdfrwt beam="2">  1       21 0.34483263E+00 0.53987166E+03</pdfrwt>
<totfact> 0.39501675E+03</totfact>
</mgrwt>
</event>
<event>
 5    0  0.3372079E-003  0.4682426E+03  0.7546771E-02  0.1022417E+00
         21   -1    0    0  501  502  0.00000000000E+00  0.00000000000E+00  0.66061988019E+03  0.66061988019E+03  0.00000000000E+00 0.  1.
         21   -1    0    0  502  503 -0.00000000000E+00 -0.00000000000E+00 -0.82971740414E+02  0.82971740414E+02  0.00000000000E+00 0.  1.
         25    1    1    2    0    0 -0.18794463873E+03  0.72848542691E+02  0.22529382230E+03  0.32712750384E+03  0.12500000000E+03 0.  0.
          3    1    1    2  501    0  0.63076597438E+02  0.16858288963E+02  0.13805004053E+03  0.15271107603E+03  0.00000000000E+00 0. -1.
         -3    1    1    2    0  503  0.12486804129E+03 -0.89706831654E+02  0.21430427694E+03  0.26375304074E+03  0.00000000000E+00 0.  1.
<mgrwt>
<rscale>  4 0.46824259E+03</rscale>
<asrwt>0</asrwt>
<pdfrwt beam="1">  1       21 0.10163382E+00 0.46824259E+03</pdfrwt>
<pdfrwt beam="2">  1       21 0.12764884E-01 0.46824259E+03</pdfrwt>
<totfact> 0.37678122E+04</totfact>
</mgrwt>
</event>
<event>
 5    0  0.3372079E-003  0.5100043E+03  0.7546771E-02  0.1011200E+00
         21   -1    0    0  503  502  0.00000000000E+00  0.00000000000E+00  0.11207768706E+04  0.11207768706E+04  0.00000000000E+00 0. -1.
         21   -1    0    0  501  503 -0.00000000000E+00 -0.00000000000E+00 -0.58018768460E+02  0.58018768460E+02  0.00000000000E+00 0. -1.
         25    1    1    2    0    0 -0.15605476503E+03  0.17709876851E+03  0.63377428634E+03  0.68775861283E+03  0.12500000000E+03 0.  0.
          3    1    1    2  501    0  0.13766073784E+03 -0.13759257967E+03  0.33488800317E+03  0.38733986548E+03  0.00000000000E+00 0. -1.
         -3    1    1    2    0  502  0.18394027187E+02 -0.39506188846E+02  0.94095812650E+02  0.10369716077E+03  0.00000000000E+00 0.  1.
<mgrwt>
<rscale>  4 0.51000429E+03</rscale>
<asrwt>0</asrwt>
<pdfrwt beam="1">  1       21 0.17242719E+00 0.51000429E+03</pdfrwt>
<pdfrwt beam="2">  1       21 0.89259652E-02 0.51000429E+03</pdfrwt>
<totfact> 0.17730933E+04</totfact>
</mgrwt>
</event>
<event>
 5    0  0.3372079E-003  0.4574740E+03  0.7546771E-02  0.1025516E+00
         21   -1    0    0  503  502  0.00000000000E+00  0.00000000000E+00  0.84182457250E+02  0.84182457250E+02  0.00000000000E+00 0.  1.
         21   -1    0    0  501  503 -0.00000000000E+00 -0.00000000000E+00 -0.62151434097E+03  0.62151434097E+03  0.00000000000E+00 0.  1.
         25    1    1    2    0    0  0.10890704504E+03 -0.17004844377E+03 -0.21734996516E+03  0.32193667863E+03  0.12500000000E+03 0.  0.
          2    1    1    2  501    0 -0.10198060040E+03  0.10499394209E+03 -0.22553447976E+03  0.26886720197E+03  0.00000000000E+00 0.  1.
         -2    1    1    2    0  502 -0.69264446344E+01  0.65054501684E+02 -0.94447438797E+02  0.11489291762E+03  0.00000000000E+00 0. -1.
<mgrwt>
<rscale>  4 0.45747395E+03</rscale>
<asrwt>0</asrwt>
<pdfrwt beam="1">  1       21 0.12951148E-01 0.45747395E+03</pdfrwt>
<pdfrwt beam="2">  1       21 0.95617588E-01 0.45747395E+03</pdfrwt>
<totfact> 0.42640836E+04</totfact>
</mgrwt>
</event>
<event>
 5    0  0.3372079E-003  0.6828710E+03  0.7546771E-02  0.9746982E-01
         21   -1    0    0  501  502  0.00000000000E+00  0.00000000000E+00  0.18305288428E+04  0.18305288428E+04  0.00000000000E+00 0.  1.
         21   -1    0    0  502  503 -0.00000000000E+00 -0.00000000000E+00 -0.63685528848E+02  0.63685528848E+02  0.00000000000E+00 0.  1.
         25    1    1    2    0    0 -0.18364514570E+03 -0.23217633816E+03  0.70771666766E+03  0.77725110049E+03  0.12500000000E+03 0.  0.
          1    1    1    2  501    0 -0.24630053162E+02  0.59038198818E+01  0.17244519882E+02  0.30640954194E+02  0.00000000000E+00 0. -1.
         -1    1    1    2    0  503  0.20827519886E+03  0.22627251828E+03  0.10418821265E+04  0.10863223170E+04  0.00000000000E+00 0.  1.
<mgrwt>
<rscale>  4 0.68287099E+03</rscale>
<asrwt>0</asrwt>
<pdfrwt beam="1">  1       21 0.28161978E+00 0.68287099E+03</pdfrwt>
<pdfrwt beam="2">  1       21 0.97977751E-02 0.68287099E+03</pdfrwt>
<totfact> 0.27839828E+03</totfact>
</mgrwt>
</event>
<event>
 5    0  0.3372079E-003  0.6514844E+03  0.7546771E-02  0.9803998E-01
         21   -1    0    0  501  502  0.00000000000E+00  0.00000000000E+00  0.19633762542E+03  0.19633762542E+03  0.00000000000E+00 0.  1.
         21   -1    0    0  502  503 -0.00000000000E+00 -0.00000000000E+00 -0.54043626930E+03  0.54043626930E+03  0.00000000000E+00 0.  1.
         25    1    1    2    0    0  0.24633874440E+03  0.26129668560E+02 -0.13517394575E+02  0.27780074969E+03  0.12500000000E+03 0.  0.
          1    1    1    2  501    0 -0.12923002809E+03 -0.11174521465E+03 -0.15007465095E+03  0.22739787601E+03  0.00000000000E+00 0. -1.
         -1    1    1    2    0  503 -0.11710871631E+03  0.85615546092E+02 -0.18050659836E+03  0.23157526902E+03  0.00000000000E+00 0.  1.
<mgrwt>
<rscale>  4 0.65148438E+03</rscale>
<asrwt>0</asrwt>
<pdfrwt beam="1">  1       21 0.30205789E-01 0.65148438E+03</pdfrwt>
<pdfrwt beam="2">  1       21 0.83144041E-01 0.65148438E+03</pdfrwt>
<totfact> 0.11298443E+04</totfact>
</mgrwt>
</event>
<event>
 5    0  0.3372079E-003  0.5491938E+03  0.7546771E-02  0.1001681E+00
         21   -1    0    0  501  502  0.00000000000E+00  0.00000000000E+00  0.25466003033E+03  0.25466003033E+03  0.00000000000E+00 0.  1.
         21   -1    0    0  502  503 -0.00000000000E+00 -0.00000000000E+00 -0.29609462854E+03  0.29609462854E+03  0.00000000000E+00 0.  1.
         25    1    1    2    0    0 -0.16619082556E+03  0.14662352509E+03 -0.13779259787E+03  0.28936075864E+03  0.12500000000E+03 0.  0.
          1    1    1    2  501    0  0.47296289323E+02 -0.67655423268E+02 -0.10336699562E+02  0.83192804010E+02  0.00000000000E+00 0. -1.
         -1    1    1    2    0  503  0.11889453624E+03 -0.78968101823E+02  0.10669469923E+03  0.17820109623E+03  0.00000000000E+00 0.  1.
<mgrwt>
<rscale>  4 0.54919383E+03</rscale>
<asrwt>0</asrwt>
<pdfrwt beam="1">  1       21 0.39178466E-01 0.54919383E+03</pdfrwt>
<pdfrwt beam="2">  1       21 0.45553020E-01 0.54919383E+03</pdfrwt>
<totfact> 0.25831863E+04</totfact>
</mgrwt>
</event>
<event>
 5    0  0.3372079E-003  0.5267332E+03  0.7546771E-02  0.1007027E+00
         21   -1    0    0  503  502  0.00000000000E+00  0.00000000000E+00  0.37421142009E+03  0.37421142009E+03  0.00000000000E+00 0. -1.
         21   -1    0    0  501  503 -0.00000000000E+00 -0.00000000000E+00 -0.18535501224E+03  0.18535501224E+03  0.00000000000E+00 0. -1.
         25    1    1    2    0    0 -0.15534561349E+02  0.21494111302E+03  0.22161825974E+03  0.33343763692E+03  0.12500000000E+03 0.  0.
          3    1    1    2  501    0 -0.82189301529E+01 -0.18143143884E+03 -0.35138323116E+02  0.18498545771E+03  0.00000000000E+00 0. -1.
         -3    1    1    2    0  502  0.23753491502E+02 -0.33509674186E+02  0.23764712295E+01  0.41143337713E+02  0.00000000000E+00 0.  1.
<mgrwt>
<rscale>  4 0.52673319E+03</rscale>
<asrwt>0</asrwt>
<pdfrwt beam="1">  1       21 0.57570988E-01 0.52673319E+03</pdfrwt>
<pdfrwt beam="2">  1       21 0.28516156E-01 0.52673319E+03</pdfrwt>
<totfact> 0.29845873E+04</totfact>
</mgrwt>
</event>
<event>
 5    0  0.3372079E-003  0.6556986E+03  0.7546771E-02  0.9796145E-01
         21   -1    0    0  503  502  0.00000000000E+00  0.00000000000E+00  0.17958093614E+03  0.17958093614E+03  0.00000000000E+00 0.  1.
         21   -1    0    0  501  503 -0.00000000000E+00 -0.00000000000E+00 -0.59853329036E+03  0.59853329036E+03  0.00000000000E+00 0.  1.
         25    1    1    2    0    0 -0.73562641371E+02 -0.28645162247E+03 -0.26551215953E+03  0.41663857368E+03  0.12500000000E+03 0.  0.
          1    1    1    2  501    0  0.90988228777E+02  0.17119091651E+03 -0.14953713371E+03  0.24483982934E+03  0.00000000000E+00 0.  1.
         -1    1    1    2    0  502 -0.17425587406E+02  0.11526070595E+03 -0.39030609754E+01  0.11663582348E+03  0.00000000000E+00 0. -1.
<mgrwt>
<rscale>  4 0.65569862E+03</rscale>
<asrwt>0</asrwt>
<pdfrwt beam="1">  1       21 0.27627836E-01 0.65569862E+03</pdfrwt>
<pdfrwt beam="2">  1       21 0.92082045E-01 0.65569862E+03</pdfrwt>
<totfact> 0.10581091E+04</totfact>
</mgrwt>
</event>
<event>
 5    0  0.3372079E-003  0.4769374E+03  0.7546771E-02  0.1019980E+00
         21   -1    0    0  501  502  0.00000000000E+00  0.00000000000E+00  0.29596437165E+03  0.29596437165E+03  0.00000000000E+00 0. -1.
         21   -1    0    0  502  503 -0.00000000000E+00 -0.00000000000E+00 -0.19214245505E+03  0.19214245505E+03  0.00000000000E+00 0. -1.
         25    1    1    2    0    0 -0.10969389356E+03 -0.18898224281E+03  0.50174156155E+02  0.25668947062E+03  0.12500000000E+03 0.  0.
          1    1    1    2  501    0  0.11189344273E+03  0.16498658664E+03  0.56371327511E+02  0.20716766848E+03  0.00000000000E+00 0. -1.
         -1    1    1    2    0  503 -0.21995491667E+01  0.23995656166E+02 -0.27235670696E+01  0.24249687605E+02  0.00000000000E+00 0.  1.
<mgrwt>
<rscale>  4 0.47693740E+03</rscale>
<asrwt>0</asrwt>
<pdfrwt beam="1">  1       21 0.45532980E-01 0.47693740E+03</pdfrwt>
<pdfrwt beam="2">  1       21 0.29560378E-01 0.47693740E+03</pdfrwt>
<totfact> 0.46389109E+04</totfact>
</mgrwt>
</event>
<event>
 5    0  0.3372079E-003  0.5301369E+03  0.7546771E-02  0.1006199E+00
         21   -1    0    0  501  502  0.00000000000E+00  0.00000000000E+00  0.53658480712E+03  0.53658480712E+03  0.00000000000E+00 0.  1.
         21   -1    0    0  502  503 -0.00000000000E+00 -0.00000000000E+00 -0.13094160573E+03  0.13094160573E+03  0.00000000000E+00 0.  1.
         25    1    1    2    0    0 -0.11767453745E+03  0.20701963860E+03  0.29693844335E+03  0.40062684218E+03  0.12500000000E+03 0.  0.
          1    1    1    2  501    0  0.75317057312E+02 -0.87642255104E+02  0.66810116536E+02  0.13348189268E+03  0.00000000000E+00 0. -1.
         -1    1    1    2    0  503  0.42357480135E+02 -0.11937738350E+03  0.41894641505E+02  0.13341767799E+03  0.00000000000E+00 0.  1.
<mgrwt>
<rscale>  4 0.53013687E+03</rscale>
<asrwt>0</asrwt>
<pdfrwt beam="1">  1       21 0.82551508E-01 0.53013687E+03</pdfrwt>
<pdfrwt beam="2">  1       21 0.20144863E-01 0.53013687E+03</pdfrwt>
<totfact> 0.26002485E+04</totfact>
</mgrwt>
</event>
<event>
 5    0  0.3372079E-003  0.6216658E+03  0.7546771E-02  0.9861449E-01
         21   -1    0    0  501  502  0.00000000000E+00  0.00000000000E+00  0.20964213008E+03  0.20964213008E+03  0.00000000000E+00 0.  1.
         21   -1    0    0  502  503 -0.00000000000E+00 -0.00000000000E+00 -0.46086678103E+03  0.46086678103E+03  0.00000000000E+00 0.  1.
         25    1    1    2    0    0 -0.20763221032E+03 -0.15811174910E+03 -0.24678902033E+03  0.38031602717E+03  0.12500000000E+03 0.  0.
          1    1    1    2  501    0  0.10177497524E+02  0.75069401934E+02 -0.58509752219E+01  0.75981777247E+02  0.00000000000E+00 0. -1.
         -1    1    1    2    0  503  0.19745471280E+03  0.83042347162E+02  0.14153446055E+01  0.21421110669E+03  0.00000000000E+00 0.  1.
<mgrwt>
<rscale>  4 0.62166581E+03</rscale>
<asrwt>0</asrwt>
<pdfrwt beam="1">  1       21 0.32252636E-01 0.62166581E+03</pdfrwt>
<pdfrwt beam="2">  1       21 0.70902581E-01 0.62166581E+03</pdfrwt>
<totfact> 0.14392112E+04</totfact>
</mgrwt>
</event>
<event>
 5    0  0.3372079E-003  0.5056229E+03  0.7546771E-02  0.1012322E+00
         21   -1    0    0  503  502  0.00000000000E+00  0.00000000000E+00  0.10469252284E+03  0.10469252284E+03  0.00000000000E+00 0.  1.
         21   -1    0    0  501  503 -0.00000000000E+00 -0.00000000000E+00 -0.61048887826E+03  0.61048887826E+03  0.00000000000E+00 0.  1.
         25    1    1    2    0    0  0.15610860138E+03 -0.15107966940E+03 -0.26656658813E+03  0.36589302786E+03  0.12500000000E+03 0.  0.
          1    1    1    2  501    0 -0.14663228315E+03  0.83952143736E+02 -0.22263953111E+03  0.27949481160E+03  0.00000000000E+00 0.  1.
         -1    1    1    2    0  502 -0.94763182285E+01  0.67127525660E+02 -0.16590236175E+02  0.69793561628E+02  0.00000000000E+00 0. -1.
<mgrwt>
<rscale>  4 0.50562287E+03</rscale>
<asrwt>0</asrwt>
<pdfrwt beam="1">  1       21 0.16106542E-01 0.50562287E+03</pdfrwt>
<pdfrwt beam="2">  1       21 0.93921363E-01 0.50562287E+03</pdfrwt>
<totfact> 0.29401239E+04</totfact>
</mgrwt>
</event>
<event>
 5    0  0.3372079E-003  0.5981833E+03  0.7546771E-02  0.9909182E-01
         21   -1    0    0  503  502  0.00000000000E+00  0.00000000000E+00  0.26580732186E+03  0.26580732186E+03  0.00000000000E+00 0.  1.
         21   -1    0    0  501  503 -0.00000000000E+00 -0.00000000000E+00 -0.33654384606E+03  0.33654384606E+03  0.00000000000E+00 0.  1.
         25    1    1    2    0    0  0.19728214747E+03  0.15475982175E+03  0.92124960922E+02  0.29492856179E+03  0.12500000000E+03 0.  0.
          3    1    1    2  501    0 -0.15707758320E+03 -0.15465029942E+03 -0.13457825614E+03  0.25826612105E+03  0.00000000000E+00 0.  1.
         -3    1    1    2    0  502 -0.40204564267E+02 -0.10952232802E+00 -0.28283228988E+02  0.49156485076E+02  0.00000000000E+00 0. -1.
<mgrwt>
<rscale>  4 0.59818331E+03</rscale>
<asrwt>0</asrwt>
<pdfrwt beam="1">  1       21 0.40893434E-01 0.59818331E+03</pdfrwt>
<pdfrwt beam="2">  1       21 0.51775976E-01 0.59818331E+03</pdfrwt>
<totfact> 0.17822317E+04</totfact>
</mgrwt>
</event>
<event>
 5    0  0.3372079E-003  0.4713163E+03  0.7546771E-02  0.1021549E+00
         21   -1    0    0  503  502  0.00000000000E+00  0.00000000000E+00  0.33227331918E+03  0.33227331918E+03  0.00000000000E+00 0. -1.
         21   -1    0    0  501  503 -0.00000000000E+00 -0.00000000000E+00 -0.16713579846E+03  0.16713579846E+03  0.00000000000E+00 0. -1.
         25    1    1    2    0    0  0.99595654122E+02 -0.19053545054E+03  0.11899936823E+03  0.27569711981E+03  0.12500000000E+03 0.  0.
          1    1    1    2  501    0 -0.76956269859E+02  0.17301394263E+03  0.32990108122E+02  0.19220936254E+03  0.00000000000E+00 0. -1.
         -1    1    1    2    0  502 -0.22639384264E+02  0.17521507911E+02  0.13148044361E+02  0.31502635284E+02  0.00000000000E+00 0.  1.
<mgrwt>
<rscale>  4 0.47131631E+03</rscale>
<asrwt>0</asrwt>
<pdfrwt beam="1">  1       21 0.51118972E-01 0.47131631E+03</pdfrwt>
<pdfrwt beam="2">  1       21 0.25713200E-01 0.47131631E+03</pdfrwt>
<totfact> 0.47832863E+04</totfact>
</mgrwt>
</event>
<event>
 5    0  0.3372079E-003  0.4843728E+03  0.7546771E-02  0.1017940E+00
         21   -1    0    0  501  502  0.00000000000E+00  0.00000000000E+00  0.41659526351E+03  0.41659526351E+03  0.00000000000E+00 0.  1.
         21   -1    0    0  502  503 -0.00000000000E+00 -0.00000000000E+00 -0.14079435878E+03  0.14079435878E+03  0.00000000000E+00 0.  1.
         25    1    1    2    0    0 -0.16718236886E+03 -0.13762761859E+03  0.14012176659E+03  0.28661893749E+03  0.12500000000E+03 0.  0.
          3    1    1    2  501    0  0.52520778435E+02  0.13711886846E+02  0.72368803830E+02  0.90463759462E+02  0.00000000000E+00 0. -1.
         -3    1    1    2    0  503  0.11466159042E+03  0.12391573174E+03  0.63310334310E+02  0.18030692533E+03  0.00000000000E+00 0.  1.
<mgrwt>
<rscale>  4 0.48437284E+03</rscale>
<asrwt>0</asrwt>
<pdfrwt beam="1">  1       21 0.64091578E-01 0.48437284E+03</pdfrwt>
<pdfrwt beam="2">  1       21 0.21660671E-01 0.48437284E+03</pdfrwt>
<totfact> 0.40640072E+04</totfact>
</mgrwt>
</event>
<event>
 5    0  0.3372079E-003  0.9419207E+03  0.7546771E-02  0.9374644E-01
         21   -1    0    0  503  502  0.00000000000E+00  0.00000000000E+00  0.85585740466E+03  0.85585740466E+03  0.00000000000E+00 0.  1.
         21   -1    0    0  501  503 -0.00000000000E+00 -0.00000000000E+00 -0.25915957024E+03  0.25915957024E+03  0.00000000000E+00 0.  1.
         25    1    1    2    0    0 -0.28481996284E+03  0.11708220345E+03 -0.44323917220E+02  0.33529131101E+03  0.12500000000E+03 0.  0.
          1    1    1    2  501    0  0.18633975812E+03 -0.12914957278E+03  0.13457621956E+03  0.26365294703E+03  0.00000000000E+00 0. -1.
         -1    1    1    2    0  502  0.98480204725E+02  0.12067369332E+02  0.50644553208E+03  0.51607271686E+03  0.00000000000E+00 0.  1.
<mgrwt>
<rscale>  4 0.94192067E+03</rscale>
<asrwt>0</asrwt>
<pdfrwt beam="1">  1       21 0.13167037E+00 0.94192067E+03</pdfrwt>
<pdfrwt beam="2">  1       21 0.39870703E-01 0.94192067E+03</pdfrwt>
<totfact> 0.19277943E+03</totfact>
</mgrwt>
</event>
<event>
 5    0  0.3372079E-003  0.6904956E+03  0.7546771E-02  0.9733625E-01
         21   -1    0    0  503  502  0.00000000000E+00  0.00000000000E+00  0.53971661730E+03  0.53971661730E+03  0.00000000000E+00 0. -1.
         21   -1    0    0  501  503 -0.00000000000E+00 -0.00000000000E+00 -0.22084933321E+03  0.22084933321E+03  0.00000000000E+00 0. -1.
         25    1    1    2    0    0  0.17480055745E+03 -0.23026091095E+03 -0.74699150569E+01  0.31504939554E+03  0.12500000000E+03 0.  0.
          1    1    1    2  501    0 -0.17508187157E+03  0.17468303222E+03  0.25735928302E+03  0.35693364097E+03  0.00000000000E+00 0. -1.
         -1    1    1    2    0  502  0.28131411339E+00  0.55577878727E+02  0.68977916122E+02  0.88582914007E+02  0.00000000000E+00 0.  1.
<mgrwt>
<rscale>  4 0.69049563E+03</rscale>
<asrwt>0</asrwt>
<pdfrwt beam="1">  1       21 0.83033325E-01 0.69049563E+03</pdfrwt>
<pdfrwt beam="2">  1       21 0.33976821E-01 0.69049563E+03</pdfrwt>
<totfact> 0.88704464E+03</totfact>
</mgrwt>
</event>
<event>
 5    0  0.3372079E-003  0.1453318E+04  0.7546771E-02  0.8916104E-01
         21   -1    0    0  503  502  0.00000000000E+00  0.00000000000E+00  0.24264194489E+03  0.24264194489E+03  0.00000000000E+00 0.  1.
         21   -1    0    0  501  503 -0.00000000000E+00 -0.00000000000E+00 -0.21761817504E+04  0.21761817504E+04  0.00000000000E+00 0.  1.
         25    1    1    2    0    0  0.64973760328E+03 -0.24664523276E+03 -0.97989650312E+03  0.12078141334E+04  0.12500000000E+03 0.  0.
          1    1    1    2  501    0 -0.39808187707E+03  0.27546426530E+03 -0.53333257878E+03  0.72027313007E+03  0.00000000000E+00 0.  1.
         -1    1    1    2    0  502 -0.25165572620E+03 -0.28819032539E+02 -0.42031072360E+03  0.49073643185E+03  0.00000000000E+00 0. -1.
<mgrwt>
<rscale>  4 0.14533175E+04</rscale>
<asrwt>0</asrwt>
<pdfrwt beam="1">  1       21 0.37329530E-01 0.14533175E+04</pdfrwt>
<pdfrwt beam="2">  1       21 0.33479719E+00 0.14533175E+04</pdfrwt>
<totfact> 0.81987912E+01</totfact>
</mgrwt>
</event>
<event>
 5    0  0.3372079E-003  0.5026589E+03  0.7546771E-02  0.1013087E+00
         21   -1    0    0  503  502  0.00000000000E+00  0.00000000000E+00  0.44763847677E+03  0.44763847677E+03  0.00000000000E+00 0. -1.
         21   -1    0    0  501  503 -0.00000000000E+00 -0.00000000000E+00 -0.14111049229E+03  0.14111049229E+03  0.00000000000E+00 0. -1.
         25    1    1    2    0    0  0.21286600217E+03  0.82512160243E+01  0.19916294086E+03  0.31728677006E+03  0.12500000000E+03 0.  0.
          3    1    1    2  501    0 -0.13454447563E+02 -0.18124205061E+02 -0.23622587466E+02  0.32673163406E+02  0.00000000000E+00 0.  1.
         -3    1    1    2    0  502 -0.19941155460E+03  0.98729890372E+01  0.13098763108E+03  0.23878903559E+03  0.00000000000E+00 0. -1.
<mgrwt>
<rscale>  4 0.50265887E+03</rscale>
<asrwt>0</asrwt>
<pdfrwt beam="1">  1       21 0.68867458E-01 0.50265887E+03</pdfrwt>
<pdfrwt beam="2">  1       21 0.21709307E-01 0.50265887E+03</pdfrwt>
<totfact> 0.34325986E+04</totfact>
</mgrwt>
</event>
<event>
 5    0  0.3372079E-003  0.4685933E+03  0.7546771E-02  0.1022318E+00
         21   -1    0    0  503  502  0.00000000000E+00  0.00000000000E+00  0.20756630850E+03  0.20756630850E+03  0.00000000000E+00 0. -1.
         21   -1    0    0  501  503 -0.00000000000E+00 -0.00000000000E+00 -0.26446926921E+03  0.26446926921E+03  0.00000000000E+00 0. -1.
         25    1    1    2    0    0  0.24799423366E+01 -0.20161039636E+03  0.37254002500E+02  0.24013696662E+03  0.12500000000E+03 0.  0.
          1    1    1    2  501    0 -0.21930284336E+02  0.17745962346E+03 -0.67905005302E+02  0.19126929987E+03  0.00000000000E+00 0. -1.
         -1    1    1    2    0  502  0.19450341999E+02  0.24150772903E+02 -0.26251957912E+02  0.40629311216E+02  0.00000000000E+00 0.  1.
<mgrwt>
<rscale>  4 0.46859326E+03</rscale>
<asrwt>0</asrwt>
<pdfrwt beam="1">  1       21 0.31933278E-01 0.46859326E+03</pdfrwt>
<pdfrwt beam="2">  1       21 0.40687580E-01 0.46859326E+03</pdfrwt>
<totfact> 0.50363767E+04</totfact>
</mgrwt>
</event>
<event>
 5    0  0.3372079E-003  0.5193937E+03  0.7546771E-02  0.1008837E+00
         21   -1    0    0  503  502  0.00000000000E+00  0.00000000000E+00  0.38489072798E+03  0.38489072798E+03  0.00000000000E+00 0.  1.
         21   -1    0    0  501  503 -0.00000000000E+00 -0.00000000000E+00 -0.17522491659E+03  0.17522491659E+03  0.00000000000E+00 0.  1.
         25    1    1    2    0    0  0.19226882877E+03  0.56752665000E+02  0.25685809739E+03  0.34898316535E+03  0.12500000000E+03 0.  0.
          4    1    1    2  501    0 -0.18124827815E+03 -0.39809215280E+02 -0.41939321931E+02  0.19024883357E+03  0.00000000000E+00 0.  1.
         -4    1    1    2    0  502 -0.11020550619E+02 -0.16943449719E+02 -0.52529640714E+01  0.20883645656E+02  0.00000000000E+00 0. -1.
<mgrwt>
<rscale>  4 0.51939367E+03</rscale>
<asrwt>0</asrwt>
<pdfrwt beam="1">  1       21 0.59213958E-01 0.51939367E+03</pdfrwt>
<pdfrwt beam="2">  1       21 0.26957680E-01 0.51939367E+03</pdfrwt>
<totfact> 0.31404818E+04</totfact>
</mgrwt>
</event>
<event>
 5    0  0.3372079E-003  0.5322351E+03  0.7546771E-02  0.1005692E+00
         21   -1    0    0  501  502  0.00000000000E+00  0.00000000000E+00  0.21432128144E+03  0.21432128144E+03  0.00000000000E+00 0. -1.
         21   -1    0    0  502  503 -0.00000000000E+00 -0.00000000000E+00 -0.33043173032E+03  0.33043173032E+03  0.00000000000E+00 0. -1.
         25    1    1    2    0    0  0.11037344142E+03  0.16936247384E+03 -0.19705856190E+03  0.30874426462E+03  0.12500000000E+03 0.  0.
          2    1    1    2  501    0 -0.10746021507E+03 -0.84836520300E+02  0.45100237489E+02  0.14414910482E+03  0.00000000000E+00 0. -1.
         -2    1    1    2    0  503 -0.29132263560E+01 -0.84525953536E+02  0.35847875532E+02  0.91859642331E+02  0.00000000000E+00 0.  1.
<mgrwt>
<rscale>  4 0.53223511E+03</rscale>
<asrwt>0</asrwt>
<pdfrwt beam="1">  1       21 0.32972505E-01 0.53223511E+03</pdfrwt>
<pdfrwt beam="2">  1       21 0.50835651E-01 0.53223511E+03</pdfrwt>
<totfact> 0.29182197E+04</totfact>
</mgrwt>
</event>
<event>
 5    0  0.3372079E-003  0.5334055E+03  0.7546771E-02  0.1005410E+00
         21   -1    0    0  503  502  0.00000000000E+00  0.00000000000E+00  0.15579975393E+03  0.15579975393E+03  0.00000000000E+00 0. -1.
         21   -1    0    0  501  503 -0.00000000000E+00 -0.00000000000E+00 -0.45654992008E+03  0.45654992008E+03  0.00000000000E+00 0. -1.
         25    1    1    2    0    0  0.16934267631E+03 -0.11463287880E+03  0.40383144829E+01  0.23970595926E+03  0.12500000000E+03 0.  0.
          1    1    1    2  501    0 -0.13688476282E+03  0.96459563099E+02 -0.28488032624E+03  0.33045224448E+03  0.00000000000E+00 0. -1.
         -1    1    1    2    0  502 -0.32457913490E+02  0.18173315705E+02 -0.19908154400E+02  0.42191470269E+02  0.00000000000E+00 0.  1.
<mgrwt>
<rscale>  4 0.53340553E+03</rscale>
<asrwt>0</asrwt>
<pdfrwt beam="1">  1       21 0.23969193E-01 0.53340553E+03</pdfrwt>
<pdfrwt beam="2">  1       21 0.70238448E-01 0.53340553E+03</pdfrwt>
<totfact> 0.26938107E+04</totfact>
</mgrwt>
</event>
<event>
 5    0  0.3372079E-003  0.7114053E+03  0.7546771E-02  0.9697924E-01
         21   -1    0    0  503  502  0.00000000000E+00  0.00000000000E+00  0.81358689278E+03  0.81358689278E+03  0.00000000000E+00 0. -1.
         21   -1    0    0  501  503 -0.00000000000E+00 -0.00000000000E+00 -0.15551425733E+03  0.15551425733E+03  0.00000000000E+00 0. -1.
         25    1    1    2    0    0  0.26237810379E+03 -0.90257145396E+02  0.65685414841E+02  0.31133293332E+03  0.12500000000E+03 0.  0.
          3    1    1    2  501    0 -0.23414783139E+03  0.97099464797E+02  0.49480786043E+03  0.55595713122E+03  0.00000000000E+00 0. -1.
         -3    1    1    2    0  502 -0.28230272404E+02 -0.68423194010E+01  0.97579360172E+02  0.10181108558E+03  0.00000000000E+00 0.  1.
<mgrwt>
<rscale>  4 0.71140526E+03</rscale>
<asrwt>0</asrwt>
<pdfrwt beam="1">  1       21 0.12516721E+00 0.71140526E+03</pdfrwt>
<pdfrwt beam="2">  1       21 0.23925271E-01 0.71140526E+03</pdfrwt>
<totfact> 0.64494769E+03</totfact>
</mgrwt>
</event>
<event>
 5    0  0.3372079E-003  0.4654580E+03  0.7546771E-02  0.1023210E+00
         21   -1    0    0  503  502  0.00000000000E+00  0.00000000000E+00  0.10098428383E+03  0.10098428383E+03  0.00000000000E+00 0. -1.
         21   -1    0    0  501  503 -0.00000000000E+00 -0.00000000000E+00 -0.53634876882E+03  0.53634876882E+03  0.00000000000E+00 0. -1.
         25    1    1    2    0    0 -0.30961111266E+02  0.20250923697E+03 -0.14998572813E+03  0.28300053024E+03  0.12500000000E+03 0.  0.
          1    1    1    2  501    0  0.87891425749E+01 -0.17226385454E+03 -0.23687273983E+03  0.29302010082E+03  0.00000000000E+00 0. -1.
         -1    1    1    2    0  502  0.22171968691E+02 -0.30245382432E+02 -0.48506017030E+02  0.61312421598E+02  0.00000000000E+00 0.  1.
<mgrwt>
<rscale>  4 0.46545804E+03</rscale>
<asrwt>0</asrwt>
<pdfrwt beam="1">  1       21 0.15536044E-01 0.46545804E+03</pdfrwt>
<pdfrwt beam="2">  1       21 0.82515195E-01 0.46545804E+03</pdfrwt>
<totfact> 0.43080824E+04</totfact>
</mgrwt>
</event>
<event>
 5    0  0.3372079E-003  0.4611038E+03  0.7546771E-02  0.1024462E+00
         21   -1    0    0  503  502  0.00000000000E+00  0.00000000000E+00  0.17513730901E+03  0.17513730901E+03  0.00000000000E+00 0.  1.
         21   -1    0    0  501  503 -0.00000000000E+00 -0.00000000000E+00 -0.30349996873E+03  0.30349996873E+03  0.00000000000E+00 0.  1.
         25    1    1    2    0    0 -0.16525302503E+03  0.13330160146E+03 -0.64893190088E+02  0.25478227048E+03  0.12500000000E+03 0.  0.
          2    1    1    2  501    0  0.16938315978E+02 -0.15972002454E+02 -0.17800435607E+02  0.29306431348E+02  0.00000000000E+00 0. -1.
         -2    1    1    2    0  502  0.14831470905E+03 -0.11732959900E+03 -0.45669034029E+02  0.19454857592E+03  0.00000000000E+00 0.  1.
<mgrwt>
<rscale>  4 0.46110375E+03</rscale>
<asrwt>0</asrwt>
<pdfrwt beam="1">  1       21 0.26944202E-01 0.46110375E+03</pdfrwt>
<pdfrwt beam="2">  1       21 0.46692302E-01 0.46110375E+03</pdfrwt>
<totfact> 0.53008952E+04</totfact>
</mgrwt>
</event>
<event>
 5    0  0.3372079E-003  0.5788140E+03  0.7546771E-02  0.9950362E-01
         21   -1    0    0  501  502  0.00000000000E+00  0.00000000000E+00  0.73765564915E+03  0.73765564915E+03  0.00000000000E+00 0.  1.
         21   -1    0    0  502  503 -0.00000000000E+00 -0.00000000000E+00 -0.11354406260E+03  0.11354406260E+03  0.00000000000E+00 0.  1.
         25    1    1    2    0    0  0.15709871480E+03  0.12419353825E+03  0.51174950097E+03  0.56357483343E+03  0.12500000000E+03 0.  0.
          2    1    1    2  501    0 -0.12890396909E+03 -0.14725782069E+03  0.14106575524E+03  0.24124810114E+03  0.00000000000E+00 0. -1.
         -2    1    1    2    0  503 -0.28194745703E+02  0.23064282446E+02 -0.28703669659E+02  0.46376777183E+02  0.00000000000E+00 0.  1.
<mgrwt>
<rscale>  4 0.57881403E+03</rscale>
<asrwt>0</asrwt>
<pdfrwt beam="1">  1       21 0.11348548E+00 0.57881403E+03</pdfrwt>
<pdfrwt beam="2">  1       21 0.17468318E-01 0.57881403E+03</pdfrwt>
<totfact> 0.15595933E+04</totfact>
</mgrwt>
</event>
<event>
 5    0  0.3372079E-003  0.6407782E+03  0.7546771E-02  0.9824239E-01
         21   -1    0    0  501  502  0.00000000000E+00  0.00000000000E+00  0.50662274588E+03  0.50662274588E+03  0.00000000000E+00 0. -1.
         21   -1    0    0  502  503 -0.00000000000E+00 -0.00000000000E+00 -0.20261461595E+03  0.20261461595E+03  0.00000000000E+00 0. -1.
         25    1    1    2    0    0  0.24348151936E+03 -0.11804363232E+03  0.77921439700E+02  0.30808164529E+03  0.12500000000E+03 0.  0.
          1    1    1    2  501    0 -0.12811549314E+03 -0.40534924759E+02  0.10654672670E+03  0.17149012998E+03  0.00000000000E+00 0.  1.
         -1    1    1    2    0  503 -0.11536602622E+03  0.15857855708E+03  0.11953996352E+03  0.22966558656E+03  0.00000000000E+00 0. -1.
<mgrwt>
<rscale>  4 0.64077819E+03</rscale>
<asrwt>0</asrwt>
<pdfrwt beam="1">  1       21 0.77941961E-01 0.64077819E+03</pdfrwt>
<pdfrwt beam="2">  1       21 0.31171479E-01 0.64077819E+03</pdfrwt>
<totfact> 0.12358381E+04</totfact>
</mgrwt>
</event>
<event>
 5    0  0.3372079E-003  0.1471421E+04  0.7546771E-02  0.8903683E-01
         21   -1    0    0  503  502  0.00000000000E+00  0.00000000000E+00  0.42124053565E+03  0.42124053565E+03  0.00000000000E+00 0.  1.
         21   -1    0    0  501  503 -0.00000000000E+00 -0.00000000000E+00 -0.12849427959E+04  0.12849427959E+04  0.00000000000E+00 0.  1.
         25    1    1    2    0    0 -0.21616839902E+03  0.67703788839E+03 -0.47924078247E+03  0.86625966467E+03  0.12500000000E+03 0.  0.
          3    1    1    2  501    0 -0.48820805215E+02 -0.13097478629E+03 -0.69233137014E+02  0.15598427141E+03  0.00000000000E+00 0. -1.
         -3    1    1    2    0  502  0.26498920424E+03 -0.54606310210E+03 -0.31522834075E+03  0.68393939545E+03  0.00000000000E+00 0.  1.
<mgrwt>
<rscale>  4 0.14714211E+04</rscale>
<asrwt>0</asrwt>
<pdfrwt beam="1">  1       21 0.64806236E-01 0.14714211E+04</pdfrwt>
<pdfrwt beam="2">  1       21 0.19768351E+00 0.14714211E+04</pdfrwt>
<totfact> 0.18961593E+02</totfact>
</mgrwt>
</event>
