<event>
 5    0  0.2629946E-001  0.5662049E+03  0.7546771E-02  0.9978112E-01
         21   -1    0    0  502  501  0.00000000000E+00  0.00000000000E+00  0.33782721029E+03  0.33782721029E+03  0.00000000000E+00 0.  1.
         21   -1    0    0  504  502 -0.00000000000E+00 -0.00000000000E+00 -0.23724257494E+03  0.23724257494E+03  0.00000000000E+00 0.  1.
         25    1    1    2    0    0  0.26184899761E+03 -0.44023519977E+02  0.83721299922E+02  0.30518391819E+03  0.12500000000E+03 0.  0.
         21    1    1    2  503  501 -0.16960835471E+02  0.14300545668E+02 -0.30701146345E+01  0.22396453963E+02  0.00000000000E+00 0.  1.
         21    1    1    2  504  503 -0.24488816214E+03  0.29722974309E+02  0.19933450055E+02  0.24748941308E+03  0.00000000000E+00 0.  1.
<mgrwt>
<rscale>  4 0.56620490E+03</rscale>
<asrwt>0</asrwt>
<pdfrwt beam="1">  1       21 0.51973417E-01 0.56620490E+03</pdfrwt>
<pdfrwt beam="2">  1       21 0.36498858E-01 0.56620490E+03</pdfrwt>
<totfact> 0.22487570E+04</totfact>
</mgrwt>
</event>
<event>
 5    0  0.2629946E-001  0.5405565E+03  0.7546771E-02  0.1003704E+00
         21   -1    0    0  504  501  0.00000000000E+00  0.00000000000E+00  0.27690680775E+03  0.27690680775E+03  0.00000000000E+00 0. -1.
         21   -1    0    0  501  502 -0.00000000000E+00 -0.00000000000E+00 -0.26380840758E+03  0.26380840758E+03  0.00000000000E+00 0. -1.
         25    1    1    2    0    0  0.15814926033E+03  0.13016941949E+03  0.48287566881E+02  0.24476918807E+03  0.12500000000E+03 0.  0.
         21    1    1    2  503  502 -0.63818923318E+02 -0.14271753285E+03 -0.95580245966E+02  0.18323954970E+03  0.00000000000E+00 0. -1.
         21    1    1    2  504  503 -0.94330337013E+02  0.12548113361E+02  0.60391079258E+02  0.11270647756E+03  0.00000000000E+00 0. -1.
<mgrwt>
<rscale>  4 0.54055654E+03</rscale>
<asrwt>0</asrwt>
<pdfrwt beam="1">  1       21 0.42601047E-01 0.54055654E+03</pdfrwt>
<pdfrwt beam="2">  1       21 0.40585909E-01 0.54055654E+03</pdfrwt>
<totfact> 0.27684162E+04</totfact>
</mgrwt>
</event>
<event>
 5    0  0.2629946E-001  0.7239674E+03  0.7546771E-02  0.9677100E-01
         21   -1    0    0  504  501  0.00000000000E+00  0.00000000000E+00  0.42308808694E+03  0.42308808694E+03  0.00000000000E+00 0.  1.
         21   -1    0    0  501  502 -0.00000000000E+00 -0.00000000000E+00 -0.30970429030E+03  0.30970429030E+03  0.00000000000E+00 0.  1.
         25    1    1    2    0    0 -0.26118783065E+03 -0.12091113689E+03  0.25690238828E+03  0.40553966885E+03  0.12500000000E+03 0.  0.
         21    1    1    2  503  502  0.31337645526E+02  0.35335247999E+02 -0.11064189554E+02  0.48508185585E+02  0.00000000000E+00 0. -1.
         21    1    1    2  504  503  0.22985018513E+03  0.85575888891E+02 -0.13245440209E+03  0.27874452281E+03  0.00000000000E+00 0.  1.
<mgrwt>
<rscale>  4 0.72396739E+03</rscale>
<asrwt>0</asrwt>
<pdfrwt beam="1">  1       21 0.65090475E-01 0.72396739E+03</pdfrwt>
<pdfrwt beam="2">  1       21 0.47646814E-01 0.72396739E+03</pdfrwt>
<totfact> 0.76266150E+03</totfact>
</mgrwt>
</event>
<event>
 5    0  0.2629946E-001  0.4538478E+03  0.7546771E-02  0.1026581E+00
         21   -1    0    0  504  501  0.00000000000E+00  0.00000000000E+00  0.30507216447E+02  0.30507216447E+02  0.00000000000E+00 0. -1.
         21   -1    0    0  501  502 -0.00000000000E+00 -0.00000000000E+00 -0.16879434346E+04  0.16879434346E+04  0.00000000000E+00 0. -1.
         25    1    1    2    0    0  0.13842744735E+03  0.15456814330E+03 -0.91940233700E+03  0.95077816886E+03  0.12500000000E+03 0.  0.
         21    1    1    2  503  502 -0.28730762996E+02 -0.55826064812E+02 -0.25343068088E+03  0.26109216048E+03  0.00000000000E+00 0.  1.
         21    1    1    2  504  503 -0.10969668435E+03 -0.98742078485E+02 -0.48460320027E+03  0.50658032170E+03  0.00000000000E+00 0. -1.
<mgrwt>
<rscale>  4 0.45384780E+03</rscale>
<asrwt>0</asrwt>
<pdfrwt beam="1">  1       21 0.46934166E-02 0.45384780E+03</pdfrwt>
<pdfrwt beam="2">  1       21 0.25968368E+00 0.45384780E+03</pdfrwt>
<totfact> 0.14999026E+04</totfact>
</mgrwt>
</event>
<event>
 5    0  0.2629946E-001  0.6080260E+03  0.7546771E-02  0.9888893E-01
         21   -1    0    0  502  501  0.00000000000E+00  0.00000000000E+00  0.28808124510E+03  0.28808124510E+03  0.00000000000E+00 0.  1.
         21   -1    0    0  504  502 -0.00000000000E+00 -0.00000000000E+00 -0.32082586609E+03  0.32082586609E+03  0.00000000000E+00 0.  1.
         25    1    1    2    0    0 -0.26590281999E+02  0.25563371778E+03 -0.26408785352E+01  0.28581045293E+03  0.12500000000E+03 0.  0.
         21    1    1    2  503  501 -0.38627271579E+02 -0.22615985171E+03  0.27699312622E+02  0.23110083633E+03  0.00000000000E+00 0.  1.
         21    1    1    2  504  503  0.65217553578E+02 -0.29473866076E+02 -0.57803055077E+02  0.91995821929E+02  0.00000000000E+00 0.  1.
<mgrwt>
<rscale>  4 0.60802604E+03</rscale>
<asrwt>0</asrwt>
<pdfrwt beam="1">  1       21 0.44320191E-01 0.60802604E+03</pdfrwt>
<pdfrwt beam="2">  1       21 0.49357826E-01 0.60802604E+03</pdfrwt>
<totfact> 0.16656322E+04</totfact>
</mgrwt>
</event>
<event>
 5    0  0.2629946E-001  0.6982353E+03  0.7546771E-02  0.9720255E-01
         21   -1    0    0  504  501  0.00000000000E+00  0.00000000000E+00  0.74284828009E+02  0.74284828009E+02  0.00000000000E+00 0. -1.
         21   -1    0    0  501  502 -0.00000000000E+00 -0.00000000000E+00 -0.16407542760E+04  0.16407542760E+04  0.00000000000E+00 0. -1.
         25    1    1    2    0    0 -0.29272595292E+03  0.90503700781E+02 -0.51471475338E+03  0.61191149745E+03  0.12500000000E+03 0.  0.
         21    1    1    2  503  502  0.21312517984E+03 -0.34637088013E+01 -0.72765169948E+03  0.75822907839E+03  0.00000000000E+00 0. -1.
         21    1    1    2  504  503  0.79600773082E+02 -0.87039991980E+02 -0.32410299512E+03  0.34489852815E+03  0.00000000000E+00 0. -1.
<mgrwt>
<rscale>  4 0.69823534E+03</rscale>
<asrwt>0</asrwt>
<pdfrwt beam="1">  1       21 0.11428436E-01 0.69823534E+03</pdfrwt>
<pdfrwt beam="2">  1       21 0.25242371E+00 0.69823534E+03</pdfrwt>
<totfact> 0.31732308E+03</totfact>
</mgrwt>
</event>
<event>
 5    0  0.2629946E-001  0.7037285E+03  0.7546771E-02  0.9710877E-01
         21   -1    0    0  502  501  0.00000000000E+00  0.00000000000E+00  0.22019328567E+03  0.22019328567E+03  0.00000000000E+00 0.  1.
         21   -1    0    0  504  502 -0.00000000000E+00 -0.00000000000E+00 -0.56227175421E+03  0.56227175421E+03  0.00000000000E+00 0.  1.
         25    1    1    2    0    0 -0.32056531664E+03  0.76050728345E+02 -0.94901216437E+02  0.36493434532E+03  0.12500000000E+03 0.  0.
         21    1    1    2  503  501  0.29653191147E+03 -0.88189150179E+02 -0.23128242259E+03  0.38626423563E+03  0.00000000000E+00 0.  1.
         21    1    1    2  504  503  0.24033405171E+02  0.12138421834E+02 -0.15894829511E+02  0.31266458928E+02  0.00000000000E+00 0.  1.
<mgrwt>
<rscale>  4 0.70372854E+03</rscale>
<asrwt>0</asrwt>
<pdfrwt beam="1">  1       21 0.33875891E-01 0.70372854E+03</pdfrwt>
<pdfrwt beam="2">  1       21 0.86503346E-01 0.70372854E+03</pdfrwt>
<totfact> 0.80806255E+03</totfact>
</mgrwt>
</event>
<event>
 5    0  0.2629946E-001  0.4658749E+03  0.7546771E-02  0.1023091E+00
         21   -1    0    0  504  501  0.00000000000E+00  0.00000000000E+00  0.28226729876E+03  0.28226729876E+03  0.00000000000E+00 0.  1.
         21   -1    0    0  501  502 -0.00000000000E+00 -0.00000000000E+00 -0.19222864171E+03  0.19222864171E+03  0.00000000000E+00 0.  1.
         25    1    1    2    0    0  0.17722557002E+03  0.11568272651E+03  0.54774449471E+02  0.25182659946E+03  0.12500000000E+03 0.  0.
         21    1    1    2  503  502 -0.15543771976E+03 -0.93389216780E+02  0.84183810557E+01  0.18153043733E+03  0.00000000000E+00 0.  1.
         21    1    1    2  504  503 -0.21787850259E+02 -0.22293509727E+02  0.26845826525E+02  0.41138903688E+02  0.00000000000E+00 0.  1.
<mgrwt>
<rscale>  4 0.46587492E+03</rscale>
<asrwt>0</asrwt>
<pdfrwt beam="1">  1       21 0.43425738E-01 0.46587492E+03</pdfrwt>
<pdfrwt beam="2">  1       21 0.29573637E-01 0.46587492E+03</pdfrwt>
<totfact> 0.51298799E+04</totfact>
</mgrwt>
</event>
<event>
 5    0  0.2629946E-001  0.4926762E+03  0.7546771E-02  0.1015708E+00
         21   -1    0    0  504  501  0.00000000000E+00  0.00000000000E+00  0.83304186749E+03  0.83304186749E+03  0.00000000000E+00 0. -1.
         21   -1    0    0  501  502 -0.00000000000E+00 -0.00000000000E+00 -0.72844418076E+02  0.72844418076E+02  0.00000000000E+00 0. -1.
         25    1    1    2    0    0 -0.17784929371E+03  0.12488455606E+03  0.39236465947E+03  0.46561953311E+03  0.12500000000E+03 0.  0.
         21    1    1    2  503  502  0.58034259033E+02 -0.56580603667E+02  0.53796375073E+02  0.97279956331E+02  0.00000000000E+00 0. -1.
         21    1    1    2  504  503  0.11981503468E+03 -0.68303952395E+02  0.31403641487E+03  0.34298679612E+03  0.00000000000E+00 0. -1.
<mgrwt>
<rscale>  4 0.49267616E+03</rscale>
<asrwt>0</asrwt>
<pdfrwt beam="1">  1       21 0.12816028E+00 0.49267616E+03</pdfrwt>
<pdfrwt beam="2">  1       21 0.11206834E-01 0.49267616E+03</pdfrwt>
<totfact> 0.26518879E+04</totfact>
</mgrwt>
</event>
<event>
 5    0  0.2629946E-001  0.7081355E+03  0.7546771E-02  0.9703420E-01
         21   -1    0    0  502  501  0.00000000000E+00  0.00000000000E+00  0.11849235844E+04  0.11849235844E+04  0.00000000000E+00 0. -1.
         21   -1    0    0  504  502 -0.00000000000E+00 -0.00000000000E+00 -0.10579919691E+03  0.10579919691E+03  0.00000000000E+00 0. -1.
         25    1    1    2    0    0 -0.13767143914E+03  0.19219341413E+03  0.10754361324E+03  0.28824011230E+03  0.12500000000E+03 0.  0.
         21    1    1    2  503  501  0.10744721460E+03 -0.12892426996E+03  0.79434953759E+03  0.81188518842E+03  0.00000000000E+00 0. -1.
         21    1    1    2  504  503  0.30224224537E+02 -0.63269144173E+02  0.17723123664E+03  0.19059748056E+03  0.00000000000E+00 0.  1.
<mgrwt>
<rscale>  4 0.70813548E+03</rscale>
<asrwt>0</asrwt>
<pdfrwt beam="1">  1       21 0.18229593E+00 0.70813548E+03</pdfrwt>
<pdfrwt beam="2">  1       21 0.16276800E-01 0.70813548E+03</pdfrwt>
<totfact> 0.47589223E+03</totfact>
</mgrwt>
</event>
<event>
 5    0  0.2629946E-001  0.5706859E+03  0.7546771E-02  0.9968162E-01
         21   -1    0    0  504  501  0.00000000000E+00  0.00000000000E+00  0.48409684648E+03  0.48409684648E+03  0.00000000000E+00 0.  1.
         21   -1    0    0  501  502 -0.00000000000E+00 -0.00000000000E+00 -0.16819071588E+03  0.16819071588E+03  0.00000000000E+00 0.  1.
         25    1    1    2    0    0 -0.22809781620E+03  0.57091396518E+01  0.32829107785E+03  0.41888093754E+03  0.12500000000E+03 0.  0.
         21    1    1    2  503  502  0.14247390364E+03 -0.23588130171E+02 -0.19136868818E+02  0.14567577991E+03  0.00000000000E+00 0.  1.
         21    1    1    2  504  503  0.85623912562E+02  0.17878990520E+02  0.67519215569E+01  0.87730844913E+02  0.00000000000E+00 0.  1.
<mgrwt>
<rscale>  4 0.57068589E+03</rscale>
<asrwt>0</asrwt>
<pdfrwt beam="1">  1       21 0.74476437E-01 0.57068589E+03</pdfrwt>
<pdfrwt beam="2">  1       21 0.25875495E-01 0.57068589E+03</pdfrwt>
<totfact> 0.20146188E+04</totfact>
</mgrwt>
</event>
<event>
 5    0  0.2629946E-001  0.5467112E+03  0.7546771E-02  0.1002258E+00
         21   -1    0    0  504  501  0.00000000000E+00  0.00000000000E+00  0.21153396545E+03  0.21153396545E+03  0.00000000000E+00 0.  1.
         21   -1    0    0  501  502 -0.00000000000E+00 -0.00000000000E+00 -0.35324490243E+03  0.35324490243E+03  0.00000000000E+00 0.  1.
         25    1    1    2    0    0  0.11630362907E+03  0.18003054650E+03 -0.92834087924E+02  0.26491640132E+03  0.12500000000E+03 0.  0.
         21    1    1    2  503  502 -0.81249209785E+02 -0.17084272977E+03 -0.11718772210E+03  0.22253456949E+03  0.00000000000E+00 0.  1.
         21    1    1    2  504  503 -0.35054419282E+02 -0.91878167258E+01  0.68310873052E+02  0.77327897065E+02  0.00000000000E+00 0.  1.
<mgrwt>
<rscale>  4 0.54671124E+03</rscale>
<asrwt>0</asrwt>
<pdfrwt beam="1">  1       21 0.32543687E-01 0.54671124E+03</pdfrwt>
<pdfrwt beam="2">  1       21 0.54345370E-01 0.54671124E+03</pdfrwt>
<totfact> 0.25876638E+04</totfact>
</mgrwt>
</event>
<event>
 5    0  0.2629946E-001  0.8039382E+03  0.7546771E-02  0.9554334E-01
         21   -1    0    0  502  501  0.00000000000E+00  0.00000000000E+00  0.12103593138E+03  0.12103593138E+03  0.00000000000E+00 0.  1.
         21   -1    0    0  504  502 -0.00000000000E+00 -0.00000000000E+00 -0.13349685802E+04  0.13349685802E+04  0.00000000000E+00 0.  1.
         25    1    1    2    0    0  0.18850269161E+03 -0.24368679521E+03 -0.18680234004E+03  0.38136155174E+03  0.12500000000E+03 0.  0.
         21    1    1    2  503  501 -0.26057347441E+02  0.23654224179E+02 -0.59755897260E+02  0.69348936074E+02  0.00000000000E+00 0. -1.
         21    1    1    2  504  503 -0.16244534417E+03  0.22003257103E+03 -0.96737441148E+03  0.10052940237E+04  0.00000000000E+00 0.  1.
<mgrwt>
<rscale>  4 0.80393822E+03</rscale>
<asrwt>0</asrwt>
<pdfrwt beam="1">  1       21 0.18620911E-01 0.80393822E+03</pdfrwt>
<pdfrwt beam="2">  1       21 0.20537980E+00 0.80393822E+03</pdfrwt>
<totfact> 0.24978206E+03</totfact>
</mgrwt>
</event>
<event>
 5    0  0.2629946E-001  0.7076933E+03  0.7546771E-02  0.9704165E-01
         21   -1    0    0  504  501  0.00000000000E+00  0.00000000000E+00  0.16906569360E+03  0.16906569360E+03  0.00000000000E+00 0. -1.
         21   -1    0    0  501  502 -0.00000000000E+00 -0.00000000000E+00 -0.74058461319E+03  0.74058461319E+03  0.00000000000E+00 0. -1.
         25    1    1    2    0    0 -0.27855164841E+03 -0.18610431428E+03 -0.38082612253E+03  0.52237857175E+03  0.12500000000E+03 0.  0.
         21    1    1    2  503  502  0.21368111810E+02  0.11437673992E+02 -0.25653629530E+02  0.35292000464E+02  0.00000000000E+00 0. -1.
         21    1    1    2  504  503  0.25718353660E+03  0.17466664029E+03 -0.16503916753E+03  0.35197973457E+03  0.00000000000E+00 0. -1.
<mgrwt>
<rscale>  4 0.70769330E+03</rscale>
<asrwt>0</asrwt>
<pdfrwt beam="1">  1       21 0.26010106E-01 0.70769330E+03</pdfrwt>
<pdfrwt beam="2">  1       21 0.11393610E+00 0.70769330E+03</pdfrwt>
<totfact> 0.69738655E+03</totfact>
</mgrwt>
</event>
<event>
 5    0  0.2629946E-001  0.8260504E+03  0.7546771E-02  0.9523057E-01
         21   -1    0    0  502  501  0.00000000000E+00  0.00000000000E+00  0.18868160187E+03  0.18868160187E+03  0.00000000000E+00 0. -1.
         21   -1    0    0  504  502 -0.00000000000E+00 -0.00000000000E+00 -0.90411482527E+03  0.90411482527E+03  0.00000000000E+00 0. -1.
         25    1    1    2    0    0 -0.17203346095E+03  0.35338314777E+03 -0.37528901982E+03  0.55762174384E+03  0.12500000000E+03 0.  0.
         21    1    1    2  503  501  0.16701239009E+03 -0.23504187549E+03 -0.19618318216E+03  0.34874870988E+03  0.00000000000E+00 0. -1.
         21    1    1    2  504  503  0.50210708575E+01 -0.11834127228E+03 -0.14396102142E+03  0.18642597342E+03  0.00000000000E+00 0. -1.
<mgrwt>
<rscale>  4 0.82605044E+03</rscale>
<asrwt>0</asrwt>
<pdfrwt beam="1">  1       21 0.29027938E-01 0.82605044E+03</pdfrwt>
<pdfrwt beam="2">  1       21 0.13909459E+00 0.82605044E+03</pdfrwt>
<totfact> 0.32529992E+03</totfact>
</mgrwt>
</event>
<event>
 5    0  0.2629946E-001  0.6302307E+03  0.7546771E-02  0.9844599E-01
         21   -1    0    0  504  501  0.00000000000E+00  0.00000000000E+00  0.45045312553E+03  0.45045312553E+03  0.00000000000E+00 0.  1.
         21   -1    0    0  501  502 -0.00000000000E+00 -0.00000000000E+00 -0.22043954218E+03  0.22043954218E+03  0.00000000000E+00 0.  1.
         25    1    1    2    0    0  0.80040911133E+02  0.28856709769E+03  0.14082346191E+03  0.35374251193E+03  0.12500000000E+03 0.  0.
         21    1    1    2  503  502 -0.65111116185E+02 -0.25185533096E+03  0.57520123485E+02  0.26641908676E+03  0.00000000000E+00 0.  1.
         21    1    1    2  504  503 -0.14929794948E+02 -0.36711766722E+02  0.31669997954E+02  0.50731069016E+02  0.00000000000E+00 0.  1.
<mgrwt>
<rscale>  4 0.63023069E+03</rscale>
<asrwt>0</asrwt>
<pdfrwt beam="1">  1       21 0.69300481E-01 0.63023069E+03</pdfrwt>
<pdfrwt beam="2">  1       21 0.33913776E-01 0.63023069E+03</pdfrwt>
<totfact> 0.13670618E+04</totfact>
</mgrwt>
</event>
<event>
 5    0  0.2629946E-001  0.5039908E+03  0.7546771E-02  0.1012742E+00
         21   -1    0    0  502  501  0.00000000000E+00  0.00000000000E+00  0.26501633151E+02  0.26501633151E+02  0.00000000000E+00 0. -1.
         21   -1    0    0  504  502 -0.00000000000E+00 -0.00000000000E+00 -0.23961422267E+04  0.23961422267E+04  0.00000000000E+00 0. -1.
         25    1    1    2    0    0 -0.95952996149E+02 -0.20205042186E+03 -0.11728849647E+04  0.12005479961E+04  0.12500000000E+03 0.  0.
         21    1    1    2  503  501  0.21645688268E+02  0.14475827902E+03 -0.57686823239E+03  0.59514742099E+03  0.00000000000E+00 0. -1.
         21    1    1    2  504  503  0.74307307881E+02  0.57292142839E+02 -0.61988739644E+03  0.62694844278E+03  0.00000000000E+00 0. -1.
<mgrwt>
<rscale>  4 0.50399080E+03</rscale>
<asrwt>0</asrwt>
<pdfrwt beam="1">  1       21 0.40771744E-02 0.50399080E+03</pdfrwt>
<pdfrwt beam="2">  1       21 0.36863726E+00 0.50399080E+03</pdfrwt>
<totfact> 0.40587719E+03</totfact>
</mgrwt>
</event>
<event>
 5    0  0.2629946E-001  0.6167092E+03  0.7546771E-02  0.9871334E-01
         21   -1    0    0  504  501  0.00000000000E+00  0.00000000000E+00  0.18235224036E+04  0.18235224036E+04  0.00000000000E+00 0. -1.
         21   -1    0    0  501  502 -0.00000000000E+00 -0.00000000000E+00 -0.52142246011E+02  0.52142246011E+02  0.00000000000E+00 0. -1.
         25    1    1    2    0    0  0.23147862971E+03  0.99093723368E+02  0.11440687651E+04  0.11781002764E+04  0.12500000000E+03 0.  0.
         21    1    1    2  503  502 -0.79981402219E+01 -0.57246142413E+02  0.25375799540E+03  0.26025797067E+03  0.00000000000E+00 0.  1.
         21    1    1    2  504  503 -0.22348048949E+03 -0.41847580955E+02  0.37355339715E+03  0.43730640258E+03  0.00000000000E+00 0.  1.
<mgrwt>
<rscale>  4 0.61670918E+03</rscale>
<asrwt>0</asrwt>
<pdfrwt beam="1">  1       21 0.28054186E+00 0.61670918E+03</pdfrwt>
<pdfrwt beam="2">  1       21 0.80218854E-02 0.61670918E+03</pdfrwt>
<totfact> 0.41333625E+03</totfact>
</mgrwt>
</event>
<event>
 5    0  0.2629946E-001  0.4851673E+03  0.7546771E-02  0.1017725E+00
         21   -1    0    0  504  501  0.00000000000E+00  0.00000000000E+00  0.21744343268E+03  0.21744343268E+03  0.00000000000E+00 0.  1.
         21   -1    0    0  501  502 -0.00000000000E+00 -0.00000000000E+00 -0.27063054244E+03  0.27063054244E+03  0.00000000000E+00 0.  1.
         25    1    1    2    0    0  0.21314628384E+03 -0.48428763158E+02 -0.16424281884E+02  0.25233200441E+03  0.12500000000E+03 0.  0.
         21    1    1    2  503  502 -0.23350485743E+02  0.35000867467E+02 -0.12738402828E+02  0.43961037459E+02  0.00000000000E+00 0.  1.
         21    1    1    2  504  503 -0.18979579809E+03  0.13427895691E+02 -0.24024425046E+02  0.19178093324E+03  0.00000000000E+00 0.  1.
<mgrwt>
<rscale>  4 0.48516733E+03</rscale>
<asrwt>0</asrwt>
<pdfrwt beam="1">  1       21 0.33452836E-01 0.48516733E+03</pdfrwt>
<pdfrwt beam="2">  1       21 0.41635468E-01 0.48516733E+03</pdfrwt>
<totfact> 0.43585227E+04</totfact>
</mgrwt>
</event>
<event>
 5    0  0.2629946E-001  0.4967697E+03  0.7546771E-02  0.1014626E+00
         21   -1    0    0  504  501  0.00000000000E+00  0.00000000000E+00  0.98495974680E+03  0.98495974680E+03  0.00000000000E+00 0. -1.
         21   -1    0    0  501  502 -0.00000000000E+00 -0.00000000000E+00 -0.62637110848E+02  0.62637110848E+02  0.00000000000E+00 0. -1.
         25    1    1    2    0    0  0.61145787540E+02 -0.20053166306E+03  0.64635872747E+03  0.69090980583E+03  0.12500000000E+03 0.  0.
         21    1    1    2  503  502 -0.40718087208E+02  0.58337902585E+02  0.43407476973E+02  0.83339561801E+02  0.00000000000E+00 0. -1.
         21    1    1    2  504  503 -0.20427700332E+02  0.14219376048E+03  0.23255643151E+03  0.27334749002E+03  0.00000000000E+00 0. -1.
<mgrwt>
<rscale>  4 0.49676970E+03</rscale>
<asrwt>0</asrwt>
<pdfrwt beam="1">  1       21 0.15153226E+00 0.49676970E+03</pdfrwt>
<pdfrwt beam="2">  1       21 0.96364793E-02 0.49676970E+03</pdfrwt>
<totfact> 0.22283213E+04</totfact>
</mgrwt>
</event>
<event>
 5    0  0.2629946E-001  0.4856436E+03  0.7546771E-02  0.1017596E+00
         21   -1    0    0  502  501  0.00000000000E+00  0.00000000000E+00  0.18007268696E+03  0.18007268696E+03  0.00000000000E+00 0.  1.
         21   -1    0    0  504  502 -0.00000000000E+00 -0.00000000000E+00 -0.32743674483E+03  0.32743674483E+03  0.00000000000E+00 0.  1.
         25    1    1    2    0    0 -0.16907048929E+03  0.13299588811E+03 -0.14799663275E+03  0.28948357450E+03  0.12500000000E+03 0.  0.
         21    1    1    2  503  501  0.15888812860E+03 -0.11440061768E+03  0.69273468349E+01  0.19591050730E+03  0.00000000000E+00 0.  1.
         21    1    1    2  504  503  0.10182360685E+02 -0.18595270425E+02 -0.62947719539E+01  0.22115349992E+02  0.00000000000E+00 0.  1.
<mgrwt>
<rscale>  4 0.48564355E+03</rscale>
<asrwt>0</asrwt>
<pdfrwt beam="1">  1       21 0.27703490E-01 0.48564355E+03</pdfrwt>
<pdfrwt beam="2">  1       21 0.50374884E-01 0.48564355E+03</pdfrwt>
<totfact> 0.42509447E+04</totfact>
</mgrwt>
</event>
<event>
 5    0  0.2629946E-001  0.4512311E+03  0.7546771E-02  0.1027356E+00
         21   -1    0    0  504  501  0.00000000000E+00  0.00000000000E+00  0.62987262281E+03  0.62987262281E+03  0.00000000000E+00 0. -1.
         21   -1    0    0  501  502 -0.00000000000E+00 -0.00000000000E+00 -0.80813762565E+02  0.80813762565E+02  0.00000000000E+00 0. -1.
         25    1    1    2    0    0  0.15577201859E+03  0.13097188329E+03  0.34892305114E+03  0.42283667249E+03  0.12500000000E+03 0.  0.
         21    1    1    2  503  502 -0.13580179559E+03 -0.12089043940E+03  0.16140128989E+03  0.24311931721E+03  0.00000000000E+00 0. -1.
         21    1    1    2  504  503 -0.19970223006E+02 -0.10081443892E+02  0.38734519220E+02  0.44730395673E+02  0.00000000000E+00 0. -1.
<mgrwt>
<rscale>  4 0.45123110E+03</rscale>
<asrwt>0</asrwt>
<pdfrwt beam="1">  1       21 0.96903477E-01 0.45123110E+03</pdfrwt>
<pdfrwt beam="2">  1       21 0.12432887E-01 0.45123110E+03</pdfrwt>
<totfact> 0.44561687E+04</totfact>
</mgrwt>
</event>
<event>
 5    0  0.2629946E-001  0.5989365E+03  0.7546771E-02  0.9907615E-01
         21   -1    0    0  504  501  0.00000000000E+00  0.00000000000E+00  0.19822661409E+03  0.19822661409E+03  0.00000000000E+00 0. -1.
         21   -1    0    0  501  502 -0.00000000000E+00 -0.00000000000E+00 -0.45241766903E+03  0.45241766903E+03  0.00000000000E+00 0. -1.
         25    1    1    2    0    0 -0.26255087799E+03  0.83955234431E+02 -0.69631371218E+02  0.31057200900E+03  0.12500000000E+03 0.  0.
         21    1    1    2  503  502  0.59600070959E+02 -0.42048669685E+02 -0.78930960166E+02  0.10747258047E+03  0.00000000000E+00 0.  1.
         21    1    1    2  504  503  0.20295080703E+03 -0.41906564747E+02 -0.10562872356E+03  0.23259969364E+03  0.00000000000E+00 0.  1.
<mgrwt>
<rscale>  4 0.59893647E+03</rscale>
<asrwt>0</asrwt>
<pdfrwt beam="1">  1       21 0.30496402E-01 0.59893647E+03</pdfrwt>
<pdfrwt beam="2">  1       21 0.69602718E-01 0.59893647E+03</pdfrwt>
<totfact> 0.16872260E+04</totfact>
</mgrwt>
</event>
<event>
 5    0  0.2629946E-001  0.5166297E+03  0.7546771E-02  0.1009527E+00
         21   -1    0    0  504  501  0.00000000000E+00  0.00000000000E+00  0.22088051366E+03  0.22088051366E+03  0.00000000000E+00 0. -1.
         21   -1    0    0  501  502 -0.00000000000E+00 -0.00000000000E+00 -0.30209341606E+03  0.30209341606E+03  0.00000000000E+00 0. -1.
         25    1    1    2    0    0 -0.16689843377E+03 -0.16957626063E+03 -0.11396476939E+02  0.26900943301E+03  0.12500000000E+03 0.  0.
         21    1    1    2  503  502  0.15132027047E+03  0.12280382339E+03 -0.55669195939E+02  0.20267625088E+03  0.00000000000E+00 0. -1.
         21    1    1    2  504  503  0.15578163298E+02  0.46772437233E+02 -0.14147229528E+02  0.51288245824E+02  0.00000000000E+00 0. -1.
<mgrwt>
<rscale>  4 0.51662965E+03</rscale>
<asrwt>0</asrwt>
<pdfrwt beam="1">  1       21 0.33981617E-01 0.51662965E+03</pdfrwt>
<pdfrwt beam="2">  1       21 0.46475910E-01 0.51662965E+03</pdfrwt>
<totfact> 0.33328983E+04</totfact>
</mgrwt>
</event>
