<event>
 5    0  0.1856407E+000  0.2373137E+03  0.7546771E-02  0.1121595E+00
         21   -1    0    0  502  501  0.00000000000E+00  0.00000000000E+00  0.70293328905E+02  0.70293328905E+02  0.00000000000E+00 0.  1.
         21   -1    0    0  503  502 -0.00000000000E+00 -0.00000000000E+00 -0.11105696548E+04  0.11105696548E+04  0.00000000000E+00 0.  1.
         25    1    1    2    0    0  0.89885353252E+01  0.23212874305E+03 -0.62431064797E+03  0.67775610089E+03  0.12500000000E+03 0.  0.
         21    1    1    2  503  504  0.69690297725E+02 -0.16454332496E+03 -0.24737175379E+03  0.30516229774E+03  0.00000000000E+00 0.  1.
         21    1    1    2  504  501 -0.78678833051E+02 -0.67585418095E+02 -0.16859392411E+03  0.19794458506E+03  0.00000000000E+00 0.  1.
<mgrwt>
<rscale>  4 0.23731370E+03</rscale>
<asrwt>0</asrwt>
<pdfrwt beam="1">  1       21 0.10814358E-01 0.23731370E+03</pdfrwt>
<pdfrwt beam="2">  1       21 0.17085687E+00 0.23731370E+03</pdfrwt>
<totfact> 0.14411940E+04</totfact>
</mgrwt>
</event>
<event>
 5    0  0.1856407E+000  0.3148860E+03  0.7546771E-02  0.1078027E+00
         21   -1    0    0  502  501  0.00000000000E+00  0.00000000000E+00  0.25043236688E+03  0.25043236688E+03  0.00000000000E+00 0.  1.
         21   -1    0    0  503  502 -0.00000000000E+00 -0.00000000000E+00 -0.10522289674E+04  0.10522289674E+04  0.00000000000E+00 0.  1.
         25    1    1    2    0    0  0.28461642397E+03 -0.28372681666E+02  0.10811004641E+03  0.33033967366E+03  0.12500000000E+03 0.  0.
         21    1    1    2  503  504 -0.30849897832E+03  0.35977705504E+02 -0.77164373223E+03  0.83180530439E+03  0.00000000000E+00 0.  1.
         21    1    1    2  504  501  0.23882554347E+02 -0.76050238382E+01 -0.13826291466E+03  0.14051635620E+03  0.00000000000E+00 0.  1.
<mgrwt>
<rscale>  4 0.31488596E+03</rscale>
<asrwt>0</asrwt>
<pdfrwt beam="1">  1       21 0.38528056E-01 0.31488596E+03</pdfrwt>
<pdfrwt beam="2">  1       21 0.16188138E+00 0.31488596E+03</pdfrwt>
<totfact> 0.14378482E+03</totfact>
</mgrwt>
</event>
<event>
 5    0  0.1856407E+000  0.3500399E+03  0.7546771E-02  0.1062599E+00
         21   -1    0    0  502  501  0.00000000000E+00  0.00000000000E+00  0.78659322640E+03  0.78659322640E+03  0.00000000000E+00 0. -1.
         21   -1    0    0  503  502 -0.00000000000E+00 -0.00000000000E+00 -0.16014729704E+03  0.16014729704E+03  0.00000000000E+00 0. -1.
         25    1    1    2    0    0 -0.15999222913E+03 -0.28514101130E+03  0.44159149380E+03  0.56349885280E+03  0.12500000000E+03 0.  0.
         21    1    1    2  503  504  0.10089599417E+03  0.10308765435E+03  0.83073691306E+02  0.16645811577E+03  0.00000000000E+00 0. -1.
         21    1    1    2  504  501  0.59096234956E+02  0.18205335696E+03  0.10178074426E+03  0.21678355488E+03  0.00000000000E+00 0. -1.
<mgrwt>
<rscale>  4 0.35003987E+03</rscale>
<asrwt>0</asrwt>
<pdfrwt beam="1">  1       21 0.12101434E+00 0.35003987E+03</pdfrwt>
<pdfrwt beam="2">  1       21 0.24638046E-01 0.35003987E+03</pdfrwt>
<totfact> 0.73679279E+03</totfact>
</mgrwt>
</event>
<event>
 5    0  0.1856407E+000  0.2990596E+03  0.7546771E-02  0.1085712E+00
         21   -1    0    0  502  501  0.00000000000E+00  0.00000000000E+00  0.78843544933E+03  0.78843544933E+03  0.00000000000E+00 0.  1.
         21   -1    0    0  503  502 -0.00000000000E+00 -0.00000000000E+00 -0.22536804019E+03  0.22536804019E+03  0.00000000000E+00 0.  1.
         25    1    1    2    0    0 -0.24772636843E+03  0.11154949106E+03  0.65077748762E+03  0.71620386830E+03  0.12500000000E+03 0.  0.
         21    1    1    2  503  504  0.15475665973E+03 -0.10942947320E+03 -0.74583361262E+02  0.20368385089E+03  0.00000000000E+00 0.  1.
         21    1    1    2  504  501  0.92969708699E+02 -0.21200178612E+01 -0.13126717226E+02  0.93915770329E+02  0.00000000000E+00 0.  1.
<mgrwt>
<rscale>  4 0.29905960E+03</rscale>
<asrwt>0</asrwt>
<pdfrwt beam="1">  1       21 0.12129776E+00 0.29905960E+03</pdfrwt>
<pdfrwt beam="2">  1       21 0.34672007E-01 0.29905960E+03</pdfrwt>
<totfact> 0.38332995E+03</totfact>
</mgrwt>
</event>
<event>
 5    0  0.1856407E+000  0.3040875E+03  0.7546771E-02  0.1083215E+00
         21   -1    0    0  502  501  0.00000000000E+00  0.00000000000E+00  0.66715371452E+03  0.66715371452E+03  0.00000000000E+00 0. -1.
         21   -1    0    0  503  502 -0.00000000000E+00 -0.00000000000E+00 -0.43272436367E+03  0.43272436367E+03  0.00000000000E+00 0. -1.
         25    1    1    2    0    0  0.13274085867E+02 -0.27688989089E+03  0.57366234615E+03  0.64927474956E+03  0.12500000000E+03 0.  0.
         21    1    1    2  503  504 -0.10393886693E+02  0.80477849580E+02 -0.18102965545E+03  0.19838460955E+03  0.00000000000E+00 0. -1.
         21    1    1    2  504  501 -0.28801991737E+01  0.19641204131E+03 -0.15820333986E+03  0.25221871909E+03  0.00000000000E+00 0. -1.
<mgrwt>
<rscale>  4 0.30408751E+03</rscale>
<asrwt>0</asrwt>
<pdfrwt beam="1">  1       21 0.10263903E+00 0.30408751E+03</pdfrwt>
<pdfrwt beam="2">  1       21 0.66572979E-01 0.30408751E+03</pdfrwt>
<totfact> 0.14661785E+03</totfact>
</mgrwt>
</event>
