<event>
 5    0  0.4025551E-002  0.5533120E+03  0.7546771E-02  0.1000730E+00
         -2   -1    0    0    0  501 -0.00000000000E+00  0.00000000000E+00  0.97497842247E+02  0.97497842247E+02  0.00000000000E+00 0.  1.
          2   -1    0    0  503    0  0.00000000000E+00 -0.00000000000E+00 -0.92575146030E+03  0.92575146030E+03  0.00000000000E+00 0. -1.
         25    1    1    2    0    0 -0.70064943761E+01  0.21907805593E+03 -0.16316930193E+03  0.30048877957E+03  0.12500000000E+03 0.  0.
         21    1    1    2  502  501  0.28405277194E+02 -0.20186783887E+03 -0.66474141123E+03  0.69529751038E+03  0.00000000000E+00 0. -1.
         21    1    1    2  503  502 -0.21398782817E+02 -0.17210217060E+02 -0.34290489924E+00  0.27463012601E+02  0.00000000000E+00 0. -1.
<mgrwt>
<rscale>  4 0.55331202E+03</rscale>
<asrwt>0</asrwt>
<pdfrwt beam="1">  1        2 0.14242330E+00 0.55331202E+03</pdfrwt>
<pdfrwt beam="2">  1       -2 0.14999669E-01 0.55331202E+03</pdfrwt>
<totfact> 0.99507679E+02</totfact>
</mgrwt>
</event>
<event>
 5    0  0.4025551E-002  0.5742471E+03  0.7546771E-02  0.9960324E-01
         -1   -1    0    0    0  501 -0.00000000000E+00  0.00000000000E+00  0.37039443523E+03  0.37039443523E+03  0.00000000000E+00 0.  1.
          1   -1    0    0  503    0  0.00000000000E+00 -0.00000000000E+00 -0.33296619887E+03  0.33296619887E+03  0.00000000000E+00 0. -1.
         25    1    1    2    0    0  0.13513370285E+03  0.25428561498E+03 -0.11724843922E+03  0.33510369758E+03  0.12500000000E+03 0.  0.
         21    1    1    2  502  501 -0.11938738897E+03 -0.20929079501E+03  0.40235923432E+02  0.24428449614E+03  0.00000000000E+00 0.  1.
         21    1    1    2  503  502 -0.15746313885E+02 -0.44994819972E+02  0.11444075214E+03  0.12397244038E+03  0.00000000000E+00 0.  1.
<mgrwt>
<rscale>  4 0.57424712E+03</rscale>
<asrwt>0</asrwt>
<pdfrwt beam="1">  1        1 0.51225569E-01 0.57424712E+03</pdfrwt>
<pdfrwt beam="2">  1       -1 0.56983759E-01 0.57424712E+03</pdfrwt>
<totfact> 0.24324161E+02</totfact>
</mgrwt>
</event>
<event>
 5    0  0.4025551E-002  0.4793264E+03  0.7546771E-02  0.1019320E+00
         -2   -1    0    0    0  501 -0.00000000000E+00  0.00000000000E+00  0.47276991572E+02  0.47276991572E+02  0.00000000000E+00 0.  1.
          2   -1    0    0  503    0  0.00000000000E+00 -0.00000000000E+00 -0.14779608989E+04  0.14779608989E+04  0.00000000000E+00 0. -1.
         25    1    1    2    0    0 -0.14758858691E+03 -0.14814778749E+03 -0.48191291340E+03  0.53999556852E+03  0.12500000000E+03 0.  0.
         21    1    1    2  502  501  0.16048592911E+03  0.11939329226E+03 -0.92330819674E+03  0.94472668950E+03  0.00000000000E+00 0.  1.
         21    1    1    2  503  502 -0.12897342198E+02  0.28754495233E+02 -0.25462797171E+02  0.40515632435E+02  0.00000000000E+00 0. -1.
<mgrwt>
<rscale>  4 0.47932642E+03</rscale>
<asrwt>0</asrwt>
<pdfrwt beam="1">  1        2 0.22737862E+00 0.47932642E+03</pdfrwt>
<pdfrwt beam="2">  1       -2 0.72733827E-02 0.47932642E+03</pdfrwt>
<totfact> 0.15273444E+03</totfact>
</mgrwt>
</event>
<event>
 5    0  0.4025551E-002  0.4922758E+03  0.7546771E-02  0.1015815E+00
         -2   -1    0    0    0  501 -0.00000000000E+00  0.00000000000E+00  0.22737070590E+03  0.22737070590E+03  0.00000000000E+00 0.  1.
          2   -1    0    0  503    0  0.00000000000E+00 -0.00000000000E+00 -0.48659986963E+03  0.48659986963E+03  0.00000000000E+00 0. -1.
         25    1    1    2    0    0  0.23661665297E+03  0.14765323432E+02 -0.17027479951E+03  0.31752789261E+03  0.12500000000E+03 0.  0.
         21    1    1    2  502  501 -0.22234500853E+03 -0.82442121970E-01 -0.19053709493E+03  0.29281682697E+03  0.00000000000E+00 0. -1.
         21    1    1    2  503  502 -0.14271644440E+02 -0.14682881310E+02  0.10158273072E+03  0.10362585594E+03  0.00000000000E+00 0.  1.
<mgrwt>
<rscale>  4 0.49227579E+03</rscale>
<asrwt>0</asrwt>
<pdfrwt beam="1">  1        2 0.74861518E-01 0.49227579E+03</pdfrwt>
<pdfrwt beam="2">  1       -2 0.34980109E-01 0.49227579E+03</pdfrwt>
<totfact> 0.49303133E+02</totfact>
</mgrwt>
</event>
<event>
 5    0  0.4025551E-002  0.5484790E+03  0.7546771E-02  0.1001847E+00
         -2   -1    0    0    0  501 -0.00000000000E+00  0.00000000000E+00  0.84681247537E+02  0.84681247537E+02  0.00000000000E+00 0.  1.
          2   -1    0    0  502    0  0.00000000000E+00 -0.00000000000E+00 -0.10908620123E+04  0.10908620123E+04  0.00000000000E+00 0. -1.
         25    1    1    2    0    0 -0.23428858540E+03 -0.14170209013E+03 -0.58395474322E+03  0.65696176884E+03  0.12500000000E+03 0.  0.
         21    1    1    2  502  503  0.21995541226E+02  0.15946980956E+02  0.26055433562E+01  0.27292835903E+02  0.00000000000E+00 0.  1.
         21    1    1    2  503  501  0.21229304418E+03  0.12575510917E+03 -0.42483156494E+03  0.49128865513E+03  0.00000000000E+00 0.  1.
<mgrwt>
<rscale>  4 0.54847901E+03</rscale>
<asrwt>0</asrwt>
<pdfrwt beam="1">  1        2 0.16782491E+00 0.54847901E+03</pdfrwt>
<pdfrwt beam="2">  1       -2 0.13027885E-01 0.54847901E+03</pdfrwt>
<totfact> 0.99116246E+02</totfact>
</mgrwt>
</event>
<event>
 5    0  0.4025551E-002  0.8261824E+03  0.7546771E-02  0.9522874E-01
         -2   -1    0    0    0  501 -0.00000000000E+00  0.00000000000E+00  0.47667222092E+02  0.47667222092E+02  0.00000000000E+00 0.  1.
          2   -1    0    0  502    0  0.00000000000E+00 -0.00000000000E+00 -0.40427414069E+04  0.40427414069E+04  0.00000000000E+00 0. -1.
         25    1    1    2    0    0 -0.69163170740E+02  0.39271816453E+03 -0.20214938286E+04  0.20642367597E+04  0.12500000000E+03 0.  0.
         21    1    1    2  502  503 -0.25197277739E+02  0.44947771230E+01 -0.26863544592E+02  0.37104660825E+02  0.00000000000E+00 0.  1.
         21    1    1    2  503  501  0.94360448479E+02 -0.39721294165E+03 -0.19467168116E+04  0.19890672084E+04  0.00000000000E+00 0.  1.
<mgrwt>
<rscale>  4 0.82618241E+03</rscale>
<asrwt>0</asrwt>
<pdfrwt beam="1">  1        2 0.62196017E+00 0.82618241E+03</pdfrwt>
<pdfrwt beam="2">  1       -2 0.73334193E-02 0.82618241E+03</pdfrwt>
<totfact> 0.38909565E+01</totfact>
</mgrwt>
</event>
<event>
 5    0  0.4025551E-002  0.6897625E+03  0.7546771E-02  0.9734902E-01
         -3   -1    0    0    0  501 -0.00000000000E+00  0.00000000000E+00  0.27534654066E+03  0.27534654066E+03  0.00000000000E+00 0. -1.
          3   -1    0    0  503    0  0.00000000000E+00 -0.00000000000E+00 -0.43197586651E+03  0.43197586651E+03  0.00000000000E+00 0.  1.
         25    1    1    2    0    0 -0.27778597970E+03  0.93318175030E+02 -0.20801564350E+03  0.38048500660E+03  0.12500000000E+03 0.  0.
         21    1    1    2  502  501  0.95498020031E+02 -0.30927489636E+02 -0.46614146257E+02  0.11067637542E+03  0.00000000000E+00 0. -1.
         21    1    1    2  503  502  0.18228795967E+03 -0.62390685394E+02  0.98000463905E+02  0.21616102514E+03  0.00000000000E+00 0. -1.
<mgrwt>
<rscale>  4 0.68976245E+03</rscale>
<asrwt>0</asrwt>
<pdfrwt beam="1">  1        3 0.66457825E-01 0.68976245E+03</pdfrwt>
<pdfrwt beam="2">  1       -3 0.42361006E-01 0.68976245E+03</pdfrwt>
<totfact> 0.31918715E+01</totfact>
</mgrwt>
</event>
<event>
 5    0  0.4025551E-002  0.5664061E+03  0.7546771E-02  0.9977663E-01
         -1   -1    0    0    0  501 -0.00000000000E+00  0.00000000000E+00  0.24345690068E+03  0.24345690068E+03  0.00000000000E+00 0. -1.
          1   -1    0    0  503    0  0.00000000000E+00 -0.00000000000E+00 -0.96858098512E+03  0.96858098512E+03  0.00000000000E+00 0.  1.
         25    1    1    2    0    0  0.11943253176E+03  0.25038070076E+03 -0.68913712292E+03  0.75331905534E+03  0.12500000000E+03 0.  0.
         21    1    1    2  502  501 -0.10241133606E+03 -0.19778761779E+03 -0.19146121104E+03  0.29370975271E+03  0.00000000000E+00 0. -1.
         21    1    1    2  503  502 -0.17021195704E+02 -0.52593082964E+02  0.15547424951E+03  0.16500907775E+03  0.00000000000E+00 0. -1.
<mgrwt>
<rscale>  4 0.56640613E+03</rscale>
<asrwt>0</asrwt>
<pdfrwt beam="1">  1        1 0.14901246E+00 0.56640613E+03</pdfrwt>
<pdfrwt beam="2">  1       -1 0.37454908E-01 0.56640613E+03</pdfrwt>
<totfact> 0.11381382E+02</totfact>
</mgrwt>
</event>
<event>
 5    0  0.4025551E-002  0.6836327E+03  0.7546771E-02  0.9745639E-01
          2   -1    0    0  503    0  0.00000000000E+00  0.00000000000E+00  0.11160714089E+04  0.11160714089E+04  0.00000000000E+00 0.  1.
         -2   -1    0    0    0  501 -0.00000000000E+00 -0.00000000000E+00 -0.15383951298E+03  0.15383951298E+03  0.00000000000E+00 0. -1.
         25    1    1    2    0    0  0.18389409251E+03  0.18055015912E+03  0.13398298179E+03  0.31621485833E+03  0.12500000000E+03 0.  0.
         21    1    1    2  502  501 -0.13901731649E+03 -0.17878520639E+03  0.86593946049E+03  0.89506486555E+03  0.00000000000E+00 0.  1.
         21    1    1    2  503  502 -0.44876776018E+02 -0.17649527309E+01 -0.37690546412E+02  0.58631197947E+02  0.00000000000E+00 0. -1.
<mgrwt>
<rscale>  4 0.68363271E+03</rscale>
<asrwt>0</asrwt>
<pdfrwt beam="1">  1        2 0.17170329E+00 0.68363271E+03</pdfrwt>
<pdfrwt beam="2">  1       -2 0.23667618E-01 0.68363271E+03</pdfrwt>
<totfact> 0.34092364E+02</totfact>
</mgrwt>
</event>
<event>
 5    0  0.4025551E-002  0.5359684E+03  0.7546771E-02  0.1004795E+00
          4   -1    0    0  503    0  0.00000000000E+00  0.00000000000E+00  0.11553691997E+03  0.11553691997E+03  0.00000000000E+00 0.  1.
         -4   -1    0    0    0  501 -0.00000000000E+00 -0.00000000000E+00 -0.68323769744E+03  0.68323769744E+03  0.00000000000E+00 0. -1.
         25    1    1    2    0    0  0.19431250246E+03 -0.13513177246E+03 -0.32786631455E+03  0.42324846693E+03  0.12500000000E+03 0.  0.
         21    1    1    2  502  501 -0.21353795001E+03  0.15211627710E+03 -0.20815910227E+03  0.33476563400E+03  0.00000000000E+00 0.  1.
         21    1    1    2  503  502  0.19225447554E+02 -0.16984504637E+02 -0.31675360645E+02  0.40760516476E+02  0.00000000000E+00 0.  1.
<mgrwt>
<rscale>  4 0.53596840E+03</rscale>
<asrwt>0</asrwt>
<pdfrwt beam="1">  1        4 0.17774910E-01 0.53596840E+03</pdfrwt>
<pdfrwt beam="2">  1       -4 0.10511349E+00 0.53596840E+03</pdfrwt>
<totfact> 0.41188538E+01</totfact>
</mgrwt>
</event>
<event>
 5    0  0.4025551E-002  0.9559765E+03  0.7546771E-02  0.9358192E-01
          2   -1    0    0  502    0  0.00000000000E+00  0.00000000000E+00  0.22509270519E+04  0.22509270519E+04  0.00000000000E+00 0. -1.
         -2   -1    0    0    0  501 -0.00000000000E+00 -0.00000000000E+00 -0.12271110271E+03  0.12271110271E+03  0.00000000000E+00 0.  1.
         25    1    1    2    0    0  0.39466630914E+03  0.29023638374E+03  0.10632782314E+04  0.11773632623E+04  0.12500000000E+03 0.  0.
         21    1    1    2  502  503  0.34712945623E+01 -0.80018766602E+02  0.79465649009E+02  0.11282660266E+03  0.00000000000E+00 0.  1.
         21    1    1    2  503  501 -0.39813760371E+03 -0.21021761713E+03  0.98547206877E+03  0.10834482897E+04  0.00000000000E+00 0. -1.
<mgrwt>
<rscale>  4 0.95597651E+03</rscale>
<asrwt>0</asrwt>
<pdfrwt beam="1">  1        2 0.34629644E+00 0.95597651E+03</pdfrwt>
<pdfrwt beam="2">  1       -2 0.18878633E-01 0.95597651E+03</pdfrwt>
<totfact> 0.11538408E+02</totfact>
</mgrwt>
</event>
<event>
 5    0  0.4025551E-002  0.4358572E+03  0.7546771E-02  0.1032026E+00
         -1   -1    0    0    0  501 -0.00000000000E+00  0.00000000000E+00  0.26982688833E+03  0.26982688833E+03  0.00000000000E+00 0. -1.
          1   -1    0    0  502    0  0.00000000000E+00 -0.00000000000E+00 -0.37629508476E+03  0.37629508476E+03  0.00000000000E+00 0.  1.
         25    1    1    2    0    0  0.23063476356E+02  0.22729213674E+03 -0.12073918421E+03  0.28704806213E+03  0.12500000000E+03 0.  0.
         21    1    1    2  502  503  0.69608007288E+02 -0.79009922795E+02  0.11608952923E+03  0.15673104790E+03  0.00000000000E+00 0. -1.
         21    1    1    2  503  501 -0.92671483644E+02 -0.14828221395E+03 -0.10181854145E+03  0.20234286308E+03  0.00000000000E+00 0. -1.
<mgrwt>
<rscale>  4 0.43585724E+03</rscale>
<asrwt>0</asrwt>
<pdfrwt beam="1">  1        1 0.57891551E-01 0.43585724E+03</pdfrwt>
<pdfrwt beam="2">  1       -1 0.41511829E-01 0.43585724E+03</pdfrwt>
<totfact> 0.37791702E+02</totfact>
</mgrwt>
</event>
<event>
 5    0  0.4025551E-002  0.5450017E+03  0.7546771E-02  0.1002657E+00
          4   -1    0    0  502    0  0.00000000000E+00  0.00000000000E+00  0.12738970335E+04  0.12738970335E+04  0.00000000000E+00 0.  1.
         -4   -1    0    0    0  501 -0.00000000000E+00 -0.00000000000E+00 -0.94885062339E+02  0.94885062339E+02  0.00000000000E+00 0. -1.
         25    1    1    2    0    0 -0.20743049993E+03  0.86893333189E+02  0.86133032885E+03  0.89893981948E+03  0.12500000000E+03 0.  0.
         21    1    1    2  502  503 -0.15994538112E+02 -0.11679174435E+03  0.81229662946E+02  0.14315863558E+03  0.00000000000E+00 0.  1.
         21    1    1    2  503  501  0.22342503804E+03  0.29898411160E+02  0.23645197940E+03  0.32668364081E+03  0.00000000000E+00 0. -1.
<mgrwt>
<rscale>  4 0.54500172E+03</rscale>
<asrwt>0</asrwt>
<pdfrwt beam="1">  1        4 0.19598415E+00 0.54500172E+03</pdfrwt>
<pdfrwt beam="2">  1       -4 0.14597703E-01 0.54500172E+03</pdfrwt>
<totfact> 0.11389025E+01</totfact>
</mgrwt>
</event>
<event>
 5    0  0.4025551E-002  0.5363466E+03  0.7546771E-02  0.1004704E+00
         -2   -1    0    0    0  501 -0.00000000000E+00  0.00000000000E+00  0.48349660717E+02  0.48349660717E+02  0.00000000000E+00 0. -1.
          2   -1    0    0  503    0  0.00000000000E+00 -0.00000000000E+00 -0.17659607502E+04  0.17659607502E+04  0.00000000000E+00 0.  1.
         25    1    1    2    0    0  0.14162237802E+03  0.14488539476E+03 -0.13493899934E+04  0.13702288239E+04  0.12500000000E+03 0.  0.
         21    1    1    2  502  501 -0.16818447436E+03 -0.13616902899E+03 -0.34715310854E+03  0.40907615751E+03  0.00000000000E+00 0. -1.
         21    1    1    2  503  502  0.26562096341E+02 -0.87163657742E+01 -0.21067987491E+02  0.35005429454E+02  0.00000000000E+00 0. -1.
<mgrwt>
<rscale>  4 0.53634664E+03</rscale>
<asrwt>0</asrwt>
<pdfrwt beam="1">  1        2 0.27168630E+00 0.53634664E+03</pdfrwt>
<pdfrwt beam="2">  1       -2 0.74384085E-02 0.53634664E+03</pdfrwt>
<totfact> 0.10253274E+03</totfact>
</mgrwt>
</event>
<event>
 5    0  0.4025551E-002  0.4812976E+03  0.7546771E-02  0.1018779E+00
          1   -1    0    0  503    0  0.00000000000E+00  0.00000000000E+00  0.45668267236E+02  0.45668267236E+02  0.00000000000E+00 0. -1.
         -1   -1    0    0    0  501 -0.00000000000E+00 -0.00000000000E+00 -0.16084459770E+04  0.16084459770E+04  0.00000000000E+00 0.  1.
         25    1    1    2    0    0 -0.94268472668E+02 -0.21321918941E+03 -0.75484517032E+03  0.79985323581E+03  0.12500000000E+03 0.  0.
         21    1    1    2  502  501  0.11578341169E+03  0.18092096313E+03 -0.50403398678E+03  0.54789456390E+03  0.00000000000E+00 0. -1.
         21    1    1    2  503  502 -0.21514939019E+02  0.32298226281E+02 -0.30389855264E+03  0.30636644451E+03  0.00000000000E+00 0. -1.
<mgrwt>
<rscale>  4 0.48129762E+03</rscale>
<asrwt>0</asrwt>
<pdfrwt beam="1">  1        1 0.70258864E-02 0.48129762E+03</pdfrwt>
<pdfrwt beam="2">  1       -1 0.24745326E+00 0.48129762E+03</pdfrwt>
<totfact> 0.83614163E+01</totfact>
</mgrwt>
</event>
<event>
 5    0  0.4025551E-002  0.3920099E+03  0.7546771E-02  0.1046582E+00
          2   -1    0    0  503    0  0.00000000000E+00  0.00000000000E+00  0.14142391251E+04  0.14142391251E+04  0.00000000000E+00 0. -1.
         -2   -1    0    0    0  501 -0.00000000000E+00 -0.00000000000E+00 -0.42872343076E+02  0.42872343076E+02  0.00000000000E+00 0.  1.
         25    1    1    2    0    0  0.16610711096E+03 -0.13196274095E+03  0.81156524338E+03  0.84809721233E+03  0.12500000000E+03 0.  0.
         21    1    1    2  502  501 -0.13191738501E+03  0.61835452088E+02  0.45888065508E+03  0.48145329494E+03  0.00000000000E+00 0.  1.
         21    1    1    2  503  502 -0.34189725956E+02  0.70127288859E+02  0.10092088352E+03  0.12756096086E+03  0.00000000000E+00 0.  1.
<mgrwt>
<rscale>  4 0.39200991E+03</rscale>
<asrwt>0</asrwt>
<pdfrwt beam="1">  1        2 0.21757521E+00 0.39200991E+03</pdfrwt>
<pdfrwt beam="2">  1       -2 0.65957462E-02 0.39200991E+03</pdfrwt>
<totfact> 0.19357002E+03</totfact>
</mgrwt>
</event>
<event>
 5    0  0.4025551E-002  0.5755442E+03  0.7546771E-02  0.9957485E-01
          1   -1    0    0  503    0  0.00000000000E+00  0.00000000000E+00  0.11169203205E+03  0.11169203205E+03  0.00000000000E+00 0. -1.
         -1   -1    0    0    0  501 -0.00000000000E+00 -0.00000000000E+00 -0.94449808503E+03  0.94449808503E+03  0.00000000000E+00 0.  1.
         25    1    1    2    0    0 -0.14989373514E+02 -0.21819130139E+03 -0.10911220748E+03  0.27452249296E+03  0.12500000000E+03 0.  0.
         21    1    1    2  502  501  0.10039902915E+02  0.24868948605E+03 -0.53008062749E+03  0.58560458653E+03  0.00000000000E+00 0.  1.
         21    1    1    2  503  502  0.49494705990E+01 -0.30498184658E+02 -0.19361321801E+03  0.19606303760E+03  0.00000000000E+00 0. -1.
<mgrwt>
<rscale>  4 0.57554419E+03</rscale>
<asrwt>0</asrwt>
<pdfrwt beam="1">  1        1 0.17183389E-01 0.57554419E+03</pdfrwt>
<pdfrwt beam="2">  1       -1 0.14530740E+00 0.57554419E+03</pdfrwt>
<totfact> 0.12520812E+02</totfact>
</mgrwt>
</event>
<event>
 5    0  0.4025551E-002  0.5148588E+03  0.7546771E-02  0.1009972E+00
         -2   -1    0    0    0  501 -0.00000000000E+00  0.00000000000E+00  0.54067928672E+02  0.54067928672E+02  0.00000000000E+00 0. -1.
          2   -1    0    0  502    0  0.00000000000E+00 -0.00000000000E+00 -0.14943219077E+04  0.14943219077E+04  0.00000000000E+00 0.  1.
         25    1    1    2    0    0  0.86548590123E+02 -0.22822245783E+03 -0.96896384137E+03  0.10070213874E+04  0.12500000000E+03 0.  0.
         21    1    1    2  502  503 -0.26329536071E+02  0.12244426831E+02 -0.14366797319E+02  0.32397149926E+02  0.00000000000E+00 0.  1.
         21    1    1    2  503  501 -0.60219054051E+02  0.21597803100E+03 -0.45692334029E+03  0.50897129904E+03  0.00000000000E+00 0. -1.
<mgrwt>
<rscale>  4 0.51485879E+03</rscale>
<asrwt>0</asrwt>
<pdfrwt beam="1">  1        2 0.22989564E+00 0.51485879E+03</pdfrwt>
<pdfrwt beam="2">  1       -2 0.83181444E-02 0.51485879E+03</pdfrwt>
<totfact> 0.12074757E+03</totfact>
</mgrwt>
</event>
<event>
 5    0  0.4025551E-002  0.5890011E+03  0.7546771E-02  0.9928492E-01
          2   -1    0    0  503    0  0.00000000000E+00  0.00000000000E+00  0.11252004649E+04  0.11252004649E+04  0.00000000000E+00 0. -1.
         -2   -1    0    0    0  501 -0.00000000000E+00 -0.00000000000E+00 -0.86170179336E+02  0.86170179336E+02  0.00000000000E+00 0.  1.
         25    1    1    2    0    0  0.14092808568E+03 -0.20885727184E+03  0.26717249754E+03  0.38792812320E+03  0.12500000000E+03 0.  0.
         21    1    1    2  502  501 -0.12160490887E+03  0.20122542755E+03  0.76683341433E+03  0.80206789730E+03  0.00000000000E+00 0. -1.
         21    1    1    2  503  502 -0.19323176815E+02  0.76318442811E+01  0.50243737276E+01  0.21374623756E+02  0.00000000000E+00 0.  1.
<mgrwt>
<rscale>  4 0.58900111E+03</rscale>
<asrwt>0</asrwt>
<pdfrwt beam="1">  1        2 0.17310775E+00 0.58900111E+03</pdfrwt>
<pdfrwt beam="2">  1       -2 0.13256951E-01 0.58900111E+03</pdfrwt>
<totfact> 0.91672530E+02</totfact>
</mgrwt>
</event>
<event>
 5    0  0.4025551E-002  0.6660574E+03  0.7546771E-02  0.9777107E-01
         -2   -1    0    0    0  501 -0.00000000000E+00  0.00000000000E+00  0.37778560630E+02  0.37778560630E+02  0.00000000000E+00 0.  1.
          2   -1    0    0  503    0  0.00000000000E+00 -0.00000000000E+00 -0.34307763187E+04  0.34307763187E+04  0.00000000000E+00 0. -1.
         25    1    1    2    0    0  0.22725779466E+03 -0.15900881191E+01 -0.60099597184E+03  0.65457603972E+03  0.12500000000E+03 0.  0.
         21    1    1    2  502  501 -0.25806712072E+03  0.14490209419E+02 -0.27400638250E+04  0.27522278921E+04  0.00000000000E+00 0. -1.
         21    1    1    2  503  502  0.30809326061E+02 -0.12900121300E+02 -0.51937961251E+02  0.61750947530E+02  0.00000000000E+00 0.  1.
<mgrwt>
<rscale>  4 0.66605740E+03</rscale>
<asrwt>0</asrwt>
<pdfrwt beam="1">  1        2 0.52781196E+00 0.66605740E+03</pdfrwt>
<pdfrwt beam="2">  1       -2 0.58120839E-02 0.66605740E+03</pdfrwt>
<totfact> 0.16087563E+02</totfact>
</mgrwt>
</event>
<event>
 5    0  0.4025551E-002  0.5356220E+03  0.7546771E-02  0.1004878E+00
         -1   -1    0    0    0  501 -0.00000000000E+00  0.00000000000E+00  0.12065106485E+03  0.12065106485E+03  0.00000000000E+00 0. -1.
          1   -1    0    0  502    0  0.00000000000E+00 -0.00000000000E+00 -0.93273206250E+03  0.93273206250E+03  0.00000000000E+00 0.  1.
         25    1    1    2    0    0 -0.29326273697E+02 -0.25430334592E+03 -0.19828034643E+03  0.34708834302E+03  0.12500000000E+03 0.  0.
         21    1    1    2  502  503  0.39011935406E+02  0.10259139661E+03 -0.46889426646E+02  0.11935469867E+03  0.00000000000E+00 0.  1.
         21    1    1    2  503  501 -0.96856617085E+01  0.15171194931E+03 -0.56691122457E+03  0.58694008566E+03  0.00000000000E+00 0.  1.
<mgrwt>
<rscale>  4 0.53562204E+03</rscale>
<asrwt>0</asrwt>
<pdfrwt beam="1">  1        1 0.14349723E+00 0.53562204E+03</pdfrwt>
<pdfrwt beam="2">  1       -1 0.18561703E-01 0.53562204E+03</pdfrwt>
<totfact> 0.40426966E+02</totfact>
</mgrwt>
</event>
<event>
 5    0  0.4025551E-002  0.6703019E+03  0.7546771E-02  0.9769413E-01
         -1   -1    0    0    0  501 -0.00000000000E+00  0.00000000000E+00  0.45504197782E+03  0.45504197782E+03  0.00000000000E+00 0. -1.
          1   -1    0    0  502    0  0.00000000000E+00 -0.00000000000E+00 -0.33231088115E+03  0.33231088115E+03  0.00000000000E+00 0.  1.
         25    1    1    2    0    0  0.24861247277E+03  0.21344845558E+03 -0.13254806060E+02  0.35095454789E+03  0.12500000000E+03 0.  0.
         21    1    1    2  502  503 -0.25351457191E+02  0.13855868253E+02  0.11336185876E+03  0.11698543708E+03  0.00000000000E+00 0.  1.
         21    1    1    2  503  501 -0.22326101558E+03 -0.22730432383E+03  0.22624043967E+02  0.31941287400E+03  0.00000000000E+00 0.  1.
<mgrwt>
<rscale>  4 0.67030195E+03</rscale>
<asrwt>0</asrwt>
<pdfrwt beam="1">  1        1 0.51124751E-01 0.67030195E+03</pdfrwt>
<pdfrwt beam="2">  1       -1 0.70006458E-01 0.67030195E+03</pdfrwt>
<totfact> 0.16113458E+02</totfact>
</mgrwt>
</event>
<event>
 5    0  0.4025551E-002  0.5007946E+03  0.7546771E-02  0.1013572E+00
         -2   -1    0    0    0  501 -0.00000000000E+00  0.00000000000E+00  0.77153311513E+02  0.77153311513E+02  0.00000000000E+00 0. -1.
          2   -1    0    0  503    0  0.00000000000E+00 -0.00000000000E+00 -0.88878364848E+03  0.88878364848E+03  0.00000000000E+00 0.  1.
         25    1    1    2    0    0 -0.20136358233E+03  0.73529708360E+02 -0.58417664997E+03  0.63469777742E+03  0.12500000000E+03 0.  0.
         21    1    1    2  502  501  0.20566539689E+03 -0.52649040219E+02 -0.17677902367E+03  0.27626255650E+03  0.00000000000E+00 0. -1.
         21    1    1    2  503  502 -0.43018145595E+01 -0.20880668140E+02 -0.50674663335E+02  0.54976626075E+02  0.00000000000E+00 0. -1.
<mgrwt>
<rscale>  4 0.50079456E+03</rscale>
<asrwt>0</asrwt>
<pdfrwt beam="1">  1        2 0.13673595E+00 0.50079456E+03</pdfrwt>
<pdfrwt beam="2">  1       -2 0.11869740E-01 0.50079456E+03</pdfrwt>
<totfact> 0.15542739E+03</totfact>
</mgrwt>
</event>
<event>
 5    0  0.4025551E-002  0.5091722E+03  0.7546771E-02  0.1011412E+00
          2   -1    0    0  503    0  0.00000000000E+00  0.00000000000E+00  0.57837195247E+03  0.57837195247E+03  0.00000000000E+00 0. -1.
         -2   -1    0    0    0  501 -0.00000000000E+00 -0.00000000000E+00 -0.13202620386E+03  0.13202620386E+03  0.00000000000E+00 0.  1.
         25    1    1    2    0    0 -0.15640359024E+03 -0.15086326613E+03  0.36536225956E+03  0.44309862200E+03  0.12500000000E+03 0.  0.
         21    1    1    2  502  501  0.17704624638E+03  0.13441157323E+03  0.89402838186E+02  0.23959280425E+03  0.00000000000E+00 0.  1.
         21    1    1    2  503  502 -0.20642656137E+02  0.16451692902E+02 -0.84193491367E+01  0.27706730079E+02  0.00000000000E+00 0. -1.
<mgrwt>
<rscale>  4 0.50917216E+03</rscale>
<asrwt>0</asrwt>
<pdfrwt beam="1">  1        2 0.88980299E-01 0.50917216E+03</pdfrwt>
<pdfrwt beam="2">  1       -2 0.20311724E-01 0.50917216E+03</pdfrwt>
<totfact> 0.10798810E+03</totfact>
</mgrwt>
</event>
<event>
 5    0  0.4025551E-002  0.4197896E+03  0.7546771E-02  0.1037135E+00
         -2   -1    0    0    0  501 -0.00000000000E+00  0.00000000000E+00  0.60602483393E+02  0.60602483393E+02  0.00000000000E+00 0.  1.
          2   -1    0    0  502    0  0.00000000000E+00 -0.00000000000E+00 -0.12417905635E+04  0.12417905635E+04  0.00000000000E+00 0. -1.
         25    1    1    2    0    0  0.10666783689E+03  0.19899305807E+03 -0.67462082158E+03  0.72229808078E+03  0.12500000000E+03 0.  0.
         21    1    1    2  502  503  0.13000877111E+02 -0.15153061275E+03 -0.24113436066E+03  0.28509003718E+03  0.00000000000E+00 0. -1.
         21    1    1    2  503  501 -0.11966871400E+03 -0.47462445312E+02 -0.26543289783E+03  0.29500492890E+03  0.00000000000E+00 0. -1.
<mgrwt>
<rscale>  4 0.41978955E+03</rscale>
<asrwt>0</asrwt>
<pdfrwt beam="1">  1        2 0.19104470E+00 0.41978955E+03</pdfrwt>
<pdfrwt beam="2">  1       -2 0.93234591E-02 0.41978955E+03</pdfrwt>
<totfact> 0.13984317E+03</totfact>
</mgrwt>
</event>
<event>
 5    0  0.4025551E-002  0.7204881E+03  0.7546771E-02  0.9682822E-01
         -2   -1    0    0    0  501 -0.00000000000E+00  0.00000000000E+00  0.18161464942E+03  0.18161464942E+03  0.00000000000E+00 0. -1.
          2   -1    0    0  502    0  0.00000000000E+00 -0.00000000000E+00 -0.98760870065E+03  0.98760870065E+03  0.00000000000E+00 0.  1.
         25    1    1    2    0    0  0.21376733047E+03 -0.82520512686E+02 -0.48584743183E+02  0.26550251196E+03  0.12500000000E+03 0.  0.
         21    1    1    2  502  503 -0.29670206559E+03  0.55572380006E+02 -0.75866081119E+03  0.81650880680E+03  0.00000000000E+00 0.  1.
         21    1    1    2  503  501  0.82934735117E+02  0.26948132680E+02  0.12515031439E+01  0.87212031303E+02  0.00000000000E+00 0.  1.
<mgrwt>
<rscale>  4 0.72048810E+03</rscale>
<asrwt>0</asrwt>
<pdfrwt beam="1">  1        2 0.15193980E+00 0.72048810E+03</pdfrwt>
<pdfrwt beam="2">  1       -2 0.27940715E-01 0.72048810E+03</pdfrwt>
<totfact> 0.30291201E+02</totfact>
</mgrwt>
</event>
<event>
 5    0  0.4025551E-002  0.8723544E+03  0.7546771E-02  0.9460815E-01
          1   -1    0    0  502    0  0.00000000000E+00  0.00000000000E+00  0.35534663447E+03  0.35534663447E+03  0.00000000000E+00 0. -1.
         -1   -1    0    0    0  501 -0.00000000000E+00 -0.00000000000E+00 -0.53539428594E+03  0.53539428594E+03  0.00000000000E+00 0.  1.
         25    1    1    2    0    0 -0.19286588439E+03  0.19349870063E+03  0.23649667905E+03  0.38235412344E+03  0.12500000000E+03 0.  0.
         21    1    1    2  502  503  0.87050436708E+02 -0.34425719812E+02 -0.19169379712E+03  0.21332937109E+03  0.00000000000E+00 0.  1.
         21    1    1    2  503  501  0.10581544768E+03 -0.15907298082E+03 -0.22485053341E+03  0.29505742588E+03  0.00000000000E+00 0.  1.
<mgrwt>
<rscale>  4 0.87235442E+03</rscale>
<asrwt>0</asrwt>
<pdfrwt beam="1">  1        1 0.54668713E-01 0.87235442E+03</pdfrwt>
<pdfrwt beam="2">  1       -1 0.82368351E-01 0.87235442E+03</pdfrwt>
<totfact> 0.10387865E+02</totfact>
</mgrwt>
</event>
<event>
 5    0  0.4025551E-002  0.1095352E+04  0.7546771E-02  0.9209734E-01
          2   -1    0    0  503    0  0.00000000000E+00  0.00000000000E+00  0.17599454891E+04  0.17599454891E+04  0.00000000000E+00 0. -1.
         -2   -1    0    0    0  501 -0.00000000000E+00 -0.00000000000E+00 -0.23746343443E+03  0.23746343443E+03  0.00000000000E+00 0.  1.
         25    1    1    2    0    0 -0.30773544562E+03  0.45200873607E+03  0.77908371198E+03  0.96000491262E+03  0.12500000000E+03 0.  0.
         21    1    1    2  502  501  0.31920417480E+03 -0.42778143729E+03  0.80747992889E+03  0.96794219810E+03  0.00000000000E+00 0.  1.
         21    1    1    2  503  502 -0.11468729187E+02 -0.24227298782E+02 -0.64081586181E+02  0.69461812839E+02  0.00000000000E+00 0. -1.
<mgrwt>
<rscale>  4 0.10953519E+04</rscale>
<asrwt>0</asrwt>
<pdfrwt beam="1">  1        2 0.27076084E+00 0.10953519E+04</pdfrwt>
<pdfrwt beam="2">  1       -2 0.36532837E-01 0.10953519E+04</pdfrwt>
<totfact> 0.63667653E+01</totfact>
</mgrwt>
</event>
