<event>
 5    0  0.1911311E+001  0.2146431E+03  0.7546771E-02  0.1137941E+00
         21   -1    0    0  504  501  0.00000000000E+00  0.00000000000E+00  0.40102455816E+03  0.40102455816E+03  0.00000000000E+00 0.  1.
         21   -1    0    0  503  502 -0.00000000000E+00 -0.00000000000E+00 -0.56297290065E+03  0.56297290065E+03  0.00000000000E+00 0. -1.
         25    1    1    2    0    0 -0.17719664639E+03  0.19296058543E+03 -0.22622921565E+03  0.36801779445E+03  0.12500000000E+03 0.  0.
         21    1    1    2  503  501  0.14158240879E+03 -0.54575257893E+02 -0.22612774614E+03  0.27231928839E+03  0.00000000000E+00 0. -1.
         21    1    1    2  504  502  0.35614237592E+02 -0.13838532753E+03  0.29040861931E+03  0.32366037596E+03  0.00000000000E+00 0.  1.
<mgrwt>
<rscale>  4 0.21464311E+03</rscale>
<asrwt>0</asrwt>
<pdfrwt beam="1">  1       21 0.61696085E-01 0.21464311E+03</pdfrwt>
<pdfrwt beam="2">  1       21 0.86611216E-01 0.21464311E+03</pdfrwt>
<totfact> 0.27497112E+03</totfact>
</mgrwt>
</event>
<event>
 5    0  0.1911311E+001  0.2408841E+03  0.7546771E-02  0.1119205E+00
         21   -1    0    0  502  501  0.00000000000E+00  0.00000000000E+00  0.56126190538E+03  0.56126190538E+03  0.00000000000E+00 0. -1.
         21   -1    0    0  504  502 -0.00000000000E+00 -0.00000000000E+00 -0.13486225923E+03  0.13486225923E+03  0.00000000000E+00 0. -1.
         25    1    1    2    0    0 -0.17899331691E+03  0.92970531215E+02  0.68482385426E+02  0.24697563500E+03  0.12500000000E+03 0.  0.
         21    1    1    2  503  501  0.19971243766E+03 -0.58746378323E+02  0.35165642754E+03  0.40865442339E+03  0.00000000000E+00 0. -1.
         21    1    1    2  504  503 -0.20719120756E+02 -0.34224152892E+02  0.62608331772E+01  0.40494106215E+02  0.00000000000E+00 0.  1.
<mgrwt>
<rscale>  4 0.24088415E+03</rscale>
<asrwt>0</asrwt>
<pdfrwt beam="1">  1       21 0.86347984E-01 0.24088415E+03</pdfrwt>
<pdfrwt beam="2">  1       21 0.20748040E-01 0.24088415E+03</pdfrwt>
<totfact> 0.24261106E+04</totfact>
</mgrwt>
</event>
<event>
 5    0  0.1911311E+001  0.2143854E+03  0.7546771E-02  0.1138140E+00
         21   -1    0    0  502  501  0.00000000000E+00  0.00000000000E+00  0.60750899983E+03  0.60750899983E+03  0.00000000000E+00 0.  1.
         21   -1    0    0  504  502 -0.00000000000E+00 -0.00000000000E+00 -0.18866375819E+03  0.18866375819E+03  0.00000000000E+00 0.  1.
         25    1    1    2    0    0 -0.18616988187E+03  0.86506971190E+02 -0.33619776147E+01  0.24037259385E+03  0.12500000000E+03 0.  0.
         21    1    1    2  503  501  0.15675419971E+03 -0.66685414842E+02  0.46790605711E+03  0.49795070234E+03  0.00000000000E+00 0.  1.
         21    1    1    2  504  503  0.29415682164E+02 -0.19821556348E+02 -0.45698837852E+02  0.57849461832E+02  0.00000000000E+00 0. -1.
<mgrwt>
<rscale>  4 0.21438545E+03</rscale>
<asrwt>0</asrwt>
<pdfrwt beam="1">  1       21 0.93462922E-01 0.21438545E+03</pdfrwt>
<pdfrwt beam="2">  1       21 0.29025194E-01 0.21438545E+03</pdfrwt>
<totfact> 0.10775724E+04</totfact>
</mgrwt>
</event>
<event>
 5    0  0.1911311E+001  0.2284854E+03  0.7546771E-02  0.1127710E+00
         21   -1    0    0  503  501  0.00000000000E+00  0.00000000000E+00  0.12578509613E+03  0.12578509613E+03  0.00000000000E+00 0. -1.
         21   -1    0    0  504  502 -0.00000000000E+00 -0.00000000000E+00 -0.48124566496E+03  0.48124566496E+03  0.00000000000E+00 0. -1.
         25    1    1    2    0    0  0.18383442618E+03 -0.88423162808E+02 -0.18549867262E+03  0.30273504838E+03  0.12500000000E+03 0.  0.
         21    1    1    2  503  502 -0.20747946639E+02  0.19437619001E+01 -0.10737395817E+03  0.10937743092E+03  0.00000000000E+00 0.  1.
         21    1    1    2  504  501 -0.16308647954E+03  0.86479400908E+02 -0.62587938030E+02  0.19491828180E+03  0.00000000000E+00 0. -1.
<mgrwt>
<rscale>  4 0.22848537E+03</rscale>
<asrwt>0</asrwt>
<pdfrwt beam="1">  1       21 0.19351554E-01 0.22848537E+03</pdfrwt>
<pdfrwt beam="2">  1       21 0.74037792E-01 0.22848537E+03</pdfrwt>
<totfact> 0.39453163E+04</totfact>
</mgrwt>
</event>
