<event>
 5    0  0.2917107E+000  0.2989034E+03  0.7546771E-02  0.1085790E+00
          4   -1    0    0  501    0 -0.00000000000E+00  0.00000000000E+00  0.46099428764E+03  0.46099428764E+03  0.00000000000E+00 0.  1.
          2   -1    0    0  502    0  0.00000000000E+00 -0.00000000000E+00 -0.89722530361E+03  0.89722530361E+03  0.00000000000E+00 0.  1.
         25    1    1    2    0    0  0.61883814769E+02  0.23373279687E+03 -0.93923708184E+02  0.28793626000E+03  0.12500000000E+03 0.  0.
          2    1    1    2  501    0 -0.41607218201E+02  0.46482630781E+02 -0.65036631593E+03  0.65335146779E+03  0.00000000000E+00 0.  1.
          4    1    1    2  502    0 -0.20276596568E+02 -0.28021542766E+03  0.30805900815E+03  0.41693186346E+03  0.00000000000E+00 0.  1.
<mgrwt>
<rscale>  4 0.29890344E+03</rscale>
<asrwt>0</asrwt>
<pdfrwt beam="1">  1        2 0.13803466E+00 0.29890344E+03</pdfrwt>
<pdfrwt beam="2">  1        4 0.70922199E-01 0.29890344E+03</pdfrwt>
<totfact> 0.30058219E+01</totfact>
</mgrwt>
</event>
<event>
 5    0  0.2917107E+000  0.3083780E+03  0.7546771E-02  0.1081126E+00
          2   -1    0    0  502    0  0.00000000000E+00  0.00000000000E+00  0.36195447938E+03  0.36195447938E+03  0.00000000000E+00 0. -1.
          1   -1    0    0  501    0 -0.00000000000E+00 -0.00000000000E+00 -0.64838916283E+03  0.64838916283E+03  0.00000000000E+00 0. -1.
         25    1    1    2    0    0 -0.21932232843E+03  0.20492726541E+03 -0.29133143941E+03  0.43657356247E+03  0.12500000000E+03 0.  0.
          2    1    1    2  501    0  0.16163577502E+03 -0.22793956680E+03  0.21634167496E+03  0.35339254407E+03  0.00000000000E+00 0. -1.
          1    1    1    2  502    0  0.57686553409E+02  0.23012301392E+02 -0.21144491899E+03  0.22037753567E+03  0.00000000000E+00 0. -1.
<mgrwt>
<rscale>  4 0.30837796E+03</rscale>
<asrwt>0</asrwt>
<pdfrwt beam="1">  1        2 0.55685304E-01 0.30837796E+03</pdfrwt>
<pdfrwt beam="2">  1        1 0.99752179E-01 0.30837796E+03</pdfrwt>
<totfact> 0.38112324E+02</totfact>
</mgrwt>
</event>
<event>
 5    0  0.2917107E+000  0.1957394E+03  0.7546771E-02  0.1153384E+00
          2   -1    0    0  502    0  0.00000000000E+00  0.00000000000E+00  0.31193979069E+04  0.31193979069E+04  0.00000000000E+00 0.  1.
          4   -1    0    0  501    0 -0.00000000000E+00 -0.00000000000E+00 -0.53622978310E+02  0.53622978310E+02  0.00000000000E+00 0.  1.
         25    1    1    2    0    0 -0.14413258065E+03  0.15434654772E+03  0.18491637581E+04  0.18653762789E+04  0.12500000000E+03 0.  0.
          2    1    1    2  501    0  0.55252900472E+02 -0.37572290773E+02  0.11402672784E+04  0.11422232821E+04  0.00000000000E+00 0.  1.
          4    1    1    2  502    0  0.88879680181E+02 -0.11677425694E+03  0.76343892076E+02  0.16542132417E+03  0.00000000000E+00 0.  1.
<mgrwt>
<rscale>  4 0.19573941E+03</rscale>
<asrwt>0</asrwt>
<pdfrwt beam="1">  1        2 0.47990723E+00 0.19573941E+03</pdfrwt>
<pdfrwt beam="2">  1        4 0.82496914E-02 0.19573941E+03</pdfrwt>
<totfact> 0.10296709E+02</totfact>
</mgrwt>
</event>
<event>
 5    0  0.2917107E+000  0.2442082E+03  0.7546771E-02  0.1117021E+00
          2   -1    0    0  502    0  0.00000000000E+00  0.00000000000E+00  0.21780834000E+04  0.21780834000E+04  0.00000000000E+00 0.  1.
          2   -1    0    0  501    0 -0.00000000000E+00 -0.00000000000E+00 -0.90167925326E+03  0.90167925326E+03  0.00000000000E+00 0.  1.
         25    1    1    2    0    0 -0.24855524610E+03 -0.49820164785E+02  0.60135138839E+03  0.66446237779E+03  0.12500000000E+03 0.  0.
          2    1    1    2  501    0  0.40324085605E+02  0.32415336130E+02  0.15321884884E+04  0.15330617567E+04  0.00000000000E+00 0.  1.
          2    1    1    2  502    0  0.20823116050E+03  0.17404828654E+02 -0.85713573004E+03  0.88223851876E+03  0.00000000000E+00 0.  1.
<mgrwt>
<rscale>  4 0.24420823E+03</rscale>
<asrwt>0</asrwt>
<pdfrwt beam="1">  1        2 0.33508975E+00 0.24420823E+03</pdfrwt>
<pdfrwt beam="2">  1        2 0.13871989E+00 0.24420823E+03</pdfrwt>
<totfact> 0.28857464E+01</totfact>
</mgrwt>
</event>
<event>
 5    0  0.2917107E+000  0.5815683E+03  0.7546771E-02  0.9944401E-01
          2   -1    0    0  502    0  0.00000000000E+00  0.00000000000E+00  0.15199206464E+04  0.15199206464E+04  0.00000000000E+00 0. -1.
          2   -1    0    0  501    0 -0.00000000000E+00 -0.00000000000E+00 -0.32007120435E+04  0.32007120435E+04  0.00000000000E+00 0. -1.
         25    1    1    2    0    0 -0.18130768859E+03  0.59060293231E+03  0.69414137709E+03  0.93762548653E+03  0.12500000000E+03 0.  0.
          2    1    1    2  501    0  0.23415934119E+01 -0.94124064150E+02 -0.29792206351E+04  0.29807080393E+04  0.00000000000E+00 0. -1.
          2    1    1    2  502    0  0.17896609518E+03 -0.49647886816E+03  0.60428786101E+03  0.80229916411E+03  0.00000000000E+00 0. -1.
<mgrwt>
<rscale>  4 0.58156832E+03</rscale>
<asrwt>0</asrwt>
<pdfrwt beam="1">  1        2 0.23383395E+00 0.58156832E+03</pdfrwt>
<pdfrwt beam="2">  1        2 0.49241723E+00 0.58156832E+03</pdfrwt>
<totfact> 0.27896169E+00</totfact>
</mgrwt>
</event>
<event>
 5    0  0.2917107E+000  0.2729074E+03  0.7546771E-02  0.1099627E+00
         -3   -1    0    0    0  501 -0.00000000000E+00  0.00000000000E+00  0.14640869942E+04  0.14640869942E+04  0.00000000000E+00 0. -1.
          1   -1    0    0  501    0  0.00000000000E+00 -0.00000000000E+00 -0.24029663258E+04  0.24029663258E+04  0.00000000000E+00 0.  1.
         25    1    1    2    0    0 -0.56630392213E+02 -0.23204364985E+03 -0.17014149226E+03  0.31878579665E+03  0.12500000000E+03 0.  0.
          1    1    1    2  502    0  0.17576827020E+03  0.17223200750E+03 -0.21482652432E+04  0.21623140161E+04  0.00000000000E+00 0.  1.
         -3    1    1    2    0  502 -0.11913787799E+03  0.59811642348E+02  0.13795274038E+04  0.13859535073E+04  0.00000000000E+00 0. -1.
<mgrwt>
<rscale>  4 0.27290739E+03</rscale>
<asrwt>0</asrwt>
<pdfrwt beam="1">  1        1 0.36968713E+00 0.27290739E+03</pdfrwt>
<pdfrwt beam="2">  1       -3 0.22524415E+00 0.27290739E+03</pdfrwt>
<totfact> 0.11196839E-01</totfact>
</mgrwt>
</event>
<event>
 5    0  0.2917107E+000  0.2484094E+03  0.7546771E-02  0.1114314E+00
          2   -1    0    0  501    0  0.00000000000E+00  0.00000000000E+00  0.20697767440E+04  0.20697767440E+04  0.00000000000E+00 0. -1.
         -1   -1    0    0    0  501 -0.00000000000E+00 -0.00000000000E+00 -0.40483576031E+02  0.40483576031E+02  0.00000000000E+00 0. -1.
         25    1    1    2    0    0 -0.20038855043E+03 -0.12905431098E+02  0.10116454918E+04  0.10389291229E+04  0.12500000000E+03 0.  0.
          2    1    1    2  502    0 -0.19919386108E+02 -0.25776543510E+01  0.58710672302E+03  0.58745019403E+03  0.00000000000E+00 0. -1.
         -1    1    1    2    0  502  0.22030793654E+03  0.15483085449E+02  0.43054095310E+03  0.48388100307E+03  0.00000000000E+00 0. -1.
<mgrwt>
<rscale>  4 0.24840945E+03</rscale>
<asrwt>0</asrwt>
<pdfrwt beam="1">  1        2 0.31842711E+00 0.24840945E+03</pdfrwt>
<pdfrwt beam="2">  1       -1 0.62282441E-02 0.24840945E+03</pdfrwt>
<totfact> 0.98360180E+02</totfact>
</mgrwt>
</event>
<event>
 5    0  0.2917107E+000  0.2235727E+03  0.7546771E-02  0.1131247E+00
          2   -1    0    0  502    0  0.00000000000E+00  0.00000000000E+00  0.20808848470E+04  0.20808848470E+04  0.00000000000E+00 0. -1.
          2   -1    0    0  501    0 -0.00000000000E+00 -0.00000000000E+00 -0.19069803267E+03  0.19069803267E+03  0.00000000000E+00 0.  1.
         25    1    1    2    0    0 -0.12815450515E+03 -0.15778088016E+03  0.57197854460E+03  0.61976030756E+03  0.12500000000E+03 0.  0.
          2    1    1    2  501    0  0.10613582271E+01  0.28380335247E+02 -0.16001391256E+03  0.16251468279E+03  0.00000000000E+00 0.  1.
          2    1    1    2  502    0  0.12709314693E+03  0.12940054492E+03  0.14782221822E+04  0.14893078893E+04  0.00000000000E+00 0. -1.
<mgrwt>
<rscale>  4 0.22357266E+03</rscale>
<asrwt>0</asrwt>
<pdfrwt beam="1">  1        2 0.32013611E+00 0.22357266E+03</pdfrwt>
<pdfrwt beam="2">  1        2 0.29338160E-01 0.22357266E+03</pdfrwt>
<totfact> 0.19103799E+02</totfact>
</mgrwt>
</event>
<event>
 5    0  0.2917107E+000  0.3207511E+03  0.7546771E-02  0.1075304E+00
          2   -1    0    0  502    0  0.00000000000E+00  0.00000000000E+00  0.45375728387E+03  0.45375728387E+03  0.00000000000E+00 0.  1.
          2   -1    0    0  501    0 -0.00000000000E+00 -0.00000000000E+00 -0.37750014864E+03  0.37750014864E+03  0.00000000000E+00 0.  1.
         25    1    1    2    0    0 -0.19205635995E+03  0.22452401210E+03  0.17651670054E+03  0.36616911800E+03  0.12500000000E+03 0.  0.
          2    1    1    2  501    0  0.17028931102E+03 -0.24217004839E+03  0.60278632845E+02  0.30212298053E+03  0.00000000000E+00 0.  1.
          2    1    1    2  502    0  0.21767048930E+02  0.17646036291E+02 -0.16053819815E+03  0.16296533398E+03  0.00000000000E+00 0.  1.
<mgrwt>
<rscale>  4 0.32075108E+03</rscale>
<asrwt>0</asrwt>
<pdfrwt beam="1">  1        2 0.69808812E-01 0.32075108E+03</pdfrwt>
<pdfrwt beam="2">  1        2 0.58076946E-01 0.32075108E+03</pdfrwt>
<totfact> 0.91096591E+02</totfact>
</mgrwt>
</event>
<event>
 5    0  0.2917107E+000  0.2648871E+03  0.7546771E-02  0.1104242E+00
          1   -1    0    0  502    0  0.00000000000E+00  0.00000000000E+00  0.13682793120E+04  0.13682793120E+04  0.00000000000E+00 0. -1.
          1   -1    0    0  501    0 -0.00000000000E+00 -0.00000000000E+00 -0.62851453070E+03  0.62851453070E+03  0.00000000000E+00 0.  1.
         25    1    1    2    0    0 -0.24481723122E+03 -0.86842843211E+02 -0.34019275467E+03  0.44590723974E+03  0.12500000000E+03 0.  0.
          1    1    1    2  501    0  0.19836962542E+03  0.69562862228E+02 -0.18796645217E+03  0.28199448085E+03  0.00000000000E+00 0.  1.
          1    1    1    2  502    0  0.46447605800E+02  0.17279980983E+02  0.12679239882E+04  0.12688921221E+04  0.00000000000E+00 0. -1.
<mgrwt>
<rscale>  4 0.26488711E+03</rscale>
<asrwt>0</asrwt>
<pdfrwt beam="1">  1        1 0.21050451E+00 0.26488711E+03</pdfrwt>
<pdfrwt beam="2">  1        1 0.96694543E-01 0.26488711E+03</pdfrwt>
<totfact> 0.35058336E+01</totfact>
</mgrwt>
</event>
<event>
 5    0  0.2917107E+000  0.2083147E+03  0.7546771E-02  0.1142908E+00
          2   -1    0    0  502    0  0.00000000000E+00  0.00000000000E+00  0.14525011625E+03  0.14525011625E+03  0.00000000000E+00 0.  1.
          3   -1    0    0  501    0 -0.00000000000E+00 -0.00000000000E+00 -0.77909927137E+03  0.77909927137E+03  0.00000000000E+00 0. -1.
         25    1    1    2    0    0  0.68684323959E+02  0.19859301439E+03 -0.14483150950E+03  0.28417932343E+03  0.12500000000E+03 0.  0.
          2    1    1    2  501    0 -0.21450481262E+02 -0.46249238712E+02  0.53969642036E+02  0.74241750312E+02  0.00000000000E+00 0.  1.
          3    1    1    2  502    0 -0.47233842697E+02 -0.15234377568E+03 -0.54298728766E+03  0.56592831387E+03  0.00000000000E+00 0. -1.
<mgrwt>
<rscale>  4 0.20831471E+03</rscale>
<asrwt>0</asrwt>
<pdfrwt beam="1">  1        2 0.22346172E-01 0.20831471E+03</pdfrwt>
<pdfrwt beam="2">  1        3 0.11986142E+00 0.20831471E+03</pdfrwt>
<totfact> 0.88174612E+01</totfact>
</mgrwt>
</event>
<event>
 5    0  0.2917107E+000  0.1851317E+03  0.7546771E-02  0.1162927E+00
          1   -1    0    0  501    0 -0.00000000000E+00  0.00000000000E+00  0.43039081359E+03  0.43039081359E+03  0.00000000000E+00 0. -1.
          2   -1    0    0  502    0  0.00000000000E+00 -0.00000000000E+00 -0.84131100701E+03  0.84131100701E+03  0.00000000000E+00 0. -1.
         25    1    1    2    0    0  0.21842464335E+03  0.78196570983E+02 -0.42610788986E+03  0.50101593022E+03  0.12500000000E+03 0.  0.
          2    1    1    2  501    0 -0.99896485541E+02 -0.15227183471E+02 -0.35910754495E+03  0.37305415663E+03  0.00000000000E+00 0. -1.
          1    1    1    2  502    0 -0.11852815781E+03 -0.62969387512E+02  0.37429524139E+03  0.39763173375E+03  0.00000000000E+00 0. -1.
<mgrwt>
<rscale>  4 0.18513170E+03</rscale>
<asrwt>0</asrwt>
<pdfrwt beam="1">  1        2 0.12943246E+00 0.18513170E+03</pdfrwt>
<pdfrwt beam="2">  1        1 0.66213972E-01 0.18513170E+03</pdfrwt>
<totfact> 0.25589670E+02</totfact>
</mgrwt>
</event>
<event>
 5    0  0.2917107E+000  0.2048095E+03  0.7546771E-02  0.1145743E+00
          1   -1    0    0  502    0  0.00000000000E+00  0.00000000000E+00  0.85326517565E+03  0.85326517565E+03  0.00000000000E+00 0.  1.
         -1   -1    0    0    0  501 -0.00000000000E+00 -0.00000000000E+00 -0.30148828998E+03  0.30148828998E+03  0.00000000000E+00 0.  1.
         25    1    1    2    0    0 -0.94899277139E+02 -0.19696681324E+03  0.65605930828E+02  0.26025167911E+03  0.12500000000E+03 0.  0.
          1    1    1    2  502    0  0.45290844813E+02  0.52754404362E+02  0.65977288850E+03  0.66342637286E+03  0.00000000000E+00 0.  1.
         -1    1    1    2    0  501  0.49608432327E+02  0.14421240887E+03 -0.17360193366E+03  0.23107541367E+03  0.00000000000E+00 0.  1.
<mgrwt>
<rscale>  4 0.20480951E+03</rscale>
<asrwt>0</asrwt>
<pdfrwt beam="1">  1        1 0.13127156E+00 0.20480951E+03</pdfrwt>
<pdfrwt beam="2">  1       -1 0.46382814E-01 0.20480951E+03</pdfrwt>
<totfact> 0.10121134E+02</totfact>
</mgrwt>
</event>
<event>
 5    0  0.2917107E+000  0.3534430E+03  0.7546771E-02  0.1061211E+00
          2   -1    0    0  502    0  0.00000000000E+00  0.00000000000E+00  0.21792107083E+04  0.21792107083E+04  0.00000000000E+00 0.  1.
          2   -1    0    0  501    0 -0.00000000000E+00 -0.00000000000E+00 -0.12259570821E+04  0.12259570821E+04  0.00000000000E+00 0. -1.
         25    1    1    2    0    0  0.30638412884E+03  0.52862169035E+02  0.44323972421E+03  0.55565465574E+03  0.12500000000E+03 0.  0.
          2    1    1    2  501    0 -0.32931065370E+03 -0.38452258455E+02 -0.11461436325E+04  0.11931342377E+04  0.00000000000E+00 0. -1.
          2    1    1    2  502    0  0.22926524853E+02 -0.14409910580E+02  0.16561575345E+04  0.16563788969E+04  0.00000000000E+00 0.  1.
<mgrwt>
<rscale>  4 0.35344296E+03</rscale>
<asrwt>0</asrwt>
<pdfrwt beam="1">  1        2 0.33526319E+00 0.35344296E+03</pdfrwt>
<pdfrwt beam="2">  1        2 0.18860878E+00 0.35344296E+03</pdfrwt>
<totfact> 0.17343676E+01</totfact>
</mgrwt>
</event>
<event>
 5    0  0.2917107E+000  0.2837217E+03  0.7546771E-02  0.1093673E+00
         -1   -1    0    0    0  501  0.00000000000E+00  0.00000000000E+00  0.11722168806E+04  0.11722168806E+04  0.00000000000E+00 0. -1.
         -1   -1    0    0    0  502 -0.00000000000E+00 -0.00000000000E+00 -0.59963850071E+03  0.59963850071E+03  0.00000000000E+00 0.  1.
         25    1    1    2    0    0 -0.20167726323E+03  0.35061959228E+03  0.13441549845E+03  0.44418503264E+03  0.12500000000E+03 0.  0.
         -1    1    1    2    0  502  0.68638504704E+02 -0.15222698362E+03 -0.41201754226E+03  0.44457030265E+03  0.00000000000E+00 0.  1.
         -1    1    1    2    0  501  0.13303875853E+03 -0.19839260866E+03  0.85018042373E+03  0.88310004606E+03  0.00000000000E+00 0. -1.
<mgrwt>
<rscale>  4 0.28372166E+03</rscale>
<asrwt>0</asrwt>
<pdfrwt beam="1">  1       -1 0.18034106E+00 0.28372166E+03</pdfrwt>
<pdfrwt beam="2">  1       -1 0.92252077E-01 0.28372166E+03</pdfrwt>
<totfact> 0.23361318E+00</totfact>
</mgrwt>
</event>
<event>
 5    0  0.2917107E+000  0.2879329E+03  0.7546771E-02  0.1091433E+00
          2   -1    0    0  502    0  0.00000000000E+00  0.00000000000E+00  0.28638605214E+04  0.28638605214E+04  0.00000000000E+00 0. -1.
          1   -1    0    0  501    0 -0.00000000000E+00 -0.00000000000E+00 -0.32675357986E+03  0.32675357986E+03  0.00000000000E+00 0.  1.
         25    1    1    2    0    0  0.24869085905E+03  0.39828625449E+02  0.19513158655E+03  0.34224961483E+03  0.12500000000E+03 0.  0.
          2    1    1    2  501    0 -0.26026888682E+03 -0.25211378972E+01  0.25870933097E+04  0.26001534652E+04  0.00000000000E+00 0. -1.
          1    1    1    2  502    0  0.11578027763E+02 -0.37307487552E+02 -0.24511795469E+03  0.24821102124E+03  0.00000000000E+00 0.  1.
<mgrwt>
<rscale>  4 0.28793287E+03</rscale>
<asrwt>0</asrwt>
<pdfrwt beam="1">  1        2 0.44059391E+00 0.28793287E+03</pdfrwt>
<pdfrwt beam="2">  1        1 0.50269783E-01 0.28793287E+03</pdfrwt>
<totfact> 0.26722842E+01</totfact>
</mgrwt>
</event>
<event>
 5    0  0.2917107E+000  0.3021089E+03  0.7546771E-02  0.1084191E+00
          1   -1    0    0  501    0 -0.00000000000E+00  0.00000000000E+00  0.58113939366E+03  0.58113939366E+03  0.00000000000E+00 0. -1.
          2   -1    0    0  502    0  0.00000000000E+00 -0.00000000000E+00 -0.15767503068E+04  0.15767503068E+04  0.00000000000E+00 0. -1.
         25    1    1    2    0    0 -0.23421647183E+03 -0.60904771799E+02 -0.39003232589E+03  0.47572782360E+03  0.12500000000E+03 0.  0.
          2    1    1    2  501    0  0.28971007100E+03  0.21699687814E+02 -0.11231672711E+04  0.11601325444E+04  0.00000000000E+00 0. -1.
          1    1    1    2  502    0 -0.55493599166E+02  0.39205083985E+02  0.51758868392E+03  0.52202933240E+03  0.00000000000E+00 0. -1.
<mgrwt>
<rscale>  4 0.30210894E+03</rscale>
<asrwt>0</asrwt>
<pdfrwt beam="1">  1        2 0.24257697E+00 0.30210894E+03</pdfrwt>
<pdfrwt beam="2">  1        1 0.89406061E-01 0.30210894E+03</pdfrwt>
<totfact> 0.62091674E+01</totfact>
</mgrwt>
</event>
<event>
 5    0  0.2917107E+000  0.3201541E+03  0.7546771E-02  0.1075578E+00
          2   -1    0    0  501    0  0.00000000000E+00  0.00000000000E+00  0.26948483726E+04  0.26948483726E+04  0.00000000000E+00 0.  1.
         -1   -1    0    0    0  501 -0.00000000000E+00 -0.00000000000E+00 -0.69542796610E+02  0.69542796610E+02  0.00000000000E+00 0. -1.
         25    1    1    2    0    0  0.16175522543E+03  0.22614737951E+03  0.67607011369E+03  0.74162199862E+03  0.12500000000E+03 0.  0.
          2    1    1    2  502    0 -0.17824630250E+03 -0.24200127235E+03  0.19694434862E+04  0.19922459701E+04  0.00000000000E+00 0.  1.
         -1    1    1    2    0  502  0.16491077072E+02  0.15853892840E+02 -0.20208023851E+02  0.30523200506E+02  0.00000000000E+00 0. -1.
<mgrwt>
<rscale>  4 0.32015410E+03</rscale>
<asrwt>0</asrwt>
<pdfrwt beam="1">  1        2 0.41459198E+00 0.32015410E+03</pdfrwt>
<pdfrwt beam="2">  1       -1 0.10698894E-01 0.32015410E+03</pdfrwt>
<totfact> 0.19297918E+02</totfact>
</mgrwt>
</event>
<event>
 5    0  0.2917107E+000  0.4941200E+03  0.7546771E-02  0.1015325E+00
          2   -1    0    0  502    0  0.00000000000E+00  0.00000000000E+00  0.16427896737E+04  0.16427896737E+04  0.00000000000E+00 0.  1.
          2   -1    0    0  501    0 -0.00000000000E+00 -0.00000000000E+00 -0.30306542786E+04  0.30306542786E+04  0.00000000000E+00 0.  1.
         25    1    1    2    0    0  0.36452010179E+03  0.19154304692E+03 -0.29057522645E+03  0.51925196741E+03  0.12500000000E+03 0.  0.
          2    1    1    2  501    0 -0.46584024550E+03 -0.15915785478E+03 -0.26007717791E+04  0.26469514926E+04  0.00000000000E+00 0.  1.
          2    1    1    2  502    0  0.10132014371E+03 -0.32385192145E+02  0.15034824007E+04  0.15072404923E+04  0.00000000000E+00 0.  1.
<mgrwt>
<rscale>  4 0.49412001E+03</rscale>
<asrwt>0</asrwt>
<pdfrwt beam="1">  1        2 0.25273687E+00 0.49412001E+03</pdfrwt>
<pdfrwt beam="2">  1        2 0.46625451E+00 0.49412001E+03</pdfrwt>
<totfact> 0.31541308E+00</totfact>
</mgrwt>
</event>
<event>
 5    0  0.2917107E+000  0.4512906E+03  0.7546771E-02  0.1027338E+00
          1   -1    0    0  502    0  0.00000000000E+00  0.00000000000E+00  0.20235627167E+04  0.20235627167E+04  0.00000000000E+00 0. -1.
          1   -1    0    0  501    0 -0.00000000000E+00 -0.00000000000E+00 -0.15146626282E+04  0.15146626282E+04  0.00000000000E+00 0. -1.
         25    1    1    2    0    0  0.40375559571E+03 -0.68900713373E+01  0.11267368518E+03  0.43747732910E+03  0.12500000000E+03 0.  0.
          1    1    1    2  501    0  0.33679766198E+02  0.13758626575E+01  0.17129355500E+04  0.17132671765E+04  0.00000000000E+00 0. -1.
          1    1    1    2  502    0 -0.43743536191E+03  0.55142086798E+01 -0.13167091467E+04  0.13874808393E+04  0.00000000000E+00 0. -1.
<mgrwt>
<rscale>  4 0.45129056E+03</rscale>
<asrwt>0</asrwt>
<pdfrwt beam="1">  1        1 0.31131734E+00 0.45129056E+03</pdfrwt>
<pdfrwt beam="2">  1        1 0.23302502E+00 0.45129056E+03</pdfrwt>
<totfact> 0.25097671E+00</totfact>
</mgrwt>
</event>
<event>
 5    0  0.2917107E+000  0.2893193E+03  0.7546771E-02  0.1090705E+00
         -1   -1    0    0    0  501 -0.00000000000E+00  0.00000000000E+00  0.31791293101E+03  0.31791293101E+03  0.00000000000E+00 0.  1.
          2   -1    0    0  501    0  0.00000000000E+00 -0.00000000000E+00 -0.45331174525E+03  0.45331174525E+03  0.00000000000E+00 0. -1.
         25    1    1    2    0    0  0.19102907568E+03  0.21655464798E+03 -0.40029153840E+02  0.31719923782E+03  0.12500000000E+03 0.  0.
          2    1    1    2  502    0 -0.61768087651E+02 -0.43110331766E+01 -0.18090642826E+03  0.19120935502E+03  0.00000000000E+00 0. -1.
         -1    1    1    2    0  502 -0.12926098803E+03 -0.21224361481E+03  0.85536767859E+02  0.26281608343E+03  0.00000000000E+00 0.  1.
<mgrwt>
<rscale>  4 0.28931930E+03</rscale>
<asrwt>0</asrwt>
<pdfrwt beam="1">  1        2 0.69740269E-01 0.28931930E+03</pdfrwt>
<pdfrwt beam="2">  1       -1 0.48909681E-01 0.28931930E+03</pdfrwt>
<totfact> 0.34065902E+02</totfact>
</mgrwt>
</event>
<event>
 5    0  0.2917107E+000  0.2347530E+03  0.7546771E-02  0.1123338E+00
          2   -1    0    0  502    0  0.00000000000E+00  0.00000000000E+00  0.14611811774E+04  0.14611811774E+04  0.00000000000E+00 0.  1.
          1   -1    0    0  501    0 -0.00000000000E+00 -0.00000000000E+00 -0.61447798944E+03  0.61447798944E+03  0.00000000000E+00 0.  1.
         25    1    1    2    0    0 -0.33311209656E+03 -0.78343227734E+02  0.47225175291E+03  0.59644618226E+03  0.12500000000E+03 0.  0.
          2    1    1    2  501    0  0.17843815307E+03  0.13291196631E+02  0.90512552561E+03  0.92264242667E+03  0.00000000000E+00 0.  1.
          1    1    1    2  502    0  0.15467394349E+03  0.65052031103E+02 -0.53067409056E+03  0.55657055791E+03  0.00000000000E+00 0.  1.
<mgrwt>
<rscale>  4 0.23475301E+03</rscale>
<asrwt>0</asrwt>
<pdfrwt beam="1">  1        2 0.22479710E+00 0.23475301E+03</pdfrwt>
<pdfrwt beam="2">  1        1 0.94535076E-01 0.23475301E+03</pdfrwt>
<totfact> 0.68049932E+01</totfact>
</mgrwt>
</event>
<event>
 5    0  0.2917107E+000  0.2272681E+03  0.7546771E-02  0.1128578E+00
          2   -1    0    0  502    0  0.00000000000E+00  0.00000000000E+00  0.29759308961E+03  0.29759308961E+03  0.00000000000E+00 0. -1.
          2   -1    0    0  501    0 -0.00000000000E+00 -0.00000000000E+00 -0.21902210703E+04  0.21902210703E+04  0.00000000000E+00 0.  1.
         25    1    1    2    0    0 -0.12409322609E+03 -0.25417312756E+03 -0.23063044915E+03  0.38577002425E+03  0.12500000000E+03 0.  0.
          2    1    1    2  501    0  0.53665475283E+02  0.83769703171E+02  0.20399657020E+03  0.22696243535E+03  0.00000000000E+00 0. -1.
          2    1    1    2  502    0  0.70427750808E+02  0.17040342439E+03 -0.18659941017E+04  0.18750817003E+04  0.00000000000E+00 0.  1.
<mgrwt>
<rscale>  4 0.22726807E+03</rscale>
<asrwt>0</asrwt>
<pdfrwt beam="1">  1        2 0.45783553E-01 0.22726807E+03</pdfrwt>
<pdfrwt beam="2">  1        2 0.33695708E+00 0.22726807E+03</pdfrwt>
<totfact> 0.10304793E+02</totfact>
</mgrwt>
</event>
<event>
 5    0  0.2917107E+000  0.1847096E+03  0.7546771E-02  0.1163321E+00
          2   -1    0    0  501    0  0.00000000000E+00  0.00000000000E+00  0.16300326580E+04  0.16300326580E+04  0.00000000000E+00 0.  1.
         -3   -1    0    0    0  501 -0.00000000000E+00 -0.00000000000E+00 -0.65863187756E+03  0.65863187756E+03  0.00000000000E+00 0.  1.
         25    1    1    2    0    0 -0.93116287002E+02  0.20414474526E+03  0.25512475761E+03  0.36202121743E+03  0.12500000000E+03 0.  0.
          2    1    1    2  502    0  0.22540506915E+02 -0.90351787631E+02  0.13123828813E+04  0.13156824644E+04  0.00000000000E+00 0.  1.
         -3    1    1    2    0  502  0.70575780087E+02 -0.11379295763E+03 -0.59610685853E+03  0.61096085368E+03  0.00000000000E+00 0.  1.
<mgrwt>
<rscale>  4 0.18470960E+03</rscale>
<asrwt>0</asrwt>
<pdfrwt beam="1">  1        2 0.25077425E+00 0.18470960E+03</pdfrwt>
<pdfrwt beam="2">  1       -3 0.10132798E+00 0.18470960E+03</pdfrwt>
<totfact> 0.65293279E+00</totfact>
</mgrwt>
</event>
<event>
 5    0  0.2917107E+000  0.2524475E+03  0.7546771E-02  0.1111768E+00
          3   -1    0    0  501    0 -0.00000000000E+00  0.00000000000E+00  0.58768556364E+02  0.58768556364E+02  0.00000000000E+00 0. -1.
          2   -1    0    0  502    0  0.00000000000E+00 -0.00000000000E+00 -0.26972731029E+04  0.26972731029E+04  0.00000000000E+00 0. -1.
         25    1    1    2    0    0 -0.20463873212E+03 -0.11368623552E+03 -0.12307149679E+04  0.12590019472E+04  0.12500000000E+03 0.  0.
          2    1    1    2  501    0  0.45049408977E+01  0.31188122684E+02 -0.11884537667E+04  0.11888714603E+04  0.00000000000E+00 0. -1.
          3    1    1    2  502    0  0.20013379122E+03  0.82498112831E+02 -0.21933581191E+03  0.30816825176E+03  0.00000000000E+00 0. -1.
<mgrwt>
<rscale>  4 0.25244751E+03</rscale>
<asrwt>0</asrwt>
<pdfrwt beam="1">  1        2 0.41496498E+00 0.25244751E+03</pdfrwt>
<pdfrwt beam="2">  1        3 0.90413189E-02 0.25244751E+03</pdfrwt>
<totfact> 0.17376050E+02</totfact>
</mgrwt>
</event>
<event>
 5    0  0.2917107E+000  0.4149924E+03  0.7546771E-02  0.1038709E+00
         -2   -1    0    0    0  501 -0.00000000000E+00  0.00000000000E+00  0.15710521291E+03  0.15710521291E+03  0.00000000000E+00 0.  1.
          2   -1    0    0  502    0  0.00000000000E+00 -0.00000000000E+00 -0.29843757428E+04  0.29843757428E+04  0.00000000000E+00 0.  1.
         25    1    1    2    0    0  0.28587419967E+03  0.15204454290E+03 -0.50540389826E+03  0.61310659876E+03  0.12500000000E+03 0.  0.
          2    1    1    2  502    0 -0.37024956914E+03 -0.19896747033E+03 -0.23792302985E+04  0.24160731800E+04  0.00000000000E+00 0.  1.
         -2    1    1    2    0  501  0.84375369467E+02  0.46922927426E+02  0.57363666817E+02  0.11230117703E+03  0.00000000000E+00 0.  1.
<mgrwt>
<rscale>  4 0.41499238E+03</rscale>
<asrwt>0</asrwt>
<pdfrwt beam="1">  1        2 0.45913471E+00 0.41499238E+03</pdfrwt>
<pdfrwt beam="2">  1       -2 0.24170034E-01 0.41499238E+03</pdfrwt>
<totfact> 0.30775437E+01</totfact>
</mgrwt>
</event>
<event>
 5    0  0.2917107E+000  0.3006278E+03  0.7546771E-02  0.1084927E+00
          2   -1    0    0  502    0  0.00000000000E+00  0.00000000000E+00  0.90622693901E+03  0.90622693901E+03  0.00000000000E+00 0. -1.
          2   -1    0    0  501    0 -0.00000000000E+00 -0.00000000000E+00 -0.16788401015E+03  0.16788401015E+03  0.00000000000E+00 0. -1.
         25    1    1    2    0    0 -0.12479581104E+03  0.34250533146E+03  0.29935203984E+03  0.48797596282E+03  0.12500000000E+03 0.  0.
          2    1    1    2  501    0  0.32411545425E+02 -0.12134344549E+03  0.63677198776E+02  0.14081734866E+03  0.00000000000E+00 0. -1.
          2    1    1    2  502    0  0.92384265616E+02 -0.22116188597E+03  0.37531369025E+03  0.44531763768E+03  0.00000000000E+00 0. -1.
<mgrwt>
<rscale>  4 0.30062779E+03</rscale>
<asrwt>0</asrwt>
<pdfrwt beam="1">  1        2 0.13941953E+00 0.30062779E+03</pdfrwt>
<pdfrwt beam="2">  1        2 0.25828310E-01 0.30062779E+03</pdfrwt>
<totfact> 0.96256180E+02</totfact>
</mgrwt>
</event>
<event>
 5    0  0.2917107E+000  0.2437249E+03  0.7546771E-02  0.1117336E+00
          2   -1    0    0  502    0  0.00000000000E+00  0.00000000000E+00  0.11979652745E+04  0.11979652745E+04  0.00000000000E+00 0. -1.
          2   -1    0    0  501    0 -0.00000000000E+00 -0.00000000000E+00 -0.29109773091E+03  0.29109773091E+03  0.00000000000E+00 0. -1.
         25    1    1    2    0    0  0.40381487392E+02  0.19791780503E+03  0.61710534399E+03  0.66124589046E+03  0.12500000000E+03 0.  0.
          2    1    1    2  501    0 -0.70649837475E+01 -0.21754274681E+03  0.53602847033E+03  0.57853373427E+03  0.00000000000E+00 0. -1.
          2    1    1    2  502    0 -0.33316503644E+02  0.19624941781E+02 -0.24626627076E+03  0.24928338065E+03  0.00000000000E+00 0. -1.
<mgrwt>
<rscale>  4 0.24372488E+03</rscale>
<asrwt>0</asrwt>
<pdfrwt beam="1">  1        2 0.18430235E+00 0.24372488E+03</pdfrwt>
<pdfrwt beam="2">  1        2 0.44784267E-01 0.24372488E+03</pdfrwt>
<totfact> 0.35393003E+02</totfact>
</mgrwt>
</event>
<event>
 5    0  0.2917107E+000  0.3137786E+03  0.7546771E-02  0.1078549E+00
         -1   -1    0    0    0  501  0.00000000000E+00  0.00000000000E+00  0.23315254920E+03  0.23315254920E+03  0.00000000000E+00 0.  1.
         -3   -1    0    0    0  502 -0.00000000000E+00 -0.00000000000E+00 -0.17235423083E+04  0.17235423083E+04  0.00000000000E+00 0.  1.
         25    1    1    2    0    0 -0.16930427470E+03 -0.13788834879E+03 -0.69072266881E+03  0.73511899674E+03  0.12500000000E+03 0.  0.
         -1    1    1    2    0  502  0.23136956867E+03  0.18805520359E+03  0.10295669107E+03  0.31543100218E+03  0.00000000000E+00 0.  1.
         -3    1    1    2    0  501 -0.62065293972E+02 -0.50166854798E+02 -0.90262378140E+03  0.90614485861E+03  0.00000000000E+00 0.  1.
<mgrwt>
<rscale>  4 0.31377858E+03</rscale>
<asrwt>0</asrwt>
<pdfrwt beam="1">  1       -1 0.35869623E-01 0.31377858E+03</pdfrwt>
<pdfrwt beam="2">  1       -3 0.26516035E+00 0.31377858E+03</pdfrwt>
<totfact> 0.22517274E+00</totfact>
</mgrwt>
</event>
<event>
 5    0  0.2917107E+000  0.3806223E+03  0.7546771E-02  0.1050704E+00
         -2   -1    0    0    0  501 -0.00000000000E+00  0.00000000000E+00  0.49181175815E+03  0.49181175815E+03  0.00000000000E+00 0. -1.
          3   -1    0    0  501    0  0.00000000000E+00 -0.00000000000E+00 -0.11846906173E+04  0.11846906173E+04  0.00000000000E+00 0.  1.
         25    1    1    2    0    0  0.39605138213E+03 -0.25241839582E+03 -0.32941971689E+03  0.58712357619E+03  0.12500000000E+03 0.  0.
          3    1    1    2  502    0 -0.90825217623E+02  0.10184549043E+03 -0.63779753314E+03  0.65223264051E+03  0.00000000000E+00 0.  1.
         -2    1    1    2    0  502 -0.30522616451E+03  0.15057290539E+03  0.27433839093E+03  0.43714615871E+03  0.00000000000E+00 0. -1.
<mgrwt>
<rscale>  4 0.38062230E+03</rscale>
<asrwt>0</asrwt>
<pdfrwt beam="1">  1        3 0.18226010E+00 0.38062230E+03</pdfrwt>
<pdfrwt beam="2">  1       -2 0.75663347E-01 0.38062230E+03</pdfrwt>
<totfact> 0.13022763E+00</totfact>
</mgrwt>
</event>
<event>
 5    0  0.2917107E+000  0.3014147E+03  0.7546771E-02  0.1084536E+00
          2   -1    0    0  502    0  0.00000000000E+00  0.00000000000E+00  0.15803296542E+03  0.15803296542E+03  0.00000000000E+00 0.  1.
         -2   -1    0    0    0  501 -0.00000000000E+00 -0.00000000000E+00 -0.64773331895E+03  0.64773331895E+03  0.00000000000E+00 0.  1.
         25    1    1    2    0    0 -0.21157229539E+03  0.19781865954E+03 -0.30809206924E+03  0.44095439829E+03  0.12500000000E+03 0.  0.
          2    1    1    2  502    0 -0.59532963402E+01 -0.56905652992E+02 -0.32712490171E+02  0.65907526831E+02  0.00000000000E+00 0.  1.
         -2    1    1    2    0  501  0.21752559173E+03 -0.14091300655E+03 -0.14889579412E+03  0.29890435925E+03  0.00000000000E+00 0.  1.
<mgrwt>
<rscale>  4 0.30141470E+03</rscale>
<asrwt>0</asrwt>
<pdfrwt beam="1">  1        2 0.24312764E-01 0.30141470E+03</pdfrwt>
<pdfrwt beam="2">  1       -2 0.99651281E-01 0.30141470E+03</pdfrwt>
<totfact> 0.19269019E+02</totfact>
</mgrwt>
</event>
<event>
 5    0  0.2917107E+000  0.2896890E+03  0.7546771E-02  0.1090512E+00
          2   -1    0    0  502    0  0.00000000000E+00  0.00000000000E+00  0.84796633203E+03  0.84796633203E+03  0.00000000000E+00 0.  1.
          2   -1    0    0  501    0 -0.00000000000E+00 -0.00000000000E+00 -0.27808486212E+03  0.27808486212E+03  0.00000000000E+00 0. -1.
         25    1    1    2    0    0 -0.15800170868E+03  0.18361245424E+03  0.57415743276E+03  0.63557834363E+03  0.12500000000E+03 0.  0.
          2    1    1    2  501    0  0.16626095045E+03 -0.20450948617E+03 -0.17623125489E+03  0.31705565564E+03  0.00000000000E+00 0. -1.
          2    1    1    2  502    0 -0.82592417654E+01  0.20897031929E+02  0.17195529204E+03  0.17341719487E+03  0.00000000000E+00 0.  1.
<mgrwt>
<rscale>  4 0.28968901E+03</rscale>
<asrwt>0</asrwt>
<pdfrwt beam="1">  1        2 0.13045636E+00 0.28968901E+03</pdfrwt>
<pdfrwt beam="2">  1        2 0.42782287E-01 0.28968901E+03</pdfrwt>
<totfact> 0.60414989E+02</totfact>
</mgrwt>
</event>
<event>
 5    0  0.2917107E+000  0.2815982E+03  0.7546771E-02  0.1094819E+00
          2   -1    0    0  502    0  0.00000000000E+00  0.00000000000E+00  0.13427869394E+04  0.13427869394E+04  0.00000000000E+00 0. -1.
          1   -1    0    0  501    0 -0.00000000000E+00 -0.00000000000E+00 -0.48909757284E+03  0.48909757284E+03  0.00000000000E+00 0.  1.
         25    1    1    2    0    0 -0.22897934095E+03 -0.14439370590E+03  0.11606037684E+04  0.11982934482E+04  0.12500000000E+03 0.  0.
          2    1    1    2  501    0  0.19853085301E+03  0.33877858159E+02  0.89897168240E+02  0.22055319024E+03  0.00000000000E+00 0. -1.
          1    1    1    2  502    0  0.30448487940E+02  0.11051584774E+03 -0.39681157007E+03  0.41303787376E+03  0.00000000000E+00 0.  1.
<mgrwt>
<rscale>  4 0.28159820E+03</rscale>
<asrwt>0</asrwt>
<pdfrwt beam="1">  1        2 0.20658260E+00 0.28159820E+03</pdfrwt>
<pdfrwt beam="2">  1        1 0.75245781E-01 0.28159820E+03</pdfrwt>
<totfact> 0.10576736E+02</totfact>
</mgrwt>
</event>
<event>
 5    0  0.2917107E+000  0.3476381E+03  0.7546771E-02  0.1063589E+00
          2   -1    0    0  502    0  0.00000000000E+00  0.00000000000E+00  0.18316068862E+04  0.18316068862E+04  0.00000000000E+00 0. -1.
          2   -1    0    0  501    0 -0.00000000000E+00 -0.00000000000E+00 -0.60829907152E+03  0.60829907152E+03  0.00000000000E+00 0. -1.
         25    1    1    2    0    0  0.34027805035E+03  0.44586334473E+02  0.42104051555E+03  0.55738425571E+03  0.12500000000E+03 0.  0.
          2    1    1    2  501    0 -0.31697149893E+03 -0.37322955551E+02  0.13231340119E+04  0.13610832258E+04  0.00000000000E+00 0. -1.
          2    1    1    2  502    0 -0.23306551419E+02 -0.72633789223E+01 -0.52086671276E+03  0.52143847621E+03  0.00000000000E+00 0. -1.
<mgrwt>
<rscale>  4 0.34763808E+03</rscale>
<asrwt>0</asrwt>
<pdfrwt beam="1">  1        2 0.28178567E+00 0.34763808E+03</pdfrwt>
<pdfrwt beam="2">  1        2 0.93584473E-01 0.34763808E+03</pdfrwt>
<totfact> 0.68759076E+01</totfact>
</mgrwt>
</event>
<event>
 5    0  0.2917107E+000  0.2200474E+03  0.7546771E-02  0.1133848E+00
         -1   -1    0    0    0  501 -0.00000000000E+00  0.00000000000E+00  0.82849885882E+03  0.82849885882E+03  0.00000000000E+00 0. -1.
          2   -1    0    0  501    0  0.00000000000E+00 -0.00000000000E+00 -0.36663171312E+03  0.36663171312E+03  0.00000000000E+00 0. -1.
         25    1    1    2    0    0  0.18391132155E+03 -0.19252109113E+03 -0.93784195429E+02  0.30872029417E+03  0.12500000000E+03 0.  0.
          2    1    1    2  502    0 -0.57874135923E+02  0.14405021929E+03 -0.12074242054E+03  0.19666879113E+03  0.00000000000E+00 0. -1.
         -1    1    1    2    0  502 -0.12603718562E+03  0.48470871839E+02  0.67639376167E+03  0.68974148665E+03  0.00000000000E+00 0. -1.
<mgrwt>
<rscale>  4 0.22004745E+03</rscale>
<asrwt>0</asrwt>
<pdfrwt beam="1">  1        2 0.56404879E-01 0.22004745E+03</pdfrwt>
<pdfrwt beam="2">  1       -1 0.12746136E+00 0.22004745E+03</pdfrwt>
<totfact> 0.58492729E+01</totfact>
</mgrwt>
</event>
<event>
 5    0  0.2917107E+000  0.3037950E+03  0.7546771E-02  0.1083359E+00
          3   -1    0    0  501    0 -0.00000000000E+00  0.00000000000E+00  0.59479340685E+03  0.59479340685E+03  0.00000000000E+00 0. -1.
          2   -1    0    0  502    0  0.00000000000E+00 -0.00000000000E+00 -0.12257441845E+04  0.12257441845E+04  0.00000000000E+00 0.  1.
         25    1    1    2    0    0  0.24329872852E+03 -0.11686847556E+03  0.39838337513E+02  0.30010765571E+03  0.12500000000E+03 0.  0.
          2    1    1    2  501    0 -0.25789174154E+03  0.10291421749E+03 -0.10777623975E+04  0.11129560961E+04  0.00000000000E+00 0.  1.
          3    1    1    2  502    0  0.14593013023E+02  0.13954258076E+02  0.40697328233E+03  0.40747383950E+03  0.00000000000E+00 0. -1.
<mgrwt>
<rscale>  4 0.30379499E+03</rscale>
<asrwt>0</asrwt>
<pdfrwt beam="1">  1        2 0.18857603E+00 0.30379499E+03</pdfrwt>
<pdfrwt beam="2">  1        3 0.91506678E-01 0.30379499E+03</pdfrwt>
<totfact> 0.13202364E+01</totfact>
</mgrwt>
</event>
