<LesHouchesEvents version="3.0">
  <!--
  <scalesfunctionalform>
    muR  H_T/2 := sum_i mT(i)/2, i=final state
    muF1 H_T/2 := sum_i mT(i)/2, i=final state
    muF2 H_T/2 := sum_i mT(i)/2, i=final state
    QES  H_T/2 := sum_i mT(i)/2, i=final state
  </scalesfunctionalform>
HERWIG6   
  -->
  <header>
        5
  </header>
  <init>
   2212   2212 0.65000000D+04 0.65000000D+04 -1 -1   244800   244800 -4   1
 0.40921639D-05 0.26374579D-06 0.15053384D-05     66
  </init>
  <event>
  5     66 0.15053384E-05 0.54682960E+02 0.75467711E-02 0.94573166E-01
       -3 -1    0    0    0  501 0.00000000E+00 0.00000000E+00 0.11130722E+04 0.11130723E+04 0.50000000E+00 0.0000E+00 0.9000E+01
       -3 -1    0    0    0  502 0.00000000E+00 0.00000000E+00 -.77390830E+03 0.77390846E+03 0.50000000E+00 0.0000E+00 0.9000E+01
       25  1    1    2    0    0 -.39434581E+03 -.25124795E+03 0.17887353E+03 0.51599892E+03 0.12500000E+03 0.0000E+00 0.9000E+01
       -3  1    1    2    0  501 -.25011139E+02 0.48646762E+02 0.67478513E+03 0.67699873E+03 0.50000000E+00 0.0000E+00 0.9000E+01
       -3  1    1    2    0  502 0.41935695E+03 0.20260119E+03 -.51449474E+03 0.69398313E+03 0.50000000E+00 0.0000E+00 0.9000E+01
#aMCatNLO 1  0  0  0  0 0.00000000D+00 0.00000000D+00  -5  6  0 0.00000000D+00 0.00000000D+00 0.00000000D+00 0.00000000D+00 0.00000000D+00
  <mgrwgt>
 0.9719296143D-04    7    4    0
 0.928125035456034D+03 0.000000000000000D+00 0.000000000000000D+00 0.928125035456034D+03
 0.928125035456034D+03 0.000000000000000D+00 0.000000000000000D+00 -.928125035456034D+03
 0.491990774685934D+03 -.394453396549595D+03 -.251288088130035D+03 0.876968476657213D+02
 0.564739763555586D+03 -.250034542593364D+02 0.486318145877547D+02 0.562086091649511D+03
 0.799519532670549D+03 0.419456850808931D+03 0.202656273542280D+03 -.649782939315233D+03
 0.000000000000000D+00 -.000000000000000D+00 -.000000000000000D+00 0.000000000000000D+00
 0.112798426320345D+04 0.000000000000000D+00 0.000000000000000D+00 0.112798426320345D+04
 0.965092777944669D+03 0.000000000000000D+00 0.000000000000000D+00 -.965092777944669D+03
 0.458073157887737D+03 -.374557577792946D+03 -.214992794773732D+03 0.876968476657213D+02
 0.569561227355110D+03 -.124942449682147D+01 0.919655164660291D+02 0.562086091649511D+03
 0.835675477850871D+03 0.453700381634252D+03 0.265125630147431D+03 -.649782939315233D+03
 0.229767178054402D+03 -.778933793444844D+02 -.142098351839728D+03 0.162891485258783D+03
 0.928125035456034D+03 0.000000000000000D+00 0.000000000000000D+00 0.928125035456034D+03
 0.928125035456034D+03 0.000000000000000D+00 0.000000000000000D+00 -.928125035456034D+03
 0.491990774685934D+03 -.394453396549595D+03 -.251288088130035D+03 0.876968476657213D+02
 0.000000000000000D+00 -.000000000000000D+00 -.000000000000000D+00 0.000000000000000D+00
 0.564739763555586D+03 -.250034542593364D+02 0.486318145877547D+02 0.562086091649511D+03
 0.799519532670549D+03 0.419456850808931D+03 0.202656273542280D+03 -.649782939315233D+03
 0.112798426320345D+04 0.000000000000000D+00 0.000000000000000D+00 0.112798426320345D+04
 0.965092777944669D+03 0.000000000000000D+00 0.000000000000000D+00 -.965092777944669D+03
 0.458073157887737D+03 -.374557577792946D+03 -.214992794773732D+03 0.876968476657213D+02
 0.229767178054402D+03 -.778933793444844D+02 -.142098351839728D+03 0.162891485258783D+03
 0.569561227355110D+03 -.124942449682147D+01 0.919655164660291D+02 0.562086091649511D+03
 0.835675477850871D+03 0.453700381634252D+03 0.265125630147431D+03 -.649782939315233D+03
0.102927651626D-02 0.000000000000D+00 0.000000000000D+00 0.940375949294D-05 0.000000000000D+00  6 -3 -3 25 -3 -3 21 0 0.17124190D+00 0.11906284D+00 0.25232634D+06 0.25232634D+06 0.25232634D+06 0.10901566D+01  1  2  2  1  6  1       -3 0.328420656423D-04 0.100000000000D+01
0.371496589141D-03 0.000000000000D+00 -.395269283715D-05 0.940375949294D-05 0.000000000000D+00  6 -3 -3 25 -3 -3 21 2 0.17124190D+00 0.11906284D+00 0.25232634D+06 0.25232634D+06 0.25232634D+06 0.10901566D+01  1  2  3  1  6  1       -3 0.140874057506D-04 0.100000000000D+01
-.592487673774D-03 0.000000000000D+00 0.000000000000D+00 0.940375949294D-05 0.000000000000D+00  6 -3 -3 25 -3 -3 21 2 0.17124190D+00 0.11906284D+00 0.25232634D+06 0.25232634D+06 0.25232634D+06 0.10901566D+01  1  2 15  1  6  1       -3 -.224675394247D-04 0.100000000000D+01
-.361214180353D-04 0.000000000000D+00 0.000000000000D+00 0.940375949294D-05 0.000000000000D+00  6 -3 -3 25 -3 -3 21 2 0.17124190D+00 0.11906284D+00 0.25232634D+06 0.25232634D+06 0.25232634D+06 0.10901566D+01  1  2  4  1  6  1       -3 -.136974897488D-05 0.100000000000D+01
-.464500141219D-02 0.000000000000D+00 -.111829266950D-02 0.940375949294D-05 0.000000000000D+00  6 -3 -3 25 -3 -3 21 2 0.21198054D+00 0.11906284D+00 0.25232634D+06 0.25232634D+06 0.25232634D+06 0.10901566D+01  1  2  5  1  6  1       -3 -.692732877149D-04 0.100000000000D+01
0.479895302694D-02 0.000000000000D+00 0.109329979017D-02 0.940375949294D-05 0.000000000000D+00  6 -3 -3 25 -3 -3 21 2 0.17124190D+00 0.11906284D+00 0.25232634D+06 0.25232634D+06 0.25232634D+06 0.10901566D+01  1  2  6  1  6  1       -3 0.181979594011D-03 0.100000000000D+01
-.125279767175D-03 0.000000000000D+00 -.336259423292D-04 0.940375949294D-05 0.000000000000D+00  6 21 -3 25 3 -3 -3 2 0.21198054D+00 0.11906284D+00 0.25232634D+06 0.25232634D+06 0.25232634D+06 0.10901566D+01  3  4  5  4  4  1       -3 -.386055278594D-04 0.100000000000D+01
  </mgrwgt>
  </event>
  <event>
  5     66 -.15053384E-05 0.14746390E+03 0.75467711E-02 0.91713795E-01
       -1 -1    0    0    0  501 0.00000000E+00 0.00000000E+00 0.19185972E+04 0.19185972E+04 0.32000000E+00 0.0000E+00 0.9000E+01
       -1 -1    0    0    0  502 0.00000000E+00 0.00000000E+00 -.13761333E+04 0.13761333E+04 0.32000000E+00 0.0000E+00 0.9000E+01
       25  1    1    2    0    0 -.67956117E+02 0.63750365E+03 -.41153854E+03 0.77202196E+03 0.12500000E+03 0.0000E+00 0.9000E+01
       -1  1    1    2    0  501 0.12044657E+02 -.50105932E+03 0.16948105E+04 0.17673676E+04 0.32000000E+00 0.0000E+00 0.9000E+01
       -1  1    1    2    0  502 0.55911460E+02 -.13644433E+03 -.74080809E+03 0.75534090E+03 0.32000000E+00 0.0000E+00 0.9000E+01
#aMCatNLO 1  0  0  2  5 0.31370600D+01 0.00000000D+00  -5  6  0 0.00000000D+00 0.00000000D+00 0.00000000D+00 0.00000000D+00 0.00000000D+00
  <mgrwgt>
 -.7879901089D-04   13    4    0
 0.162488323071761D+04 0.000000000000000D+00 0.000000000000000D+00 0.162488323071761D+04
 0.162488323071761D+04 0.000000000000000D+00 0.000000000000000D+00 -.162488323071761D+04
 0.851372224286299D+03 -.679588132716921D+02 0.637507876782310D+03 -.546054000100188D+03
 0.150890564555667D+04 0.120445697683052D+02 -.501055690400000D+03 0.142323377231208D+04
 0.889488591592252D+03 0.559142435033870D+02 -.136452186382309D+03 -.877179772211888D+03
 0.000000000000000D+00 0.000000000000000D+00 -.000000000000000D+00 -.000000000000000D+00
 0.162489627707875D+04 0.000000000000000D+00 0.000000000000000D+00 0.162489627707875D+04
 0.182508149531074D+04 0.000000000000000D+00 0.000000000000000D+00 -.182508149531074D+04
 0.851986255426739D+03 -.681514833328243D+02 0.638307123358495D+03 -.546054000100188D+03
 0.150843341494131D+04 0.117032729079163D+02 -.499639900393366D+03 0.142323377231208D+04
 0.889348305198001D+03 0.557130359374338D+02 -.135617523969033D+03 -.877179772211888D+03
 0.200209796823434D+03 0.735174487474292D+00 -.304969899609705D+01 -.200185218231984D+03
 0.162488323071761D+04 0.000000000000000D+00 0.000000000000000D+00 0.162488323071761D+04
 0.162488323071761D+04 0.000000000000000D+00 0.000000000000000D+00 -.162488323071761D+04
 0.851372224286299D+03 -.679588132716921D+02 0.637507876782310D+03 -.546054000100188D+03
 0.000000000000000D+00 0.000000000000000D+00 -.000000000000000D+00 -.000000000000000D+00
 0.150890564555667D+04 0.120445697683052D+02 -.501055690400000D+03 0.142323377231208D+04
 0.889488591592252D+03 0.559142435033870D+02 -.136452186382309D+03 -.877179772211888D+03
 0.162489627707875D+04 0.000000000000000D+00 0.000000000000000D+00 0.162489627707875D+04
 0.182508149531074D+04 0.000000000000000D+00 0.000000000000000D+00 -.182508149531074D+04
 0.851986255426739D+03 -.681514833328243D+02 0.638307123358495D+03 -.546054000100188D+03
 0.200209796823434D+03 0.735174487474292D+00 -.304969899609705D+01 -.200185218231984D+03
 0.150843341494131D+04 0.117032729079163D+02 -.499639900393366D+03 0.142323377231208D+04
 0.889348305198001D+03 0.557130359374338D+02 -.135617523969033D+03 -.877179772211888D+03
0.259412101142D-04 0.000000000000D+00 0.000000000000D+00 0.666693469421D-05 0.000000000000D+00  6 -1 -1 25 -1 -1 21 0 0.29516880D+00 0.21171282D+00 0.42370743D+06 0.42370743D+06 0.42370743D+06 0.10736296D+01  1  2  2  2  6  2       -1 0.744042260669D-07 0.100000000000D+01
0.404659077375D-05 0.000000000000D+00 -.996210773161D-07 0.666693469421D-05 0.000000000000D+00  6 -1 -1 25 -1 -1 21 2 0.29516880D+00 0.21171282D+00 0.42370743D+06 0.42370743D+06 0.42370743D+06 0.10736296D+01  1  2  3  2  6  2       -1 0.133784438638D-07 0.100000000000D+01
-.151116828524D-04 0.000000000000D+00 0.000000000000D+00 0.666693469421D-05 0.000000000000D+00  6 -1 -1 25 -1 -1 21 2 0.29516880D+00 0.21171282D+00 0.42370743D+06 0.42370743D+06 0.42370743D+06 0.10736296D+01  1  2 15  2  6  2       -1 -.499607724211D-07 0.100000000000D+01
0.637932947817D-02 0.000000000000D+00 0.000000000000D+00 0.666693469421D-05 0.000000000000D+00  6 -1 -1 25 -1 -1 21 2 0.29516880D+00 0.23803456D+00 0.42479201D+06 0.42479201D+06 0.42479201D+06 0.10735500D+01  1  2 12  2  6  2       -1 0.128327365565D-04 0.100000000000D+01
0.387208445056D-09 0.000000000000D+00 0.000000000000D+00 0.666693469421D-05 0.000000000000D+00  6 -1 -1 25 -1 -1 21 2 0.29516880D+00 0.23779837D+00 0.42479201D+06 0.42479201D+06 0.42479201D+06 0.10735500D+01  1  2 12  2  6  2       -1 0.782416042867D-12 0.100000000000D+01
-.367636122714D+00 0.000000000000D+00 0.000000000000D+00 0.666693469421D-05 0.000000000000D+00  6 -1 -1 25 -1 -1 21 2 0.29516880D+00 0.21171282D+00 0.42370743D+06 0.42370743D+06 0.42370743D+06 0.10736296D+01  1  2  4  2  6  2       -1 -.121544270351D-02 0.100000000000D+01
-.302058593057D+00 0.000000000000D+00 -.416399257509D-04 0.666693469421D-05 0.000000000000D+00  6 -1 -1 25 -1 -1 21 2 0.29516880D+00 0.23779817D+00 0.42370743D+06 0.42370743D+06 0.42370743D+06 0.10736296D+01  1  2  5  2  6  2       -1 -.610644925066D-03 0.100000000000D+01
0.300036115313D+00 0.000000000000D+00 0.413604187418D-04 0.666693469421D-05 0.000000000000D+00  6 -1 -1 25 -1 -1 21 2 0.29516880D+00 0.21171282D+00 0.42370743D+06 0.42370743D+06 0.42370743D+06 0.10736296D+01  1  2  6  2  6  2       -1 0.991950150203D-03 0.100000000000D+01
0.366887124445D+00 0.000000000000D+00 0.000000000000D+00 0.666693469421D-05 0.522137973811D-05  6 -1 -1 25 -1 -1 21 2 0.29517117D+00 0.23779748D+00 0.42479201D+06 0.42479201D+06 0.42479201D+06 0.10735500D+01  1  2 11  2  6  2       -1 0.741330085891D-03 0.100000000000D+01
0.118643670568D-03 0.000000000000D+00 0.000000000000D+00 0.666693469421D-05 0.000000000000D+00  6 -1 21 25 1 -1 -1 2 0.29516880D+00 0.23803456D+00 0.42479201D+06 0.42479201D+06 0.42479201D+06 0.10735500D+01  3  4 12  5  4  2       -1 0.164810575305D-05 0.100000000000D+01
0.714980254083D-11 0.000000000000D+00 0.000000000000D+00 0.666693469421D-05 0.000000000000D+00  6 -1 21 25 1 -1 -1 2 0.29516880D+00 0.23779837D+00 0.42479201D+06 0.42479201D+06 0.42479201D+06 0.10735500D+01  3  4 12  5  4  2       -1 0.996973817018D-13 0.100000000000D+01
-.557729517187D-02 0.000000000000D+00 -.768876366171D-06 0.666693469421D-05 0.000000000000D+00  6 -1 21 25 1 -1 -1 2 0.29516880D+00 0.23779817D+00 0.42370743D+06 0.42370743D+06 0.42370743D+06 0.10736296D+01  3  4  5  5  4  2       -1 -.778123666065D-04 0.100000000000D+01
0.554391272849D-02 0.000000000000D+00 0.000000000000D+00 0.666693469421D-05 0.786421324246D-07  6 -1 21 25 1 -1 -1 2 0.29517117D+00 0.23779748D+00 0.42479201D+06 0.42479201D+06 0.42479201D+06 0.10735500D+01  3  4 11  5  4  2       -1 0.773020831093D-04 0.100000000000D+01
  </mgrwgt>
  </event>
  <event>
  5     66 0.15053384E-05 0.90967216E+02 0.75467711E-02 0.92605646E-01
       -1 -1    0    0    0  501 0.00000000E+00 0.00000000E+00 0.12723188E+04 0.12723189E+04 0.32000000E+00 0.0000E+00 0.9000E+01
       -1 -1    0    0    0  502 0.00000000E+00 0.00000000E+00 -.41323711E+03 0.41323723E+03 0.32000000E+00 0.0000E+00 0.9000E+01
       25  1    1    2    0    0 -.48955364E+03 0.14023602E+03 0.38748908E+03 0.65199823E+03 0.12500000E+03 0.0000E+00 0.9000E+01
       -1  1    1    2    0  501 0.90816958E+02 0.58981628E+01 0.58657658E+03 0.59359472E+03 0.32000000E+00 0.0000E+00 0.9000E+01
       -1  1    1    2    0  502 0.39873668E+03 -.14613418E+03 -.11498396E+03 0.43996313E+03 0.32000000E+00 0.0000E+00 0.9000E+01
#aMCatNLO 1  0  0  1  4 0.17293083D+02 0.00000000D+00  -5  6  0 0.00000000D+00 0.00000000D+00 0.00000000D+00 0.00000000D+00 0.00000000D+00
  <mgrwgt>
 0.2572252400D-03    7    4    0
 0.725099638671056D+03 0.000000000000000D+00 0.000000000000000D+00 0.725099638671056D+03
 0.725099638671056D+03 0.000000000000000D+00 0.000000000000000D+00 -.725099638671056D+03
 0.528347540653095D+03 -.489609708140884D+03 0.140268146364941D+03 0.642907810165313D+02
 0.342294790332519D+03 0.907759743575877D+02 0.589550110988798D+01 0.329985892175525D+03
 0.579556946356497D+03 0.398833733783297D+03 -.146163647474829D+03 -.394276673192056D+03
 0.000000000000000D+00 -.000000000000000D+00 0.000000000000000D+00 0.000000000000000D+00
 0.119317921473607D+04 0.000000000000000D+00 0.000000000000000D+00 0.119317921473607D+04
 0.737485830815396D+03 0.000000000000000D+00 0.000000000000000D+00 -.737485830815396D+03
 0.499312433661628D+03 -.468907178183112D+03 0.983903457343954D+02 0.642907810165313D+02
 0.346895896771943D+03 0.104659935203598D+03 -.221894597841427D+02 0.329985892175525D+03
 0.609996881061998D+03 0.422797665788079D+03 -.194638726069919D+03 -.394276673192056D+03
 0.474459834055896D+03 -.585504228085659D+02 0.118437840119666D+03 0.455693383920674D+03
 0.725099638671056D+03 0.000000000000000D+00 0.000000000000000D+00 0.725099638671056D+03
 0.725099638671056D+03 0.000000000000000D+00 0.000000000000000D+00 -.725099638671056D+03
 0.528347540653095D+03 -.489609708140884D+03 0.140268146364941D+03 0.642907810165313D+02
 0.000000000000000D+00 -.000000000000000D+00 0.000000000000000D+00 0.000000000000000D+00
 0.342294790332519D+03 0.907759743575877D+02 0.589550110988798D+01 0.329985892175525D+03
 0.579556946356497D+03 0.398833733783297D+03 -.146163647474829D+03 -.394276673192056D+03
 0.119317921473607D+04 0.000000000000000D+00 0.000000000000000D+00 0.119317921473607D+04
 0.737485830815396D+03 0.000000000000000D+00 0.000000000000000D+00 -.737485830815396D+03
 0.499312433661628D+03 -.468907178183112D+03 0.983903457343954D+02 0.642907810165313D+02
 0.474459834055896D+03 -.585504228085659D+02 0.118437840119666D+03 0.455693383920674D+03
 0.346895896771943D+03 0.104659935203598D+03 -.221894597841427D+02 0.329985892175525D+03
 0.609996881061998D+03 0.422797665788079D+03 -.194638726069919D+03 -.394276673192056D+03
0.733236558795D-04 0.000000000000D+00 0.000000000000D+00 0.568458095417D-06 0.000000000000D+00  6 -1 -1 25 -1 -1 21 0 0.19574137D+00 0.63574953D-01 0.27048409D+06 0.27048409D+06 0.27048409D+06 0.10878954D+01  1  2  2  1  6  1       -1 0.333695251601D-04 0.100000000000D+01
0.130930074166D-04 0.000000000000D+00 -.281582145139D-06 0.568458095417D-06 0.000000000000D+00  6 -1 -1 25 -1 -1 21 2 0.19574137D+00 0.63574953D-01 0.27048409D+06 0.27048409D+06 0.27048409D+06 0.10878954D+01  1  2  3  1  6  1       -1 0.705211887588D-05 0.100000000000D+01
-.351602073346D-04 0.000000000000D+00 0.000000000000D+00 0.568458095417D-06 0.000000000000D+00  6 -1 -1 25 -1 -1 21 2 0.19574137D+00 0.63574953D-01 0.27048409D+06 0.27048409D+06 0.27048409D+06 0.10878954D+01  1  2 15  1  6  1       -1 -.189378921079D-04 0.100000000000D+01
-.793188822631D-04 0.000000000000D+00 0.000000000000D+00 0.568458095417D-06 0.000000000000D+00  6 -1 -1 25 -1 -1 21 2 0.19574137D+00 0.63574953D-01 0.27048409D+06 0.27048409D+06 0.27048409D+06 0.10878954D+01  1  2  4  1  6  1       -1 -.427225135542D-04 0.100000000000D+01
-.651673009472D-03 0.000000000000D+00 -.415077263015D-04 0.568458095417D-06 0.000000000000D+00  6 -1 -1 25 -1 -1 21 2 0.32359323D+00 0.63574953D-01 0.27048409D+06 0.27048409D+06 0.27048409D+06 0.10878954D+01  1  2  5  1  6  1       -1 -.286638568249D-04 0.100000000000D+01
0.599878130079D-03 0.000000000000D+00 0.367639497552D-04 0.568458095417D-06 0.000000000000D+00  6 -1 -1 25 -1 -1 21 2 0.19574137D+00 0.63574953D-01 0.27048409D+06 0.27048409D+06 0.27048409D+06 0.10878954D+01  1  2  6  1  6  1       -1 0.323104673338D-03 0.100000000000D+01
-.350164162990D-04 0.000000000000D+00 -.235030839685D-05 0.568458095417D-06 0.000000000000D+00  6 21 -1 25 1 -1 -1 2 0.32359323D+00 0.63574953D-01 0.27048409D+06 0.27048409D+06 0.27048409D+06 0.10878954D+01  3  4  5  4  4  1       -1 -.159768148878D-04 0.100000000000D+01
  </mgrwgt>
  </event>
  <event>
  5     66 0.15053384E-05 0.11159782E+03 0.75467711E-02 0.94976126E-01
       -1 -1    0    0    0  501 0.00000000E+00 0.00000000E+00 0.62643370E+03 0.62643378E+03 0.32000000E+00 0.0000E+00 0.9000E+01
       -1 -1    0    0    0  502 0.00000000E+00 0.00000000E+00 -.39475663E+03 0.39475676E+03 0.32000000E+00 0.0000E+00 0.9000E+01
       25  1    1    2    0    0 -.41134857E+03 0.18288295E+03 0.47705053E+01 0.46722754E+03 0.12500000E+03 0.0000E+00 0.9000E+01
       -1  1    1    2    0  501 0.27914857E+02 -.10827000E+03 0.76030116E+02 0.13521210E+03 0.32000000E+00 0.0000E+00 0.9000E+01
       -1  1    1    2    0  502 0.38343371E+03 -.74612952E+02 0.15087645E+03 0.41875089E+03 0.32000000E+00 0.0000E+00 0.9000E+01
#aMCatNLO 1  0  0  5  2 0.67686821D+02 0.00000000D+00  -5  6  0 0.00000000D+00 0.00000000D+00 0.00000000D+00 0.00000000D+00 0.00000000D+00
  <mgrwgt>
 0.1362498237D-04    8    2    0
 0.497281572933792D+03 0.000000000000000D+00 0.000000000000000D+00 0.497281572933792D+03
 0.497281572933792D+03 -.000000000000000D+00 -.000000000000000D+00 -.497281572933792D+03
 0.478675264574069D+03 -.411451954607490D+03 0.182831626794804D+03 -.103850345248806D+03
 0.120890380828053D+03 0.278617104948026D+02 -.108063864125065D+03 0.464802166024958D+02
 0.394997500465463D+03 0.383590244112687D+03 -.747677626697391D+02 0.573701286463105D+02
 0.000000000000000D+00 0.000000000000000D+00 -.000000000000000D+00 0.000000000000000D+00
 0.497281572933792D+03 0.000000000000000D+00 0.000000000000000D+00 0.497281572933792D+03
 0.497281572933792D+03 -.000000000000000D+00 -.000000000000000D+00 -.497281572933792D+03
 0.457298586587519D+03 -.389263066224718D+03 0.178506663983651D+03 -.100531753599056D+03
 0.123685439419508D+03 0.336598057833226D+02 -.109194003952973D+03 0.473473853527737D+02
 0.336793403187076D+03 0.331690487506086D+03 0.347493363478043D+01 0.583021591756345D+02
 0.767857166734815D+02 0.239127729353092D+02 -.727875936654589D+02 -.511779092935255D+01
0.119901222161D-05 0.000000000000D+00 0.000000000000D+00 0.156542266051D-08 0.000000000000D+00  6 -1 -1 25 -1 -1 21 0 0.96374432D-01 0.60731805D-01 0.23507030D+06 0.23507030D+06 0.23507030D+06 0.10924766D+01  1  2  2  3  6  5       -1 0.424778991122D-05 0.100000000000D+01
0.315924618726D-07 0.000000000000D+00 -.460452263815D-08 0.156542266051D-08 0.000000000000D+00  6 -1 -1 25 -1 -1 21 2 0.96374432D-01 0.60731805D-01 0.23507030D+06 0.23507030D+06 0.23507030D+06 0.10924766D+01  1  2  3  3  6  5       -1 0.133581773809D-06 0.100000000000D+01
-.686459157781D-06 0.000000000000D+00 0.000000000000D+00 0.156542266051D-08 0.000000000000D+00  6 -1 -1 25 -1 -1 21 2 0.96374432D-01 0.60731805D-01 0.23507030D+06 0.23507030D+06 0.23507030D+06 0.10924766D+01  1  2 15  3  6  5       -1 -.290254150859D-05 0.100000000000D+01
0.193864154551D-05 0.000000000000D+00 0.000000000000D+00 0.156542266051D-08 0.000000000000D+00  6 -1 -1 25 -1 -1 21 2 0.96374432D-01 0.60731805D-01 0.23459457D+06 0.23459457D+06 0.23459457D+06 0.10925432D+01  1  2 12  3  6  5       -1 0.819871236643D-05 0.100000000000D+01
0.668798879887D-06 0.000000000000D+00 0.000000000000D+00 0.156542266051D-08 0.000000000000D+00  6 -1 -1 25 -1 -1 21 2 0.96374432D-01 0.60731805D-01 0.23459457D+06 0.23459457D+06 0.23459457D+06 0.10925432D+01  1  2 12  3  6  5       -1 0.282841851805D-05 0.100000000000D+01
-.221050472363D-06 0.000000000000D+00 0.000000000000D+00 0.156542266051D-08 0.000000000000D+00  6 -1 -1 25 -1 -1 21 2 0.96374432D-01 0.60731805D-01 0.23507030D+06 0.23507030D+06 0.23507030D+06 0.10924766D+01  1  2  4  3  6  5       -1 -.934663285142D-06 0.100000000000D+01
-.228182106033D-05 0.000000000000D+00 0.000000000000D+00 0.156542266051D-08 0.000000000000D+00  6 -1 -1 25 -1 -1 21 2 0.96374432D-01 0.60731805D-01 0.23507030D+06 0.23507030D+06 0.23507030D+06 0.10924766D+01  1  2  5  3  6  5       -1 -.964817828960D-05 0.100000000000D+01
0.276752319066D-05 0.000000000000D+00 -.000000000000D+00 0.156542266051D-08 0.000000000000D+00  6 -1 -1 25 -1 -1 21 2 0.96374432D-01 0.60731805D-01 0.23507030D+06 0.23507030D+06 0.23507030D+06 0.10924766D+01  1  2  6  3  6  5       -1 0.117018628797D-04 0.100000000000D+01
  </mgrwgt>
  </event>
  <event>
  5     66 0.15053384E-05 0.16593969E+03 0.75467711E-02 0.86833825E-01
       -1 -1    0    0    0  501 0.00000000E+00 0.00000000E+00 0.99762768E+03 0.99762773E+03 0.32000000E+00 0.0000E+00 0.9000E+01
       -1 -1    0    0    0  502 0.00000000E+00 0.00000000E+00 -.39894821E+03 0.39894833E+03 0.32000000E+00 0.0000E+00 0.9000E+01
       25  1    1    2    0    0 -.40980859E+03 -.21930712E+03 0.69625418E+02 0.48632437E+03 0.12500000E+03 0.0000E+00 0.9000E+01
       -1  1    1    2    0  501 0.25093480E+03 0.26710462E+03 0.62062097E+03 0.72075213E+03 0.32000000E+00 0.0000E+00 0.9000E+01
       -1  1    1    2    0  502 0.15887379E+03 -.47797499E+02 -.91566910E+02 0.18949956E+03 0.32000000E+00 0.0000E+00 0.9000E+01
#aMCatNLO 1  0  0  2  4 0.91729570D+03 0.00000000D+00  -5  6  0 0.00000000D+00 0.00000000D+00 0.00000000D+00 0.00000000D+00 0.00000000D+00
  <mgrwgt>
 0.2196665929D-04    5    4    0
 0.630873915513062D+03 0.000000000000000D+00 0.000000000000000D+00 0.630873915513062D+03
 0.630873915513062D+03 0.000000000000000D+00 0.000000000000000D+00 -.630873915513062D+03
 0.505239713772502D+03 -.409823755040773D+03 -.219288878306611D+03 -.153619810012343D+03
 0.503258950672591D+03 0.250916576215001D+03 0.267085217739171D+03 0.344928876259787D+03
 0.253249166581032D+03 0.158907178825772D+03 -.477963394325597D+02 -.191309066247444D+03
 0.000000000000000D+00 0.000000000000000D+00 0.000000000000000D+00 -.000000000000000D+00
 0.884622419319259D+03 0.000000000000000D+00 0.000000000000000D+00 0.884622419319259D+03
 0.279011677050117D+04 0.000000000000000D+00 0.000000000000000D+00 -.279011677050117D+04
 0.937056406990320D+03 -.707719098344420D+03 -.581364207439658D+03 -.153619810012343D+03
 0.356355684068159D+03 0.733696820380277D+02 0.512867784861241D+02 0.344928876259787D+03
 0.266536300881046D+03 0.515494261113241D+02 -.178283755643849D+03 -.191309066247444D+03
 0.211479079788090D+04 0.582799990195068D+03 0.708361184597382D+03 -.190549435118191D+04
 0.630873915513062D+03 0.000000000000000D+00 0.000000000000000D+00 0.630873915513062D+03
 0.630873915513062D+03 0.000000000000000D+00 0.000000000000000D+00 -.630873915513062D+03
 0.505239713772502D+03 -.409823755040773D+03 -.219288878306611D+03 -.153619810012343D+03
 0.000000000000000D+00 0.000000000000000D+00 0.000000000000000D+00 -.000000000000000D+00
 0.503258950672591D+03 0.250916576215001D+03 0.267085217739171D+03 0.344928876259787D+03
 0.253249166581032D+03 0.158907178825772D+03 -.477963394325597D+02 -.191309066247444D+03
 0.884622419319259D+03 0.000000000000000D+00 0.000000000000000D+00 0.884622419319259D+03
 0.279011677050117D+04 0.000000000000000D+00 0.000000000000000D+00 -.279011677050117D+04
 0.937056406990320D+03 -.707719098344420D+03 -.581364207439658D+03 -.153619810012343D+03
 0.211479079788090D+04 0.582799990195068D+03 0.708361184597382D+03 -.190549435118191D+04
 0.356355684068159D+03 0.733696820380277D+02 0.512867784861241D+02 0.344928876259787D+03
 0.266536300881046D+03 0.515494261113241D+02 -.178283755643849D+03 -.191309066247444D+03
0.493779657727D-04 0.000000000000D+00 0.000000000000D+00 0.402870285382D-07 0.000000000000D+00  6 -1 -1 25 -1 -1 21 0 0.15348120D+00 0.61376661D-01 0.25690696D+06 0.25690696D+06 0.25690696D+06 0.10895698D+01  1  2  2  2  6  2       -1 0.532326055638D-04 0.100000000000D+01
0.271732202259D-05 0.000000000000D+00 -.189624390084D-06 0.402870285382D-07 0.000000000000D+00  6 -1 -1 25 -1 -1 21 2 0.15348120D+00 0.61376661D-01 0.25690696D+06 0.25690696D+06 0.25690696D+06 0.10895698D+01  1  2  3  2  6  2       -1 0.347772922667D-05 0.100000000000D+01
-.267382212452D-04 0.000000000000D+00 0.000000000000D+00 0.402870285382D-07 0.000000000000D+00  6 -1 -1 25 -1 -1 21 2 0.15348120D+00 0.61376661D-01 0.25690696D+06 0.25690696D+06 0.25690696D+06 0.10895698D+01  1  2 15  2  6  2       -1 -.342205644825D-04 0.100000000000D+01
-.203425774604D-04 0.000000000000D+00 -.338476140055D-04 0.402870285382D-07 0.000000000000D+00  6 -1 -1 25 -1 -1 21 2 0.15348120D+00 0.31269803D+00 0.25690696D+06 0.25690696D+06 0.25690696D+06 0.10895698D+01  1  2  5  2  6  2       -1 -.151905594614D-06 0.100000000000D+01
-.512395997169D-05 0.000000000000D+00 -.672378151514D-05 0.402870285382D-07 0.000000000000D+00  6 -1 21 25 1 -1 -1 2 0.15348120D+00 0.31269803D+00 0.25690696D+06 0.25690696D+06 0.25690696D+06 0.10895698D+01  3  4  5  5  4  2       -1 -.371205422080D-06 0.100000000000D+01
  </mgrwgt>
  </event>
</LesHouchesEvents>
