<event>
 5    0  0.2159162E+000  0.3210909E+03  0.7546771E-02  0.1075148E+00
         21   -1    0    0  502  501  0.00000000000E+00  0.00000000000E+00  0.11823993909E+04  0.11823993909E+04  0.00000000000E+00 0.  1.
         21   -1    0    0  503  502 -0.00000000000E+00 -0.00000000000E+00 -0.40944765352E+03  0.40944765352E+03  0.00000000000E+00 0.  1.
         25    1    1    2    0    0  0.23277074022E+03  0.20506612018E+03  0.10438869449E+04  0.10961565969E+04  0.12500000000E+03 0.  0.
         21    1    1    2  503  504 -0.79586572313E+02 -0.35691002383E+02 -0.25184650775E+03  0.26652304518E+03  0.00000000000E+00 0.  1.
         21    1    1    2  504  501 -0.15318416791E+03 -0.16937511780E+03 -0.19088699813E+02  0.22916740232E+03  0.00000000000E+00 0.  1.
<mgrwt>
<rscale>  4 0.32109090E+03</rscale>
<asrwt>0</asrwt>
<pdfrwt beam="1">  1       21 0.18190760E+00 0.32109090E+03</pdfrwt>
<pdfrwt beam="2">  1       21 0.62991947E-01 0.32109090E+03</pdfrwt>
<totfact> 0.36529867E+02</totfact>
</mgrwt>
</event>
<event>
 5    0  0.4323823E+000  0.2430413E+03  0.7546771E-02  0.1117783E+00
         21   -1    0    0  502  501  0.00000000000E+00  0.00000000000E+00  0.42137565241E+02  0.42137565241E+02  0.00000000000E+00 0.  1.
         21   -1    0    0  503  502 -0.00000000000E+00 -0.00000000000E+00 -0.15394452726E+04  0.15394452726E+04  0.00000000000E+00 0.  1.
         25    1    1    2    0    0 -0.63439587608E+02  0.21208115953E+03 -0.58183937650E+03  0.63495280104E+03  0.12500000000E+03 0.  0.
         21    1    1    2  503  504 -0.24451445575E+02 -0.38264746223E+02 -0.20306871127E+03  0.20808403468E+03  0.00000000000E+00 0. -1.
         21    1    1    2  504  501  0.87891033183E+02 -0.17381641331E+03 -0.71239961955E+03  0.73854600208E+03  0.00000000000E+00 0.  1.
<mgrwt>
<rscale>  4 0.24304133E+03</rscale>
<asrwt>0</asrwt>
<pdfrwt beam="1">  1       21 0.64827018E-02 0.24304133E+03</pdfrwt>
<pdfrwt beam="2">  1       21 0.23683775E+00 0.24304133E+03</pdfrwt>
<totfact> 0.13188679E+04</totfact>
</mgrwt>
</event>
<event>
 5    0  0.2159162E+000  0.3270886E+03  0.7546771E-02  0.1072693E+00
         21   -1    0    0  502  501  0.00000000000E+00  0.00000000000E+00  0.68794427714E+02  0.68794427714E+02  0.00000000000E+00 0.  1.
         21   -1    0    0  503  502 -0.00000000000E+00 -0.00000000000E+00 -0.24054660234E+04  0.24054660234E+04  0.00000000000E+00 0.  1.
         25    1    1    2    0    0  0.14175311057E+03  0.26410759207E+03 -0.42537698113E+03  0.53517972740E+03  0.12500000000E+03 0.  0.
         21    1    1    2  503  504 -0.11155357330E+03 -0.14446869213E+03 -0.77973712305E+03  0.80081544926E+03  0.00000000000E+00 0.  1.
         21    1    1    2  504  501 -0.30199537264E+02 -0.11963889994E+03 -0.11315574915E+04  0.11382652745E+04  0.00000000000E+00 0.  1.
<mgrwt>
<rscale>  4 0.32650593E+03</rscale>
<asrwt>0</asrwt>
<pdfrwt beam="1">  1       21 0.10583760E-01 0.32708860E+03</pdfrwt>
<pdfrwt beam="2">  1       21 0.37007163E+00 0.32708860E+03</pdfrwt>
<totfact> 0.83696157E+02</totfact>
</mgrwt>
</event>
<event>
 5    0  0.2159162E+000  0.1769464E+03  0.7546771E-02  0.1170791E+00
         21   -1    0    0  502  501  0.00000000000E+00  0.00000000000E+00  0.45007731471E+03  0.45007731471E+03  0.00000000000E+00 0.  1.
         21   -1    0    0  503  502 -0.00000000000E+00 -0.00000000000E+00 -0.15017230925E+03  0.15017230925E+03  0.00000000000E+00 0.  1.
         25    1    1    2    0    0 -0.13413684534E+03  0.16011872248E+03  0.44403826503E+02  0.24744170703E+03  0.12500000000E+03 0.  0.
         21    1    1    2  503  504  0.58480840441E+02 -0.74734786430E+02  0.29047650157E+02  0.99242445461E+02  0.00000000000E+00 0.  1.
         21    1    1    2  504  501  0.75656004898E+02 -0.85383936054E+02  0.22645352881E+03  0.25356547147E+03  0.00000000000E+00 0.  1.
<mgrwt>
<rscale>  4 0.17694642E+03</rscale>
<asrwt>0</asrwt>
<pdfrwt beam="1">  1       21 0.69242663E-01 0.17694642E+03</pdfrwt>
<pdfrwt beam="2">  1       21 0.23103432E-01 0.17694642E+03</pdfrwt>
<totfact> 0.33680217E+04</totfact>
</mgrwt>
</event>
<event>
 5    0  0.2159162E+000  0.3046072E+03  0.7546771E-02  0.1082960E+00
         21   -1    0    0  502  501  0.00000000000E+00  0.00000000000E+00  0.10593956614E+04  0.10593956614E+04  0.00000000000E+00 0. -1.
         21   -1    0    0  503  502 -0.00000000000E+00 -0.00000000000E+00 -0.84435985767E+03  0.84435985767E+03  0.00000000000E+00 0.  1.
         25    1    1    2    0    0 -0.95474492043E+02 -0.26085471437E+03  0.10115997639E+04  0.10564656374E+04  0.12500000000E+03 0.  0.
         21    1    1    2  503  504  0.33380263930E+02  0.13647368435E+03 -0.29388561819E+03  0.32574232933E+03  0.00000000000E+00 0.  1.
         21    1    1    2  504  501  0.62094228113E+02  0.12438103001E+03 -0.50267834203E+03  0.52154755233E+03  0.00000000000E+00 0.  1.
<mgrwt>
<rscale>  4 0.30460722E+03</rscale>
<asrwt>0</asrwt>
<pdfrwt beam="1">  1       21 0.16298395E+00 0.30460722E+03</pdfrwt>
<pdfrwt beam="2">  1       21 0.12990152E+00 0.30460722E+03</pdfrwt>
<totfact> 0.91551725E+01</totfact>
</mgrwt>
</event>
<event>
 5    0  0.2159162E+000  0.3339612E+03  0.7546771E-02  0.1069397E+00
         21   -1    0    0  502  501  0.00000000000E+00  0.00000000000E+00  0.10986287122E+04  0.10986287122E+04  0.00000000000E+00 0. -1.
         21   -1    0    0  503  502 -0.00000000000E+00 -0.00000000000E+00 -0.13675371648E+03  0.13675371648E+03  0.00000000000E+00 0. -1.
         25    1    1    2    0    0  0.90030513909E+02 -0.29630998052E+03  0.16392406092E+03  0.37202311184E+03  0.12500000000E+03 0.  0.
         21    1    1    2  503  504 -0.60207574505E+02  0.20732020388E+03  0.67498435187E+03  0.70866811289E+03  0.00000000000E+00 0. -1.
         21    1    1    2  504  501 -0.29822939404E+02  0.88989776642E+02  0.12296658291E+03  0.15469120393E+03  0.00000000000E+00 0. -1.
<mgrwt>
<rscale>  4 0.33396122E+03</rscale>
<asrwt>0</asrwt>
<pdfrwt beam="1">  1       21 0.16901980E+00 0.33396122E+03</pdfrwt>
<pdfrwt beam="2">  1       21 0.21039034E-01 0.33396122E+03</pdfrwt>
<totfact> 0.41350831E+03</totfact>
</mgrwt>
</event>
<event>
 5    0  0.2159162E+000  0.2580932E+03  0.7546771E-02  0.1108294E+00
         21   -1    0    0  502  501  0.00000000000E+00  0.00000000000E+00  0.27763075742E+02  0.27763075742E+02  0.00000000000E+00 0. -1.
         21   -1    0    0  503  502 -0.00000000000E+00 -0.00000000000E+00 -0.28404517695E+04  0.28404517695E+04  0.00000000000E+00 0. -1.
         25    1    1    2    0    0  0.18389148036E+03  0.13103820819E+03 -0.78155020477E+03  0.82306306631E+03  0.12500000000E+03 0.  0.
         21    1    1    2  503  504 -0.13786382884E+03 -0.85003740278E+02 -0.11148054315E+04  0.11265093081E+04  0.00000000000E+00 0. -1.
         21    1    1    2  504  501 -0.46027651517E+02 -0.46034467907E+02 -0.91633305749E+03  0.91864247081E+03  0.00000000000E+00 0. -1.
<mgrwt>
<rscale>  4 0.25809318E+03</rscale>
<asrwt>0</asrwt>
<pdfrwt beam="1">  1       21 0.42712419E-02 0.25809318E+03</pdfrwt>
<pdfrwt beam="2">  1       21 0.43699264E+00 0.25809318E+03</pdfrwt>
<totfact> 0.16320635E+03</totfact>
</mgrwt>
</event>
<event>
 5    0  0.2313885E+000  0.2369903E+03  0.7546771E-02  0.1121814E+00
         21   -1    0    0  502  501  0.00000000000E+00  0.00000000000E+00  0.14083267752E+04  0.14083267752E+04  0.00000000000E+00 0.  1.
         21   -1    0    0  503  502 -0.00000000000E+00 -0.00000000000E+00 -0.72270127145E+02  0.72270127145E+02  0.00000000000E+00 0.  1.
         25    1    1    2    0    0  0.19995591190E+03  0.23602054436E+02  0.12177550971E+04  0.12406014268E+04  0.12500000000E+03 0.  0.
         21    1    1    2  503  504 -0.15756441613E+03 -0.26225346746E+02  0.11609643670E+03  0.19746568476E+03  0.00000000000E+00 0.  1.
         21    1    1    2  504  501 -0.42391495770E+02  0.26232923096E+01  0.22051142696E+01  0.42529790796E+02  0.00000000000E+00 0.  1.
<mgrwt>
<rscale>  4 0.23699035E+03</rscale>
<asrwt>0</asrwt>
<pdfrwt beam="1">  1       21 0.21666564E+00 0.23699035E+03</pdfrwt>
<pdfrwt beam="2">  1       21 0.11118482E-01 0.23699035E+03</pdfrwt>
<totfact> 0.68286506E+03</totfact>
</mgrwt>
</event>
<event>
 5    0  0.2159162E+000  0.2714644E+03  0.7546771E-02  0.1100444E+00
         21   -1    0    0  502  501  0.00000000000E+00  0.00000000000E+00  0.47295717071E+03  0.47295717071E+03  0.00000000000E+00 0.  1.
         21   -1    0    0  503  502 -0.00000000000E+00 -0.00000000000E+00 -0.15936399766E+03  0.15936399766E+03  0.00000000000E+00 0.  1.
         25    1    1    2    0    0 -0.98437619160E+02 -0.21994992301E+03  0.25242497061E+03  0.37069030105E+03  0.12500000000E+03 0.  0.
         21    1    1    2  503  504  0.23919036204E+02  0.11976268029E+03 -0.10359288778E+01  0.12213227678E+03  0.00000000000E+00 0.  1.
         21    1    1    2  504  501  0.74518582956E+02  0.10018724272E+03  0.62204131317E+02  0.13949859054E+03  0.00000000000E+00 0.  1.
<mgrwt>
<rscale>  4 0.27146442E+03</rscale>
<asrwt>0</asrwt>
<pdfrwt beam="1">  1       21 0.72762641E-01 0.27146442E+03</pdfrwt>
<pdfrwt beam="2">  1       21 0.24517538E-01 0.27146442E+03</pdfrwt>
<totfact> 0.25704007E+04</totfact>
</mgrwt>
</event>
<event>
 5    0  0.2159162E+000  0.3183260E+03  0.7546771E-02  0.1076422E+00
         21   -1    0    0  502  501  0.00000000000E+00  0.00000000000E+00  0.85504773017E+03  0.85504773017E+03  0.00000000000E+00 0.  1.
         21   -1    0    0  503  502 -0.00000000000E+00 -0.00000000000E+00 -0.21409626929E+03  0.21409626929E+03  0.00000000000E+00 0.  1.
         25    1    1    2    0    0 -0.24364138241E+03  0.16231235688E+03  0.69533290405E+03  0.76473477224E+03  0.12500000000E+03 0.  0.
         21    1    1    2  503  504  0.48969125665E+02 -0.58915745477E+02  0.28873698872E+01  0.76664054409E+02  0.00000000000E+00 0. -1.
         21    1    1    2  504  501  0.19467225674E+03 -0.10339661140E+03 -0.57268813046E+02  0.22774517282E+03  0.00000000000E+00 0.  1.
<mgrwt>
<rscale>  4 0.31832597E+03</rscale>
<asrwt>0</asrwt>
<pdfrwt beam="1">  1       21 0.13154580E+00 0.31832597E+03</pdfrwt>
<pdfrwt beam="2">  1       21 0.32937888E-01 0.31832597E+03</pdfrwt>
<totfact> 0.34187714E+03</totfact>
</mgrwt>
</event>
<event>
 5    0  0.2159162E+000  0.2814490E+03  0.7546771E-02  0.1094900E+00
         21   -1    0    0  502  501  0.00000000000E+00  0.00000000000E+00  0.11338419997E+03  0.11338419997E+03  0.00000000000E+00 0. -1.
         21   -1    0    0  503  502 -0.00000000000E+00 -0.00000000000E+00 -0.18290820095E+04  0.18290820095E+04  0.00000000000E+00 0. -1.
         25    1    1    2    0    0 -0.66649586074E+02 -0.26056886501E+03 -0.12754655584E+03  0.32284891923E+03  0.12500000000E+03 0.  0.
         21    1    1    2  503  504  0.70290702911E+02  0.96910708351E+02 -0.33360067933E+03  0.35443177278E+03  0.00000000000E+00 0.  1.
         21    1    1    2  504  501 -0.36411168374E+01  0.16365815666E+03 -0.12545505743E+04  0.12651855174E+04  0.00000000000E+00 0. -1.
<mgrwt>
<rscale>  4 0.28144904E+03</rscale>
<asrwt>0</asrwt>
<pdfrwt beam="1">  1       21 0.17443724E-01 0.28144904E+03</pdfrwt>
<pdfrwt beam="2">  1       21 0.28139722E+00 0.28144904E+03</pdfrwt>
<totfact> 0.11826844E+03</totfact>
</mgrwt>
</event>
<event>
 5    0  0.2159162E+000  0.2863202E+03  0.7546771E-02  0.1092286E+00
         21   -1    0    0  502  501  0.00000000000E+00  0.00000000000E+00  0.73656490983E+03  0.73656490983E+03  0.00000000000E+00 0.  1.
         21   -1    0    0  503  502 -0.00000000000E+00 -0.00000000000E+00 -0.76883500334E+03  0.76883500334E+03  0.00000000000E+00 0. -1.
         25    1    1    2    0    0 -0.24681320500E+03  0.73739314164E+02  0.68369037481E+03  0.74122316021E+03  0.12500000000E+03 0.  0.
         21    1    1    2  503  504  0.14906787123E+03 -0.73949360276E+02 -0.39378835432E+03  0.42750322352E+03  0.00000000000E+00 0. -1.
         21    1    1    2  504  501  0.97745333777E+02  0.21004611234E+00 -0.32217211400E+03  0.33667352945E+03  0.00000000000E+00 0. -1.
<mgrwt>
<rscale>  4 0.28632018E+03</rscale>
<asrwt>0</asrwt>
<pdfrwt beam="1">  1       21 0.11331768E+00 0.28632018E+03</pdfrwt>
<pdfrwt beam="2">  1       21 0.11828231E+00 0.28632018E+03</pdfrwt>
<totfact> 0.30341403E+02</totfact>
</mgrwt>
</event>
<event>
 5    0  0.2159162E+000  0.3985865E+03  0.7546771E-02  0.1044270E+00
         21   -1    0    0  502  501  0.00000000000E+00  0.00000000000E+00  0.10030027996E+04  0.10030027996E+04  0.00000000000E+00 0.  1.
         21   -1    0    0  503  502 -0.00000000000E+00 -0.00000000000E+00 -0.18034916739E+03  0.18034916739E+03  0.00000000000E+00 0.  1.
         25    1    1    2    0    0 -0.49402778537E+02 -0.37524071356E+03  0.62922470799E+03  0.74484559527E+03  0.12500000000E+03 0.  0.
         21    1    1    2  503  504  0.15492989304E+02  0.32922844026E+02  0.58715208948E+02  0.69075481454E+02  0.00000000000E+00 0.  1.
         21    1    1    2  504  501  0.33909789233E+02  0.34231786954E+03  0.13471371527E+03  0.36943089028E+03  0.00000000000E+00 0.  1.
<mgrwt>
<rscale>  4 0.39858654E+03</rscale>
<asrwt>0</asrwt>
<pdfrwt beam="1">  1       21 0.15430812E+00 0.39858654E+03</pdfrwt>
<pdfrwt beam="2">  1       21 0.27746026E-01 0.39858654E+03</pdfrwt>
<totfact> 0.30262623E+03</totfact>
</mgrwt>
</event>
