<event>
 5    0  0.3488545E+001  0.4173888E+03  0.7546771E-02  0.1037920E+00
         21   -1    0    0  504  501  0.00000000000E+00  0.00000000000E+00  0.69985216842E+03  0.69985216842E+03  0.00000000000E+00 0. -1.
         21   -1    0    0  503  502 -0.00000000000E+00 -0.00000000000E+00 -0.31459875671E+03  0.31459875671E+03  0.00000000000E+00 0. -1.
         25    1    1    2    0    0  0.25271689194E+03 -0.33087140628E+03  0.21176616195E+02  0.43521852447E+03  0.12500000000E+03 0.  0.
         21    1    1    2  503  501  0.75231818804E+01  0.38772040842E+02 -0.69001741157E+01  0.40093413667E+02  0.00000000000E+00 0.  1.
         21    1    1    2  504  502 -0.26024007382E+03  0.29209936544E+03  0.37097696962E+03  0.53913898700E+03  0.00000000000E+00 0. -1.
<mgrwt>
<rscale>  4 0.41738879E+03</rscale>
<asrwt>0</asrwt>
<pdfrwt beam="1">  1       21 0.10766956E+00 0.41738879E+03</pdfrwt>
<pdfrwt beam="2">  1       21 0.48399809E-01 0.41738879E+03</pdfrwt>
<totfact> 0.24564815E+03</totfact>
</mgrwt>
</event>
<event>
 5    0  0.2340824E+001  0.2324520E+03  0.7546771E-02  0.1124926E+00
         21   -1    0    0  504  501  0.00000000000E+00  0.00000000000E+00  0.94078408925E+03  0.94078408925E+03  0.00000000000E+00 0.  1.
         21   -1    0    0  503  502 -0.00000000000E+00 -0.00000000000E+00 -0.73525895264E+02  0.73525895264E+02  0.00000000000E+00 0.  1.
         25    1    1    2    0    0 -0.21025784278E+03 -0.70011600318E+02  0.35757215993E+03  0.43885400099E+03  0.12500000000E+03 0.  0.
         21    1    1    2  503  501  0.30917378137E+02  0.22011581550E+02  0.57192767557E+01  0.38381038545E+02  0.00000000000E+00 0. -1.
         21    1    1    2  504  502  0.17934046464E+03  0.48000018767E+02  0.50396675730E+03  0.53707494498E+03  0.00000000000E+00 0.  1.
<mgrwt>
<rscale>  4 0.23245198E+03</rscale>
<asrwt>0</asrwt>
<pdfrwt beam="1">  1       21 0.14473600E+00 0.23245198E+03</pdfrwt>
<pdfrwt beam="2">  1       21 0.11311677E-01 0.23245198E+03</pdfrwt>
<totfact> 0.20876517E+04</totfact>
</mgrwt>
</event>
<event>
 5    0  0.1911311E+001  0.3162935E+03  0.7546771E-02  0.1077368E+00
         21   -1    0    0  504  501  0.00000000000E+00  0.00000000000E+00  0.72758324410E+03  0.72758324410E+03  0.00000000000E+00 0.  1.
         21   -1    0    0  503  502 -0.00000000000E+00 -0.00000000000E+00 -0.23389385773E+03  0.23389385773E+03  0.00000000000E+00 0.  1.
         25    1    1    2    0    0 -0.13865441825E+03  0.28544947790E+03  0.50611048769E+03  0.61031080433E+03  0.12500000000E+03 0.  0.
         21    1    1    2  503  501  0.50325159439E+02 -0.60722330903E+02 -0.67147827635E+02  0.10357921557E+03  0.00000000000E+00 0.  1.
         21    1    1    2  504  502  0.88329258806E+02 -0.22472714700E+03  0.54726726316E+02  0.24758708192E+03  0.00000000000E+00 0.  1.
<mgrwt>
<rscale>  4 0.31629349E+03</rscale>
<asrwt>0</asrwt>
<pdfrwt beam="1">  1       21 0.11193588E+00 0.31629349E+03</pdfrwt>
<pdfrwt beam="2">  1       21 0.35983671E-01 0.31629349E+03</pdfrwt>
<totfact> 0.43053715E+03</totfact>
</mgrwt>
</event>
<event>
 5    0  0.1911311E+001  0.2381108E+03  0.7546771E-02  0.1121058E+00
         21   -1    0    0  502  501  0.00000000000E+00  0.00000000000E+00  0.18071049098E+04  0.18071049098E+04  0.00000000000E+00 0. -1.
         21   -1    0    0  504  502 -0.00000000000E+00 -0.00000000000E+00 -0.79957817000E+02  0.79957817000E+02  0.00000000000E+00 0. -1.
         25    1    1    2    0    0 -0.14717079350E+03  0.13709664093E+03  0.15191331669E+03  0.28134922641E+03  0.12500000000E+03 0.  0.
         21    1    1    2  503  501  0.17325009839E+03 -0.10617572713E+03  0.15359309110E+04  0.15493136044E+04  0.00000000000E+00 0. -1.
         21    1    1    2  504  503 -0.26079304890E+02 -0.30920913797E+02  0.39302865108E+02  0.56399895916E+02  0.00000000000E+00 0.  1.
<mgrwt>
<rscale>  4 0.23811082E+03</rscale>
<asrwt>0</asrwt>
<pdfrwt beam="1">  1       21 0.27801611E+00 0.23811082E+03</pdfrwt>
<pdfrwt beam="2">  1       21 0.12301204E-01 0.23811082E+03</pdfrwt>
<totfact> 0.24413946E+03</totfact>
</mgrwt>
</event>
<event>
 5    0  0.1911311E+001  0.3297039E+03  0.7546771E-02  0.1071268E+00
         21   -1    0    0  503  501  0.00000000000E+00  0.00000000000E+00  0.49188744129E+03  0.49188744129E+03  0.00000000000E+00 0. -1.
         21   -1    0    0  504  502 -0.00000000000E+00 -0.00000000000E+00 -0.37380309397E+03  0.37380309397E+03  0.00000000000E+00 0. -1.
         25    1    1    2    0    0 -0.15704846914E+03  0.23084031767E+03  0.23352948737E+03  0.38485386238E+03  0.12500000000E+03 0.  0.
         21    1    1    2  503  502  0.20193044799E+03 -0.23836638126E+03 -0.20964137887E+03  0.37622326520E+03  0.00000000000E+00 0. -1.
         21    1    1    2  504  501 -0.44881978850E+02  0.75260635965E+01  0.94196238822E+02  0.10461340768E+03  0.00000000000E+00 0. -1.
<mgrwt>
<rscale>  4 0.32970389E+03</rscale>
<asrwt>0</asrwt>
<pdfrwt beam="1">  1       21 0.75674992E-01 0.32970389E+03</pdfrwt>
<pdfrwt beam="2">  1       21 0.57508168E-01 0.32970389E+03</pdfrwt>
<totfact> 0.40616099E+03</totfact>
</mgrwt>
</event>
