<event>
 5    0  0.6041737E-002  0.5663949E+03  0.7546771E-02  0.9977688E-01
         -1   -1    0    0    0  501 -0.00000000000E+00  0.00000000000E+00  0.29988031619E+03  0.29988031619E+03  0.00000000000E+00 0. -1.
          1   -1    0    0  503    0  0.00000000000E+00 -0.00000000000E+00 -0.26744270262E+03  0.26744270262E+03  0.00000000000E+00 0.  1.
         25    1    1    2    0    0 -0.24111195590E+03  0.13234293098E+02  0.12749422885E+03  0.30031633353E+03  0.12500000000E+03 0.  0.
         21    1    1    2  502  501  0.12348031897E+03 -0.36421136641E+02 -0.60392790312E+02  0.14220118666E+03  0.00000000000E+00 0.  1.
         21    1    1    2  503  502  0.11763163694E+03  0.23186843543E+02 -0.34663824974E+02  0.12480549861E+03  0.00000000000E+00 0.  1.
<mgrwt>
<rscale>  4 0.56639492E+03</rscale>
<asrwt>0</asrwt>
<pdfrwt beam="1">  1        1 0.41145031E-01 0.56639492E+03</pdfrwt>
<pdfrwt beam="2">  1       -1 0.46135433E-01 0.56639492E+03</pdfrwt>
<totfact> 0.48155076E+02</totfact>
</mgrwt>
</event>
<event>
 5    0  0.6041737E-002  0.5616280E+03  0.7546771E-02  0.9988378E-01
          2   -1    0    0  503    0  0.00000000000E+00  0.00000000000E+00  0.52275563622E+03  0.52275563622E+03  0.00000000000E+00 0.  1.
         -2   -1    0    0    0  501 -0.00000000000E+00 -0.00000000000E+00 -0.15084774925E+03  0.15084774925E+03  0.00000000000E+00 0. -1.
         25    1    1    2    0    0  0.19881715272E+03 -0.10238369963E+03  0.28698955151E+02  0.25779703682E+03  0.12500000000E+03 0.  0.
         21    1    1    2  502  501 -0.17454956002E+03  0.11313220502E+03  0.30948771448E+03  0.37289286682E+03  0.00000000000E+00 0.  1.
         21    1    1    2  503  502 -0.24267592695E+02 -0.10748505389E+02  0.33721217349E+02  0.42913481830E+02  0.00000000000E+00 0.  1.
<mgrwt>
<rscale>  4 0.56162803E+03</rscale>
<asrwt>0</asrwt>
<pdfrwt beam="1">  1        2 0.80423943E-01 0.56162803E+03</pdfrwt>
<pdfrwt beam="2">  1       -2 0.23207346E-01 0.56162803E+03</pdfrwt>
<totfact> 0.96130591E+02</totfact>
</mgrwt>
</event>
<event>
 5    0  0.6041737E-002  0.5420143E+03  0.7546771E-02  0.1003359E+00
         -2   -1    0    0    0  501 -0.00000000000E+00  0.00000000000E+00  0.50771971625E+02  0.50771971625E+02  0.00000000000E+00 0. -1.
          2   -1    0    0  503    0  0.00000000000E+00 -0.00000000000E+00 -0.18938056415E+04  0.18938056415E+04  0.00000000000E+00 0.  1.
         25    1    1    2    0    0  0.25926465414E+03  0.86292677737E+02 -0.11474384749E+04  0.11861301113E+04  0.12500000000E+03 0.  0.
         21    1    1    2  502  501 -0.33723671743E+02 -0.15168341843E+02 -0.18715521085E+02  0.41444364630E+02  0.00000000000E+00 0.  1.
         21    1    1    2  503  502 -0.22554098240E+03 -0.71124335895E+02 -0.67687967381E+03  0.71700313718E+03  0.00000000000E+00 0.  1.
<mgrwt>
<rscale>  4 0.54201426E+03</rscale>
<asrwt>0</asrwt>
<pdfrwt beam="1">  1        2 0.29135467E+00 0.54201426E+03</pdfrwt>
<pdfrwt beam="2">  1       -2 0.78110737E-02 0.54201426E+03</pdfrwt>
<totfact> 0.80929554E+02</totfact>
</mgrwt>
</event>
<event>
 5    0  0.6041737E-002  0.4715355E+03  0.7546771E-02  0.1021488E+00
          1   -1    0    0  503    0  0.00000000000E+00  0.00000000000E+00  0.36565328159E+03  0.36565328159E+03  0.00000000000E+00 0. -1.
         -1   -1    0    0    0  501 -0.00000000000E+00 -0.00000000000E+00 -0.15201948584E+03  0.15201948584E+03  0.00000000000E+00 0.  1.
         25    1    1    2    0    0 -0.13232220110E+03  0.16917714280E+03  0.12038233369E+03  0.27612855125E+03  0.12500000000E+03 0.  0.
         21    1    1    2  502  501  0.18544392643E+02 -0.19500530030E+02 -0.79043840412E+01  0.28047182693E+02  0.00000000000E+00 0. -1.
         21    1    1    2  503  502  0.11377780846E+03 -0.14967661277E+03  0.10115584611E+03  0.21349703349E+03  0.00000000000E+00 0.  1.
<mgrwt>
<rscale>  4 0.47153547E+03</rscale>
<asrwt>0</asrwt>
<pdfrwt beam="1">  1        1 0.56254351E-01 0.47153547E+03</pdfrwt>
<pdfrwt beam="2">  1       -1 0.23387613E-01 0.47153547E+03</pdfrwt>
<totfact> 0.10626502E+03</totfact>
</mgrwt>
</event>
<event>
 5    0  0.6041737E-002  0.4845885E+03  0.7546771E-02  0.1017882E+00
         -2   -1    0    0    0  501 -0.00000000000E+00  0.00000000000E+00  0.20465791799E+03  0.20465791799E+03  0.00000000000E+00 0. -1.
          2   -1    0    0  503    0  0.00000000000E+00 -0.00000000000E+00 -0.28685181321E+03  0.28685181321E+03  0.00000000000E+00 0.  1.
         25    1    1    2    0    0 -0.19972984963E+03 -0.59660340764E+02  0.19765778933E+02  0.24385867857E+03  0.12500000000E+03 0.  0.
         21    1    1    2  502  501  0.33574313178E+02  0.48124483802E+02 -0.19764710697E+02  0.61918044506E+02  0.00000000000E+00 0.  1.
         21    1    1    2  503  502  0.16615553646E+03  0.11535856962E+02 -0.82194963456E+02  0.18573300813E+03  0.00000000000E+00 0. -1.
<mgrwt>
<rscale>  4 0.48458846E+03</rscale>
<asrwt>0</asrwt>
<pdfrwt beam="1">  1        2 0.44131048E-01 0.48458846E+03</pdfrwt>
<pdfrwt beam="2">  1       -2 0.31485834E-01 0.48458846E+03</pdfrwt>
<totfact> 0.10810954E+03</totfact>
</mgrwt>
</event>
<event>
 5    0  0.6041737E-002  0.4335338E+03  0.7546771E-02  0.1032749E+00
         -1   -1    0    0    0  501 -0.00000000000E+00  0.00000000000E+00  0.19770950457E+03  0.19770950457E+03  0.00000000000E+00 0. -1.
          1   -1    0    0  503    0  0.00000000000E+00 -0.00000000000E+00 -0.29481213064E+03  0.29481213064E+03  0.00000000000E+00 0.  1.
         25    1    1    2    0    0 -0.18561398447E+03  0.80417802091E+02  0.24968063396E+02  0.23909826080E+03  0.12500000000E+03 0.  0.
         21    1    1    2  502  501  0.14460111117E+03 -0.65508368162E+02 -0.13448251356E+03  0.20805377695E+03  0.00000000000E+00 0.  1.
         21    1    1    2  503  502  0.41012873303E+02 -0.14909433929E+02  0.12411824097E+02  0.45369597465E+02  0.00000000000E+00 0.  1.
<mgrwt>
<rscale>  4 0.43353377E+03</rscale>
<asrwt>0</asrwt>
<pdfrwt beam="1">  1        1 0.45355712E-01 0.43353377E+03</pdfrwt>
<pdfrwt beam="2">  1       -1 0.30416847E-01 0.43353377E+03</pdfrwt>
<totfact> 0.89657700E+02</totfact>
</mgrwt>
</event>
<event>
 5    0  0.6041737E-002  0.1031958E+04  0.7546771E-02  0.9274172E-01
          2   -1    0    0  503    0  0.00000000000E+00  0.00000000000E+00  0.63804910467E+03  0.63804910467E+03  0.00000000000E+00 0.  1.
         -2   -1    0    0    0  501 -0.00000000000E+00 -0.00000000000E+00 -0.41726286411E+03  0.41726286411E+03  0.00000000000E+00 0. -1.
         25    1    1    2    0    0 -0.44631421914E+03  0.99592256817E+02  0.32968555647E+03  0.57743620078E+03  0.12500000000E+03 0.  0.
         21    1    1    2  502  501  0.22147523485E+02  0.48451917275E+01 -0.23723548505E+02  0.32814561296E+02  0.00000000000E+00 0. -1.
         21    1    1    2  503  502  0.42416669565E+03 -0.10443744854E+03 -0.85175767414E+02  0.44506120671E+03  0.00000000000E+00 0. -1.
<mgrwt>
<rscale>  4 0.10319577E+04</rscale>
<asrwt>0</asrwt>
<pdfrwt beam="1">  1        2 0.98161400E-01 0.10319577E+04</pdfrwt>
<pdfrwt beam="2">  1       -2 0.64194287E-01 0.10319577E+04</pdfrwt>
<totfact> 0.10289233E+02</totfact>
</mgrwt>
</event>
<event>
 5    0  0.6041737E-002  0.4557612E+03  0.7546771E-02  0.1026018E+00
          2   -1    0    0  503    0  0.00000000000E+00  0.00000000000E+00  0.61779124708E+03  0.61779124708E+03  0.00000000000E+00 0.  1.
         -2   -1    0    0    0  501 -0.00000000000E+00 -0.00000000000E+00 -0.84056808050E+02  0.84056808050E+02  0.00000000000E+00 0. -1.
         25    1    1    2    0    0 -0.15056337861E+03  0.13286875467E+03  0.37655276406E+03  0.44468013342E+03  0.12500000000E+03 0.  0.
         21    1    1    2  502  501  0.10342780035E+02 -0.22813153685E+02  0.15389332644E+02  0.29398038015E+02  0.00000000000E+00 0. -1.
         21    1    1    2  503  502  0.14022059857E+03 -0.11005560098E+03  0.14179234233E+03  0.22776988369E+03  0.00000000000E+00 0.  1.
<mgrwt>
<rscale>  4 0.45576117E+03</rscale>
<asrwt>0</asrwt>
<pdfrwt beam="1">  1        2 0.95044804E-01 0.45576117E+03</pdfrwt>
<pdfrwt beam="2">  1       -2 0.12931817E-01 0.45576117E+03</pdfrwt>
<totfact> 0.21440672E+03</totfact>
</mgrwt>
</event>
<event>
 5    0  0.6041737E-002  0.5084351E+03  0.7546771E-02  0.1011600E+00
         -1   -1    0    0    0  501 -0.00000000000E+00  0.00000000000E+00  0.97973561007E+02  0.97973561007E+02  0.00000000000E+00 0.  1.
          1   -1    0    0  503    0  0.00000000000E+00 -0.00000000000E+00 -0.65963265184E+03  0.65963265184E+03  0.00000000000E+00 0. -1.
         25    1    1    2    0    0  0.21181988354E+03  0.11364409077E+02 -0.13628681403E+03  0.28141767630E+03  0.12500000000E+03 0.  0.
         21    1    1    2  502  501 -0.23459431246E+02 -0.98521189788E+01 -0.43795882456E+02  0.50650651357E+02  0.00000000000E+00 0. -1.
         21    1    1    2  503  502 -0.18836045229E+03 -0.15122900980E+01 -0.38157639434E+03  0.42553788519E+03  0.00000000000E+00 0. -1.
<mgrwt>
<rscale>  4 0.50843509E+03</rscale>
<asrwt>0</asrwt>
<pdfrwt beam="1">  1        1 0.10148195E+00 0.50843509E+03</pdfrwt>
<pdfrwt beam="2">  1       -1 0.15072856E-01 0.50843509E+03</pdfrwt>
<totfact> 0.97898816E+02</totfact>
</mgrwt>
</event>
<event>
 5    0  0.6041737E-002  0.7418779E+03  0.7546771E-02  0.9648179E-01
          2   -1    0    0  503    0  0.00000000000E+00  0.00000000000E+00  0.14451781337E+04  0.14451781337E+04  0.00000000000E+00 0. -1.
         -2   -1    0    0    0  501 -0.00000000000E+00 -0.00000000000E+00 -0.15519241903E+03  0.15519241903E+03  0.00000000000E+00 0.  1.
         25    1    1    2    0    0 -0.33299449383E+03  0.24618460235E+03  0.50171782735E+03  0.66244846565E+03  0.12500000000E+03 0.  0.
         21    1    1    2  502  501  0.23652574494E+03 -0.19396044841E+03  0.26946161621E+03  0.40764524550E+03  0.00000000000E+00 0. -1.
         21    1    1    2  503  502  0.96468748891E+02 -0.52224153941E+02  0.51880627108E+03  0.53027684155E+03  0.00000000000E+00 0. -1.
<mgrwt>
<rscale>  4 0.74187790E+03</rscale>
<asrwt>0</asrwt>
<pdfrwt beam="1">  1        2 0.22233509E+00 0.74187790E+03</pdfrwt>
<pdfrwt beam="2">  1       -2 0.23875758E-01 0.74187790E+03</pdfrwt>
<totfact> 0.21542692E+02</totfact>
</mgrwt>
</event>
<event>
 5    0  0.6041737E-002  0.5206652E+03  0.7546771E-02  0.1008521E+00
         -2   -1    0    0    0  501 -0.00000000000E+00  0.00000000000E+00  0.27761972534E+03  0.27761972534E+03  0.00000000000E+00 0. -1.
          2   -1    0    0  503    0  0.00000000000E+00 -0.00000000000E+00 -0.28813246235E+03  0.28813246235E+03  0.00000000000E+00 0.  1.
         25    1    1    2    0    0 -0.20166595024E+03 -0.70994410427E+02 -0.14633265894E+03  0.28765884111E+03  0.12500000000E+03 0.  0.
         21    1    1    2  502  501  0.20548099325E+03  0.39508793623E+02  0.10600777723E+03  0.23456562450E+03  0.00000000000E+00 0. -1.
         21    1    1    2  503  502 -0.38150430119E+01  0.31485616804E+02  0.29812144692E+02  0.43527722084E+02  0.00000000000E+00 0. -1.
<mgrwt>
<rscale>  4 0.52066524E+03</rscale>
<asrwt>0</asrwt>
<pdfrwt beam="1">  1        2 0.44328071E-01 0.52066524E+03</pdfrwt>
<pdfrwt beam="2">  1       -2 0.42710727E-01 0.52066524E+03</pdfrwt>
<totfact> 0.60125309E+02</totfact>
</mgrwt>
</event>
<event>
 5    0  0.6041737E-002  0.4958865E+03  0.7546771E-02  0.1014858E+00
         -1   -1    0    0    0  501 -0.00000000000E+00  0.00000000000E+00  0.71615795118E+03  0.71615795118E+03  0.00000000000E+00 0. -1.
          1   -1    0    0  503    0  0.00000000000E+00 -0.00000000000E+00 -0.15584978483E+03  0.15584978483E+03  0.00000000000E+00 0.  1.
         25    1    1    2    0    0  0.15377544147E+02  0.27993748615E+03  0.24886731499E+03  0.39517262745E+03  0.12500000000E+03 0.  0.
         21    1    1    2  502  501  0.14999625649E+02 -0.11150906406E+03  0.28141718008E+03  0.30307571559E+03  0.00000000000E+00 0. -1.
         21    1    1    2  503  502 -0.30377169796E+02 -0.16842842209E+03  0.30023671281E+02  0.17375939298E+03  0.00000000000E+00 0. -1.
<mgrwt>
<rscale>  4 0.49588654E+03</rscale>
<asrwt>0</asrwt>
<pdfrwt beam="1">  1        1 0.23976890E-01 0.49588654E+03</pdfrwt>
<pdfrwt beam="2">  1       -1 0.11017814E+00 0.49588654E+03</pdfrwt>
<totfact> 0.16114960E+02</totfact>
</mgrwt>
</event>
<event>
 5    0  0.6041737E-002  0.5571429E+03  0.7546771E-02  0.9998540E-01
          2   -1    0    0  503    0  0.00000000000E+00  0.00000000000E+00  0.17271387204E+04  0.17271387204E+04  0.00000000000E+00 0. -1.
         -2   -1    0    0    0  501 -0.00000000000E+00 -0.00000000000E+00 -0.44930992256E+02  0.44930992256E+02  0.00000000000E+00 0.  1.
         25    1    1    2    0    0  0.12037515771E+02 -0.24495324225E+03  0.11648747011E+04  0.11969565831E+04  0.12500000000E+03 0.  0.
         21    1    1    2  502  501 -0.35998308126E+01  0.16378617796E+03  0.39945825319E+03  0.43174734153E+03  0.00000000000E+00 0.  1.
         21    1    1    2  503  502 -0.84376849585E+01  0.81167064295E+02  0.11787477386E+03  0.14336578799E+03  0.00000000000E+00 0.  1.
<mgrwt>
<rscale>  4 0.55714291E+03</rscale>
<asrwt>0</asrwt>
<pdfrwt beam="1">  1        2 0.26571360E+00 0.55714291E+03</pdfrwt>
<pdfrwt beam="2">  1       -2 0.69124617E-02 0.55714291E+03</pdfrwt>
<totfact> 0.12069260E+03</totfact>
</mgrwt>
</event>
<event>
 5    0  0.6041737E-002  0.7227688E+03  0.7546771E-02  0.9679068E-01
         -1   -1    0    0    0  501 -0.00000000000E+00  0.00000000000E+00  0.24771900260E+03  0.24771900260E+03  0.00000000000E+00 0. -1.
          1   -1    0    0  503    0  0.00000000000E+00 -0.00000000000E+00 -0.52720501387E+03  0.52720501387E+03  0.00000000000E+00 0.  1.
         25    1    1    2    0    0 -0.28070484708E+03  0.97090042719E+02 -0.33120270176E+03  0.46210595886E+03  0.12500000000E+03 0.  0.
         21    1    1    2  502  501  0.68725026337E+02 -0.33402514072E+02  0.50283867688E+02  0.91473080964E+02  0.00000000000E+00 0. -1.
         21    1    1    2  503  502  0.21197982074E+03 -0.63687528647E+02  0.14328227987E+01  0.22134497665E+03  0.00000000000E+00 0. -1.
<mgrwt>
<rscale>  4 0.72276884E+03</rscale>
<asrwt>0</asrwt>
<pdfrwt beam="1">  1        1 0.81108464E-01 0.72276884E+03</pdfrwt>
<pdfrwt beam="2">  1       -1 0.38110616E-01 0.72276884E+03</pdfrwt>
<totfact> 0.27726705E+02</totfact>
</mgrwt>
</event>
<event>
 5    0  0.6041737E-002  0.5055361E+03  0.7546771E-02  0.1012344E+00
          2   -1    0    0  503    0  0.00000000000E+00  0.00000000000E+00  0.89502278041E+03  0.89502278041E+03  0.00000000000E+00 0. -1.
         -2   -1    0    0    0  501 -0.00000000000E+00 -0.00000000000E+00 -0.71385554225E+02  0.71385554225E+02  0.00000000000E+00 0.  1.
         25    1    1    2    0    0 -0.58024520234E+02 -0.21718844912E+03  0.38108216788E+03  0.45976764355E+03  0.12500000000E+03 0.  0.
         21    1    1    2  502  501 -0.15536385815E+02  0.99137898144E+02  0.12754244310E+03  0.16228609591E+03  0.00000000000E+00 0.  1.
         21    1    1    2  503  502  0.73560906049E+02  0.11805055097E+03  0.31501261520E+03  0.34435459518E+03  0.00000000000E+00 0.  1.
<mgrwt>
<rscale>  4 0.50553614E+03</rscale>
<asrwt>0</asrwt>
<pdfrwt beam="1">  1        2 0.13769580E+00 0.50553614E+03</pdfrwt>
<pdfrwt beam="2">  1       -2 0.10982394E-01 0.50553614E+03</pdfrwt>
<totfact> 0.17479033E+03</totfact>
</mgrwt>
</event>
<event>
 5    0  0.6041737E-002  0.5933015E+03  0.7546771E-02  0.9919402E-01
          2   -1    0    0  503    0  0.00000000000E+00  0.00000000000E+00  0.41682992969E+03  0.41682992969E+03  0.00000000000E+00 0.  1.
         -2   -1    0    0    0  501 -0.00000000000E+00 -0.00000000000E+00 -0.23821666241E+03  0.23821666241E+03  0.00000000000E+00 0. -1.
         25    1    1    2    0    0 -0.19614997468E+03 -0.12181827389E+03  0.26121774973E+03  0.37037037840E+03  0.12500000000E+03 0.  0.
         21    1    1    2  502  501  0.22810442843E+02  0.92129888761E+01  0.38068848830E+02  0.45325850438E+02  0.00000000000E+00 0.  1.
         21    1    1    2  503  502  0.17333953184E+03  0.11260528502E+03 -0.12067333129E+03  0.23935036326E+03  0.00000000000E+00 0. -1.
<mgrwt>
<rscale>  4 0.59330148E+03</rscale>
<asrwt>0</asrwt>
<pdfrwt beam="1">  1        2 0.64127681E-01 0.59330148E+03</pdfrwt>
<pdfrwt beam="2">  1       -2 0.36648717E-01 0.59330148E+03</pdfrwt>
<totfact> 0.53643183E+02</totfact>
</mgrwt>
</event>
<event>
 5    0  0.6041737E-002  0.8774263E+03  0.7546771E-02  0.9454248E-01
         -2   -1    0    0    0  501 -0.00000000000E+00  0.00000000000E+00  0.41526127308E+03  0.41526127308E+03  0.00000000000E+00 0. -1.
          2   -1    0    0  503    0  0.00000000000E+00 -0.00000000000E+00 -0.46348952289E+03  0.46348952289E+03  0.00000000000E+00 0.  1.
         25    1    1    2    0    0  0.22305164284E+03  0.26348088903E+03 -0.27627943902E+03  0.45948834880E+03  0.12500000000E+03 0.  0.
         21    1    1    2  502  501 -0.46197420501E+02 -0.26785817576E+02  0.16586073171E+02  0.55917613570E+02  0.00000000000E+00 0.  1.
         21    1    1    2  503  502 -0.17685422234E+03 -0.23669507145E+03  0.21146511603E+03  0.36334483361E+03  0.00000000000E+00 0. -1.
<mgrwt>
<rscale>  4 0.87742635E+03</rscale>
<asrwt>0</asrwt>
<pdfrwt beam="1">  1        2 0.71306080E-01 0.87742635E+03</pdfrwt>
<pdfrwt beam="2">  1       -2 0.63886350E-01 0.87742635E+03</pdfrwt>
<totfact> 0.15307767E+02</totfact>
</mgrwt>
</event>
<event>
 5    0  0.6041737E-002  0.4655538E+03  0.7546771E-02  0.1023183E+00
         -2   -1    0    0    0  501 -0.00000000000E+00  0.00000000000E+00  0.25792514484E+02  0.25792514484E+02  0.00000000000E+00 0. -1.
          2   -1    0    0  503    0  0.00000000000E+00 -0.00000000000E+00 -0.21008066188E+04  0.21008066188E+04  0.00000000000E+00 0.  1.
         25    1    1    2    0    0  0.17668234668E+03 -0.95213487231E+02 -0.13107884478E+04  0.13319435478E+04  0.12500000000E+03 0.  0.
         21    1    1    2  502  501 -0.89750591817E+02  0.17740017399E+02 -0.22284584952E+03  0.24089447813E+03  0.00000000000E+00 0. -1.
         21    1    1    2  503  502 -0.86931754861E+02  0.77473469832E+02 -0.54137980704E+03  0.55376110734E+03  0.00000000000E+00 0. -1.
<mgrwt>
<rscale>  4 0.46555380E+03</rscale>
<asrwt>0</asrwt>
<pdfrwt beam="1">  1        2 0.32320090E+00 0.46555380E+03</pdfrwt>
<pdfrwt beam="2">  1       -2 0.39680806E-02 0.46555380E+03</pdfrwt>
<totfact> 0.18043918E+03</totfact>
</mgrwt>
</event>
<event>
 5    0  0.6041737E-002  0.4892690E+03  0.7546771E-02  0.1016618E+00
          3   -1    0    0  503    0  0.00000000000E+00  0.00000000000E+00  0.24802158008E+03  0.24802158008E+03  0.00000000000E+00 0. -1.
         -3   -1    0    0    0  501 -0.00000000000E+00 -0.00000000000E+00 -0.24129371078E+03  0.24129371078E+03  0.00000000000E+00 0.  1.
         25    1    1    2    0    0 -0.21168348022E+03 -0.76084395316E+02 -0.11575742367E+02  0.25759993948E+03  0.12500000000E+03 0.  0.
         21    1    1    2  502  501  0.17252762239E+03  0.82613026589E+02  0.15883473976E+02  0.19194524583E+03  0.00000000000E+00 0.  1.
         21    1    1    2  503  502  0.39155857831E+02 -0.65286312734E+01  0.24201376927E+01  0.39770105547E+02  0.00000000000E+00 0.  1.
<mgrwt>
<rscale>  4 0.48926904E+03</rscale>
<asrwt>0</asrwt>
<pdfrwt beam="1">  1        3 0.38157166E-01 0.48926904E+03</pdfrwt>
<pdfrwt beam="2">  1       -3 0.37122109E-01 0.48926904E+03</pdfrwt>
<totfact> 0.12765558E+02</totfact>
</mgrwt>
</event>
<event>
 5    0  0.6041737E-002  0.6185591E+03  0.7546771E-02  0.9867633E-01
          2   -1    0    0  503    0  0.00000000000E+00  0.00000000000E+00  0.15325619282E+04  0.15325619282E+04  0.00000000000E+00 0. -1.
         -2   -1    0    0    0  501 -0.00000000000E+00 -0.00000000000E+00 -0.62414333568E+02  0.62414333568E+02  0.00000000000E+00 0.  1.
         25    1    1    2    0    0  0.20155485928E+03 -0.17550442562E+03  0.10657225244E+04  0.11058099582E+04  0.12500000000E+03 0.  0.
         21    1    1    2  502  501 -0.29064568865E+02  0.36241767200E+02  0.34374148571E+02  0.57790976312E+02  0.00000000000E+00 0. -1.
         21    1    1    2  503  502 -0.17249029041E+03  0.13926265842E+03  0.37005092167E+03  0.43137532723E+03  0.00000000000E+00 0.  1.
<mgrwt>
<rscale>  4 0.61855907E+03</rscale>
<asrwt>0</asrwt>
<pdfrwt beam="1">  1        2 0.23577873E+00 0.61855907E+03</pdfrwt>
<pdfrwt beam="2">  1       -2 0.96022063E-02 0.61855907E+03</pdfrwt>
<totfact> 0.90911558E+02</totfact>
</mgrwt>
</event>
<event>
 5    0  0.6041737E-002  0.4936010E+03  0.7546771E-02  0.1015463E+00
          2   -1    0    0  503    0  0.00000000000E+00  0.00000000000E+00  0.25605356287E+03  0.25605356287E+03  0.00000000000E+00 0.  1.
         -2   -1    0    0    0  501 -0.00000000000E+00 -0.00000000000E+00 -0.23788178838E+03  0.23788178838E+03  0.00000000000E+00 0. -1.
         25    1    1    2    0    0 -0.17998089765E+03  0.11346054596E+03 -0.72126744019E+02  0.25708692346E+03  0.12500000000E+03 0.  0.
         21    1    1    2  502  501  0.45669789078E+02 -0.45710894309E+02  0.48275259865E+02  0.80658020110E+02  0.00000000000E+00 0.  1.
         21    1    1    2  503  502  0.13431110858E+03 -0.67749651655E+02  0.42023258646E+02  0.15619040769E+03  0.00000000000E+00 0.  1.
<mgrwt>
<rscale>  4 0.49360097E+03</rscale>
<asrwt>0</asrwt>
<pdfrwt beam="1">  1        2 0.39392856E-01 0.49360097E+03</pdfrwt>
<pdfrwt beam="2">  1       -2 0.36597198E-01 0.49360097E+03</pdfrwt>
<totfact> 0.92322930E+02</totfact>
</mgrwt>
</event>
<event>
 5    0  0.6041737E-002  0.9127525E+03  0.7546771E-02  0.9409779E-01
         -2   -1    0    0    0  501 -0.00000000000E+00  0.00000000000E+00  0.51155681536E+03  0.51155681536E+03  0.00000000000E+00 0.  1.
          2   -1    0    0  503    0  0.00000000000E+00 -0.00000000000E+00 -0.40714786477E+03  0.40714786477E+03  0.00000000000E+00 0. -1.
         25    1    1    2    0    0 -0.17058409617E+03 -0.32243552292E+03  0.29720401618E+03  0.48684579442E+03  0.12500000000E+03 0.  0.
         21    1    1    2  502  501  0.53835476492E+01  0.11396073486E+03 -0.94981055630E+02  0.14845010139E+03  0.00000000000E+00 0. -1.
         21    1    1    2  503  502  0.16520054852E+03  0.20847478806E+03 -0.97814009958E+02  0.28340878432E+03  0.00000000000E+00 0. -1.
<mgrwt>
<rscale>  4 0.91275246E+03</rscale>
<asrwt>0</asrwt>
<pdfrwt beam="1">  1        2 0.62638133E-01 0.91275246E+03</pdfrwt>
<pdfrwt beam="2">  1       -2 0.78701049E-01 0.91275246E+03</pdfrwt>
<totfact> 0.11215613E+02</totfact>
</mgrwt>
</event>
<event>
 5    0  0.6041737E-002  0.7478111E+03  0.7546771E-02  0.9638791E-01
          1   -1    0    0  503    0  0.00000000000E+00  0.00000000000E+00  0.93716475085E+03  0.93716475085E+03  0.00000000000E+00 0. -1.
         -1   -1    0    0    0  501 -0.00000000000E+00 -0.00000000000E+00 -0.18293028373E+03  0.18293028373E+03  0.00000000000E+00 0.  1.
         25    1    1    2    0    0 -0.29324111052E+03 -0.10450363736E+03  0.76496788346E+02  0.34407574420E+03  0.12500000000E+03 0.  0.
         21    1    1    2  502  501  0.24362770767E+03  0.56806648914E+02  0.65871239079E+03  0.70461583086E+03  0.00000000000E+00 0. -1.
         21    1    1    2  503  502  0.49613402851E+02  0.47696988444E+02  0.19025287976E+02  0.71403459521E+02  0.00000000000E+00 0.  1.
<mgrwt>
<rscale>  4 0.74781113E+03</rscale>
<asrwt>0</asrwt>
<pdfrwt beam="1">  1        1 0.14417919E+00 0.74781113E+03</pdfrwt>
<pdfrwt beam="2">  1       -1 0.28143121E-01 0.74781113E+03</pdfrwt>
<totfact> 0.19632711E+02</totfact>
</mgrwt>
</event>
<event>
 5    0  0.6041737E-002  0.5199663E+03  0.7546771E-02  0.1008695E+00
          2   -1    0    0  503    0  0.00000000000E+00  0.00000000000E+00  0.16444530143E+04  0.16444530143E+04  0.00000000000E+00 0.  1.
         -2   -1    0    0    0  501 -0.00000000000E+00 -0.00000000000E+00 -0.41102569874E+02  0.41102569874E+02  0.00000000000E+00 0. -1.
         25    1    1    2    0    0  0.63823713613E+02  0.22583289423E+03  0.10487101608E+04  0.10818927692E+04  0.12500000000E+03 0.  0.
         21    1    1    2  502  501 -0.26252830062E+02 -0.35529412695E+02  0.11109136515E+03  0.11955267318E+03  0.00000000000E+00 0. -1.
         21    1    1    2  503  502 -0.37570883550E+02 -0.19030348154E+03  0.44354891845E+03  0.48411014184E+03  0.00000000000E+00 0. -1.
<mgrwt>
<rscale>  4 0.51996633E+03</rscale>
<asrwt>0</asrwt>
<pdfrwt beam="1">  1        2 0.25299272E+00 0.51996633E+03</pdfrwt>
<pdfrwt beam="2">  1       -2 0.63234736E-02 0.51996633E+03</pdfrwt>
<totfact> 0.15416979E+03</totfact>
</mgrwt>
</event>
<event>
 5    0  0.6041737E-002  0.4744176E+03  0.7546771E-02  0.1020681E+00
          1   -1    0    0  503    0  0.00000000000E+00  0.00000000000E+00  0.60848759234E+03  0.60848759234E+03  0.00000000000E+00 0. -1.
         -1   -1    0    0    0  501 -0.00000000000E+00 -0.00000000000E+00 -0.12197518615E+03  0.12197518615E+03  0.00000000000E+00 0.  1.
         25    1    1    2    0    0  0.12350465329E+03 -0.17011212043E+03  0.29480698077E+03  0.38305050426E+03  0.12500000000E+03 0.  0.
         21    1    1    2  502  501 -0.64882465023E+02  0.20162428016E+03  0.10032950652E+03  0.23436743480E+03  0.00000000000E+00 0.  1.
         21    1    1    2  503  502 -0.58622188272E+02 -0.31512159722E+02  0.91375918891E+02  0.11304483943E+03  0.00000000000E+00 0. -1.
<mgrwt>
<rscale>  4 0.47441761E+03</rscale>
<asrwt>0</asrwt>
<pdfrwt beam="1">  1        1 0.93613474E-01 0.47441761E+03</pdfrwt>
<pdfrwt beam="2">  1       -1 0.18765414E-01 0.47441761E+03</pdfrwt>
<totfact> 0.77045794E+02</totfact>
</mgrwt>
</event>
<event>
 5    0  0.6041737E-002  0.5756166E+03  0.7546771E-02  0.9957326E-01
         -1   -1    0    0    0  501 -0.00000000000E+00  0.00000000000E+00  0.10789345847E+03  0.10789345847E+03  0.00000000000E+00 0.  1.
          1   -1    0    0  503    0  0.00000000000E+00 -0.00000000000E+00 -0.92894194781E+03  0.92894194781E+03  0.00000000000E+00 0. -1.
         25    1    1    2    0    0 -0.15843281516E+03 -0.23668792305E+03 -0.46616256059E+03  0.56040580184E+03  0.12500000000E+03 0.  0.
         21    1    1    2  502  501  0.92412895603E+01  0.18526492040E+02  0.12250415787E+02  0.24056288720E+02  0.00000000000E+00 0. -1.
         21    1    1    2  503  502  0.14919152560E+03  0.21816143101E+03 -0.36713634454E+03  0.45237331572E+03  0.00000000000E+00 0.  1.
<mgrwt>
<rscale>  4 0.57561660E+03</rscale>
<asrwt>0</asrwt>
<pdfrwt beam="1">  1        1 0.14291415E+00 0.57561660E+03</pdfrwt>
<pdfrwt beam="2">  1       -1 0.16598993E-01 0.57561660E+03</pdfrwt>
<totfact> 0.48779225E+02</totfact>
</mgrwt>
</event>
<event>
 5    0  0.6041737E-002  0.6170858E+03  0.7546771E-02  0.9870579E-01
         -2   -1    0    0    0  501 -0.00000000000E+00  0.00000000000E+00  0.17571442368E+03  0.17571442368E+03  0.00000000000E+00 0.  1.
          2   -1    0    0  503    0  0.00000000000E+00 -0.00000000000E+00 -0.54178088804E+03  0.54178088804E+03  0.00000000000E+00 0. -1.
         25    1    1    2    0    0  0.21117017714E+03 -0.22115258770E+01  0.40172751120E+02  0.24866962921E+03  0.12500000000E+03 0.  0.
         21    1    1    2  502  501 -0.48482507316E+02  0.44479116500E+02 -0.12169219710E+03  0.13833992973E+03  0.00000000000E+00 0.  1.
         21    1    1    2  503  502 -0.16268766983E+03 -0.42267590623E+02 -0.28454701837E+03  0.33048575279E+03  0.00000000000E+00 0. -1.
<mgrwt>
<rscale>  4 0.61708578E+03</rscale>
<asrwt>0</asrwt>
<pdfrwt beam="1">  1        2 0.83350904E-01 0.61708578E+03</pdfrwt>
<pdfrwt beam="2">  1       -2 0.27032989E-01 0.61708578E+03</pdfrwt>
<totfact> 0.70038797E+02</totfact>
</mgrwt>
</event>
