<event>
 5    0  0.1856407E+000  0.2406826E+03  0.7546771E-02  0.1119339E+00
         21   -1    0    0  502  501  0.00000000000E+00  0.00000000000E+00  0.14628185008E+04  0.14628185008E+04  0.00000000000E+00 0. -1.
         21   -1    0    0  503  502 -0.00000000000E+00 -0.00000000000E+00 -0.38284208089E+02  0.38284208089E+02  0.00000000000E+00 0. -1.
         25    1    1    2    0    0 -0.64660695471E+02 -0.19524878765E+03  0.94114951442E+03  0.97143733874E+03  0.12500000000E+03 0.  0.
         21    1    1    2  503  504  0.69601468871E+01  0.10098538942E+03  0.17624393156E+03  0.20324471932E+03  0.00000000000E+00 0. -1.
         21    1    1    2  504  501  0.57700548583E+02  0.94263398228E+02  0.30714084674E+03  0.32642065083E+03  0.00000000000E+00 0. -1.
<mgrwt>
<rscale>  4 0.24068256E+03</rscale>
<asrwt>0</asrwt>
<pdfrwt beam="1">  1       21 0.22504896E+00 0.24068256E+03</pdfrwt>
<pdfrwt beam="2">  1       21 0.58898793E-02 0.24068256E+03</pdfrwt>
<totfact> 0.18390016E+04</totfact>
</mgrwt>
</event>
<event>
 5    0  0.1856407E+000  0.4452460E+03  0.7546771E-02  0.1029149E+00
         21   -1    0    0  502  501  0.00000000000E+00  0.00000000000E+00  0.19648424422E+03  0.19648424422E+03  0.00000000000E+00 0. -1.
         21   -1    0    0  503  502 -0.00000000000E+00 -0.00000000000E+00 -0.10061908010E+04  0.10061908010E+04  0.00000000000E+00 0. -1.
         25    1    1    2    0    0  0.36977229911E+03  0.21421354980E+03 -0.32668420539E+03  0.55223778226E+03  0.12500000000E+03 0.  0.
         21    1    1    2  503  504 -0.49028013509E+02 -0.17385742448E+02 -0.25206561945E+02  0.57804678999E+02  0.00000000000E+00 0.  1.
         21    1    1    2  504  501 -0.32074428560E+03 -0.19682780736E+03 -0.45781578940E+03  0.59263258391E+03  0.00000000000E+00 0. -1.
<mgrwt>
<rscale>  4 0.44524600E+03</rscale>
<asrwt>0</asrwt>
<pdfrwt beam="1">  1       21 0.30228345E-01 0.44524600E+03</pdfrwt>
<pdfrwt beam="2">  1       21 0.15479859E+00 0.44524600E+03</pdfrwt>
<totfact> 0.24846531E+03</totfact>
</mgrwt>
</event>
<event>
 5    0  0.1856407E+000  0.3733836E+03  0.7546771E-02  0.1053407E+00
         21   -1    0    0  502  501  0.00000000000E+00  0.00000000000E+00  0.24293580134E+03  0.24293580134E+03  0.00000000000E+00 0. -1.
         21   -1    0    0  503  502 -0.00000000000E+00 -0.00000000000E+00 -0.75247719482E+03  0.75247719482E+03  0.00000000000E+00 0.  1.
         25    1    1    2    0    0 -0.34530236279E+03  0.67502306039E+02 -0.54365274564E+01  0.37342313654E+03  0.12500000000E+03 0.  0.
         21    1    1    2  503  504  0.45375761450E+02 -0.42034067074E+02 -0.66094707317E+02  0.90522554411E+02  0.00000000000E+00 0. -1.
         21    1    1    2  504  501  0.29992660134E+03 -0.25468238965E+02 -0.43801015871E+03  0.53146730522E+03  0.00000000000E+00 0.  1.
<mgrwt>
<rscale>  4 0.37338356E+03</rscale>
<asrwt>0</asrwt>
<pdfrwt beam="1">  1       21 0.37374739E-01 0.37338356E+03</pdfrwt>
<pdfrwt beam="2">  1       21 0.11576572E+00 0.37338356E+03</pdfrwt>
<totfact> 0.35720601E+03</totfact>
</mgrwt>
</event>
<event>
 5    0  0.2364130E+000  0.3475304E+03  0.7546771E-02  0.1063633E+00
         21   -1    0    0  502  501  0.00000000000E+00  0.00000000000E+00  0.29480692365E+03  0.29480692365E+03  0.00000000000E+00 0. -1.
         21   -1    0    0  503  502 -0.00000000000E+00 -0.00000000000E+00 -0.48432221800E+03  0.48432221800E+03  0.00000000000E+00 0.  1.
         25    1    1    2    0    0  0.18794178815E+03 -0.26425414528E+03  0.70819016165E+02  0.35467266893E+03  0.12500000000E+03 0.  0.
         21    1    1    2  503  504 -0.36076944491E+02  0.24463784848E+02 -0.72761186418E+01  0.44192359016E+02  0.00000000000E+00 0.  1.
         21    1    1    2  504  501 -0.15186484366E+03  0.23979036043E+03 -0.25305819187E+03  0.38026411370E+03  0.00000000000E+00 0.  1.
<mgrwt>
<rscale>  4 0.34753039E+03</rscale>
<asrwt>0</asrwt>
<pdfrwt beam="1">  1       21 0.45354912E-01 0.34753039E+03</pdfrwt>
<pdfrwt beam="2">  1       21 0.74511109E-01 0.34753039E+03</pdfrwt>
<totfact> 0.69058325E+03</totfact>
</mgrwt>
</event>
<event>
 5    0  0.1856407E+000  0.4349777E+03  0.7546771E-02  0.1032299E+00
         21   -1    0    0  502  501  0.00000000000E+00  0.00000000000E+00  0.21826025575E+03  0.21826025575E+03  0.00000000000E+00 0.  1.
         21   -1    0    0  503  502 -0.00000000000E+00 -0.00000000000E+00 -0.10517175096E+04  0.10517175096E+04  0.00000000000E+00 0. -1.
         25    1    1    2    0    0 -0.85880539687E+02 -0.40768263097E+03 -0.14293057254E+03  0.45785886827E+03  0.12500000000E+03 0.  0.
         21    1    1    2  503  504 -0.25916926312E+01  0.21434142684E+03 -0.36563324986E+03  0.42383562561E+03  0.00000000000E+00 0. -1.
         21    1    1    2  504  501  0.88472232318E+02  0.19334120412E+03 -0.32489343140E+03  0.38828327143E+03  0.00000000000E+00 0. -1.
<mgrwt>
<rscale>  4 0.43497769E+03</rscale>
<asrwt>0</asrwt>
<pdfrwt beam="1">  1       21 0.33578501E-01 0.43497769E+03</pdfrwt>
<pdfrwt beam="2">  1       21 0.16180269E+00 0.43497769E+03</pdfrwt>
<totfact> 0.17884694E+03</totfact>
</mgrwt>
</event>
<event>
 5    0  0.1856407E+000  0.3494669E+03  0.7546771E-02  0.1062834E+00
         21   -1    0    0  502  501  0.00000000000E+00  0.00000000000E+00  0.11809243130E+04  0.11809243130E+04  0.00000000000E+00 0.  1.
         21   -1    0    0  503  502 -0.00000000000E+00 -0.00000000000E+00 -0.48790604863E+03  0.48790604863E+03  0.00000000000E+00 0.  1.
         25    1    1    2    0    0 -0.26897525603E+03 -0.18480925201E+03  0.10908445117E+04  0.11454557594E+04  0.12500000000E+03 0.  0.
         21    1    1    2  503  504  0.22811121948E+03  0.15453217107E+03 -0.38021937414E+03  0.46955478149E+03  0.00000000000E+00 0.  1.
         21    1    1    2  504  501  0.40864036558E+02  0.30277080941E+02 -0.17606873260E+02  0.53819820699E+02  0.00000000000E+00 0. -1.
<mgrwt>
<rscale>  4 0.34946695E+03</rscale>
<asrwt>0</asrwt>
<pdfrwt beam="1">  1       21 0.18168066E+00 0.34946695E+03</pdfrwt>
<pdfrwt beam="2">  1       21 0.75062470E-01 0.34946695E+03</pdfrwt>
<totfact> 0.24310467E+02</totfact>
</mgrwt>
</event>
<event>
 5    0  0.1856407E+000  0.1984625E+03  0.7546771E-02  0.1151043E+00
         21   -1    0    0  502  501  0.00000000000E+00  0.00000000000E+00  0.11277632857E+04  0.11277632857E+04  0.00000000000E+00 0. -1.
         21   -1    0    0  503  502 -0.00000000000E+00 -0.00000000000E+00 -0.23958415717E+03  0.23958415717E+03  0.00000000000E+00 0. -1.
         25    1    1    2    0    0 -0.99429584691E+02  0.20769374590E+03  0.97414441641E+03  0.10087642333E+04  0.12500000000E+03 0.  0.
         21    1    1    2  503  504  0.41654654541E+02 -0.14626741611E+03 -0.17775609823E+03  0.23393695244E+03  0.00000000000E+00 0. -1.
         21    1    1    2  504  501  0.57774930151E+02 -0.61426329793E+02  0.91790810343E+02  0.12464625710E+03  0.00000000000E+00 0. -1.
<mgrwt>
<rscale>  4 0.19846251E+03</rscale>
<asrwt>0</asrwt>
<pdfrwt beam="1">  1       21 0.17350204E+00 0.19846251E+03</pdfrwt>
<pdfrwt beam="2">  1       21 0.36859102E-01 0.19846251E+03</pdfrwt>
<totfact> 0.14232533E+03</totfact>
</mgrwt>
</event>
<event>
 5    0  0.2583759E+000  0.2467789E+03  0.7546771E-02  0.1115358E+00
         21   -1    0    0  502  501  0.00000000000E+00  0.00000000000E+00  0.11053922396E+04  0.11053922396E+04  0.00000000000E+00 0. -1.
         21   -1    0    0  503  502 -0.00000000000E+00 -0.00000000000E+00 -0.93802354220E+02  0.93802354220E+02  0.00000000000E+00 0.  1.
         25    1    1    2    0    0 -0.79218502389E+01  0.21652661930E+03  0.89957853471E+03  0.93370930845E+03  0.12500000000E+03 0.  0.
         21    1    1    2  503  504  0.29302348009E+02 -0.19283398775E+02  0.42851247532E+02  0.55377851911E+02  0.00000000000E+00 0.  1.
         21    1    1    2  504  501 -0.21380497770E+02 -0.19724322053E+03  0.69160103137E+02  0.21010743346E+03  0.00000000000E+00 0.  1.
<mgrwt>
<rscale>  4 0.24677894E+03</rscale>
<asrwt>0</asrwt>
<pdfrwt beam="1">  1       21 0.17006034E+00 0.24677894E+03</pdfrwt>
<pdfrwt beam="2">  1       21 0.14431132E-01 0.24677894E+03</pdfrwt>
<totfact> 0.86234388E+03</totfact>
</mgrwt>
</event>
<event>
 5    0  0.1856407E+000  0.2499043E+03  0.7546771E-02  0.1113365E+00
         21   -1    0    0  502  501  0.00000000000E+00  0.00000000000E+00  0.19308741424E+03  0.19308741424E+03  0.00000000000E+00 0.  1.
         21   -1    0    0  503  502 -0.00000000000E+00 -0.00000000000E+00 -0.39000662819E+03  0.39000662819E+03  0.00000000000E+00 0.  1.
         25    1    1    2    0    0 -0.16378716226E+03 -0.14142471204E+03  0.48219399573E+02  0.25451383890E+03  0.12500000000E+03 0.  0.
         21    1    1    2  503  504  0.23534537718E+02  0.15870193357E+02 -0.18147020445E+02  0.33690530626E+02  0.00000000000E+00 0.  1.
         21    1    1    2  504  501  0.14025262455E+03  0.12555451869E+03 -0.22699159307E+03  0.29488967290E+03  0.00000000000E+00 0.  1.
<mgrwt>
<rscale>  4 0.24990435E+03</rscale>
<asrwt>0</asrwt>
<pdfrwt beam="1">  1       21 0.29705756E-01 0.24990435E+03</pdfrwt>
<pdfrwt beam="2">  1       21 0.60001019E-01 0.24990435E+03</pdfrwt>
<totfact> 0.27332938E+04</totfact>
</mgrwt>
</event>
<event>
 5    0  0.1856407E+000  0.3442871E+03  0.7546771E-02  0.1064985E+00
         21   -1    0    0  502  501  0.00000000000E+00  0.00000000000E+00  0.63371790108E+03  0.63371790108E+03  0.00000000000E+00 0.  1.
         21   -1    0    0  503  502 -0.00000000000E+00 -0.00000000000E+00 -0.32862956801E+03  0.32862956801E+03  0.00000000000E+00 0.  1.
         25    1    1    2    0    0  0.35605067983E+03  0.10775819140E+03  0.27919416853E+03  0.48162049184E+03  0.12500000000E+03 0.  0.
         21    1    1    2  503  504 -0.54441031215E+02 -0.51939780682E+02  0.13550917801E+03  0.15499775489E+03  0.00000000000E+00 0.  1.
         21    1    1    2  504  501 -0.30160964862E+03 -0.55818410713E+02 -0.10961501347E+03  0.32572922235E+03  0.00000000000E+00 0.  1.
<mgrwt>
<rscale>  4 0.34428711E+03</rscale>
<asrwt>0</asrwt>
<pdfrwt beam="1">  1       21 0.97495061E-01 0.34428711E+03</pdfrwt>
<pdfrwt beam="2">  1       21 0.50558395E-01 0.34428711E+03</pdfrwt>
<totfact> 0.29447862E+03</totfact>
</mgrwt>
</event>
<event>
 5    0  0.3334684E+000  0.2382309E+03  0.7546771E-02  0.1120977E+00
         21   -1    0    0  502  501  0.00000000000E+00  0.00000000000E+00  0.12220402946E+03  0.12220402946E+03  0.00000000000E+00 0. -1.
         21   -1    0    0  503  502 -0.00000000000E+00 -0.00000000000E+00 -0.80476029172E+03  0.80476029172E+03  0.00000000000E+00 0. -1.
         25    1    1    2    0    0 -0.20108991379E+03  0.49404680488E+02 -0.39189050054E+02  0.24502807497E+03  0.12500000000E+03 0.  0.
         21    1    1    2  503  504  0.18518148207E+03 -0.36215225307E+02 -0.45692481160E+03  0.49435210862E+03  0.00000000000E+00 0. -1.
         21    1    1    2  504  501  0.15908431719E+02 -0.13189455181E+02 -0.18644240061E+03  0.18758413759E+03  0.00000000000E+00 0. -1.
<mgrwt>
<rscale>  4 0.23823086E+03</rscale>
<asrwt>0</asrwt>
<pdfrwt beam="1">  1       21 0.18800621E-01 0.23823086E+03</pdfrwt>
<pdfrwt beam="2">  1       21 0.12380927E+00 0.23823086E+03</pdfrwt>
<totfact> 0.12284472E+04</totfact>
</mgrwt>
</event>
<event>
 5    0  0.1954826E+000  0.3054591E+03  0.7546771E-02  0.1082543E+00
         21   -1    0    0  502  501  0.00000000000E+00  0.00000000000E+00  0.46463663800E+03  0.46463663800E+03  0.00000000000E+00 0.  1.
         21   -1    0    0  503  502 -0.00000000000E+00 -0.00000000000E+00 -0.19325973646E+03  0.19325973646E+03  0.00000000000E+00 0.  1.
         25    1    1    2    0    0  0.23765956828E+03  0.14559592291E+03  0.74071458168E+02  0.31431166711E+03  0.12500000000E+03 0.  0.
         21    1    1    2  503  504 -0.24738178806E+02 -0.24671162030E+02  0.37141223562E+02  0.50991315086E+02  0.00000000000E+00 0.  1.
         21    1    1    2  504  501 -0.21292138948E+03 -0.12092476088E+03  0.16016421981E+03  0.29259339226E+03  0.00000000000E+00 0.  1.
<mgrwt>
<rscale>  4 0.30545907E+03</rscale>
<asrwt>0</asrwt>
<pdfrwt beam="1">  1       21 0.71482559E-01 0.30545907E+03</pdfrwt>
<pdfrwt beam="2">  1       21 0.29732267E-01 0.30545907E+03</pdfrwt>
<totfact> 0.18129546E+04</totfact>
</mgrwt>
</event>
<event>
 5    0  0.1856407E+000  0.5041573E+03  0.7546771E-02  0.1013591E+00
         21   -1    0    0  502  501  0.00000000000E+00  0.00000000000E+00  0.25860360487E+04  0.25860360487E+04  0.00000000000E+00 0. -1.
         21   -1    0    0  503  502 -0.00000000000E+00 -0.00000000000E+00 -0.97570665851E+02  0.97570665851E+02  0.00000000000E+00 0.  1.
         25    1    1    2    0    0 -0.36034009437E+03 -0.30849301741E+03  0.14156800378E+04  0.14982616243E+04  0.12500000000E+03 0.  0.
         21    1    1    2  503  504  0.23145861682E+03  0.18032177034E+03  0.84148658666E+03  0.89117265874E+03  0.00000000000E+00 0.  1.
         21    1    1    2  504  501  0.12888147754E+03  0.12817124707E+03  0.23129875836E+03  0.29417243149E+03  0.00000000000E+00 0.  1.
<mgrwt>
<rscale>  4 0.50072014E+03</rscale>
<asrwt>0</asrwt>
<pdfrwt beam="1">  1       21 0.39785165E+00 0.50415730E+03</pdfrwt>
<pdfrwt beam="2">  1       21 0.15010874E-01 0.50415730E+03</pdfrwt>
<totfact> 0.26118064E+02</totfact>
</mgrwt>
</event>
<event>
 5    0  0.1856407E+000  0.2628073E+03  0.7546771E-02  0.1105468E+00
         21   -1    0    0  502  501  0.00000000000E+00  0.00000000000E+00  0.40560933078E+03  0.40560933078E+03  0.00000000000E+00 0.  1.
         21   -1    0    0  503  502 -0.00000000000E+00 -0.00000000000E+00 -0.25477471936E+03  0.25477471936E+03  0.00000000000E+00 0.  1.
         25    1    1    2    0    0  0.98246290726E+02  0.20926146823E+03  0.28605566130E+03  0.38845274756E+03  0.12500000000E+03 0.  0.
         21    1    1    2  503  504 -0.17872744749E+02 -0.73723418310E+02 -0.25950331985E+02  0.80174791190E+02  0.00000000000E+00 0.  1.
         21    1    1    2  504  501 -0.80373545977E+02 -0.13553804992E+03 -0.10927071790E+03  0.19175651139E+03  0.00000000000E+00 0.  1.
<mgrwt>
<rscale>  4 0.26280734E+03</rscale>
<asrwt>0</asrwt>
<pdfrwt beam="1">  1       21 0.62401435E-01 0.26280734E+03</pdfrwt>
<pdfrwt beam="2">  1       21 0.39196111E-01 0.26280734E+03</pdfrwt>
<totfact> 0.14359570E+04</totfact>
</mgrwt>
</event>
