<event>
 5    0  0.1911311E+001  0.1970193E+03  0.7546771E-02  0.1152278E+00
         21   -1    0    0  504  501  0.00000000000E+00  0.00000000000E+00  0.68750510805E+02  0.68750510805E+02  0.00000000000E+00 0. -1.
         21   -1    0    0  503  502 -0.00000000000E+00 -0.00000000000E+00 -0.19549899107E+04  0.19549899107E+04  0.00000000000E+00 0. -1.
         25    1    1    2    0    0 -0.23863783629E+03  0.24341938376E+02 -0.12184170271E+04  0.12480807661E+04  0.12500000000E+03 0.  0.
         21    1    1    2  503  501  0.10588521042E+03  0.35286052163E+02 -0.60825723579E+03  0.61841219923E+03  0.00000000000E+00 0. -1.
         21    1    1    2  504  502  0.13275262587E+03 -0.59627990539E+02 -0.59565137088E+02  0.15724745622E+03  0.00000000000E+00 0. -1.
<mgrwt>
<rscale>  4 0.19701933E+03</rscale>
<asrwt>0</asrwt>
<pdfrwt beam="1">  1       21 0.10577002E-01 0.19701933E+03</pdfrwt>
<pdfrwt beam="2">  1       21 0.30076767E+00 0.19701933E+03</pdfrwt>
<totfact> 0.24694104E+03</totfact>
</mgrwt>
</event>
<event>
 5    0  0.1911311E+001  0.2481351E+03  0.7546771E-02  0.1114489E+00
         21   -1    0    0  502  501  0.00000000000E+00  0.00000000000E+00  0.32953510394E+03  0.32953510394E+03  0.00000000000E+00 0. -1.
         21   -1    0    0  504  502 -0.00000000000E+00 -0.00000000000E+00 -0.11545669046E+04  0.11545669046E+04  0.00000000000E+00 0.  1.
         25    1    1    2    0    0  0.40543467919E+02 -0.27700180621E+03 -0.83803285978E+03  0.89235522496E+03  0.12500000000E+03 0.  0.
         21    1    1    2  503  501 -0.58149438295E+01  0.21149241219E+03  0.25922293036E+03  0.33460331979E+03  0.00000000000E+00 0. -1.
         21    1    1    2  504  503 -0.34728524089E+02  0.65509394022E+02 -0.24622187120E+03  0.25714346375E+03  0.00000000000E+00 0. -1.
<mgrwt>
<rscale>  4 0.24813505E+03</rscale>
<asrwt>0</asrwt>
<pdfrwt beam="1">  1       21 0.50697708E-01 0.24813505E+03</pdfrwt>
<pdfrwt beam="2">  1       21 0.17762568E+00 0.24813505E+03</pdfrwt>
<totfact> 0.66082246E+02</totfact>
</mgrwt>
</event>
<event>
 5    0  0.4632096E+001  0.2760286E+03  0.7546771E-02  0.1097878E+00
         21   -1    0    0  502  501  0.00000000000E+00  0.00000000000E+00  0.16460097634E+04  0.16460097634E+04  0.00000000000E+00 0. -1.
         21   -1    0    0  504  502 -0.00000000000E+00 -0.00000000000E+00 -0.11909575358E+03  0.11909575358E+03  0.00000000000E+00 0. -1.
         25    1    1    2    0    0  0.10618290376E+03 -0.21264013094E+03  0.10000857755E+04  0.10355130094E+04  0.12500000000E+03 0.  0.
         21    1    1    2  503  501  0.22050496797E+02  0.99808234771E+00  0.47657014835E+03  0.47708104854E+03  0.00000000000E+00 0.  1.
         21    1    1    2  504  503 -0.12823340055E+03  0.21164204859E+03  0.50258086036E+02  0.25251145907E+03  0.00000000000E+00 0. -1.
<mgrwt>
<rscale>  4 0.27602862E+03</rscale>
<asrwt>0</asrwt>
<pdfrwt beam="1">  1       21 0.25323226E+00 0.27602862E+03</pdfrwt>
<pdfrwt beam="2">  1       21 0.18322425E-01 0.27602862E+03</pdfrwt>
<totfact> 0.15921097E+03</totfact>
</mgrwt>
</event>
<event>
 5    0  0.1911311E+001  0.2428064E+03  0.7546771E-02  0.1117937E+00
         21   -1    0    0  502  501  0.00000000000E+00  0.00000000000E+00  0.34727440082E+03  0.34727440082E+03  0.00000000000E+00 0. -1.
         21   -1    0    0  504  502 -0.00000000000E+00 -0.00000000000E+00 -0.15221678303E+03  0.15221678303E+03  0.00000000000E+00 0. -1.
         25    1    1    2    0    0 -0.11064600788E+03 -0.17631628036E+03  0.73881286195E+02  0.25379797917E+03  0.12500000000E+03 0.  0.
         21    1    1    2  503  501  0.10858066982E+03  0.14250455352E+03  0.94350026566E+02  0.20248268357E+03  0.00000000000E+00 0. -1.
         21    1    1    2  504  503  0.20653380620E+01  0.33811726834E+02  0.26826305029E+02  0.43210521107E+02  0.00000000000E+00 0.  1.
<mgrwt>
<rscale>  4 0.24280645E+03</rscale>
<asrwt>0</asrwt>
<pdfrwt beam="1">  1       21 0.53426831E-01 0.24280645E+03</pdfrwt>
<pdfrwt beam="2">  1       21 0.23417967E-01 0.24280645E+03</pdfrwt>
<totfact> 0.55639200E+04</totfact>
</mgrwt>
</event>
<event>
 5    0  0.1911311E+001  0.2042746E+03  0.7546771E-02  0.1146182E+00
         21   -1    0    0  502  501  0.00000000000E+00  0.00000000000E+00  0.28189862504E+03  0.28189862504E+03  0.00000000000E+00 0. -1.
         21   -1    0    0  504  502 -0.00000000000E+00 -0.00000000000E+00 -0.23256851010E+03  0.23256851010E+03  0.00000000000E+00 0. -1.
         25    1    1    2    0    0  0.68424686462E+02 -0.20359577030E+03 -0.98786299834E+00  0.24851388548E+03  0.12500000000E+03 0.  0.
         21    1    1    2  503  501 -0.10188547822E+03  0.10534413751E+03  0.66448165733E+02  0.16091425266E+03  0.00000000000E+00 0. -1.
         21    1    1    2  504  503  0.33460791757E+02  0.98251632793E+02 -0.16130187792E+02  0.10503899699E+03  0.00000000000E+00 0. -1.
<mgrwt>
<rscale>  4 0.20427465E+03</rscale>
<asrwt>0</asrwt>
<pdfrwt beam="1">  1       21 0.43369019E-01 0.20427465E+03</pdfrwt>
<pdfrwt beam="2">  1       21 0.35779771E-01 0.20427465E+03</pdfrwt>
<totfact> 0.38264199E+04</totfact>
</mgrwt>
</event>
<event>
 5    0  0.1911311E+001  0.3869266E+03  0.7546771E-02  0.1048403E+00
         21   -1    0    0  502  501  0.00000000000E+00  0.00000000000E+00  0.17696840687E+03  0.17696840687E+03  0.00000000000E+00 0. -1.
         21   -1    0    0  504  502 -0.00000000000E+00 -0.00000000000E+00 -0.82912616529E+03  0.82912616529E+03  0.00000000000E+00 0.  1.
         25    1    1    2    0    0  0.19807543380E+03 -0.30798268135E+03 -0.33597660143E+03  0.51243778764E+03  0.12500000000E+03 0.  0.
         21    1    1    2  503  501 -0.16846004121E+03  0.28567041352E+03 -0.24142612904E+03  0.41021085606E+03  0.00000000000E+00 0. -1.
         21    1    1    2  504  503 -0.29615392593E+02  0.22312267833E+02 -0.74755027943E+02  0.83445928464E+02  0.00000000000E+00 0.  1.
<mgrwt>
<rscale>  4 0.38692662E+03</rscale>
<asrwt>0</asrwt>
<pdfrwt beam="1">  1       21 0.27225909E-01 0.38692662E+03</pdfrwt>
<pdfrwt beam="2">  1       21 0.12755787E+00 0.38692662E+03</pdfrwt>
<totfact> 0.52243376E+03</totfact>
</mgrwt>
</event>
