<event>
 5    0  0.1911311E+001  0.1827762E+03  0.7546771E-02  0.1165143E+00
         21   -1    0    0  504  501  0.00000000000E+00  0.00000000000E+00  0.31109611262E+04  0.31109611262E+04  0.00000000000E+00 0. -1.
         21   -1    0    0  503  502 -0.00000000000E+00 -0.00000000000E+00 -0.11434338218E+03  0.11434338218E+03  0.00000000000E+00 0. -1.
         25    1    1    2    0    0 -0.24143561272E+03 -0.96993418522E+01  0.66290679385E+03  0.71655819698E+03  0.12500000000E+03 0.  0.
         21    1    1    2  503  501  0.11736914636E+03  0.36580272224E+02 -0.41797302935E+02  0.12984855550E+03  0.00000000000E+00 0. -1.
         21    1    1    2  504  502  0.12406646636E+03 -0.26880930371E+02  0.23755082531E+04  0.23788977559E+04  0.00000000000E+00 0. -1.
<mgrwt>
<rscale>  4 0.18277621E+03</rscale>
<asrwt>0</asrwt>
<pdfrwt beam="1">  1       21 0.47860934E+00 0.18277621E+03</pdfrwt>
<pdfrwt beam="2">  1       21 0.17591292E-01 0.18277621E+03</pdfrwt>
<totfact> 0.79687155E+01</totfact>
</mgrwt>
</event>
<event>
 5    0  0.1911311E+001  0.2723528E+03  0.7546771E-02  0.1099941E+00
         21   -1    0    0  502  501  0.00000000000E+00  0.00000000000E+00  0.90319816434E+03  0.90319816434E+03  0.00000000000E+00 0.  1.
         21   -1    0    0  504  502 -0.00000000000E+00 -0.00000000000E+00 -0.79077663177E+02  0.79077663177E+02  0.00000000000E+00 0.  1.
         25    1    1    2    0    0  0.22623815287E+03 -0.85833141358E+02  0.52575490137E+03  0.59210999509E+03  0.12500000000E+03 0.  0.
         21    1    1    2  503  501 -0.83785962593E+02  0.65250062152E+02  0.14636491894E+03  0.18083237441E+03  0.00000000000E+00 0.  1.
         21    1    1    2  504  503 -0.14245219028E+03  0.20583079206E+02  0.15200068085E+03  0.20933345801E+03  0.00000000000E+00 0.  1.
<mgrwt>
<rscale>  4 0.27235277E+03</rscale>
<asrwt>0</asrwt>
<pdfrwt beam="1">  1       21 0.13895356E+00 0.27235277E+03</pdfrwt>
<pdfrwt beam="2">  1       21 0.12165795E-01 0.27235277E+03</pdfrwt>
<totfact> 0.19959425E+04</totfact>
</mgrwt>
</event>
<event>
 5    0  0.1911311E+001  0.2747131E+03  0.7546771E-02  0.1098612E+00
         21   -1    0    0  504  501  0.00000000000E+00  0.00000000000E+00  0.22944976171E+03  0.22944976171E+03  0.00000000000E+00 0. -1.
         21   -1    0    0  503  502 -0.00000000000E+00 -0.00000000000E+00 -0.58914002635E+03  0.58914002635E+03  0.00000000000E+00 0. -1.
         25    1    1    2    0    0 -0.28912723936E+03 -0.19896194020E+02 -0.35677879212E+03  0.47634706421E+03  0.12500000000E+03 0.  0.
         21    1    1    2  503  501  0.54046206434E+02  0.94488649247E+01 -0.77889199795E+02  0.95273295959E+02  0.00000000000E+00 0. -1.
         21    1    1    2  504  502  0.23508103293E+03  0.10447329096E+02  0.74977727268E+02  0.24696942789E+03  0.00000000000E+00 0. -1.
<mgrwt>
<rscale>  4 0.27471313E+03</rscale>
<asrwt>0</asrwt>
<pdfrwt beam="1">  1       21 0.35299964E-01 0.27471313E+03</pdfrwt>
<pdfrwt beam="2">  1       21 0.90636925E-01 0.27471313E+03</pdfrwt>
<totfact> 0.75945158E+03</totfact>
</mgrwt>
</event>
