<event>
 5    0  0.3048872E+001  0.2729342E+03  0.7546771E-02  0.1099612E+00
         21   -1    0    0  502  501  0.00000000000E+00  0.00000000000E+00  0.33899340014E+03  0.33899340014E+03  0.00000000000E+00 0.  1.
         21   -1    0    0  504  502 -0.00000000000E+00 -0.00000000000E+00 -0.26859116753E+03  0.26859116753E+03  0.00000000000E+00 0.  1.
         25    1    1    2    0    0 -0.21730015669E+03 -0.73274099705E+02 -0.26921738846E+02  0.26256091066E+03  0.12500000000E+03 0.  0.
         21    1    1    2  503  501  0.23873034552E+03  0.71438717974E+02  0.14810134475E+03  0.28987872743E+03  0.00000000000E+00 0.  1.
         21    1    1    2  504  503 -0.21430188836E+02  0.18353817308E+01 -0.50777373292E+02  0.55144929577E+02  0.00000000000E+00 0. -1.
<mgrwt>
<rscale>  4 0.27293418E+03</rscale>
<asrwt>0</asrwt>
<pdfrwt beam="1">  1       21 0.52152831E-01 0.27293418E+03</pdfrwt>
<pdfrwt beam="2">  1       21 0.41321718E-01 0.27293418E+03</pdfrwt>
<totfact> 0.18862743E+04</totfact>
</mgrwt>
</event>
<event>
 5    0  0.1911311E+001  0.2219641E+03  0.7546771E-02  0.1132427E+00
         21   -1    0    0  502  501  0.00000000000E+00  0.00000000000E+00  0.85029310814E+03  0.85029310814E+03  0.00000000000E+00 0. -1.
         21   -1    0    0  504  502 -0.00000000000E+00 -0.00000000000E+00 -0.80465554882E+02  0.80465554882E+02  0.00000000000E+00 0. -1.
         25    1    1    2    0    0 -0.17040267030E+03  0.12748733243E+03  0.57359066044E+03  0.62443681483E+03  0.12500000000E+03 0.  0.
         21    1    1    2  503  501  0.27458719932E+02 -0.24690669791E+02  0.97945392840E+02  0.10467526190E+03  0.00000000000E+00 0. -1.
         21    1    1    2  504  503  0.14294395037E+03 -0.10279666264E+03  0.98291499986E+02  0.20164658630E+03  0.00000000000E+00 0. -1.
<mgrwt>
<rscale>  4 0.22196406E+03</rscale>
<asrwt>0</asrwt>
<pdfrwt beam="1">  1       21 0.13081432E+00 0.22196406E+03</pdfrwt>
<pdfrwt beam="2">  1       21 0.12379317E-01 0.22196406E+03</pdfrwt>
<totfact> 0.23196105E+04</totfact>
</mgrwt>
</event>
<event>
 5    0  0.1911311E+001  0.2770153E+03  0.7546771E-02  0.1097330E+00
         21   -1    0    0  504  501  0.00000000000E+00  0.00000000000E+00  0.19989178139E+03  0.19989178139E+03  0.00000000000E+00 0.  1.
         21   -1    0    0  503  502 -0.00000000000E+00 -0.00000000000E+00 -0.14696419096E+04  0.14696419096E+04  0.00000000000E+00 0.  1.
         25    1    1    2    0    0  0.25109824892E+03  0.21422618900E+03 -0.10061251216E+04  0.10662344728E+04  0.12500000000E+03 0.  0.
         21    1    1    2  503  501 -0.10338147831E+03 -0.15793125571E+03 -0.36819639367E+03  0.41376152056E+03  0.00000000000E+00 0.  1.
         21    1    1    2  504  502 -0.14771677061E+03 -0.56294933290E+02  0.10457138705E+03  0.18953769763E+03  0.00000000000E+00 0.  1.
<mgrwt>
<rscale>  4 0.27701529E+03</rscale>
<asrwt>0</asrwt>
<pdfrwt beam="1">  1       21 0.30752582E-01 0.27701529E+03</pdfrwt>
<pdfrwt beam="2">  1       21 0.22609875E+00 0.27701529E+03</pdfrwt>
<totfact> 0.86149117E+02</totfact>
</mgrwt>
</event>
<event>
 5    0  0.2094354E+001  0.2772635E+03  0.7546771E-02  0.1097193E+00
         21   -1    0    0  502  501  0.00000000000E+00  0.00000000000E+00  0.60681574602E+03  0.60681574602E+03  0.00000000000E+00 0.  1.
         21   -1    0    0  504  502 -0.00000000000E+00 -0.00000000000E+00 -0.28181297919E+03  0.28181297919E+03  0.00000000000E+00 0.  1.
         25    1    1    2    0    0  0.13813282022E+03 -0.18564651136E+03  0.25612331695E+03  0.36710959765E+03  0.12500000000E+03 0.  0.
         21    1    1    2  503  501  0.20667053027E+02 -0.89100813533E+01  0.22479524612E+03  0.22591905477E+03  0.00000000000E+00 0. -1.
         21    1    1    2  504  503 -0.15879987325E+03  0.19455659272E+03 -0.15591579624E+03  0.29560007279E+03  0.00000000000E+00 0.  1.
<mgrwt>
<rscale>  4 0.27726354E+03</rscale>
<asrwt>0</asrwt>
<pdfrwt beam="1">  1       21 0.93356269E-01 0.27726354E+03</pdfrwt>
<pdfrwt beam="2">  1       21 0.43355843E-01 0.27726354E+03</pdfrwt>
<totfact> 0.46596161E+03</totfact>
</mgrwt>
</event>
<event>
 5    0  0.1911311E+001  0.2846800E+03  0.7546771E-02  0.1093160E+00
         21   -1    0    0  502  501  0.00000000000E+00  0.00000000000E+00  0.52733354295E+03  0.52733354295E+03  0.00000000000E+00 0.  1.
         21   -1    0    0  504  502 -0.00000000000E+00 -0.00000000000E+00 -0.28869419867E+03  0.28869419867E+03  0.00000000000E+00 0.  1.
         25    1    1    2    0    0  0.23982539334E+03 -0.39086379328E+02 -0.54206422055E+02  0.27858086893E+03  0.12500000000E+03 0.  0.
         21    1    1    2  503  501  0.48088697979E+02  0.12271548773E+03  0.16585399463E+03  0.21184702344E+03  0.00000000000E+00 0.  1.
         21    1    1    2  504  503 -0.28791409132E+03 -0.83629108402E+02  0.12699177170E+03  0.32559984925E+03  0.00000000000E+00 0.  1.
<mgrwt>
<rscale>  4 0.28468004E+03</rscale>
<asrwt>0</asrwt>
<pdfrwt beam="1">  1       21 0.81128237E-01 0.28468004E+03</pdfrwt>
<pdfrwt beam="2">  1       21 0.44414492E-01 0.28468004E+03</pdfrwt>
<totfact> 0.61179814E+03</totfact>
</mgrwt>
</event>
<event>
 5    0  0.1911311E+001  0.1919909E+03  0.7546771E-02  0.1156678E+00
         21   -1    0    0  503  501  0.00000000000E+00  0.00000000000E+00  0.10378718442E+03  0.10378718442E+03  0.00000000000E+00 0.  1.
         21   -1    0    0  504  502 -0.00000000000E+00 -0.00000000000E+00 -0.69385384300E+03  0.69385384300E+03  0.00000000000E+00 0.  1.
         25    1    1    2    0    0  0.14410875768E+03 -0.18767829109E+03 -0.27945588282E+03  0.38692514189E+03  0.12500000000E+03 0.  0.
         21    1    1    2  503  502 -0.81617625555E+02  0.85858093002E+02 -0.25023568513E+03  0.27685907435E+03  0.00000000000E+00 0.  1.
         21    1    1    2  504  501 -0.62491132124E+02  0.10182019809E+03 -0.60375090627E+02  0.13385681118E+03  0.00000000000E+00 0.  1.
<mgrwt>
<rscale>  4 0.19199089E+03</rscale>
<asrwt>0</asrwt>
<pdfrwt beam="1">  1       21 0.15967259E-01 0.19199089E+03</pdfrwt>
<pdfrwt beam="2">  1       21 0.10674675E+00 0.19199089E+03</pdfrwt>
<totfact> 0.24586989E+04</totfact>
</mgrwt>
</event>
<event>
 5    0  0.1911311E+001  0.2413242E+03  0.7546771E-02  0.1118914E+00
         21   -1    0    0  504  501  0.00000000000E+00  0.00000000000E+00  0.52645321631E+03  0.52645321631E+03  0.00000000000E+00 0.  1.
         21   -1    0    0  503  502 -0.00000000000E+00 -0.00000000000E+00 -0.28190602025E+03  0.28190602025E+03  0.00000000000E+00 0.  1.
         25    1    1    2    0    0  0.18419808546E+02 -0.26815614582E+03 -0.31555366559E+02  0.29810694230E+03  0.12500000000E+03 0.  0.
         21    1    1    2  503  501  0.29000563652E+02  0.76799176272E+02 -0.72657669495E+02  0.10962793031E+03  0.00000000000E+00 0.  1.
         21    1    1    2  504  502 -0.47420372198E+02  0.19135696955E+03  0.34876023211E+03  0.40062436396E+03  0.00000000000E+00 0.  1.
<mgrwt>
<rscale>  4 0.24132415E+03</rscale>
<asrwt>0</asrwt>
<pdfrwt beam="1">  1       21 0.80992802E-01 0.24132415E+03</pdfrwt>
<pdfrwt beam="2">  1       21 0.43370157E-01 0.24132415E+03</pdfrwt>
<totfact> 0.66105784E+03</totfact>
</mgrwt>
</event>
<event>
 5    0  0.1911311E+001  0.3096633E+03  0.7546771E-02  0.1080507E+00
         21   -1    0    0  502  501  0.00000000000E+00  0.00000000000E+00  0.20996010060E+03  0.20996010060E+03  0.00000000000E+00 0.  1.
         21   -1    0    0  504  502 -0.00000000000E+00 -0.00000000000E+00 -0.71258355800E+03  0.71258355800E+03  0.00000000000E+00 0.  1.
         25    1    1    2    0    0 -0.29171445469E+03 -0.53472134765E+02 -0.19785733548E+03  0.37779507339E+03  0.12500000000E+03 0.  0.
         21    1    1    2  503  501  0.21829837328E+02 -0.76753493559E+01  0.72938185801E+02  0.76520792817E+02  0.00000000000E+00 0.  1.
         21    1    1    2  504  503  0.26988461737E+03  0.61147484121E+02 -0.37770430772E+03  0.46822779240E+03  0.00000000000E+00 0.  1.
<mgrwt>
<rscale>  4 0.30966326E+03</rscale>
<asrwt>0</asrwt>
<pdfrwt beam="1">  1       21 0.32301554E-01 0.30966326E+03</pdfrwt>
<pdfrwt beam="2">  1       21 0.10962824E+00 0.30966326E+03</pdfrwt>
<totfact> 0.56431580E+03</totfact>
</mgrwt>
</event>
