<event>
 5    0  0.3275920E+000  0.3178591E+03  0.7546771E-02  0.1076639E+00
         21   -1    0    0  503  502  0.00000000000E+00  0.00000000000E+00  0.22640104840E+03  0.22640104840E+03  0.00000000000E+00 0. -1.
         -1   -1    0    0    0  501 -0.00000000000E+00 -0.00000000000E+00 -0.69528270531E+03  0.69528270531E+03  0.00000000000E+00 0.  1.
         25    1    1    2    0    0  0.58220676803E+02  0.26782943329E+03 -0.39382919524E+02  0.30380629831E+03  0.12500000000E+03 0.  0.
         21    1    1    2  503  501  0.21432997164E+01  0.48747625700E+02 -0.23809569033E+03  0.24304419866E+03  0.00000000000E+00 0. -1.
         -1    1    1    2    0  502 -0.60363976520E+02 -0.31657705899E+03 -0.19140304706E+03  0.37483325674E+03  0.00000000000E+00 0.  1.
<mgrwt>
<rscale>  4 0.31785908E+03</rscale>
<asrwt>0</asrwt>
<pdfrwt beam="1">  1       21 0.34830931E-01 0.31785908E+03</pdfrwt>
<pdfrwt beam="2">  1       -1 0.10696657E+00 0.31785908E+03</pdfrwt>
<totfact> 0.61728069E+02</totfact>
</mgrwt>
</event>
<event>
 5    0  0.3275920E+000  0.4569246E+03  0.7546771E-02  0.1025677E+00
         21   -1    0    0  503  502  0.00000000000E+00  0.00000000000E+00  0.35533928110E+03  0.35533928110E+03  0.00000000000E+00 0. -1.
         -2   -1    0    0    0  501 -0.00000000000E+00 -0.00000000000E+00 -0.11398705585E+04  0.11398705585E+04  0.00000000000E+00 0.  1.
         25    1    1    2    0    0 -0.12374943690E+03  0.42595984350E+03  0.34553053456E+02  0.46214134733E+03  0.12500000000E+03 0.  0.
         21    1    1    2  503  501 -0.16029155244E+03 -0.72693100872E+02 -0.24225363310E+03  0.29944029697E+03  0.00000000000E+00 0. -1.
         -2    1    1    2    0  502  0.28404098934E+03 -0.35326674263E+03 -0.57683069780E+03  0.73362819534E+03  0.00000000000E+00 0.  1.
<mgrwt>
<rscale>  4 0.45692460E+03</rscale>
<asrwt>0</asrwt>
<pdfrwt beam="1">  1       21 0.54667582E-01 0.45692460E+03</pdfrwt>
<pdfrwt beam="2">  1       -2 0.17536470E+00 0.45692460E+03</pdfrwt>
<totfact> 0.49133569E+01</totfact>
</mgrwt>
</event>
<event>
 5    0  0.3275920E+000  0.2557740E+03  0.7546771E-02  0.1109709E+00
          2   -1    0    0  503    0 -0.00000000000E+00  0.00000000000E+00  0.13540099166E+04  0.13540099166E+04  0.00000000000E+00 0. -1.
         21   -1    0    0  501  502  0.00000000000E+00 -0.00000000000E+00 -0.10409865272E+03  0.10409865272E+03  0.00000000000E+00 0. -1.
         25    1    1    2    0    0  0.18312436245E+03  0.93643390684E+02  0.82665411723E+03  0.86097946913E+03  0.12500000000E+03 0.  0.
         21    1    1    2  503  502  0.18927136132E+02  0.80638875330E+01  0.36225943778E+03  0.36284316587E+03  0.00000000000E+00 0. -1.
          2    1    1    2  501    0 -0.20205149858E+03 -0.10170727822E+03  0.60997708862E+02  0.23428593429E+03  0.00000000000E+00 0. -1.
<mgrwt>
<rscale>  4 0.25577398E+03</rscale>
<asrwt>0</asrwt>
<pdfrwt beam="1">  1       21 0.16015178E-01 0.25577398E+03</pdfrwt>
<pdfrwt beam="2">  1        2 0.20830921E+00 0.25577398E+03</pdfrwt>
<totfact> 0.71500188E+03</totfact>
</mgrwt>
</event>
<event>
 5    0  0.3275920E+000  0.2901136E+03  0.7546771E-02  0.1090290E+00
         21   -1    0    0  501  502  0.00000000000E+00  0.00000000000E+00  0.87209664486E+02  0.87209664486E+02  0.00000000000E+00 0. -1.
          1   -1    0    0  503    0 -0.00000000000E+00 -0.00000000000E+00 -0.13025002356E+04  0.13025002356E+04  0.00000000000E+00 0. -1.
         25    1    1    2    0    0  0.13237291537E+03  0.21558144698E+03 -0.56312220896E+03  0.62986472454E+03  0.12500000000E+03 0.  0.
         21    1    1    2  503  502  0.46131584497E+02 -0.15161631633E+02 -0.35943133709E+03  0.36269668353E+03  0.00000000000E+00 0. -1.
          1    1    1    2  501    0 -0.17850449987E+03 -0.20041981534E+03 -0.29273702504E+03  0.39714849198E+03  0.00000000000E+00 0. -1.
<mgrwt>
<rscale>  4 0.29011357E+03</rscale>
<asrwt>0</asrwt>
<pdfrwt beam="1">  1       21 0.13416872E-01 0.29011357E+03</pdfrwt>
<pdfrwt beam="2">  1        1 0.20038464E+00 0.29011357E+03</pdfrwt>
<totfact> 0.51104202E+03</totfact>
</mgrwt>
</event>
<event>
 5    0  0.3275920E+000  0.2741497E+03  0.7546771E-02  0.1098928E+00
         21   -1    0    0  501  502  0.00000000000E+00  0.00000000000E+00  0.35921977574E+03  0.35921977574E+03  0.00000000000E+00 0. -1.
          2   -1    0    0  503    0 -0.00000000000E+00 -0.00000000000E+00 -0.32212631018E+03  0.32212631018E+03  0.00000000000E+00 0.  1.
         25    1    1    2    0    0  0.21397909200E+03 -0.11474532885E+03  0.20224966415E+03  0.33982858761E+03  0.12500000000E+03 0.  0.
         21    1    1    2  503  502  0.23683396604E+02  0.34924850170E+02 -0.17028489477E+01  0.42232074642E+02  0.00000000000E+00 0.  1.
          2    1    1    2  501    0 -0.23766248861E+03  0.79820478682E+02 -0.16345334964E+03  0.29928542366E+03  0.00000000000E+00 0.  1.
<mgrwt>
<rscale>  4 0.27414969E+03</rscale>
<asrwt>0</asrwt>
<pdfrwt beam="1">  1       21 0.55264581E-01 0.27414969E+03</pdfrwt>
<pdfrwt beam="2">  1        2 0.49557894E-01 0.27414969E+03</pdfrwt>
<totfact> 0.37855127E+03</totfact>
</mgrwt>
</event>
<event>
 5    0  0.3275920E+000  0.4006799E+03  0.7546771E-02  0.1043544E+00
         21   -1    0    0  501  502  0.00000000000E+00  0.00000000000E+00  0.25398162620E+03  0.25398162620E+03  0.00000000000E+00 0. -1.
          1   -1    0    0  503    0 -0.00000000000E+00 -0.00000000000E+00 -0.35546221784E+04  0.35546221784E+04  0.00000000000E+00 0. -1.
         25    1    1    2    0    0 -0.33122075205E+03 -0.49102387948E+01  0.97037671282E+02  0.36711388789E+03  0.12500000000E+03 0.  0.
         21    1    1    2  503  502 -0.49207053796E+02  0.50816943161E+02 -0.10508949373E+03  0.12667871782E+03  0.00000000000E+00 0. -1.
          1    1    1    2  501    0  0.38042780585E+03 -0.45906704366E+02 -0.32925887297E+04  0.33148111989E+04  0.00000000000E+00 0. -1.
<mgrwt>
<rscale>  4 0.40067992E+03</rscale>
<asrwt>0</asrwt>
<pdfrwt beam="1">  1       21 0.39074096E-01 0.40067992E+03</pdfrwt>
<pdfrwt beam="2">  1        1 0.54686495E+00 0.40067992E+03</pdfrwt>
<totfact> 0.17864871E+01</totfact>
</mgrwt>
</event>
<event>
 5    0  0.3275920E+000  0.2712332E+03  0.7546771E-02  0.1100576E+00
         21   -1    0    0  501  502  0.00000000000E+00  0.00000000000E+00  0.32344766516E+02  0.32344766516E+02  0.00000000000E+00 0.  1.
          2   -1    0    0  503    0 -0.00000000000E+00 -0.00000000000E+00 -0.29633013436E+04  0.29633013436E+04  0.00000000000E+00 0.  1.
         25    1    1    2    0    0  0.18884665738E+03 -0.14291447408E+03 -0.74882313008E+03  0.79526642520E+03  0.12500000000E+03 0.  0.
         21    1    1    2  503  502 -0.56889197134E+01 -0.28739475949E+02 -0.33290956893E+03  0.33419620340E+03  0.00000000000E+00 0.  1.
          2    1    1    2  501    0 -0.18315773767E+03  0.17165395003E+03 -0.18492238781E+04  0.18661834815E+04  0.00000000000E+00 0.  1.
<mgrwt>
<rscale>  4 0.27123315E+03</rscale>
<asrwt>0</asrwt>
<pdfrwt beam="1">  1       21 0.49761191E-02 0.27123315E+03</pdfrwt>
<pdfrwt beam="2">  1        2 0.45589241E+00 0.27123315E+03</pdfrwt>
<totfact> 0.75380865E+03</totfact>
</mgrwt>
</event>
<event>
 5    0  0.3275920E+000  0.3406687E+03  0.7546771E-02  0.1066511E+00
          2   -1    0    0  503    0 -0.00000000000E+00  0.00000000000E+00  0.19537724544E+04  0.19537724544E+04  0.00000000000E+00 0.  1.
         21   -1    0    0  501  502  0.00000000000E+00 -0.00000000000E+00 -0.36747349809E+03  0.36747349809E+03  0.00000000000E+00 0. -1.
         25    1    1    2    0    0  0.19315154874E+03  0.25070248254E+03 -0.26831360654E+03  0.43333179780E+03  0.12500000000E+03 0.  0.
         21    1    1    2  503  502  0.20149345935E+02 -0.42847930945E+01  0.23082324042E+03  0.23174063932E+03  0.00000000000E+00 0. -1.
          2    1    1    2  501    0 -0.21330089468E+03 -0.24641768945E+03  0.16237893225E+04  0.16561735154E+04  0.00000000000E+00 0.  1.
<mgrwt>
<rscale>  4 0.34066871E+03</rscale>
<asrwt>0</asrwt>
<pdfrwt beam="1">  1       21 0.56534386E-01 0.34066871E+03</pdfrwt>
<pdfrwt beam="2">  1        2 0.30058037E+00 0.34066871E+03</pdfrwt>
<totfact> 0.27246955E+02</totfact>
</mgrwt>
</event>
<event>
 5    0  0.3275920E+000  0.5074860E+03  0.7546771E-02  0.1011843E+00
          1   -1    0    0  503    0 -0.00000000000E+00  0.00000000000E+00  0.18226875902E+04  0.18226875902E+04  0.00000000000E+00 0. -1.
         21   -1    0    0  501  502  0.00000000000E+00 -0.00000000000E+00 -0.42226537285E+03  0.42226537285E+03  0.00000000000E+00 0. -1.
         25    1    1    2    0    0  0.48035875771E+03  0.10827889079E+03 -0.15459152791E+03  0.53102956113E+03  0.12500000000E+03 0.  0.
         21    1    1    2  503  502 -0.12400678919E+02  0.40489382773E+02  0.87034670231E+03  0.87137623859E+03  0.00000000000E+00 0. -1.
          1    1    1    2  501    0 -0.46795807879E+03 -0.14876827356E+03  0.68466704294E+03  0.84254716331E+03  0.00000000000E+00 0. -1.
<mgrwt>
<rscale>  4 0.50748597E+03</rscale>
<asrwt>0</asrwt>
<pdfrwt beam="1">  1       21 0.64963904E-01 0.50748597E+03</pdfrwt>
<pdfrwt beam="2">  1        1 0.28041347E+00 0.50748597E+03</pdfrwt>
<totfact> 0.92265732E+01</totfact>
</mgrwt>
</event>
<event>
 5    0  0.3275920E+000  0.2881209E+03  0.7546771E-02  0.1091334E+00
          3   -1    0    0  503    0 -0.00000000000E+00  0.00000000000E+00  0.15128090581E+04  0.15128090581E+04  0.00000000000E+00 0.  1.
         21   -1    0    0  501  502  0.00000000000E+00 -0.00000000000E+00 -0.53214636170E+03  0.53214636170E+03  0.00000000000E+00 0.  1.
         25    1    1    2    0    0 -0.22636431001E+03  0.12614631672E+03 -0.47717287159E+03  0.55720072097E+03  0.12500000000E+03 0.  0.
         21    1    1    2  503  502 -0.70211717218E+01  0.19130084632E+02  0.14674027774E+03  0.14814845966E+03  0.00000000000E+00 0.  1.
          3    1    1    2  501    0  0.23338548174E+03 -0.14527640135E+03  0.13110952903E+04  0.13396062392E+04  0.00000000000E+00 0.  1.
<mgrwt>
<rscale>  4 0.28812090E+03</rscale>
<asrwt>0</asrwt>
<pdfrwt beam="1">  1       21 0.81868672E-01 0.28812090E+03</pdfrwt>
<pdfrwt beam="2">  1        3 0.23273985E+00 0.28812090E+03</pdfrwt>
<totfact> 0.63355552E+00</totfact>
</mgrwt>
</event>
<event>
 5    0  0.3275920E+000  0.2502150E+03  0.7546771E-02  0.1113169E+00
         21   -1    0    0  503  502  0.00000000000E+00  0.00000000000E+00  0.13526726181E+03  0.13526726181E+03  0.00000000000E+00 0. -1.
         -1   -1    0    0    0  501 -0.00000000000E+00 -0.00000000000E+00 -0.16516077421E+04  0.16516077421E+04  0.00000000000E+00 0.  1.
         25    1    1    2    0    0 -0.10752595084E+03  0.18443488775E+03 -0.92310396820E+01  0.24756467845E+03  0.12500000000E+03 0.  0.
         21    1    1    2  503  501  0.10632156066E+02  0.50119036474E+02 -0.14560341647E+03  0.15435451223E+03  0.00000000000E+00 0. -1.
         -1    1    1    2    0  502  0.96893794773E+02 -0.23455392423E+03 -0.13615060242E+04  0.13849558133E+04  0.00000000000E+00 0.  1.
<mgrwt>
<rscale>  4 0.25021495E+03</rscale>
<asrwt>0</asrwt>
<pdfrwt beam="1">  1       21 0.20810348E-01 0.25021495E+03</pdfrwt>
<pdfrwt beam="2">  1       -1 0.25409350E+00 0.25021495E+03</pdfrwt>
<totfact> 0.14881595E+02</totfact>
</mgrwt>
</event>
<event>
 5    0  0.3275920E+000  0.2714865E+03  0.7546771E-02  0.1100432E+00
         21   -1    0    0  501  502  0.00000000000E+00  0.00000000000E+00  0.47721989364E+02  0.47721989364E+02  0.00000000000E+00 0.  1.
          2   -1    0    0  503    0 -0.00000000000E+00 -0.00000000000E+00 -0.53267924959E+04  0.53267924959E+04  0.00000000000E+00 0.  1.
         25    1    1    2    0    0  0.21888223466E+03  0.11375221134E+03 -0.38919040611E+03  0.47743394354E+03  0.12500000000E+03 0.  0.
         21    1    1    2  503  502 -0.17616378035E+03 -0.96959024758E+02 -0.30464939712E+04  0.30531230317E+04  0.00000000000E+00 0.  1.
          2    1    1    2  501    0 -0.42718454305E+02 -0.16793186577E+02 -0.18433861291E+04  0.18439575100E+04  0.00000000000E+00 0.  1.
<mgrwt>
<rscale>  4 0.27148646E+03</rscale>
<asrwt>0</asrwt>
<pdfrwt beam="1">  1       21 0.73418429E-02 0.27148646E+03</pdfrwt>
<pdfrwt beam="2">  1        2 0.81950671E+00 0.27148646E+03</pdfrwt>
<totfact> 0.32487373E+01</totfact>
</mgrwt>
</event>
<event>
 5    0  0.3275920E+000  0.6784035E+03  0.7546771E-02  0.9754895E-01
          2   -1    0    0  503    0 -0.00000000000E+00  0.00000000000E+00  0.30583127254E+04  0.30583127254E+04  0.00000000000E+00 0. -1.
         21   -1    0    0  501  502  0.00000000000E+00 -0.00000000000E+00 -0.15717540314E+03  0.15717540314E+03  0.00000000000E+00 0. -1.
         25    1    1    2    0    0 -0.24997016554E+03  0.62174354372E+03  0.12893859152E+04  0.14584893404E+04  0.12500000000E+03 0.  0.
         21    1    1    2  503  502  0.33987964821E+02  0.55558687615E+01  0.10906182787E+03  0.11437015226E+03  0.00000000000E+00 0.  1.
          2    1    1    2  501    0  0.21598220072E+03 -0.62729941249E+03  0.15026895792E+04  0.16426286359E+04  0.00000000000E+00 0. -1.
<mgrwt>
<rscale>  4 0.67840353E+03</rscale>
<asrwt>0</asrwt>
<pdfrwt beam="1">  1       21 0.24180834E-01 0.67840353E+03</pdfrwt>
<pdfrwt beam="2">  1        2 0.47050961E+00 0.67840353E+03</pdfrwt>
<totfact> 0.32944873E+02</totfact>
</mgrwt>
</event>
<event>
 5    0  0.3275920E+000  0.3192741E+03  0.7546771E-02  0.1075984E+00
          2   -1    0    0  503    0 -0.00000000000E+00  0.00000000000E+00  0.78300178101E+03  0.78300178101E+03  0.00000000000E+00 0. -1.
         21   -1    0    0  501  502  0.00000000000E+00 -0.00000000000E+00 -0.14012020554E+03  0.14012020554E+03  0.00000000000E+00 0. -1.
         25    1    1    2    0    0  0.27499826887E+03  0.40683522545E+02  0.33614524405E+03  0.45375965222E+03  0.12500000000E+03 0.  0.
         21    1    1    2  503  502  0.30203007302E+02 -0.16977812745E+02  0.83759579483E+02  0.90642897851E+02  0.00000000000E+00 0. -1.
          2    1    1    2  501    0 -0.30520127618E+03 -0.23705709800E+02  0.22297675194E+03  0.37871943647E+03  0.00000000000E+00 0. -1.
<mgrwt>
<rscale>  4 0.31927409E+03</rscale>
<asrwt>0</asrwt>
<pdfrwt beam="1">  1       21 0.21556955E-01 0.31927409E+03</pdfrwt>
<pdfrwt beam="2">  1        2 0.12046181E+00 0.31927409E+03</pdfrwt>
<totfact> 0.89705910E+03</totfact>
</mgrwt>
</event>
<event>
 5    0  0.3275920E+000  0.3200930E+03  0.7546771E-02  0.1075607E+00
         21   -1    0    0  501  502  0.00000000000E+00  0.00000000000E+00  0.74137166674E+03  0.74137166674E+03  0.00000000000E+00 0. -1.
          2   -1    0    0  503    0 -0.00000000000E+00 -0.00000000000E+00 -0.47162359737E+03  0.47162359737E+03  0.00000000000E+00 0. -1.
         25    1    1    2    0    0 -0.68235855791E+02  0.28581902222E+03  0.63261559233E+03  0.70864386905E+03  0.12500000000E+03 0.  0.
         21    1    1    2  503  502  0.37707020428E+02  0.18436235918E+02 -0.25886656524E+02  0.49313620537E+02  0.00000000000E+00 0. -1.
          2    1    1    2  501    0  0.30528835363E+02 -0.30425525814E+03 -0.33698086644E+03  0.45503777452E+03  0.00000000000E+00 0. -1.
<mgrwt>
<rscale>  4 0.32009296E+03</rscale>
<asrwt>0</asrwt>
<pdfrwt beam="1">  1       21 0.11405718E+00 0.32009296E+03</pdfrwt>
<pdfrwt beam="2">  1        2 0.72557476E-01 0.32009296E+03</pdfrwt>
<totfact> 0.46617939E+02</totfact>
</mgrwt>
</event>
