<event>
 5    0  0.1531977E+001  0.5180904E+03  0.7546771E-02  0.1009162E+00
         21   -1    0    0  502  501  0.00000000000E+00  0.00000000000E+00  0.71289437319E+02  0.71289437319E+02  0.00000000000E+00 0. -1.
         21   -1    0    0  504  502 -0.00000000000E+00 -0.00000000000E+00 -0.40590606995E+04  0.40590606995E+04  0.00000000000E+00 0. -1.
         25    1    1    2    0    0 -0.28852724875E+03 -0.41802872950E+03 -0.17092386572E+04  0.17874892390E+04  0.12500000000E+03 0.  0.
         21    1    1    2  503  501  0.31858286484E+03  0.38249732517E+03 -0.20426795122E+04  0.21024601863E+04  0.00000000000E+00 0. -1.
         21    1    1    2  504  503 -0.30055616097E+02  0.35531404334E+02 -0.23585309273E+03  0.24040071153E+03  0.00000000000E+00 0.  1.
<mgrwt>
<rscale>  4 0.51809040E+03</rscale>
<asrwt>0</asrwt>
<pdfrwt beam="1">  1       21 0.10967610E-01 0.51809040E+03</pdfrwt>
<pdfrwt beam="2">  1       21 0.62447065E+00 0.51809040E+03</pdfrwt>
<totfact> 0.10615221E+01</totfact>
</mgrwt>
</event>
<event>
 5    0  0.1531977E+001  0.2230709E+03  0.7546771E-02  0.1131614E+00
         21   -1    0    0  503  501  0.00000000000E+00  0.00000000000E+00  0.75025692836E+02  0.75025692836E+02  0.00000000000E+00 0.  1.
         21   -1    0    0  504  502 -0.00000000000E+00 -0.00000000000E+00 -0.12379229253E+04  0.12379229253E+04  0.00000000000E+00 0. -1.
         25    1    1    2    0    0  0.64345388258E+02 -0.20111953338E+03 -0.18789483287E+03  0.30906126240E+03  0.12500000000E+03 0.  0.
         21    1    1    2  503  502 -0.58971890012E+02  0.17112923037E+03 -0.94092011009E+03  0.95817198397E+03  0.00000000000E+00 0. -1.
         21    1    1    2  504  501 -0.53734982462E+01  0.29990303012E+02 -0.34082289524E+02  0.45715371784E+02  0.00000000000E+00 0.  1.
<mgrwt>
<rscale>  4 0.22307089E+03</rscale>
<asrwt>0</asrwt>
<pdfrwt beam="1">  1       21 0.11542414E-01 0.22307089E+03</pdfrwt>
<pdfrwt beam="2">  1       21 0.19044968E+00 0.22307089E+03</pdfrwt>
<totfact> 0.95119833E+03</totfact>
</mgrwt>
</event>
<event>
 5    0  0.1531977E+001  0.2759188E+03  0.7546771E-02  0.1097939E+00
         21   -1    0    0  504  501  0.00000000000E+00  0.00000000000E+00  0.54293364194E+03  0.54293364194E+03  0.00000000000E+00 0.  1.
         21   -1    0    0  503  502 -0.00000000000E+00 -0.00000000000E+00 -0.62867099991E+03  0.62867099991E+03  0.00000000000E+00 0. -1.
         25    1    1    2    0    0 -0.20771981776E+03  0.98220838557E+02 -0.52673682218E+03  0.58810843869E+03  0.12500000000E+03 0.  0.
         21    1    1    2  503  501 -0.30296701649E+01  0.30445525819E+02 -0.35472011591E+02  0.46844130369E+02  0.00000000000E+00 0.  1.
         21    1    1    2  504  502  0.21074948793E+03 -0.12866636438E+03  0.47647147580E+03  0.53665207279E+03  0.00000000000E+00 0.  1.
<mgrwt>
<rscale>  4 0.27591878E+03</rscale>
<asrwt>0</asrwt>
<pdfrwt beam="1">  1       21 0.83528253E-01 0.27591878E+03</pdfrwt>
<pdfrwt beam="2">  1       21 0.96718615E-01 0.27591878E+03</pdfrwt>
<totfact> 0.10323156E+03</totfact>
</mgrwt>
</event>
<event>
 5    0  0.1531977E+001  0.2392941E+03  0.7546771E-02  0.1120264E+00
         21   -1    0    0  503  501  0.00000000000E+00  0.00000000000E+00  0.18563603537E+03  0.18563603537E+03  0.00000000000E+00 0. -1.
         21   -1    0    0  504  502 -0.00000000000E+00 -0.00000000000E+00 -0.49746559797E+03  0.49746559797E+03  0.00000000000E+00 0. -1.
         25    1    1    2    0    0 -0.22031803797E+03  0.36299868176E+02 -0.34398467898E+02  0.25819754623E+03  0.12500000000E+03 0.  0.
         21    1    1    2  503  502  0.19695927862E+03 -0.29493554843E+02 -0.31939406260E+03  0.37639792034E+03  0.00000000000E+00 0. -1.
         21    1    1    2  504  501  0.23358759355E+02 -0.68063133330E+01  0.41962967904E+02  0.48506166774E+02  0.00000000000E+00 0. -1.
<mgrwt>
<rscale>  4 0.23929406E+03</rscale>
<asrwt>0</asrwt>
<pdfrwt beam="1">  1       21 0.28559390E-01 0.23929406E+03</pdfrwt>
<pdfrwt beam="2">  1       21 0.76533169E-01 0.23929406E+03</pdfrwt>
<totfact> 0.17342047E+04</totfact>
</mgrwt>
</event>
<event>
 5    0  0.1531977E+001  0.2564509E+03  0.7546771E-02  0.1109295E+00
         21   -1    0    0  503  501  0.00000000000E+00  0.00000000000E+00  0.24554388509E+03  0.24554388509E+03  0.00000000000E+00 0. -1.
         21   -1    0    0  504  502 -0.00000000000E+00 -0.00000000000E+00 -0.13196313765E+04  0.13196313765E+04  0.00000000000E+00 0.  1.
         25    1    1    2    0    0 -0.42566556440E+02 -0.24446978409E+03 -0.11005846371E+04  0.11351162629E+04  0.12500000000E+03 0.  0.
         21    1    1    2  503  502 -0.23995169499E+02  0.31812412364E+02 -0.14404548697E+03  0.14945534469E+03  0.00000000000E+00 0. -1.
         21    1    1    2  504  501  0.66561725939E+02  0.21265737172E+03  0.17054263258E+03  0.28060365399E+03  0.00000000000E+00 0. -1.
<mgrwt>
<rscale>  4 0.25645091E+03</rscale>
<asrwt>0</asrwt>
<pdfrwt beam="1">  1       21 0.37775982E-01 0.25645091E+03</pdfrwt>
<pdfrwt beam="2">  1       21 0.20302021E+00 0.25645091E+03</pdfrwt>
<totfact> 0.81363682E+02</totfact>
</mgrwt>
</event>
<event>
 5    0  0.1531977E+001  0.2418282E+03  0.7546771E-02  0.1118581E+00
         21   -1    0    0  504  501  0.00000000000E+00  0.00000000000E+00  0.78595446775E+02  0.78595446775E+02  0.00000000000E+00 0. -1.
         21   -1    0    0  501  502 -0.00000000000E+00 -0.00000000000E+00 -0.13545462675E+04  0.13545462675E+04  0.00000000000E+00 0.  1.
         25    1    1    2    0    0  0.20063267673E+03 -0.12559796971E+01 -0.10031920324E+04  0.10306669211E+04  0.12500000000E+03 0.  0.
         21    1    1    2  503  502 -0.23174350136E+03  0.47464831075E+02 -0.19358875118E+03  0.30567068096E+03  0.00000000000E+00 0. -1.
         21    1    1    2  504  503  0.31110824638E+02 -0.46208851378E+02 -0.79170037215E+02  0.96804112247E+02  0.00000000000E+00 0.  1.
<mgrwt>
<rscale>  4 0.24182818E+03</rscale>
<asrwt>0</asrwt>
<pdfrwt beam="1">  1       21 0.12091608E-01 0.24182818E+03</pdfrwt>
<pdfrwt beam="2">  1       21 0.20839172E+00 0.24182818E+03</pdfrwt>
<totfact> 0.66003239E+03</totfact>
</mgrwt>
</event>
<event>
 5    0  0.1531977E+001  0.4431544E+03  0.7546771E-02  0.1029783E+00
         21   -1    0    0  504  501  0.00000000000E+00  0.00000000000E+00  0.33024483050E+03  0.33024483050E+03  0.00000000000E+00 0. -1.
         21   -1    0    0  503  502 -0.00000000000E+00 -0.00000000000E+00 -0.10099395227E+04  0.10099395227E+04  0.00000000000E+00 0. -1.
         25    1    1    2    0    0 -0.10529244060E+03 -0.43135157521E+03  0.57850124276E+02  0.46488957438E+03  0.12500000000E+03 0.  0.
         21    1    1    2  503  501  0.81165720890E+02  0.41328751576E+03 -0.73218373391E+03  0.84468187215E+03  0.00000000000E+00 0. -1.
         21    1    1    2  504  502  0.24126719713E+02  0.18064059448E+02 -0.53610825503E+01  0.30612906657E+02  0.00000000000E+00 0. -1.
<mgrwt>
<rscale>  4 0.44315439E+03</rscale>
<asrwt>0</asrwt>
<pdfrwt beam="1">  1       21 0.50806897E-01 0.44315439E+03</pdfrwt>
<pdfrwt beam="2">  1       21 0.15537531E+00 0.44315439E+03</pdfrwt>
<totfact> 0.84646460E+02</totfact>
</mgrwt>
</event>
<event>
 5    0  0.1531977E+001  0.2316340E+03  0.7546771E-02  0.1125495E+00
         21   -1    0    0  502  501  0.00000000000E+00  0.00000000000E+00  0.13318582983E+04  0.13318582983E+04  0.00000000000E+00 0. -1.
         21   -1    0    0  504  502 -0.00000000000E+00 -0.00000000000E+00 -0.32701511106E+03  0.32701511106E+03  0.00000000000E+00 0.  1.
         25    1    1    2    0    0  0.21453626922E+03 -0.52371860418E+02  0.87219477609E+03  0.90835970298E+03  0.12500000000E+03 0.  0.
         21    1    1    2  503  501 -0.26416403415E+02  0.44591384061E+01  0.41060549156E+03  0.41147852919E+03  0.00000000000E+00 0. -1.
         21    1    1    2  504  503 -0.18811986580E+03  0.47912722011E+02 -0.27795708039E+03  0.33903517720E+03  0.00000000000E+00 0.  1.
<mgrwt>
<rscale>  4 0.23163398E+03</rscale>
<asrwt>0</asrwt>
<pdfrwt beam="1">  1       21 0.20490127E+00 0.23163398E+03</pdfrwt>
<pdfrwt beam="2">  1       21 0.50310018E-01 0.23163398E+03</pdfrwt>
<totfact> 0.44938960E+02</totfact>
</mgrwt>
</event>
<event>
 5    0  0.1531977E+001  0.2812714E+03  0.7546771E-02  0.1094997E+00
         21   -1    0    0  504  501  0.00000000000E+00  0.00000000000E+00  0.73054478324E+02  0.73054478324E+02  0.00000000000E+00 0.  1.
         21   -1    0    0  501  502 -0.00000000000E+00 -0.00000000000E+00 -0.10967585145E+04  0.10967585145E+04  0.00000000000E+00 0.  1.
         25    1    1    2    0    0 -0.24042280206E+03  0.86245325878E+02 -0.44634001406E+03  0.52923131818E+03  0.12500000000E+03 0.  0.
         21    1    1    2  503  502  0.22481826627E+03 -0.10684698475E+03 -0.49187851979E+03  0.55127489444E+03  0.00000000000E+00 0.  1.
         21    1    1    2  504  503  0.15604535785E+02  0.20601658871E+02 -0.85485502354E+02  0.89306780247E+02  0.00000000000E+00 0.  1.
<mgrwt>
<rscale>  4 0.28127139E+03</rscale>
<asrwt>0</asrwt>
<pdfrwt beam="1">  1       21 0.11239150E-01 0.28127139E+03</pdfrwt>
<pdfrwt beam="2">  1       21 0.16873209E+00 0.28127139E+03</pdfrwt>
<totfact> 0.13581110E+04</totfact>
</mgrwt>
</event>
<event>
 5    0  0.1531977E+001  0.3766934E+03  0.7546771E-02  0.1052163E+00
         21   -1    0    0  504  501  0.00000000000E+00  0.00000000000E+00  0.19050885025E+03  0.19050885025E+03  0.00000000000E+00 0. -1.
         21   -1    0    0  501  502 -0.00000000000E+00 -0.00000000000E+00 -0.76752315879E+03  0.76752315879E+03  0.00000000000E+00 0. -1.
         25    1    1    2    0    0 -0.28110286811E+03 -0.21738005596E+03 -0.41544808426E+03  0.56079855733E+03  0.12500000000E+03 0.  0.
         21    1    1    2  503  502  0.23599895435E+03  0.21179434398E+03 -0.14692947940E+03  0.34948622650E+03  0.00000000000E+00 0. -1.
         21    1    1    2  504  503  0.45103913759E+02  0.55857119724E+01 -0.14636744880E+02  0.47747225211E+02  0.00000000000E+00 0. -1.
<mgrwt>
<rscale>  4 0.37669339E+03</rscale>
<asrwt>0</asrwt>
<pdfrwt beam="1">  1       21 0.29309053E-01 0.37669339E+03</pdfrwt>
<pdfrwt beam="2">  1       21 0.11808049E+00 0.37669339E+03</pdfrwt>
<totfact> 0.55242769E+03</totfact>
</mgrwt>
</event>
<event>
 5    0  0.1531977E+001  0.4495687E+03  0.7546771E-02  0.1027851E+00
         21   -1    0    0  504  501  0.00000000000E+00  0.00000000000E+00  0.11516501622E+03  0.11516501622E+03  0.00000000000E+00 0. -1.
         21   -1    0    0  501  502 -0.00000000000E+00 -0.00000000000E+00 -0.20691469210E+04  0.20691469210E+04  0.00000000000E+00 0. -1.
         25    1    1    2    0    0  0.23782720175E+03 -0.34665230772E+03 -0.93380758267E+03  0.10316739804E+04  0.12500000000E+03 0.  0.
         21    1    1    2  503  502 -0.31942617044E+03  0.31570309183E+03 -0.84566686726E+03  0.95752491922E+03  0.00000000000E+00 0. -1.
         21    1    1    2  504  503  0.81598968682E+02  0.30949215882E+02 -0.17450745485E+03  0.19511303763E+03  0.00000000000E+00 0.  1.
<mgrwt>
<rscale>  4 0.44956866E+03</rscale>
<asrwt>0</asrwt>
<pdfrwt beam="1">  1       21 0.17717695E-01 0.44956866E+03</pdfrwt>
<pdfrwt beam="2">  1       21 0.31833029E+00 0.44956866E+03</pdfrwt>
<totfact> 0.61559193E+02</totfact>
</mgrwt>
</event>
<event>
 5    0  0.1531977E+001  0.2751381E+03  0.7546771E-02  0.1098374E+00
         21   -1    0    0  502  501  0.00000000000E+00  0.00000000000E+00  0.71715764066E+03  0.71715764066E+03  0.00000000000E+00 0.  1.
         21   -1    0    0  504  502 -0.00000000000E+00 -0.00000000000E+00 -0.81494525027E+03  0.81494525027E+03  0.00000000000E+00 0.  1.
         25    1    1    2    0    0  0.15502593656E+03 -0.32583526230E+03  0.56752509663E+03  0.68404049183E+03  0.12500000000E+03 0.  0.
         21    1    1    2  503  501 -0.35276382440E+02  0.23905500095E+03 -0.65690044039E+03  0.69993564363E+03  0.00000000000E+00 0.  1.
         21    1    1    2  504  503 -0.11974955412E+03  0.86780261340E+02 -0.84122658543E+01  0.14812675547E+03  0.00000000000E+00 0.  1.
<mgrwt>
<rscale>  4 0.27513809E+03</rscale>
<asrwt>0</asrwt>
<pdfrwt beam="1">  1       21 0.11033194E+00 0.27513809E+03</pdfrwt>
<pdfrwt beam="2">  1       21 0.12537619E+00 0.27513809E+03</pdfrwt>
<totfact> 0.28233517E+02</totfact>
</mgrwt>
</event>
<event>
 5    0  0.1531977E+001  0.2253212E+03  0.7546771E-02  0.1129977E+00
         21   -1    0    0  502  501  0.00000000000E+00  0.00000000000E+00  0.18601827533E+04  0.18601827533E+04  0.00000000000E+00 0.  1.
         21   -1    0    0  504  502 -0.00000000000E+00 -0.00000000000E+00 -0.86415263351E+02  0.86415263351E+02  0.00000000000E+00 0.  1.
         25    1    1    2    0    0 -0.16879443113E+03 -0.13669508950E+03  0.15229299392E+03  0.29324949015E+03  0.12500000000E+03 0.  0.
         21    1    1    2  503  501  0.14446709878E+03  0.11592243395E+03  0.16080067619E+04  0.16186397066E+04  0.00000000000E+00 0.  1.
         21    1    1    2  504  503  0.24327332347E+02  0.20772655559E+02  0.13467734097E+02  0.34708819913E+02  0.00000000000E+00 0.  1.
<mgrwt>
<rscale>  4 0.22532118E+03</rscale>
<asrwt>0</asrwt>
<pdfrwt beam="1">  1       21 0.28618193E+00 0.22532118E+03</pdfrwt>
<pdfrwt beam="2">  1       21 0.13294657E-01 0.22532118E+03</pdfrwt>
<totfact> 0.19269836E+03</totfact>
</mgrwt>
</event>
<event>
 5    0  0.1531977E+001  0.3068172E+03  0.7546771E-02  0.1081882E+00
         21   -1    0    0  504  501  0.00000000000E+00  0.00000000000E+00  0.19725178026E+03  0.19725178026E+03  0.00000000000E+00 0. -1.
         21   -1    0    0  503  502 -0.00000000000E+00 -0.00000000000E+00 -0.47989896057E+03  0.47989896057E+03  0.00000000000E+00 0. -1.
         25    1    1    2    0    0  0.17143155439E+03  0.22163708689E+03 -0.52023149761E+02  0.31119637568E+03  0.12500000000E+03 0.  0.
         21    1    1    2  503  501 -0.13342979981E+03 -0.19993808015E+03 -0.19601017670E+03  0.31015921192E+03  0.00000000000E+00 0. -1.
         21    1    1    2  504  502 -0.38001754583E+02 -0.21699006739E+02 -0.34613853846E+02  0.55795153220E+02  0.00000000000E+00 0.  1.
<mgrwt>
<rscale>  4 0.30681717E+03</rscale>
<asrwt>0</asrwt>
<pdfrwt beam="1">  1       21 0.30346428E-01 0.30681717E+03</pdfrwt>
<pdfrwt beam="2">  1       21 0.73830609E-01 0.30681717E+03</pdfrwt>
<totfact> 0.16185212E+04</totfact>
</mgrwt>
</event>
<event>
 5    0  0.1531977E+001  0.3259583E+03  0.7546771E-02  0.1072939E+00
         21   -1    0    0  502  501  0.00000000000E+00  0.00000000000E+00  0.87067174253E+02  0.87067174253E+02  0.00000000000E+00 0.  1.
         21   -1    0    0  504  502 -0.00000000000E+00 -0.00000000000E+00 -0.22171687398E+04  0.22171687398E+04  0.00000000000E+00 0. -1.
         25    1    1    2    0    0 -0.33932793854E+03  0.27906665272E+01 -0.16776036894E+04  0.17161382160E+04  0.12500000000E+03 0.  0.
         21    1    1    2  503  501  0.29349668753E+03 -0.61575262652E+01 -0.26642730703E+03  0.39643628826E+03  0.00000000000E+00 0.  1.
         21    1    1    2  504  503  0.45831251003E+02  0.33668597380E+01 -0.18607056908E+03  0.19166140976E+03  0.00000000000E+00 0. -1.
<mgrwt>
<rscale>  4 0.32595831E+03</rscale>
<asrwt>0</asrwt>
<pdfrwt beam="1">  1       21 0.13394950E-01 0.32595831E+03</pdfrwt>
<pdfrwt beam="2">  1       21 0.34110287E+00 0.32595831E+03</pdfrwt>
<totfact> 0.82076008E+02</totfact>
</mgrwt>
</event>
<event>
 5    0  0.1531977E+001  0.1804461E+03  0.7546771E-02  0.1167372E+00
         21   -1    0    0  503  501  0.00000000000E+00  0.00000000000E+00  0.10502077245E+04  0.10502077245E+04  0.00000000000E+00 0.  1.
         21   -1    0    0  504  502 -0.00000000000E+00 -0.00000000000E+00 -0.22140198816E+03  0.22140198816E+03  0.00000000000E+00 0. -1.
         25    1    1    2    0    0 -0.94678689041E+02  0.18829390824E+03  0.27606778224E+03  0.36913015378E+03  0.12500000000E+03 0.  0.
         21    1    1    2  503  502  0.45876637017E+02 -0.11580281066E+03 -0.14963364647E+03  0.19469253950E+03  0.00000000000E+00 0. -1.
         21    1    1    2  504  501  0.48802052024E+02 -0.72491097576E+02  0.70237160057E+03  0.70778701937E+03  0.00000000000E+00 0.  1.
<mgrwt>
<rscale>  4 0.18044606E+03</rscale>
<asrwt>0</asrwt>
<pdfrwt beam="1">  1       21 0.16157042E+00 0.18044606E+03</pdfrwt>
<pdfrwt beam="2">  1       21 0.34061845E-01 0.18044606E+03</pdfrwt>
<totfact> 0.20607240E+03</totfact>
</mgrwt>
</event>
<event>
 5    0  0.1531977E+001  0.2769175E+03  0.7546771E-02  0.1097385E+00
         21   -1    0    0  504  501  0.00000000000E+00  0.00000000000E+00  0.65829032366E+03  0.65829032366E+03  0.00000000000E+00 0.  1.
         21   -1    0    0  503  502 -0.00000000000E+00 -0.00000000000E+00 -0.89569554100E+03  0.89569554100E+03  0.00000000000E+00 0.  1.
         25    1    1    2    0    0  0.28503039503E+03  0.19506749062E+03  0.28770488400E+03  0.46657555901E+03  0.12500000000E+03 0.  0.
         21    1    1    2  503  501 -0.23743118594E+03 -0.53273582189E+02 -0.76607863977E+03  0.80379607173E+03  0.00000000000E+00 0.  1.
         21    1    1    2  504  502 -0.47599209088E+02 -0.14179390843E+03  0.24096853842E+03  0.28361423392E+03  0.00000000000E+00 0.  1.
<mgrwt>
<rscale>  4 0.27691747E+03</rscale>
<asrwt>0</asrwt>
<pdfrwt beam="1">  1       21 0.10127543E+00 0.27691747E+03</pdfrwt>
<pdfrwt beam="2">  1       21 0.13779931E+00 0.27691747E+03</pdfrwt>
<totfact> 0.27248629E+02</totfact>
</mgrwt>
</event>
<event>
 5    0  0.1531977E+001  0.2217866E+03  0.7546771E-02  0.1132558E+00
         21   -1    0    0  502  501  0.00000000000E+00  0.00000000000E+00  0.24223538406E+03  0.24223538406E+03  0.00000000000E+00 0.  1.
         21   -1    0    0  504  502 -0.00000000000E+00 -0.00000000000E+00 -0.23372914915E+03  0.23372914915E+03  0.00000000000E+00 0.  1.
         25    1    1    2    0    0 -0.62239942086E+02  0.19261987272E+03  0.15150730750E+01  0.23791494531E+03  0.12500000000E+03 0.  0.
         21    1    1    2  503  501  0.54082809449E+02 -0.16426080274E+03  0.55195814815E+02  0.18152999633E+03  0.00000000000E+00 0.  1.
         21    1    1    2  504  503  0.81571326372E+01 -0.28359069980E+02 -0.48204652982E+02  0.56519591577E+02  0.00000000000E+00 0.  1.
<mgrwt>
<rscale>  4 0.22178659E+03</rscale>
<asrwt>0</asrwt>
<pdfrwt beam="1">  1       21 0.37266982E-01 0.22178659E+03</pdfrwt>
<pdfrwt beam="2">  1       21 0.35958330E-01 0.22178659E+03</pdfrwt>
<totfact> 0.51087683E+04</totfact>
</mgrwt>
</event>
<event>
 5    0  0.1531977E+001  0.1995289E+03  0.7546771E-02  0.1150137E+00
         21   -1    0    0  502  501  0.00000000000E+00  0.00000000000E+00  0.96093996528E+02  0.96093996528E+02  0.00000000000E+00 0.  1.
         21   -1    0    0  504  502 -0.00000000000E+00 -0.00000000000E+00 -0.11670458786E+04  0.11670458786E+04  0.00000000000E+00 0.  1.
         25    1    1    2    0    0  0.61456934774E+01 -0.20761592741E+03 -0.62799312960E+03  0.67315860960E+03  0.12500000000E+03 0.  0.
         21    1    1    2  503  501 -0.18839662318E+02  0.14816331377E+03 -0.66993049179E+01  0.14950645842E+03  0.00000000000E+00 0.  1.
         21    1    1    2  504  503  0.12693968841E+02  0.59452613641E+02 -0.43625944751E+03  0.44047480706E+03  0.00000000000E+00 0.  1.
<mgrwt>
<rscale>  4 0.19952894E+03</rscale>
<asrwt>0</asrwt>
<pdfrwt beam="1">  1       21 0.14783691E-01 0.19952894E+03</pdfrwt>
<pdfrwt beam="2">  1       21 0.17954553E+00 0.19952894E+03</pdfrwt>
<totfact> 0.73390880E+03</totfact>
</mgrwt>
</event>
<event>
 5    0  0.1531977E+001  0.3008444E+03  0.7546771E-02  0.1084819E+00
         21   -1    0    0  502  501  0.00000000000E+00  0.00000000000E+00  0.11413755529E+03  0.11413755529E+03  0.00000000000E+00 0.  1.
         21   -1    0    0  504  502 -0.00000000000E+00 -0.00000000000E+00 -0.12226457155E+04  0.12226457155E+04  0.00000000000E+00 0.  1.
         25    1    1    2    0    0 -0.31186751390E+03 -0.12113219493E+03 -0.51714652175E+03  0.62849015890E+03  0.12500000000E+03 0.  0.
         21    1    1    2  503  501  0.74405807451E+02  0.57650181565E+02 -0.35657221515E+02  0.10065388747E+03  0.00000000000E+00 0.  1.
         21    1    1    2  504  503  0.23746170644E+03  0.63482013361E+02 -0.55570441694E+03  0.60763922442E+03  0.00000000000E+00 0.  1.
<mgrwt>
<rscale>  4 0.30084444E+03</rscale>
<asrwt>0</asrwt>
<pdfrwt beam="1">  1       21 0.17559624E-01 0.30084444E+03</pdfrwt>
<pdfrwt beam="2">  1       21 0.18809934E+00 0.30084444E+03</pdfrwt>
<totfact> 0.43546643E+03</totfact>
</mgrwt>
</event>
<event>
 5    0  0.1531977E+001  0.2723837E+03  0.7546771E-02  0.1099923E+00
         21   -1    0    0  504  501  0.00000000000E+00  0.00000000000E+00  0.20813971601E+03  0.20813971601E+03  0.00000000000E+00 0.  1.
         21   -1    0    0  503  502 -0.00000000000E+00 -0.00000000000E+00 -0.60198837406E+03  0.60198837406E+03  0.00000000000E+00 0.  1.
         25    1    1    2    0    0 -0.22289242386E+03  0.12726671795E+03 -0.38027328779E+03  0.47551090789E+03  0.12500000000E+03 0.  0.
         21    1    1    2  503  501  0.44966638460E+02  0.33520293683E+02 -0.68563800353E+02  0.88581055434E+02  0.00000000000E+00 0.  1.
         21    1    1    2  504  502  0.17792578540E+03 -0.16078701164E+03  0.54988430094E+02  0.24603612675E+03  0.00000000000E+00 0.  1.
<mgrwt>
<rscale>  4 0.27238369E+03</rscale>
<asrwt>0</asrwt>
<pdfrwt beam="1">  1       21 0.32021495E-01 0.27238369E+03</pdfrwt>
<pdfrwt beam="2">  1       21 0.92613595E-01 0.27238369E+03</pdfrwt>
<totfact> 0.87774790E+03</totfact>
</mgrwt>
</event>
<event>
 5    0  0.1531977E+001  0.2587395E+03  0.7546771E-02  0.1107903E+00
         21   -1    0    0  504  501  0.00000000000E+00  0.00000000000E+00  0.12327133334E+04  0.12327133334E+04  0.00000000000E+00 0.  1.
         21   -1    0    0  503  502 -0.00000000000E+00 -0.00000000000E+00 -0.26214227344E+03  0.26214227344E+03  0.00000000000E+00 0.  1.
         25    1    1    2    0    0  0.15933316213E+03 -0.32528883527E+03  0.51711997968E+03  0.64361320395E+03  0.12500000000E+03 0.  0.
         21    1    1    2  503  501 -0.91354622285E+02  0.19197201315E+03 -0.12980473698E+03  0.24909474219E+03  0.00000000000E+00 0.  1.
         21    1    1    2  504  502 -0.67978539850E+02  0.13331682212E+03  0.58325581728E+03  0.60214766074E+03  0.00000000000E+00 0.  1.
<mgrwt>
<rscale>  4 0.25873952E+03</rscale>
<asrwt>0</asrwt>
<pdfrwt beam="1">  1       21 0.18964820E+00 0.25873952E+03</pdfrwt>
<pdfrwt beam="2">  1       21 0.40329581E-01 0.25873952E+03</pdfrwt>
<totfact> 0.87070581E+02</totfact>
</mgrwt>
</event>
<event>
 5    0  0.1531977E+001  0.3231606E+03  0.7546771E-02  0.1074204E+00
         21   -1    0    0  502  501  0.00000000000E+00  0.00000000000E+00  0.32196796273E+03  0.32196796273E+03  0.00000000000E+00 0. -1.
         21   -1    0    0  504  502 -0.00000000000E+00 -0.00000000000E+00 -0.56943537647E+03  0.56943537647E+03  0.00000000000E+00 0.  1.
         25    1    1    2    0    0  0.32721293882E+03 -0.88101362222E+01 -0.32509900619E+03  0.47797519774E+03  0.12500000000E+03 0.  0.
         21    1    1    2  503  501 -0.29110756526E+03  0.16920010470E+02  0.15312083186E+03  0.32935678292E+03  0.00000000000E+00 0. -1.
         21    1    1    2  504  503 -0.36105373566E+02 -0.81098742474E+01 -0.75489239407E+02  0.84071358541E+02  0.00000000000E+00 0.  1.
<mgrwt>
<rscale>  4 0.32316064E+03</rscale>
<asrwt>0</asrwt>
<pdfrwt beam="1">  1       21 0.49533533E-01 0.32316064E+03</pdfrwt>
<pdfrwt beam="2">  1       21 0.87605441E-01 0.32316064E+03</pdfrwt>
<totfact> 0.40004250E+03</totfact>
</mgrwt>
</event>
<event>
 5    0  0.1531977E+001  0.3053139E+03  0.7546771E-02  0.1082614E+00
         21   -1    0    0  503  501  0.00000000000E+00  0.00000000000E+00  0.22383801907E+04  0.22383801907E+04  0.00000000000E+00 0. -1.
         21   -1    0    0  504  502 -0.00000000000E+00 -0.00000000000E+00 -0.13414227231E+03  0.13414227231E+03  0.00000000000E+00 0. -1.
         25    1    1    2    0    0  0.18345710294E+03  0.26069166351E+03  0.18091212167E+03  0.38726069747E+03  0.12500000000E+03 0.  0.
         21    1    1    2  503  502  0.76150693136E+00 -0.56635270546E+02  0.16887502688E+02  0.59104327334E+02  0.00000000000E+00 0.  1.
         21    1    1    2  504  501 -0.18421860987E+03 -0.20405639297E+03  0.19064382940E+04  0.19261574382E+04  0.00000000000E+00 0. -1.
<mgrwt>
<rscale>  4 0.30531388E+03</rscale>
<asrwt>0</asrwt>
<pdfrwt beam="1">  1       21 0.34436615E+00 0.30531388E+03</pdfrwt>
<pdfrwt beam="2">  1       21 0.20637274E-01 0.30531388E+03</pdfrwt>
<totfact> 0.35799022E+02</totfact>
</mgrwt>
</event>
<event>
 5    0  0.1531977E+001  0.2166081E+03  0.7546771E-02  0.1136437E+00
         21   -1    0    0  502  501  0.00000000000E+00  0.00000000000E+00  0.19444114694E+04  0.19444114694E+04  0.00000000000E+00 0. -1.
         21   -1    0    0  504  502 -0.00000000000E+00 -0.00000000000E+00 -0.70066466536E+02  0.70066466536E+02  0.00000000000E+00 0. -1.
         25    1    1    2    0    0  0.23736315411E+03 -0.66867365421E+01  0.12468470364E+04  0.12753973936E+04  0.12500000000E+03 0.  0.
         21    1    1    2  503  501 -0.66966154629E+02  0.41605555853E+01  0.54612982467E+03  0.55023591439E+03  0.00000000000E+00 0. -1.
         21    1    1    2  504  503 -0.17039699948E+03  0.25261809568E+01  0.81368141830E+02  0.18884462800E+03  0.00000000000E+00 0. -1.
<mgrwt>
<rscale>  4 0.21660805E+03</rscale>
<asrwt>0</asrwt>
<pdfrwt beam="1">  1       21 0.29914018E+00 0.21660805E+03</pdfrwt>
<pdfrwt beam="2">  1       21 0.10779458E-01 0.21660805E+03</pdfrwt>
<totfact> 0.23844007E+03</totfact>
</mgrwt>
</event>
<event>
 5    0  0.1531977E+001  0.1840505E+03  0.7546771E-02  0.1163940E+00
         21   -1    0    0  503  501  0.00000000000E+00  0.00000000000E+00  0.75930021464E+02  0.75930021464E+02  0.00000000000E+00 0.  1.
         21   -1    0    0  501  502 -0.00000000000E+00 -0.00000000000E+00 -0.92516984702E+03  0.92516984702E+03  0.00000000000E+00 0.  1.
         25    1    1    2    0    0  0.19122757850E+02 -0.21154535809E+03 -0.37760277871E+03  0.45091681815E+03  0.12500000000E+03 0.  0.
         21    1    1    2  503  504 -0.50115248422E+02  0.10810518933E+03 -0.40755495388E+03  0.42461666302E+03  0.00000000000E+00 0.  1.
         21    1    1    2  504  502  0.30992490572E+02  0.10344016876E+03 -0.64082092963E+02  0.12556638731E+03  0.00000000000E+00 0.  1.
<mgrwt>
<rscale>  4 0.18405049E+03</rscale>
<asrwt>0</asrwt>
<pdfrwt beam="1">  1       21 0.11681541E-01 0.18405049E+03</pdfrwt>
<pdfrwt beam="2">  1       21 0.14233383E+00 0.18405049E+03</pdfrwt>
<totfact> 0.21227795E+04</totfact>
</mgrwt>
</event>
<event>
 5    0  0.1531977E+001  0.3168446E+03  0.7546771E-02  0.1077111E+00
         21   -1    0    0  502  501  0.00000000000E+00  0.00000000000E+00  0.93079647684E+02  0.93079647684E+02  0.00000000000E+00 0.  1.
         21   -1    0    0  504  502 -0.00000000000E+00 -0.00000000000E+00 -0.10219409528E+04  0.10219409528E+04  0.00000000000E+00 0. -1.
         25    1    1    2    0    0 -0.90947314414E+02 -0.27657559272E+03 -0.47639286429E+03  0.57213690113E+03  0.12500000000E+03 0.  0.
         21    1    1    2  503  501  0.29550731439E+02  0.41246784333E+02 -0.42423603799E+02  0.66138529660E+02  0.00000000000E+00 0.  1.
         21    1    1    2  504  503  0.61396582975E+02  0.23532880839E+03 -0.41004483707E+03  0.47674516973E+03  0.00000000000E+00 0. -1.
<mgrwt>
<rscale>  4 0.31684456E+03</rscale>
<asrwt>0</asrwt>
<pdfrwt beam="1">  1       21 0.14319947E-01 0.31684456E+03</pdfrwt>
<pdfrwt beam="2">  1       21 0.15722167E+00 0.31684456E+03</pdfrwt>
<totfact> 0.10449358E+04</totfact>
</mgrwt>
</event>
<event>
 5    0  0.1531977E+001  0.2371102E+03  0.7546771E-02  0.1121733E+00
         21   -1    0    0  504  501  0.00000000000E+00  0.00000000000E+00  0.33025007237E+03  0.33025007237E+03  0.00000000000E+00 0. -1.
         21   -1    0    0  503  502 -0.00000000000E+00 -0.00000000000E+00 -0.14825038841E+04  0.14825038841E+04  0.00000000000E+00 0. -1.
         25    1    1    2    0    0  0.22123356644E+03 -0.89906641025E+01 -0.12072484483E+04  0.12337337391E+04  0.12500000000E+03 0.  0.
         21    1    1    2  503  501 -0.20340321483E+02  0.14807341429E+02 -0.22940168275E+03  0.23077720444E+03  0.00000000000E+00 0. -1.
         21    1    1    2  504  502 -0.20089324496E+03 -0.58166773262E+01  0.28439631935E+03  0.34824301295E+03  0.00000000000E+00 0. -1.
<mgrwt>
<rscale>  4 0.23711023E+03</rscale>
<asrwt>0</asrwt>
<pdfrwt beam="1">  1       21 0.50807703E-01 0.23711023E+03</pdfrwt>
<pdfrwt beam="2">  1       21 0.22807752E+00 0.23711023E+03</pdfrwt>
<totfact> 0.31358962E+02</totfact>
</mgrwt>
</event>
<event>
 5    0  0.1531977E+001  0.3816393E+03  0.7546771E-02  0.1051057E+00
         21   -1    0    0  502  501  0.00000000000E+00  0.00000000000E+00  0.18453310389E+03  0.18453310389E+03  0.00000000000E+00 0. -1.
         21   -1    0    0  504  502 -0.00000000000E+00 -0.00000000000E+00 -0.81816151935E+03  0.81816151935E+03  0.00000000000E+00 0.  1.
         25    1    1    2    0    0  0.20578507129E+03  0.28593274018E+03 -0.43128087443E+03  0.57073042684E+03  0.12500000000E+03 0.  0.
         21    1    1    2  503  501 -0.70156560912E+02 -0.21895362469E+03 -0.11168431898E+03  0.25560911547E+03  0.00000000000E+00 0. -1.
         21    1    1    2  504  503 -0.13562851038E+03 -0.66979115493E+02 -0.90663222053E+02  0.17635508094E+03  0.00000000000E+00 0.  1.
<mgrwt>
<rscale>  4 0.37966540E+03</rscale>
<asrwt>0</asrwt>
<pdfrwt beam="1">  1       21 0.28389708E-01 0.38163928E+03</pdfrwt>
<pdfrwt beam="2">  1       21 0.12587100E+00 0.38163928E+03</pdfrwt>
<totfact> 0.49901983E+03</totfact>
</mgrwt>
</event>
<event>
 5    0  0.1531977E+001  0.3132115E+03  0.7546771E-02  0.1078817E+00
         21   -1    0    0  502  501  0.00000000000E+00  0.00000000000E+00  0.69571379618E+03  0.69571379618E+03  0.00000000000E+00 0.  1.
         21   -1    0    0  504  502 -0.00000000000E+00 -0.00000000000E+00 -0.15661519795E+03  0.15661519795E+03  0.00000000000E+00 0.  1.
         25    1    1    2    0    0  0.22768708171E+03 -0.18490311444E+03  0.16049799461E+03  0.35695262316E+03  0.12500000000E+03 0.  0.
         21    1    1    2  503  501  0.68548541117E+01  0.32520314453E+02  0.77959833967E+02  0.84748425290E+02  0.00000000000E+00 0. -1.
         21    1    1    2  504  503 -0.23454193582E+03  0.15238279999E+03  0.30064076966E+03  0.41062794568E+03  0.00000000000E+00 0.  1.
<mgrwt>
<rscale>  4 0.31321148E+03</rscale>
<asrwt>0</asrwt>
<pdfrwt beam="1">  1       21 0.10703289E+00 0.31321148E+03</pdfrwt>
<pdfrwt beam="2">  1       21 0.24094646E-01 0.31321148E+03</pdfrwt>
<totfact> 0.10595977E+04</totfact>
</mgrwt>
</event>
<event>
 5    0  0.1531977E+001  0.2594455E+03  0.7546771E-02  0.1107477E+00
         21   -1    0    0  504  501  0.00000000000E+00  0.00000000000E+00  0.83271282836E+02  0.83271282836E+02  0.00000000000E+00 0. -1.
         21   -1    0    0  503  502 -0.00000000000E+00 -0.00000000000E+00 -0.95243002406E+03  0.95243002406E+03  0.00000000000E+00 0. -1.
         25    1    1    2    0    0  0.11606976414E+03 -0.20386156237E+03 -0.63627675501E+03  0.68956858668E+03  0.12500000000E+03 0.  0.
         21    1    1    2  503  501 -0.11441911086E+03  0.18346475502E+03 -0.24130380387E+03  0.32400397378E+03  0.00000000000E+00 0. -1.
         21    1    1    2  504  502 -0.16506532775E+01  0.20396807344E+02  0.84218176573E+01  0.22128746434E+02  0.00000000000E+00 0. -1.
<mgrwt>
<rscale>  4 0.25944546E+03</rscale>
<asrwt>0</asrwt>
<pdfrwt beam="1">  1       21 0.12810967E-01 0.25944546E+03</pdfrwt>
<pdfrwt beam="2">  1       21 0.14652769E+00 0.25944546E+03</pdfrwt>
<totfact> 0.15917086E+04</totfact>
</mgrwt>
</event>
<event>
 5    0  0.1531977E+001  0.3032970E+03  0.7546771E-02  0.1083604E+00
         21   -1    0    0  502  501  0.00000000000E+00  0.00000000000E+00  0.28685178096E+03  0.28685178096E+03  0.00000000000E+00 0. -1.
         21   -1    0    0  504  502 -0.00000000000E+00 -0.00000000000E+00 -0.53298254907E+03  0.53298254907E+03  0.00000000000E+00 0. -1.
         25    1    1    2    0    0 -0.19469077186E+03 -0.24584447956E+03 -0.28520485333E+02  0.33879554729E+03  0.12500000000E+03 0.  0.
         21    1    1    2  503  501  0.18947347795E+03  0.16662160759E+03 -0.31292371332E+01  0.25233460145E+03  0.00000000000E+00 0. -1.
         21    1    1    2  504  503  0.52172939097E+01  0.79222871970E+02 -0.21448104565E+03  0.22870418129E+03  0.00000000000E+00 0. -1.
<mgrwt>
<rscale>  4 0.30329698E+03</rscale>
<asrwt>0</asrwt>
<pdfrwt beam="1">  1       21 0.44131044E-01 0.30329698E+03</pdfrwt>
<pdfrwt beam="2">  1       21 0.81997315E-01 0.30329698E+03</pdfrwt>
<totfact> 0.59935804E+03</totfact>
</mgrwt>
</event>
<event>
 5    0  0.1531977E+001  0.2719651E+03  0.7546771E-02  0.1100160E+00
         21   -1    0    0  503  501  0.00000000000E+00  0.00000000000E+00  0.20363879529E+03  0.20363879529E+03  0.00000000000E+00 0. -1.
         21   -1    0    0  504  502 -0.00000000000E+00 -0.00000000000E+00 -0.10391192644E+04  0.10391192644E+04  0.00000000000E+00 0. -1.
         25    1    1    2    0    0 -0.12202727180E+03  0.25425063601E+03 -0.57687509692E+02  0.31382620947E+03  0.12500000000E+03 0.  0.
         21    1    1    2  503  502  0.22483085116E+03 -0.36288903628E+02 -0.55831502157E+03  0.60297716331E+03  0.00000000000E+00 0. -1.
         21    1    1    2  504  501 -0.10280357935E+03 -0.21796173238E+03 -0.21947793780E+03  0.32595468687E+03  0.00000000000E+00 0. -1.
<mgrwt>
<rscale>  4 0.27196506E+03</rscale>
<asrwt>0</asrwt>
<pdfrwt beam="1">  1       21 0.31329046E-01 0.27196506E+03</pdfrwt>
<pdfrwt beam="2">  1       21 0.15986450E+00 0.27196506E+03</pdfrwt>
<totfact> 0.23157205E+03</totfact>
</mgrwt>
</event>
<event>
 5    0  0.1531977E+001  0.3228842E+03  0.7546771E-02  0.1074330E+00
         21   -1    0    0  503  501  0.00000000000E+00  0.00000000000E+00  0.17471781804E+04  0.17471781804E+04  0.00000000000E+00 0.  1.
         21   -1    0    0  504  502 -0.00000000000E+00 -0.00000000000E+00 -0.65722574203E+02  0.65722574203E+02  0.00000000000E+00 0.  1.
         25    1    1    2    0    0 -0.26621312915E+03 -0.15949366986E+03  0.83680236360E+03  0.90120522445E+03  0.12500000000E+03 0.  0.
         21    1    1    2  503  502  0.24639866015E+03  0.15017075061E+03  0.59702157335E+03  0.66309751402E+03  0.00000000000E+00 0.  1.
         21    1    1    2  504  501  0.19814469006E+02  0.93229192545E+01  0.24763166922E+03  0.24859801610E+03  0.00000000000E+00 0.  1.
<mgrwt>
<rscale>  4 0.32288416E+03</rscale>
<asrwt>0</asrwt>
<pdfrwt beam="1">  1       21 0.26879661E+00 0.32288416E+03</pdfrwt>
<pdfrwt beam="2">  1       21 0.10111167E-01 0.32288416E+03</pdfrwt>
<totfact> 0.36780255E+03</totfact>
</mgrwt>
</event>
<event>
 5    0  0.1531977E+001  0.3132463E+03  0.7546771E-02  0.1078800E+00
         21   -1    0    0  503  501  0.00000000000E+00  0.00000000000E+00  0.25651848141E+03  0.25651848141E+03  0.00000000000E+00 0.  1.
         21   -1    0    0  504  502 -0.00000000000E+00 -0.00000000000E+00 -0.13657310426E+04  0.13657310426E+04  0.00000000000E+00 0.  1.
         25    1    1    2    0    0 -0.19176406930E+03  0.67983511911E+02 -0.12890667878E+03  0.27136165537E+03  0.12500000000E+03 0.  0.
         21    1    1    2  503  502  0.30453462940E+03 -0.70630071316E+02 -0.11248811230E+04  0.11675133783E+04  0.00000000000E+00 0.  1.
         21    1    1    2  504  501 -0.11277056009E+03  0.26465594046E+01  0.14457524066E+03  0.18337449035E+03  0.00000000000E+00 0.  1.
<mgrwt>
<rscale>  4 0.31324633E+03</rscale>
<asrwt>0</asrwt>
<pdfrwt beam="1">  1       21 0.39464382E-01 0.31324633E+03</pdfrwt>
<pdfrwt beam="2">  1       21 0.21011247E+00 0.31324633E+03</pdfrwt>
<totfact> 0.64070329E+02</totfact>
</mgrwt>
</event>
<event>
 5    0  0.1531977E+001  0.3657745E+03  0.7546771E-02  0.1056321E+00
         21   -1    0    0  502  501  0.00000000000E+00  0.00000000000E+00  0.72567336216E+03  0.72567336216E+03  0.00000000000E+00 0.  1.
         21   -1    0    0  504  502 -0.00000000000E+00 -0.00000000000E+00 -0.12646912339E+04  0.12646912339E+04  0.00000000000E+00 0.  1.
         25    1    1    2    0    0 -0.76539458419E+02  0.35954226816E+03 -0.11523373135E+04  0.12159914537E+04  0.12500000000E+03 0.  0.
         21    1    1    2  503  501  0.51401950737E+02 -0.33903894502E+03  0.64407463920E+03  0.72967232895E+03  0.00000000000E+00 0.  1.
         21    1    1    2  504  503  0.25137507682E+02 -0.20503323143E+02 -0.30755197383E+02  0.44700813398E+02  0.00000000000E+00 0.  1.
<mgrwt>
<rscale>  4 0.36577445E+03</rscale>
<asrwt>0</asrwt>
<pdfrwt beam="1">  1       21 0.11164206E+00 0.36577445E+03</pdfrwt>
<pdfrwt beam="2">  1       21 0.19456788E+00 0.36577445E+03</pdfrwt>
<totfact> 0.76696299E+01</totfact>
</mgrwt>
</event>
<event>
 5    0  0.1531977E+001  0.2509831E+03  0.7546771E-02  0.1112685E+00
         21   -1    0    0  504  501  0.00000000000E+00  0.00000000000E+00  0.37512616254E+03  0.37512616254E+03  0.00000000000E+00 0.  1.
         21   -1    0    0  501  502 -0.00000000000E+00 -0.00000000000E+00 -0.15474812715E+03  0.15474812715E+03  0.00000000000E+00 0.  1.
         25    1    1    2    0    0 -0.21331364363E+03  0.43183274826E+02  0.89646487473E+02  0.26651266105E+03  0.12500000000E+03 0.  0.
         21    1    1    2  503  502  0.59203022060E+02 -0.20607221396E+02  0.75434016806E+02  0.98081324860E+02  0.00000000000E+00 0. -1.
         21    1    1    2  504  503  0.15411062157E+03 -0.22576053431E+02  0.55297531114E+02  0.16528030378E+03  0.00000000000E+00 0.  1.
<mgrwt>
<rscale>  4 0.25098308E+03</rscale>
<asrwt>0</asrwt>
<pdfrwt beam="1">  1       21 0.57711717E-01 0.25098308E+03</pdfrwt>
<pdfrwt beam="2">  1       21 0.23807404E-01 0.25098308E+03</pdfrwt>
<totfact> 0.45587809E+04</totfact>
</mgrwt>
</event>
<event>
 5    0  0.1531977E+001  0.2453869E+03  0.7546771E-02  0.1116255E+00
         21   -1    0    0  504  501  0.00000000000E+00  0.00000000000E+00  0.30481454046E+03  0.30481454046E+03  0.00000000000E+00 0.  1.
         21   -1    0    0  501  502 -0.00000000000E+00 -0.00000000000E+00 -0.32578128192E+03  0.32578128192E+03  0.00000000000E+00 0.  1.
         25    1    1    2    0    0 -0.19798616241E+02 -0.24404420009E+03 -0.54828909197E+01  0.27496294095E+03  0.12500000000E+03 0.  0.
         21    1    1    2  503  502 -0.10687253613E+03  0.17659414284E+03  0.21221747016E+02  0.20750323566E+03  0.00000000000E+00 0.  1.
         21    1    1    2  504  503  0.12667115237E+03  0.67450057249E+02 -0.36705597554E+02  0.14812964578E+03  0.00000000000E+00 0.  1.
<mgrwt>
<rscale>  4 0.24538695E+03</rscale>
<asrwt>0</asrwt>
<pdfrwt beam="1">  1       21 0.46894545E-01 0.24538695E+03</pdfrwt>
<pdfrwt beam="2">  1       21 0.50120197E-01 0.24538695E+03</pdfrwt>
<totfact> 0.16009768E+04</totfact>
</mgrwt>
</event>
<event>
 5    0  0.1531977E+001  0.1984676E+03  0.7546771E-02  0.1151038E+00
         21   -1    0    0  504  501  0.00000000000E+00  0.00000000000E+00  0.11150747046E+03  0.11150747046E+03  0.00000000000E+00 0.  1.
         21   -1    0    0  503  502 -0.00000000000E+00 -0.00000000000E+00 -0.65195102760E+03  0.65195102760E+03  0.00000000000E+00 0.  1.
         25    1    1    2    0    0 -0.48849539166E+02  0.20291418531E+03 -0.13346137486E+03  0.27748402234E+03  0.12500000000E+03 0.  0.
         21    1    1    2  503  501  0.34151176924E+02 -0.79492680742E+02 -0.32680803227E+03  0.33806638274E+03  0.00000000000E+00 0.  1.
         21    1    1    2  504  502  0.14698362242E+02 -0.12342150457E+03 -0.80174150003E+02  0.14790809299E+03  0.00000000000E+00 0.  1.
<mgrwt>
<rscale>  4 0.19846761E+03</rscale>
<asrwt>0</asrwt>
<pdfrwt beam="1">  1       21 0.17154995E-01 0.19846761E+03</pdfrwt>
<pdfrwt beam="2">  1       21 0.10030016E+00 0.19846761E+03</pdfrwt>
<totfact> 0.24922105E+04</totfact>
</mgrwt>
</event>
<event>
 5    0  0.1531977E+001  0.3319816E+03  0.7546771E-02  0.1070263E+00
         21   -1    0    0  504  501  0.00000000000E+00  0.00000000000E+00  0.11462386291E+04  0.11462386291E+04  0.00000000000E+00 0.  1.
         21   -1    0    0  503  502 -0.00000000000E+00 -0.00000000000E+00 -0.15117432112E+03  0.15117432112E+03  0.00000000000E+00 0.  1.
         25    1    1    2    0    0 -0.20513603737E+03 -0.21869474384E+03  0.14755734249E+03  0.35680015994E+03  0.12500000000E+03 0.  0.
         21    1    1    2  503  501  0.10509877830E+02 -0.22223363718E+02 -0.11747483783E+02  0.27245895144E+02  0.00000000000E+00 0. -1.
         21    1    1    2  504  502  0.19462615954E+03  0.24091810756E+03  0.85925444923E+03  0.91336689509E+03  0.00000000000E+00 0.  1.
<mgrwt>
<rscale>  4 0.33198158E+03</rscale>
<asrwt>0</asrwt>
<pdfrwt beam="1">  1       21 0.17634440E+00 0.33198158E+03</pdfrwt>
<pdfrwt beam="2">  1       21 0.23257589E-01 0.33198158E+03</pdfrwt>
<totfact> 0.30308873E+03</totfact>
</mgrwt>
</event>
<event>
 5    0  0.1531977E+001  0.4263573E+03  0.7546771E-02  0.1035017E+00
         21   -1    0    0  502  501  0.00000000000E+00  0.00000000000E+00  0.95313206749E+03  0.95313206749E+03  0.00000000000E+00 0.  1.
         21   -1    0    0  504  502 -0.00000000000E+00 -0.00000000000E+00 -0.41924162789E+03  0.41924162789E+03  0.00000000000E+00 0.  1.
         25    1    1    2    0    0  0.44106007408E+03  0.16043290565E+03  0.61874371977E+03  0.78660123119E+03  0.12500000000E+03 0.  0.
         21    1    1    2  503  501 -0.67640913874E+02 -0.25701006838E+02  0.11918061435E+03  0.13942687624E+03  0.00000000000E+00 0.  1.
         21    1    1    2  504  503 -0.37341916021E+03 -0.13473189881E+03 -0.20403389451E+03  0.44634558794E+03  0.00000000000E+00 0.  1.
<mgrwt>
<rscale>  4 0.42635726E+03</rscale>
<asrwt>0</asrwt>
<pdfrwt beam="1">  1       21 0.14663570E+00 0.42635726E+03</pdfrwt>
<pdfrwt beam="2">  1       21 0.64498712E-01 0.42635726E+03</pdfrwt>
<totfact> 0.59448623E+02</totfact>
</mgrwt>
</event>
<event>
 5    0  0.1531977E+001  0.2767462E+03  0.7546771E-02  0.1097479E+00
         21   -1    0    0  504  501  0.00000000000E+00  0.00000000000E+00  0.15394921682E+04  0.15394921682E+04  0.00000000000E+00 0. -1.
         21   -1    0    0  503  502 -0.00000000000E+00 -0.00000000000E+00 -0.59505687308E+02  0.59505687308E+02  0.00000000000E+00 0. -1.
         25    1    1    2    0    0 -0.82823409853E+02 -0.23683395256E+03  0.50086193098E+03  0.57396664730E+03  0.12500000000E+03 0.  0.
         21    1    1    2  503  501  0.20673396357E+02 -0.64913716409E+00  0.61667855610E+01  0.21583325512E+02  0.00000000000E+00 0. -1.
         21    1    1    2  504  502  0.62150013495E+02  0.23748308972E+03  0.97295776440E+03  0.10034478827E+04  0.00000000000E+00 0. -1.
<mgrwt>
<rscale>  4 0.27674623E+03</rscale>
<asrwt>0</asrwt>
<pdfrwt beam="1">  1       21 0.23684492E+00 0.27674623E+03</pdfrwt>
<pdfrwt beam="2">  1       21 0.91547223E-02 0.27674623E+03</pdfrwt>
<totfact> 0.70433427E+03</totfact>
</mgrwt>
</event>
<event>
 5    0  0.1531977E+001  0.2594858E+03  0.7546771E-02  0.1107453E+00
         21   -1    0    0  502  501  0.00000000000E+00  0.00000000000E+00  0.17022477410E+03  0.17022477410E+03  0.00000000000E+00 0.  1.
         21   -1    0    0  504  502 -0.00000000000E+00 -0.00000000000E+00 -0.81783595916E+03  0.81783595916E+03  0.00000000000E+00 0.  1.
         25    1    1    2    0    0 -0.16481829500E+03 -0.16817072525E+03 -0.57431938363E+03  0.63317787201E+03  0.12500000000E+03 0.  0.
         21    1    1    2  503  501 -0.19905096041E+02  0.55847759838E+02  0.72851839926E+02  0.93928567049E+02  0.00000000000E+00 0. -1.
         21    1    1    2  504  503  0.18472339104E+03  0.11232296541E+03 -0.14614364135E+03  0.26095429420E+03  0.00000000000E+00 0.  1.
<mgrwt>
<rscale>  4 0.25948581E+03</rscale>
<asrwt>0</asrwt>
<pdfrwt beam="1">  1       21 0.26188427E-01 0.25948581E+03</pdfrwt>
<pdfrwt beam="2">  1       21 0.12582092E+00 0.25948581E+03</pdfrwt>
<totfact> 0.62086363E+03</totfact>
</mgrwt>
</event>
<event>
 5    0  0.1531977E+001  0.2127696E+03  0.7546771E-02  0.1139391E+00
         21   -1    0    0  502  501  0.00000000000E+00  0.00000000000E+00  0.47719101483E+03  0.47719101483E+03  0.00000000000E+00 0.  1.
         21   -1    0    0  504  502 -0.00000000000E+00 -0.00000000000E+00 -0.19001576028E+03  0.19001576028E+03  0.00000000000E+00 0.  1.
         25    1    1    2    0    0  0.90269481644E+01 -0.24051352251E+03  0.17684650198E+03  0.32377140943E+03  0.12500000000E+03 0.  0.
         21    1    1    2  503  501  0.75163791595E+02  0.13067445977E+03  0.13558920198E+03  0.20275562063E+03  0.00000000000E+00 0.  1.
         21    1    1    2  504  503 -0.84190739759E+02  0.10983906274E+03 -0.25260449413E+02  0.14067974506E+03  0.00000000000E+00 0.  1.
<mgrwt>
<rscale>  4 0.21276957E+03</rscale>
<asrwt>0</asrwt>
<pdfrwt beam="1">  1       21 0.73414002E-01 0.21276957E+03</pdfrwt>
<pdfrwt beam="2">  1       21 0.29233194E-01 0.21276957E+03</pdfrwt>
<totfact> 0.18460855E+04</totfact>
</mgrwt>
</event>
<event>
 5    0  0.1531977E+001  0.2754667E+03  0.7546771E-02  0.1098191E+00
         21   -1    0    0  503  501  0.00000000000E+00  0.00000000000E+00  0.38557235293E+03  0.38557235293E+03  0.00000000000E+00 0.  1.
         21   -1    0    0  504  502 -0.00000000000E+00 -0.00000000000E+00 -0.20732848900E+03  0.20732848900E+03  0.00000000000E+00 0.  1.
         25    1    1    2    0    0 -0.21239094572E+03 -0.84504943853E+02  0.11450260673E+03  0.28458187980E+03  0.12500000000E+03 0.  0.
         21    1    1    2  503  502  0.23904442118E+03  0.95404785412E+02  0.22968231042E+02  0.25840249228E+03  0.00000000000E+00 0.  1.
         21    1    1    2  504  501 -0.26653475460E+02 -0.10899841559E+02  0.40773026162E+02  0.49916469852E+02  0.00000000000E+00 0.  1.
<mgrwt>
<rscale>  4 0.27546674E+03</rscale>
<asrwt>0</asrwt>
<pdfrwt beam="1">  1       21 0.59318824E-01 0.27546674E+03</pdfrwt>
<pdfrwt beam="2">  1       21 0.31896691E-01 0.27546674E+03</pdfrwt>
<totfact> 0.24083344E+04</totfact>
</mgrwt>
</event>
<event>
 5    0  0.1531977E+001  0.3015899E+03  0.7546771E-02  0.1084449E+00
         21   -1    0    0  504  501  0.00000000000E+00  0.00000000000E+00  0.50123005631E+03  0.50123005631E+03  0.00000000000E+00 0.  1.
         21   -1    0    0  503  502 -0.00000000000E+00 -0.00000000000E+00 -0.66124558423E+03  0.66124558423E+03  0.00000000000E+00 0.  1.
         25    1    1    2    0    0  0.40224262957E+02  0.26976075754E+03  0.39267402728E+03  0.49417279300E+03  0.12500000000E+03 0.  0.
         21    1    1    2  503  501 -0.42549389109E+01 -0.27471445050E+03 -0.56637759748E+03  0.62949957645E+03  0.00000000000E+00 0.  1.
         21    1    1    2  504  502 -0.35969324046E+02  0.49536929645E+01  0.13688042280E+02  0.38803271096E+02  0.00000000000E+00 0.  1.
<mgrwt>
<rscale>  4 0.30158986E+03</rscale>
<asrwt>0</asrwt>
<pdfrwt beam="1">  1       21 0.77112316E-01 0.30158986E+03</pdfrwt>
<pdfrwt beam="2">  1       21 0.10173009E+00 0.30158986E+03</pdfrwt>
<totfact> 0.10794770E+03</totfact>
</mgrwt>
</event>
<event>
 5    0  0.1531977E+001  0.2873798E+03  0.7546771E-02  0.1091725E+00
         21   -1    0    0  502  501  0.00000000000E+00  0.00000000000E+00  0.10641996257E+03  0.10641996257E+03  0.00000000000E+00 0. -1.
         21   -1    0    0  504  502 -0.00000000000E+00 -0.00000000000E+00 -0.77681752446E+03  0.77681752446E+03  0.00000000000E+00 0. -1.
         25    1    1    2    0    0 -0.85255163783E+02  0.24432291163E+03 -0.48276943891E+03  0.56183045418E+03  0.12500000000E+03 0.  0.
         21    1    1    2  503  501  0.84721578770E+02 -0.22020330704E+03 -0.16194792842E+03  0.28617193060E+03  0.00000000000E+00 0. -1.
         21    1    1    2  504  503  0.53358501365E+00 -0.24119604590E+02 -0.25680194556E+02  0.35235102256E+02  0.00000000000E+00 0.  1.
<mgrwt>
<rscale>  4 0.28737976E+03</rscale>
<asrwt>0</asrwt>
<pdfrwt beam="1">  1       21 0.16372302E-01 0.28737976E+03</pdfrwt>
<pdfrwt beam="2">  1       21 0.11951039E+00 0.28737976E+03</pdfrwt>
<totfact> 0.16924201E+04</totfact>
</mgrwt>
</event>
<event>
 5    0  0.1531977E+001  0.2121783E+03  0.7546771E-02  0.1139853E+00
         21   -1    0    0  502  501  0.00000000000E+00  0.00000000000E+00  0.16975029843E+03  0.16975029843E+03  0.00000000000E+00 0.  1.
         21   -1    0    0  504  502 -0.00000000000E+00 -0.00000000000E+00 -0.42712118033E+03  0.42712118033E+03  0.00000000000E+00 0.  1.
         25    1    1    2    0    0  0.20009950652E+03  0.60508689350E+02 -0.18246965633E+03  0.30433745987E+03  0.12500000000E+03 0.  0.
         21    1    1    2  503  501 -0.66748503100E+02  0.11856748066E+02  0.59230534931E+02  0.90023338136E+02  0.00000000000E+00 0.  1.
         21    1    1    2  504  503 -0.13335100342E+03 -0.72365437417E+02 -0.13413176050E+03  0.20251068075E+03  0.00000000000E+00 0.  1.
<mgrwt>
<rscale>  4 0.21217825E+03</rscale>
<asrwt>0</asrwt>
<pdfrwt beam="1">  1       21 0.26115430E-01 0.21217825E+03</pdfrwt>
<pdfrwt beam="2">  1       21 0.65710951E-01 0.21217825E+03</pdfrwt>
<totfact> 0.29339502E+04</totfact>
</mgrwt>
</event>
<event>
 5    0  0.1531977E+001  0.2758759E+03  0.7546771E-02  0.1097963E+00
         21   -1    0    0  502  501  0.00000000000E+00  0.00000000000E+00  0.34555246337E+03  0.34555246337E+03  0.00000000000E+00 0.  1.
         21   -1    0    0  504  502 -0.00000000000E+00 -0.00000000000E+00 -0.79703254331E+03  0.79703254331E+03  0.00000000000E+00 0.  1.
         25    1    1    2    0    0 -0.25431141951E+03 -0.26640427190E+03 -0.17195000453E+03  0.42524973631E+03  0.12500000000E+03 0.  0.
         21    1    1    2  503  501  0.12345461999E+03  0.18467513065E+03  0.14524509717E+03  0.26540927891E+03  0.00000000000E+00 0.  1.
         21    1    1    2  504  503  0.13085679951E+03  0.81729141251E+02 -0.42477517258E+03  0.45192599146E+03  0.00000000000E+00 0.  1.
<mgrwt>
<rscale>  4 0.27587586E+03</rscale>
<asrwt>0</asrwt>
<pdfrwt beam="1">  1       21 0.53161918E-01 0.27587586E+03</pdfrwt>
<pdfrwt beam="2">  1       21 0.12262039E+00 0.27587586E+03</pdfrwt>
<totfact> 0.15676686E+03</totfact>
</mgrwt>
</event>
<event>
 5    0  0.1531977E+001  0.2387715E+03  0.7546771E-02  0.1120614E+00
         21   -1    0    0  502  501  0.00000000000E+00  0.00000000000E+00  0.89175984384E+03  0.89175984384E+03  0.00000000000E+00 0.  1.
         21   -1    0    0  504  502 -0.00000000000E+00 -0.00000000000E+00 -0.84111564595E+02  0.84111564595E+02  0.00000000000E+00 0.  1.
         25    1    1    2    0    0  0.13268560728E+03  0.19161120629E+03  0.29230147132E+03  0.39418964330E+03  0.12500000000E+03 0.  0.
         21    1    1    2  503  501 -0.10251693577E+03 -0.16362636828E+03  0.50289432038E+03  0.53868915710E+03  0.00000000000E+00 0.  1.
         21    1    1    2  504  503 -0.30168671506E+02 -0.27984838009E+02  0.12452487554E+02  0.42992608028E+02  0.00000000000E+00 0. -1.
<mgrwt>
<rscale>  4 0.23877148E+03</rscale>
<asrwt>0</asrwt>
<pdfrwt beam="1">  1       21 0.13719382E+00 0.23877148E+03</pdfrwt>
<pdfrwt beam="2">  1       21 0.12940241E-01 0.23877148E+03</pdfrwt>
<totfact> 0.18779665E+04</totfact>
</mgrwt>
</event>
<event>
 5    0  0.1531977E+001  0.2175967E+03  0.7546771E-02  0.1135688E+00
         21   -1    0    0  502  501  0.00000000000E+00  0.00000000000E+00  0.64104315543E+03  0.64104315543E+03  0.00000000000E+00 0. -1.
         21   -1    0    0  504  502 -0.00000000000E+00 -0.00000000000E+00 -0.14009749285E+03  0.14009749285E+03  0.00000000000E+00 0. -1.
         25    1    1    2    0    0 -0.18713125159E+03  0.10980685725E+03  0.81015218591E+02  0.26318076841E+03  0.12500000000E+03 0.  0.
         21    1    1    2  503  501  0.14842517941E+03 -0.85338873412E+02  0.43680346228E+03  0.46915884501E+03  0.00000000000E+00 0. -1.
         21    1    1    2  504  503  0.38706072182E+02 -0.24467983833E+02 -0.16873018286E+02  0.48801034852E+02  0.00000000000E+00 0.  1.
<mgrwt>
<rscale>  4 0.21759667E+03</rscale>
<asrwt>0</asrwt>
<pdfrwt beam="1">  1       21 0.98622023E-01 0.21759667E+03</pdfrwt>
<pdfrwt beam="2">  1       21 0.21553461E-01 0.21759667E+03</pdfrwt>
<totfact> 0.16757268E+04</totfact>
</mgrwt>
</event>
<event>
 5    0  0.1531977E+001  0.2051722E+03  0.7546771E-02  0.1145447E+00
         21   -1    0    0  502  501  0.00000000000E+00  0.00000000000E+00  0.22764599713E+04  0.22764599713E+04  0.00000000000E+00 0. -1.
         21   -1    0    0  504  502 -0.00000000000E+00 -0.00000000000E+00 -0.51115354414E+02  0.51115354414E+02  0.00000000000E+00 0.  1.
         25    1    1    2    0    0  0.14491469340E+03 -0.18548592949E+03  0.15991693280E+04  0.16212257209E+04  0.12500000000E+03 0.  0.
         21    1    1    2  503  501 -0.60949832585E+02  0.54755581226E+02  0.49867179183E+03  0.50535790459E+03  0.00000000000E+00 0. -1.
         21    1    1    2  504  503 -0.83964860814E+02  0.13073034826E+03  0.12750349706E+03  0.20099170025E+03  0.00000000000E+00 0.  1.
<mgrwt>
<rscale>  4 0.20517216E+03</rscale>
<asrwt>0</asrwt>
<pdfrwt beam="1">  1       21 0.35022453E+00 0.20517216E+03</pdfrwt>
<pdfrwt beam="2">  1       21 0.78639024E-02 0.20517216E+03</pdfrwt>
<totfact> 0.21198860E+03</totfact>
</mgrwt>
</event>
<event>
 5    0  0.1531977E+001  0.2592740E+03  0.7546771E-02  0.1107580E+00
         21   -1    0    0  502  501  0.00000000000E+00  0.00000000000E+00  0.11063286144E+03  0.11063286144E+03  0.00000000000E+00 0.  1.
         21   -1    0    0  504  502 -0.00000000000E+00 -0.00000000000E+00 -0.63703654683E+03  0.63703654683E+03  0.00000000000E+00 0.  1.
         25    1    1    2    0    0  0.24231646976E+03 -0.49081804785E+01 -0.28512432631E+03  0.39454054697E+03  0.12500000000E+03 0.  0.
         21    1    1    2  503  501 -0.26584635562E+02 -0.10208731799E+01  0.34588446159E+01  0.26828131431E+02  0.00000000000E+00 0.  1.
         21    1    1    2  504  503 -0.21573183420E+03  0.59290536585E+01 -0.24473820369E+03  0.32630072987E+03  0.00000000000E+00 0.  1.
<mgrwt>
<rscale>  4 0.25927399E+03</rscale>
<asrwt>0</asrwt>
<pdfrwt beam="1">  1       21 0.17020440E-01 0.25927399E+03</pdfrwt>
<pdfrwt beam="2">  1       21 0.98005622E-01 0.25927399E+03</pdfrwt>
<totfact> 0.25880029E+04</totfact>
</mgrwt>
</event>
<event>
 5    0  0.1531977E+001  0.1925390E+03  0.7546771E-02  0.1156191E+00
         21   -1    0    0  503  501  0.00000000000E+00  0.00000000000E+00  0.19633463394E+03  0.19633463394E+03  0.00000000000E+00 0.  1.
         21   -1    0    0  504  502 -0.00000000000E+00 -0.00000000000E+00 -0.42541713206E+03  0.42541713206E+03  0.00000000000E+00 0. -1.
         25    1    1    2    0    0 -0.11012833416E+03 -0.17045292863E+03  0.24656930718E+02  0.23961513954E+03  0.12500000000E+03 0.  0.
         21    1    1    2  503  502  0.22544499506E+02  0.93787507004E+02 -0.24743048572E+03  0.26556768665E+03  0.00000000000E+00 0. -1.
         21    1    1    2  504  501  0.87583834649E+02  0.76665421629E+02 -0.63089431148E+01  0.11656893981E+03  0.00000000000E+00 0.  1.
<mgrwt>
<rscale>  4 0.19253897E+03</rscale>
<asrwt>0</asrwt>
<pdfrwt beam="1">  1       21 0.30205329E-01 0.19253897E+03</pdfrwt>
<pdfrwt beam="2">  1       21 0.65448789E-01 0.19253897E+03</pdfrwt>
<totfact> 0.22580327E+04</totfact>
</mgrwt>
</event>
<event>
 5    0  0.1531977E+001  0.2232408E+03  0.7546771E-02  0.1131490E+00
         21   -1    0    0  502  501  0.00000000000E+00  0.00000000000E+00  0.46787200035E+03  0.46787200035E+03  0.00000000000E+00 0.  1.
         21   -1    0    0  504  502 -0.00000000000E+00 -0.00000000000E+00 -0.26963636568E+03  0.26963636568E+03  0.00000000000E+00 0.  1.
         25    1    1    2    0    0 -0.56101967782E+02  0.23824744773E+03  0.11897177500E+03  0.29948048415E+03  0.12500000000E+03 0.  0.
         21    1    1    2  503  501 -0.12532616778E+01 -0.75205608266E+02  0.20886684974E+03  0.22199733129E+03  0.00000000000E+00 0.  1.
         21    1    1    2  504  503  0.57355229460E+02 -0.16304183946E+03 -0.12960299006E+03  0.21603055061E+03  0.00000000000E+00 0.  1.
<mgrwt>
<rscale>  4 0.22324079E+03</rscale>
<asrwt>0</asrwt>
<pdfrwt beam="1">  1       21 0.71980308E-01 0.22324079E+03</pdfrwt>
<pdfrwt beam="2">  1       21 0.41482518E-01 0.22324079E+03</pdfrwt>
<totfact> 0.95502158E+03</totfact>
</mgrwt>
</event>
<event>
 5    0  0.1531977E+001  0.2345682E+03  0.7546771E-02  0.1123465E+00
         21   -1    0    0  502  501  0.00000000000E+00  0.00000000000E+00  0.47660187611E+02  0.47660187611E+02  0.00000000000E+00 0.  1.
         21   -1    0    0  504  502 -0.00000000000E+00 -0.00000000000E+00 -0.14906548469E+04  0.14906548469E+04  0.00000000000E+00 0.  1.
         25    1    1    2    0    0  0.22594017581E+03  0.50451150794E+02 -0.86167337682E+03  0.90094411036E+03  0.12500000000E+03 0.  0.
         21    1    1    2  503  501 -0.18600299613E+03 -0.10378179245E+02 -0.32250917805E+03  0.37244729976E+03  0.00000000000E+00 0.  1.
         21    1    1    2  504  503 -0.39937179674E+02 -0.40072971549E+02 -0.25881210445E+03  0.26492362443E+03  0.00000000000E+00 0.  1.
<mgrwt>
<rscale>  4 0.23456818E+03</rscale>
<asrwt>0</asrwt>
<pdfrwt beam="1">  1       21 0.73323362E-02 0.23456818E+03</pdfrwt>
<pdfrwt beam="2">  1       21 0.22933153E+00 0.23456818E+03</pdfrwt>
<totfact> 0.11904807E+04</totfact>
</mgrwt>
</event>
<event>
 5    0  0.1531977E+001  0.3337261E+03  0.7546771E-02  0.1069500E+00
         21   -1    0    0  504  501  0.00000000000E+00  0.00000000000E+00  0.33847769528E+03  0.33847769528E+03  0.00000000000E+00 0. -1.
         21   -1    0    0  501  502 -0.00000000000E+00 -0.00000000000E+00 -0.38377174698E+03  0.38377174698E+03  0.00000000000E+00 0. -1.
         25    1    1    2    0    0  0.17454532958E+03 -0.27459328300E+03  0.29168685944E+02  0.34977615040E+03  0.12500000000E+03 0.  0.
         21    1    1    2  503  502  0.27753767413E+02  0.59231532294E+02 -0.35547533848E+02  0.74446445088E+02  0.00000000000E+00 0. -1.
         21    1    1    2  504  503 -0.20229909700E+03  0.21536175071E+03 -0.38915203791E+02  0.29802684678E+03  0.00000000000E+00 0. -1.
<mgrwt>
<rscale>  4 0.33372613E+03</rscale>
<asrwt>0</asrwt>
<pdfrwt beam="1">  1       21 0.52073492E-01 0.33372613E+03</pdfrwt>
<pdfrwt beam="2">  1       21 0.59041807E-01 0.33372613E+03</pdfrwt>
<totfact> 0.86969296E+03</totfact>
</mgrwt>
</event>
<event>
 5    0  0.1531977E+001  0.2283152E+03  0.7546771E-02  0.1127831E+00
         21   -1    0    0  503  501  0.00000000000E+00  0.00000000000E+00  0.55246946386E+02  0.55246946386E+02  0.00000000000E+00 0.  1.
         21   -1    0    0  504  502 -0.00000000000E+00 -0.00000000000E+00 -0.15143927555E+04  0.15143927555E+04  0.00000000000E+00 0.  1.
         25    1    1    2    0    0  0.27216627403E+02 -0.19935739482E+03 -0.11980931858E+04  0.12212847324E+04  0.12500000000E+03 0.  0.
         21    1    1    2  503  502 -0.12302539363E+02  0.16912649468E+03 -0.26479484621E+03  0.31443828370E+03  0.00000000000E+00 0.  1.
         21    1    1    2  504  501 -0.14914088040E+02  0.30230900137E+02  0.37422228793E+01  0.33916685824E+02  0.00000000000E+00 0.  1.
<mgrwt>
<rscale>  4 0.22831524E+03</rscale>
<asrwt>0</asrwt>
<pdfrwt beam="1">  1       21 0.84995314E-02 0.22831524E+03</pdfrwt>
<pdfrwt beam="2">  1       21 0.23298347E+00 0.22831524E+03</pdfrwt>
<totfact> 0.87816506E+03</totfact>
</mgrwt>
</event>
<event>
 5    0  0.1531977E+001  0.2997059E+03  0.7546771E-02  0.1085388E+00
         21   -1    0    0  504  501  0.00000000000E+00  0.00000000000E+00  0.45620329161E+03  0.45620329161E+03  0.00000000000E+00 0. -1.
         21   -1    0    0  503  502 -0.00000000000E+00 -0.00000000000E+00 -0.24135770760E+03  0.24135770760E+03  0.00000000000E+00 0.  1.
         25    1    1    2    0    0 -0.22736409029E+03  0.17175808498E+03 -0.53191635454E+00  0.31116001068E+03  0.12500000000E+03 0.  0.
         21    1    1    2  503  501  0.20320478320E+01 -0.27220380884E+02 -0.16789557942E+02  0.32046335356E+02  0.00000000000E+00 0.  1.
         21    1    1    2  504  502  0.22533204246E+03 -0.14453770410E+03  0.23216705830E+03  0.35435465318E+03  0.00000000000E+00 0. -1.
<mgrwt>
<rscale>  4 0.29970591E+03</rscale>
<asrwt>0</asrwt>
<pdfrwt beam="1">  1       21 0.70185122E-01 0.29970591E+03</pdfrwt>
<pdfrwt beam="2">  1       21 0.37131955E-01 0.29970591E+03</pdfrwt>
<totfact> 0.12155372E+04</totfact>
</mgrwt>
</event>
<event>
 5    0  0.1531977E+001  0.2774377E+03  0.7546771E-02  0.1097097E+00
         21   -1    0    0  504  501  0.00000000000E+00  0.00000000000E+00  0.43204390978E+03  0.43204390978E+03  0.00000000000E+00 0. -1.
         21   -1    0    0  503  502 -0.00000000000E+00 -0.00000000000E+00 -0.81211762701E+03  0.81211762701E+03  0.00000000000E+00 0. -1.
         25    1    1    2    0    0  0.80239180926E+01  0.20495118296E+03 -0.71736768717E+03  0.75651223999E+03  0.12500000000E+03 0.  0.
         21    1    1    2  503  501  0.28467908050E+02  0.42406108853E+02 -0.17160008906E+02  0.53881033421E+02  0.00000000000E+00 0. -1.
         21    1    1    2  504  502 -0.36491826143E+02 -0.24735729181E+03  0.35445397885E+03  0.43376826337E+03  0.00000000000E+00 0. -1.
<mgrwt>
<rscale>  4 0.27743773E+03</rscale>
<asrwt>0</asrwt>
<pdfrwt beam="1">  1       21 0.66468294E-01 0.27743773E+03</pdfrwt>
<pdfrwt beam="2">  1       21 0.12494117E+00 0.27743773E+03</pdfrwt>
<totfact> 0.92108319E+02</totfact>
</mgrwt>
</event>
<event>
 5    0  0.1531977E+001  0.2336711E+03  0.7546771E-02  0.1124082E+00
         21   -1    0    0  502  501  0.00000000000E+00  0.00000000000E+00  0.36138652903E+03  0.36138652903E+03  0.00000000000E+00 0. -1.
         21   -1    0    0  504  502 -0.00000000000E+00 -0.00000000000E+00 -0.26395061240E+03  0.26395061240E+03  0.00000000000E+00 0. -1.
         25    1    1    2    0    0 -0.25084963763E+01 -0.21157327498E+03  0.12493699270E+03  0.27568785861E+03  0.12500000000E+03 0.  0.
         21    1    1    2  503  501  0.52098673671E+02  0.22712769832E+02  0.10100314456E+03  0.11589554315E+03  0.00000000000E+00 0. -1.
         21    1    1    2  504  503 -0.49590177294E+02  0.18886050515E+03 -0.12850422063E+03  0.23375373967E+03  0.00000000000E+00 0. -1.
<mgrwt>
<rscale>  4 0.23367106E+03</rscale>
<asrwt>0</asrwt>
<pdfrwt beam="1">  1       21 0.55597927E-01 0.23367106E+03</pdfrwt>
<pdfrwt beam="2">  1       21 0.40607787E-01 0.23367106E+03</pdfrwt>
<totfact> 0.17391136E+04</totfact>
</mgrwt>
</event>
<event>
 5    0  0.1531977E+001  0.4229503E+03  0.7546771E-02  0.1036110E+00
         21   -1    0    0  504  501  0.00000000000E+00  0.00000000000E+00  0.23173577427E+04  0.23173577427E+04  0.00000000000E+00 0. -1.
         21   -1    0    0  501  502 -0.00000000000E+00 -0.00000000000E+00 -0.17988993664E+03  0.17988993664E+03  0.00000000000E+00 0. -1.
         25    1    1    2    0    0  0.33800363101E+03  0.22139438411E+03  0.12319290934E+03  0.44052629978E+03  0.12500000000E+03 0.  0.
         21    1    1    2  503  502 -0.36115999589E+02 -0.11578329251E+02  0.36515114562E+03  0.36711548903E+03  0.00000000000E+00 0.  1.
         21    1    1    2  504  503 -0.30188763142E+03 -0.20981605486E+03  0.16491237511E+04  0.16896058905E+04  0.00000000000E+00 0. -1.
<mgrwt>
<rscale>  4 0.42295027E+03</rscale>
<asrwt>0</asrwt>
<pdfrwt beam="1">  1       21 0.35651655E+00 0.42295027E+03</pdfrwt>
<pdfrwt beam="2">  1       21 0.27675377E-01 0.42295027E+03</pdfrwt>
<totfact> 0.15564831E+02</totfact>
</mgrwt>
</event>
<event>
 5    0  0.1531977E+001  0.2759935E+03  0.7546771E-02  0.1097898E+00
         21   -1    0    0  503  501  0.00000000000E+00  0.00000000000E+00  0.23337247839E+03  0.23337247839E+03  0.00000000000E+00 0. -1.
         21   -1    0    0  504  502 -0.00000000000E+00 -0.00000000000E+00 -0.37880036754E+03  0.37880036754E+03  0.00000000000E+00 0. -1.
         25    1    1    2    0    0  0.23018703630E+03  0.86955914832E+02  0.59332828005E+02  0.28229910960E+03  0.12500000000E+03 0.  0.
         21    1    1    2  503  502 -0.94468245323E+02 -0.41500183994E+02 -0.37624819157E+02  0.10982778183E+03  0.00000000000E+00 0. -1.
         21    1    1    2  504  501 -0.13571879097E+03 -0.45455730838E+02 -0.16713589799E+03  0.22004595449E+03  0.00000000000E+00 0. -1.
<mgrwt>
<rscale>  4 0.27599348E+03</rscale>
<asrwt>0</asrwt>
<pdfrwt beam="1">  1       21 0.35903458E-01 0.27599348E+03</pdfrwt>
<pdfrwt beam="2">  1       21 0.58276979E-01 0.27599348E+03</pdfrwt>
<totfact> 0.19759345E+04</totfact>
</mgrwt>
</event>
<event>
 5    0  0.1531977E+001  0.3111301E+03  0.7546771E-02  0.1079805E+00
         21   -1    0    0  502  501  0.00000000000E+00  0.00000000000E+00  0.38657523429E+03  0.38657523429E+03  0.00000000000E+00 0.  1.
         21   -1    0    0  504  502 -0.00000000000E+00 -0.00000000000E+00 -0.39037170055E+03  0.39037170055E+03  0.00000000000E+00 0.  1.
         25    1    1    2    0    0 -0.18506913101E+03 -0.17352708870E+03 -0.11468363185E+03  0.30518776053E+03  0.12500000000E+03 0.  0.
         21    1    1    2  503  501 -0.77248998473E+02 -0.54834817069E+02  0.77448667482E+02  0.12236241671E+03  0.00000000000E+00 0.  1.
         21    1    1    2  504  503  0.26231812948E+03  0.22836190577E+03  0.33438498111E+02  0.34939675759E+03  0.00000000000E+00 0.  1.
<mgrwt>
<rscale>  4 0.31113009E+03</rscale>
<asrwt>0</asrwt>
<pdfrwt beam="1">  1       21 0.59473113E-01 0.31113009E+03</pdfrwt>
<pdfrwt beam="2">  1       21 0.60057184E-01 0.31113009E+03</pdfrwt>
<totfact> 0.63638207E+03</totfact>
</mgrwt>
</event>
<event>
 5    0  0.1531977E+001  0.2521347E+03  0.7546771E-02  0.1111963E+00
         21   -1    0    0  503  501  0.00000000000E+00  0.00000000000E+00  0.12914046497E+04  0.12914046497E+04  0.00000000000E+00 0. -1.
         21   -1    0    0  504  502 -0.00000000000E+00 -0.00000000000E+00 -0.65196359124E+02  0.65196359124E+02  0.00000000000E+00 0. -1.
         25    1    1    2    0    0 -0.19728629567E+03  0.91919060114E+02  0.78173715381E+03  0.82104139586E+03  0.12500000000E+03 0.  0.
         21    1    1    2  503  502  0.21581363694E+03 -0.46904609076E+02  0.24332486891E+03  0.32860699943E+03  0.00000000000E+00 0. -1.
         21    1    1    2  504  501 -0.18527341268E+02 -0.45014451038E+02  0.20114626789E+03  0.20695261356E+03  0.00000000000E+00 0. -1.
<mgrwt>
<rscale>  4 0.25213467E+03</rscale>
<asrwt>0</asrwt>
<pdfrwt beam="1">  1       21 0.19867762E+00 0.25213467E+03</pdfrwt>
<pdfrwt beam="2">  1       21 0.10030210E-01 0.25213467E+03</pdfrwt>
<totfact> 0.10572590E+04</totfact>
</mgrwt>
</event>
<event>
 5    0  0.1531977E+001  0.2637496E+03  0.7546771E-02  0.1104911E+00
         21   -1    0    0  504  501  0.00000000000E+00  0.00000000000E+00  0.58837665419E+03  0.58837665419E+03  0.00000000000E+00 0.  1.
         21   -1    0    0  503  502 -0.00000000000E+00 -0.00000000000E+00 -0.11075852054E+03  0.11075852054E+03  0.00000000000E+00 0.  1.
         25    1    1    2    0    0  0.30303341160E+02 -0.23026195833E+03  0.22344513258E+03  0.34567555483E+03  0.12500000000E+03 0.  0.
         21    1    1    2  503  501 -0.23761630878E+01  0.34093956688E+02  0.41309776125E+01  0.34425412267E+02  0.00000000000E+00 0.  1.
         21    1    1    2  504  502 -0.27927178072E+02  0.19616800164E+03  0.25004202346E+03  0.31903420763E+03  0.00000000000E+00 0.  1.
<mgrwt>
<rscale>  4 0.26374962E+03</rscale>
<asrwt>0</asrwt>
<pdfrwt beam="1">  1       21 0.90519483E-01 0.26374962E+03</pdfrwt>
<pdfrwt beam="2">  1       21 0.17039773E-01 0.26374962E+03</pdfrwt>
<totfact> 0.31084899E+04</totfact>
</mgrwt>
</event>
<event>
 5    0  0.1531977E+001  0.1644231E+03  0.7546771E-02  0.1183792E+00
         21   -1    0    0  504  501  0.00000000000E+00  0.00000000000E+00  0.50191839653E+03  0.50191839653E+03  0.00000000000E+00 0. -1.
         21   -1    0    0  503  502 -0.00000000000E+00 -0.00000000000E+00 -0.20893556193E+04  0.20893556193E+04  0.00000000000E+00 0.  1.
         25    1    1    2    0    0 -0.54940517943E+02  0.19506601470E+03  0.42334791795E+02  0.24183970973E+03  0.12500000000E+03 0.  0.
         21    1    1    2  503  501  0.50718830272E+02 -0.92979480273E+02 -0.19809067860E+04  0.19837361917E+04  0.00000000000E+00 0.  1.
         21    1    1    2  504  502  0.42216876711E+01 -0.10208653443E+03  0.35113477143E+03  0.36569811439E+03  0.00000000000E+00 0. -1.
<mgrwt>
<rscale>  4 0.16442315E+03</rscale>
<asrwt>0</asrwt>
<pdfrwt beam="1">  1       21 0.77218215E-01 0.16442315E+03</pdfrwt>
<pdfrwt beam="2">  1       21 0.32143933E+00 0.16442315E+03</pdfrwt>
<totfact> 0.40434037E+01</totfact>
</mgrwt>
</event>
<event>
 5    0  0.1531977E+001  0.2494966E+03  0.7546771E-02  0.1113623E+00
         21   -1    0    0  503  501  0.00000000000E+00  0.00000000000E+00  0.89011282519E+03  0.89011282519E+03  0.00000000000E+00 0. -1.
         21   -1    0    0  504  502 -0.00000000000E+00 -0.00000000000E+00 -0.12715996015E+03  0.12715996015E+03  0.00000000000E+00 0.  1.
         25    1    1    2    0    0 -0.21066090588E+03 -0.79149675590E+02  0.58934217891E+03  0.64311110413E+03  0.12500000000E+03 0.  0.
         21    1    1    2  503  502  0.17474865269E+03  0.12595248948E+03  0.28209267883E+02  0.21724843847E+03  0.00000000000E+00 0.  1.
         21    1    1    2  504  501  0.35912253192E+02 -0.46802813888E+02  0.14540141825E+03  0.15691324274E+03  0.00000000000E+00 0.  1.
<mgrwt>
<rscale>  4 0.24949664E+03</rscale>
<asrwt>0</asrwt>
<pdfrwt beam="1">  1       21 0.13694043E+00 0.24949664E+03</pdfrwt>
<pdfrwt beam="2">  1       21 0.19563071E-01 0.24949664E+03</pdfrwt>
<totfact> 0.87646220E+03</totfact>
</mgrwt>
</event>
<event>
 5    0  0.1531977E+001  0.2434287E+03  0.7546771E-02  0.1117530E+00
         21   -1    0    0  503  501  0.00000000000E+00  0.00000000000E+00  0.15259858430E+03  0.15259858430E+03  0.00000000000E+00 0.  1.
         21   -1    0    0  504  502 -0.00000000000E+00 -0.00000000000E+00 -0.11485564042E+04  0.11485564042E+04  0.00000000000E+00 0.  1.
         25    1    1    2    0    0  0.57157026423E+02  0.22043000267E+03 -0.87069132684E+03  0.90861691509E+03  0.12500000000E+03 0.  0.
         21    1    1    2  503  502 -0.23739857611E+02 -0.15894433323E+02 -0.17670735762E+03  0.17900196671E+03  0.00000000000E+00 0.  1.
         21    1    1    2  504  501 -0.33417168812E+02 -0.20453556935E+03  0.51440864585E+02  0.21353610667E+03  0.00000000000E+00 0.  1.
<mgrwt>
<rscale>  4 0.24342872E+03</rscale>
<asrwt>0</asrwt>
<pdfrwt beam="1">  1       21 0.23476706E-01 0.24342872E+03</pdfrwt>
<pdfrwt beam="2">  1       21 0.17670098E+00 0.24342872E+03</pdfrwt>
<totfact> 0.31331029E+03</totfact>
</mgrwt>
</event>
<event>
 5    0  0.1531977E+001  0.2435165E+03  0.7546771E-02  0.1117472E+00
         21   -1    0    0  503  501  0.00000000000E+00  0.00000000000E+00  0.24800340373E+03  0.24800340373E+03  0.00000000000E+00 0.  1.
         21   -1    0    0  504  502 -0.00000000000E+00 -0.00000000000E+00 -0.85918835697E+03  0.85918835697E+03  0.00000000000E+00 0.  1.
         25    1    1    2    0    0  0.28249693959E+03  0.81524839715E+02 -0.24872335153E+03  0.40489396880E+03  0.12500000000E+03 0.  0.
         21    1    1    2  503  502 -0.16749014223E+03 -0.91299153309E+02 -0.49266175119E+03  0.52830302310E+03  0.00000000000E+00 0.  1.
         21    1    1    2  504  501 -0.11500679736E+03  0.97743135941E+01  0.13020014948E+03  0.17399476880E+03  0.00000000000E+00 0.  1.
<mgrwt>
<rscale>  4 0.24351651E+03</rscale>
<asrwt>0</asrwt>
<pdfrwt beam="1">  1       21 0.38154369E-01 0.24351651E+03</pdfrwt>
<pdfrwt beam="2">  1       21 0.13218283E+00 0.24351651E+03</pdfrwt>
<totfact> 0.26332948E+03</totfact>
</mgrwt>
</event>
<event>
 5    0  0.1531977E+001  0.2148198E+03  0.7546771E-02  0.1137805E+00
         21   -1    0    0  504  501  0.00000000000E+00  0.00000000000E+00  0.17796653777E+03  0.17796653777E+03  0.00000000000E+00 0.  1.
         21   -1    0    0  503  502 -0.00000000000E+00 -0.00000000000E+00 -0.11140654218E+04  0.11140654218E+04  0.00000000000E+00 0. -1.
         25    1    1    2    0    0 -0.15527306503E+03  0.14883150276E+03  0.34642511408E+02  0.25116855801E+03  0.12500000000E+03 0.  0.
         21    1    1    2  503  501  0.11961435098E+03 -0.12441511050E+03 -0.98131124967E+03  0.99637266192E+03  0.00000000000E+00 0. -1.
         21    1    1    2  504  502  0.35658714051E+02 -0.24416392267E+02  0.10569854202E+02  0.44490739677E+02  0.00000000000E+00 0. -1.
<mgrwt>
<rscale>  4 0.21481984E+03</rscale>
<asrwt>0</asrwt>
<pdfrwt beam="1">  1       21 0.27379467E-01 0.21481984E+03</pdfrwt>
<pdfrwt beam="2">  1       21 0.17139468E+00 0.21481984E+03</pdfrwt>
<totfact> 0.26003969E+03</totfact>
</mgrwt>
</event>
<event>
 5    0  0.1531977E+001  0.2275813E+03  0.7546771E-02  0.1128354E+00
         21   -1    0    0  502  501  0.00000000000E+00  0.00000000000E+00  0.42294726625E+03  0.42294726625E+03  0.00000000000E+00 0. -1.
         21   -1    0    0  504  502 -0.00000000000E+00 -0.00000000000E+00 -0.19654605535E+03  0.19654605535E+03  0.00000000000E+00 0. -1.
         25    1    1    2    0    0 -0.16403277393E+02 -0.21096101198E+03  0.60754007475E+02  0.25315936781E+03  0.12500000000E+03 0.  0.
         21    1    1    2  503  501  0.10115749252E+02  0.31910741950E+02  0.18327598392E+03  0.18630810534E+03  0.00000000000E+00 0. -1.
         21    1    1    2  504  503  0.62875281415E+01  0.17905027003E+03 -0.17628780492E+02  0.18002584845E+03  0.00000000000E+00 0. -1.
<mgrwt>
<rscale>  4 0.22758135E+03</rscale>
<asrwt>0</asrwt>
<pdfrwt beam="1">  1       21 0.65068810E-01 0.22758135E+03</pdfrwt>
<pdfrwt beam="2">  1       21 0.30237855E-01 0.22758135E+03</pdfrwt>
<totfact> 0.22373405E+04</totfact>
</mgrwt>
</event>
<event>
 5    0  0.1531977E+001  0.4263396E+03  0.7546771E-02  0.1035023E+00
         21   -1    0    0  502  501  0.00000000000E+00  0.00000000000E+00  0.59932015242E+03  0.59932015242E+03  0.00000000000E+00 0. -1.
         21   -1    0    0  504  502 -0.00000000000E+00 -0.00000000000E+00 -0.10708814552E+04  0.10708814552E+04  0.00000000000E+00 0.  1.
         25    1    1    2    0    0 -0.38903040873E+03 -0.19369613993E+03  0.42834631351E+03  0.62287110853E+03  0.12500000000E+03 0.  0.
         21    1    1    2  503  501  0.35546007107E+02 -0.49024275858E+01  0.20677017593E+02  0.41413662890E+02  0.00000000000E+00 0. -1.
         21    1    1    2  504  503  0.35348440163E+03  0.19859856752E+03 -0.92058463383E+03  0.10059168362E+04  0.00000000000E+00 0.  1.
<mgrwt>
<rscale>  4 0.42633957E+03</rscale>
<asrwt>0</asrwt>
<pdfrwt beam="1">  1       21 0.92203102E-01 0.42633957E+03</pdfrwt>
<pdfrwt beam="2">  1       21 0.16475099E+00 0.42633957E+03</pdfrwt>
<totfact> 0.19021650E+02</totfact>
</mgrwt>
</event>
<event>
 5    0  0.1531977E+001  0.2341410E+03  0.7546771E-02  0.1123759E+00
         21   -1    0    0  502  501  0.00000000000E+00  0.00000000000E+00  0.32185113085E+03  0.32185113085E+03  0.00000000000E+00 0. -1.
         21   -1    0    0  504  502 -0.00000000000E+00 -0.00000000000E+00 -0.25418318648E+03  0.25418318648E+03  0.00000000000E+00 0. -1.
         25    1    1    2    0    0  0.21381700293E+03  0.20995655558E+02 -0.37339571829E+02  0.25135188863E+03  0.12500000000E+03 0.  0.
         21    1    1    2  503  501 -0.19277818453E+03  0.17862390573E+02  0.16208749397E+03  0.25249722598E+03  0.00000000000E+00 0. -1.
         21    1    1    2  504  503 -0.21038818408E+02 -0.38858046132E+02 -0.57079977765E+02  0.72185202714E+02  0.00000000000E+00 0. -1.
<mgrwt>
<rscale>  4 0.23414095E+03</rscale>
<asrwt>0</asrwt>
<pdfrwt beam="1">  1       21 0.49515559E-01 0.23414095E+03</pdfrwt>
<pdfrwt beam="2">  1       21 0.39105105E-01 0.23414095E+03</pdfrwt>
<totfact> 0.23969119E+04</totfact>
</mgrwt>
</event>
<event>
 5    0  0.1531977E+001  0.5786229E+03  0.7546771E-02  0.9950777E-01
         21   -1    0    0  502  501  0.00000000000E+00  0.00000000000E+00  0.15878341114E+04  0.15878341114E+04  0.00000000000E+00 0. -1.
         21   -1    0    0  504  502 -0.00000000000E+00 -0.00000000000E+00 -0.33271427323E+03  0.33271427323E+03  0.00000000000E+00 0. -1.
         25    1    1    2    0    0 -0.40678349209E+03 -0.41700332037E+03  0.66047697376E+03  0.88950514979E+03  0.12500000000E+03 0.  0.
         21    1    1    2  503  501  0.48821036127E+03  0.27445013505E+03  0.64980187940E+03  0.85785471727E+03  0.00000000000E+00 0. -1.
         21    1    1    2  504  503 -0.81426869175E+02  0.14255318531E+03 -0.55159015025E+02  0.17318851753E+03  0.00000000000E+00 0. -1.
<mgrwt>
<rscale>  4 0.57862294E+03</rscale>
<asrwt>0</asrwt>
<pdfrwt beam="1">  1       21 0.24428217E+00 0.57862294E+03</pdfrwt>
<pdfrwt beam="2">  1       21 0.51186812E-01 0.57862294E+03</pdfrwt>
<totfact> 0.19534359E+02</totfact>
</mgrwt>
</event>
<event>
 5    0  0.1531977E+001  0.2629960E+03  0.7546771E-02  0.1105356E+00
         21   -1    0    0  504  501  0.00000000000E+00  0.00000000000E+00  0.74087809966E+03  0.74087809966E+03  0.00000000000E+00 0.  1.
         21   -1    0    0  503  502 -0.00000000000E+00 -0.00000000000E+00 -0.26844399119E+03  0.26844399119E+03  0.00000000000E+00 0.  1.
         25    1    1    2    0    0  0.10894405633E+03 -0.20158962378E+03  0.20145975492E+03  0.32972445568E+03  0.12500000000E+03 0.  0.
         21    1    1    2  503  501  0.20688551964E+02  0.83263737574E+01 -0.17507622275E+03  0.17649087357E+03  0.00000000000E+00 0. -1.
         21    1    1    2  504  502 -0.12963260829E+03  0.19326325002E+03  0.44605057630E+03  0.50310676159E+03  0.00000000000E+00 0.  1.
<mgrwt>
<rscale>  4 0.26299601E+03</rscale>
<asrwt>0</asrwt>
<pdfrwt beam="1">  1       21 0.11398125E+00 0.26299601E+03</pdfrwt>
<pdfrwt beam="2">  1       21 0.41299076E-01 0.26299601E+03</pdfrwt>
<totfact> 0.32088645E+03</totfact>
</mgrwt>
</event>
<event>
 5    0  0.1531977E+001  0.2784827E+03  0.7546771E-02  0.1096521E+00
         21   -1    0    0  504  501  0.00000000000E+00  0.00000000000E+00  0.26787863388E+03  0.26787863388E+03  0.00000000000E+00 0.  1.
         21   -1    0    0  503  502 -0.00000000000E+00 -0.00000000000E+00 -0.30269141037E+03  0.30269141037E+03  0.00000000000E+00 0.  1.
         25    1    1    2    0    0 -0.23574788362E+03 -0.57990186322E+02  0.30965577814E+02  0.27481592630E+03  0.12500000000E+03 0.  0.
         21    1    1    2  503  501  0.24224401742E+03  0.87927614396E+02 -0.58288400580E+02  0.26421765079E+03  0.00000000000E+00 0.  1.
         21    1    1    2  504  502 -0.64961338022E+01 -0.29937428074E+02 -0.74899537165E+01  0.31536467157E+02  0.00000000000E+00 0.  1.
<mgrwt>
<rscale>  4 0.27848273E+03</rscale>
<asrwt>0</asrwt>
<pdfrwt beam="1">  1       21 0.41212098E-01 0.27848273E+03</pdfrwt>
<pdfrwt beam="2">  1       21 0.46567909E-01 0.27848273E+03</pdfrwt>
<totfact> 0.23998803E+04</totfact>
</mgrwt>
</event>
<event>
 5    0  0.1531977E+001  0.2430589E+03  0.7546771E-02  0.1117772E+00
         21   -1    0    0  503  501  0.00000000000E+00  0.00000000000E+00  0.21081753003E+03  0.21081753003E+03  0.00000000000E+00 0.  1.
         21   -1    0    0  504  502 -0.00000000000E+00 -0.00000000000E+00 -0.38260762546E+03  0.38260762546E+03  0.00000000000E+00 0.  1.
         25    1    1    2    0    0 -0.22451979006E+03  0.45926016167E+02  0.41705216478E+02  0.26435328667E+03  0.12500000000E+03 0.  0.
         21    1    1    2  503  502  0.51917377301E+02  0.46471240782E+01 -0.10959506588E+03  0.12135933542E+03  0.00000000000E+00 0.  1.
         21    1    1    2  504  501  0.17260241276E+03 -0.50573140245E+02 -0.10390024603E+03  0.20771253340E+03  0.00000000000E+00 0.  1.
<mgrwt>
<rscale>  4 0.24305892E+03</rscale>
<asrwt>0</asrwt>
<pdfrwt beam="1">  1       21 0.32433466E-01 0.24305892E+03</pdfrwt>
<pdfrwt beam="2">  1       21 0.58862711E-01 0.24305892E+03</pdfrwt>
<totfact> 0.24038921E+04</totfact>
</mgrwt>
</event>
<event>
 5    0  0.1531977E+001  0.3912124E+03  0.7546771E-02  0.1046866E+00
         21   -1    0    0  504  501  0.00000000000E+00  0.00000000000E+00  0.12482143501E+04  0.12482143501E+04  0.00000000000E+00 0. -1.
         21   -1    0    0  501  502 -0.00000000000E+00 -0.00000000000E+00 -0.13764621333E+03  0.13764621333E+03  0.00000000000E+00 0. -1.
         25    1    1    2    0    0  0.27967583360E+03  0.19619966990E+03  0.34192376361E+03  0.49924917876E+03  0.12500000000E+03 0.  0.
         21    1    1    2  503  502 -0.30951399946E+03 -0.23602024063E+03  0.71006347118E+03  0.80974971625E+03  0.00000000000E+00 0. -1.
         21    1    1    2  504  503  0.29838165861E+02  0.39820570738E+02  0.58580901981E+02  0.76861668423E+02  0.00000000000E+00 0.  1.
<mgrwt>
<rscale>  4 0.39121236E+03</rscale>
<asrwt>0</asrwt>
<pdfrwt beam="1">  1       21 0.19203297E+00 0.39121236E+03</pdfrwt>
<pdfrwt beam="2">  1       21 0.21176341E-01 0.39121236E+03</pdfrwt>
<totfact> 0.27428430E+03</totfact>
</mgrwt>
</event>
<event>
 5    0  0.1531977E+001  0.3253394E+03  0.7546771E-02  0.1073218E+00
         21   -1    0    0  504  501  0.00000000000E+00  0.00000000000E+00  0.72432505242E+03  0.72432505242E+03  0.00000000000E+00 0.  1.
         21   -1    0    0  503  502 -0.00000000000E+00 -0.00000000000E+00 -0.44452792681E+03  0.44452792681E+03  0.00000000000E+00 0. -1.
         25    1    1    2    0    0 -0.30905686811E+03  0.85081281503E+02 -0.32668465073E+03  0.47445003236E+03  0.12500000000E+03 0.  0.
         21    1    1    2  503  501  0.21853273427E+02 -0.33576359447E+01  0.46911271112E+01  0.22601901517E+02  0.00000000000E+00 0. -1.
         21    1    1    2  504  502  0.28720359468E+03 -0.81723645558E+02  0.60179064923E+03  0.67180104535E+03  0.00000000000E+00 0.  1.
<mgrwt>
<rscale>  4 0.32533941E+03</rscale>
<asrwt>0</asrwt>
<pdfrwt beam="1">  1       21 0.11143462E+00 0.32533941E+03</pdfrwt>
<pdfrwt beam="2">  1       21 0.68388912E-01 0.32533941E+03</pdfrwt>
<totfact> 0.11155320E+03</totfact>
</mgrwt>
</event>
<event>
 5    0  0.1531977E+001  0.3433814E+03  0.7546771E-02  0.1065365E+00
         21   -1    0    0  502  501  0.00000000000E+00  0.00000000000E+00  0.16733767849E+04  0.16733767849E+04  0.00000000000E+00 0. -1.
         21   -1    0    0  504  502 -0.00000000000E+00 -0.00000000000E+00 -0.16309642196E+03  0.16309642196E+03  0.00000000000E+00 0. -1.
         25    1    1    2    0    0  0.53794273334E+02  0.34096823135E+03  0.12016500030E+03  0.38628718064E+03  0.12500000000E+03 0.  0.
         21    1    1    2  503  501 -0.40772639040E+02 -0.31379399381E+03  0.13836438792E+04  0.14193658666E+04  0.00000000000E+00 0. -1.
         21    1    1    2  504  503 -0.13021634293E+02 -0.27174237538E+02  0.64714834574E+01  0.30820159695E+02  0.00000000000E+00 0. -1.
<mgrwt>
<rscale>  4 0.34338136E+03</rscale>
<asrwt>0</asrwt>
<pdfrwt beam="1">  1       21 0.25744257E+00 0.34338136E+03</pdfrwt>
<pdfrwt beam="2">  1       21 0.25091758E-01 0.34338136E+03</pdfrwt>
<totfact> 0.78527168E+02</totfact>
</mgrwt>
</event>
<event>
 5    0  0.1531977E+001  0.2499368E+03  0.7546771E-02  0.1113345E+00
         21   -1    0    0  504  501  0.00000000000E+00  0.00000000000E+00  0.50734875050E+02  0.50734875050E+02  0.00000000000E+00 0. -1.
         21   -1    0    0  503  502 -0.00000000000E+00 -0.00000000000E+00 -0.20393528587E+04  0.20393528587E+04  0.00000000000E+00 0. -1.
         25    1    1    2    0    0 -0.16155098310E+03 -0.16584786130E+03 -0.66312782333E+03  0.71341975254E+03  0.12500000000E+03 0.  0.
         21    1    1    2  503  501  0.13846965730E+03  0.15991005197E+03 -0.13345210133E+04  0.13511814851E+04  0.00000000000E+00 0. -1.
         21    1    1    2  504  502  0.23081325795E+02  0.59378093285E+01  0.90308529632E+01  0.25486496137E+02  0.00000000000E+00 0.  1.
<mgrwt>
<rscale>  4 0.24993683E+03</rscale>
<asrwt>0</asrwt>
<pdfrwt beam="1">  1       21 0.78053653E-02 0.24993683E+03</pdfrwt>
<pdfrwt beam="2">  1       21 0.31374660E+00 0.24993683E+03</pdfrwt>
<totfact> 0.33470864E+03</totfact>
</mgrwt>
</event>
<event>
 5    0  0.1531977E+001  0.2118860E+03  0.7546771E-02  0.1140081E+00
         21   -1    0    0  503  501  0.00000000000E+00  0.00000000000E+00  0.16885925126E+04  0.16885925126E+04  0.00000000000E+00 0. -1.
         21   -1    0    0  504  502 -0.00000000000E+00 -0.00000000000E+00 -0.36821277852E+02  0.36821277852E+02  0.00000000000E+00 0. -1.
         25    1    1    2    0    0 -0.20786152656E+03  0.35732929663E+02  0.10944221070E+04  0.11215471479E+04  0.12500000000E+03 0.  0.
         21    1    1    2  503  502  0.15573324347E+03 -0.37055226018E+02  0.28784343693E+03  0.32936268319E+03  0.00000000000E+00 0. -1.
         21    1    1    2  504  501  0.52128283097E+02  0.13222963546E+01  0.26950569077E+03  0.27450395940E+03  0.00000000000E+00 0.  1.
<mgrwt>
<rscale>  4 0.21188601E+03</rscale>
<asrwt>0</asrwt>
<pdfrwt beam="1">  1       21 0.25978340E+00 0.21188601E+03</pdfrwt>
<pdfrwt beam="2">  1       21 0.56648133E-02 0.21188601E+03</pdfrwt>
<totfact> 0.12454363E+04</totfact>
</mgrwt>
</event>
<event>
 5    0  0.1531977E+001  0.2587332E+03  0.7546771E-02  0.1107907E+00
         21   -1    0    0  504  501  0.00000000000E+00  0.00000000000E+00  0.57747288031E+03  0.57747288031E+03  0.00000000000E+00 0. -1.
         21   -1    0    0  501  502 -0.00000000000E+00 -0.00000000000E+00 -0.12903813935E+03  0.12903813935E+03  0.00000000000E+00 0. -1.
         25    1    1    2    0    0 -0.12641638959E+03  0.18798072467E+03  0.37203580464E+03  0.45315946017E+03  0.12500000000E+03 0.  0.
         21    1    1    2  503  502  0.48466771967E+02 -0.77154019723E+02  0.74740716477E+02  0.11784712743E+03  0.00000000000E+00 0. -1.
         21    1    1    2  504  503  0.77949617626E+02 -0.11082670495E+03  0.16582198469E+01  0.13550443207E+03  0.00000000000E+00 0. -1.
<mgrwt>
<rscale>  4 0.25873318E+03</rscale>
<asrwt>0</asrwt>
<pdfrwt beam="1">  1       21 0.88841980E-01 0.25873318E+03</pdfrwt>
<pdfrwt beam="2">  1       21 0.19852022E-01 0.25873318E+03</pdfrwt>
<totfact> 0.24471560E+04</totfact>
</mgrwt>
</event>
<event>
 5    0  0.1531977E+001  0.2296489E+03  0.7546771E-02  0.1126887E+00
         21   -1    0    0  502  501  0.00000000000E+00  0.00000000000E+00  0.61403352447E+03  0.61403352447E+03  0.00000000000E+00 0.  1.
         21   -1    0    0  504  502 -0.00000000000E+00 -0.00000000000E+00 -0.11601723740E+03  0.11601723740E+03  0.00000000000E+00 0. -1.
         25    1    1    2    0    0  0.76585463621E+01  0.20644357146E+03  0.18435031397E+03  0.30378880788E+03  0.12500000000E+03 0.  0.
         21    1    1    2  503  501  0.14523441216E+01 -0.18712566314E+03  0.34255434981E+03  0.39033524781E+03  0.00000000000E+00 0.  1.
         21    1    1    2  504  503 -0.91108904837E+01 -0.19317908327E+02 -0.28888376714E+02  0.35926706176E+02  0.00000000000E+00 0.  1.
<mgrwt>
<rscale>  4 0.22964891E+03</rscale>
<asrwt>0</asrwt>
<pdfrwt beam="1">  1       21 0.94466694E-01 0.22964891E+03</pdfrwt>
<pdfrwt beam="2">  1       21 0.17848806E-01 0.22964891E+03</pdfrwt>
<totfact> 0.26221380E+04</totfact>
</mgrwt>
</event>
<event>
 5    0  0.1531977E+001  0.3345767E+03  0.7546771E-02  0.1069130E+00
         21   -1    0    0  504  501  0.00000000000E+00  0.00000000000E+00  0.19883023516E+03  0.19883023516E+03  0.00000000000E+00 0. -1.
         21   -1    0    0  503  502 -0.00000000000E+00 -0.00000000000E+00 -0.86143627830E+03  0.86143627830E+03  0.00000000000E+00 0.  1.
         25    1    1    2    0    0 -0.18282376491E+03  0.27752229183E+03 -0.56895811108E+03  0.67065750100E+03  0.12500000000E+03 0.  0.
         21    1    1    2  503  501  0.45862430261E+02 -0.50371012351E+01 -0.69849656023E+02  0.83712062123E+02  0.00000000000E+00 0.  1.
         21    1    1    2  504  502  0.13696133464E+03 -0.27248519060E+03 -0.23798276033E+02  0.30589695034E+03  0.00000000000E+00 0. -1.
<mgrwt>
<rscale>  4 0.33457668E+03</rscale>
<asrwt>0</asrwt>
<pdfrwt beam="1">  1       21 0.30589266E-01 0.33457668E+03</pdfrwt>
<pdfrwt beam="2">  1       21 0.13252866E+00 0.33457668E+03</pdfrwt>
<totfact> 0.38523395E+03</totfact>
</mgrwt>
</event>
<event>
 5    0  0.1531977E+001  0.1891538E+03  0.7546771E-02  0.1159227E+00
         21   -1    0    0  502  501  0.00000000000E+00  0.00000000000E+00  0.66844821089E+03  0.66844821089E+03  0.00000000000E+00 0.  1.
         21   -1    0    0  504  502 -0.00000000000E+00 -0.00000000000E+00 -0.12749836590E+04  0.12749836590E+04  0.00000000000E+00 0.  1.
         25    1    1    2    0    0  0.17401504846E+03 -0.14689759988E+03 -0.10717036865E+03  0.28101713446E+03  0.12500000000E+03 0.  0.
         21    1    1    2  503  501 -0.79515914951E+02  0.11352675332E+03  0.57089153526E+03  0.58747616929E+03  0.00000000000E+00 0.  1.
         21    1    1    2  504  503 -0.94499133511E+02  0.33370846563E+02 -0.10702566147E+04  0.10749385661E+04  0.00000000000E+00 0.  1.
<mgrwt>
<rscale>  4 0.18915382E+03</rscale>
<asrwt>0</asrwt>
<pdfrwt beam="1">  1       21 0.10283819E+00 0.18915382E+03</pdfrwt>
<pdfrwt beam="2">  1       21 0.19615133E+00 0.18915382E+03</pdfrwt>
<totfact> 0.10973998E+02</totfact>
</mgrwt>
</event>
<event>
 5    0  0.1531977E+001  0.2362432E+03  0.7546771E-02  0.1122321E+00
         21   -1    0    0  504  501  0.00000000000E+00  0.00000000000E+00  0.24857170995E+03  0.24857170995E+03  0.00000000000E+00 0.  1.
         21   -1    0    0  503  502 -0.00000000000E+00 -0.00000000000E+00 -0.40394414778E+03  0.40394414778E+03  0.00000000000E+00 0.  1.
         25    1    1    2    0    0 -0.25087534237E+03 -0.47153520047E+02  0.50097690459E+02  0.28861162564E+03  0.12500000000E+03 0.  0.
         21    1    1    2  503  501  0.17986910945E+03  0.59502667295E+02 -0.22005099088E+03  0.29037200715E+03  0.00000000000E+00 0.  1.
         21    1    1    2  504  502  0.71006232926E+02 -0.12349147248E+02  0.14580862585E+02  0.73532224948E+02  0.00000000000E+00 0.  1.
<mgrwt>
<rscale>  4 0.23624317E+03</rscale>
<asrwt>0</asrwt>
<pdfrwt beam="1">  1       21 0.38241802E-01 0.23624317E+03</pdfrwt>
<pdfrwt beam="2">  1       21 0.62145253E-01 0.23624317E+03</pdfrwt>
<totfact> 0.15437233E+04</totfact>
</mgrwt>
</event>
<event>
 5    0  0.1531977E+001  0.3754977E+03  0.7546771E-02  0.1052610E+00
         21   -1    0    0  502  501  0.00000000000E+00  0.00000000000E+00  0.98021021623E+03  0.98021021623E+03  0.00000000000E+00 0. -1.
         21   -1    0    0  504  502 -0.00000000000E+00 -0.00000000000E+00 -0.18804054177E+03  0.18804054177E+03  0.00000000000E+00 0. -1.
         25    1    1    2    0    0 -0.16704986063E+03 -0.32443867108E+03  0.45253345124E+03  0.59462394142E+03  0.12500000000E+03 0.  0.
         21    1    1    2  503  501 -0.35648461968E+02  0.39432643749E+02  0.18273235433E+03  0.19030727667E+03  0.00000000000E+00 0. -1.
         21    1    1    2  504  503  0.20269832260E+03  0.28500602733E+03  0.15690386890E+03  0.38331953991E+03  0.00000000000E+00 0. -1.
<mgrwt>
<rscale>  4 0.37549771E+03</rscale>
<asrwt>0</asrwt>
<pdfrwt beam="1">  1       21 0.15080157E+00 0.37549771E+03</pdfrwt>
<pdfrwt beam="2">  1       21 0.28929315E-01 0.37549771E+03</pdfrwt>
<totfact> 0.29978904E+03</totfact>
</mgrwt>
</event>
<event>
 5    0  0.1531977E+001  0.1998622E+03  0.7546771E-02  0.1149855E+00
         21   -1    0    0  502  501  0.00000000000E+00  0.00000000000E+00  0.19127753448E+04  0.19127753448E+04  0.00000000000E+00 0.  1.
         21   -1    0    0  504  502 -0.00000000000E+00 -0.00000000000E+00 -0.91339379645E+02  0.91339379645E+02  0.00000000000E+00 0.  1.
         25    1    1    2    0    0 -0.15049742863E+03  0.14832660130E+03  0.10096907869E+04  0.10391105532E+04  0.12500000000E+03 0.  0.
         21    1    1    2  503  501  0.58989810690E+02 -0.12489042469E+03  0.85141913628E+03  0.86254968644E+03  0.00000000000E+00 0.  1.
         21    1    1    2  504  503  0.91507617938E+02 -0.23436176618E+02 -0.39673957995E+02  0.10245448481E+03  0.00000000000E+00 0.  1.
<mgrwt>
<rscale>  4 0.19986219E+03</rscale>
<asrwt>0</asrwt>
<pdfrwt beam="1">  1       21 0.29427310E+00 0.19986219E+03</pdfrwt>
<pdfrwt beam="2">  1       21 0.14052214E-01 0.19986219E+03</pdfrwt>
<totfact> 0.16117547E+03</totfact>
</mgrwt>
</event>
<event>
 5    0  0.1531977E+001  0.2764366E+03  0.7546771E-02  0.1097651E+00
         21   -1    0    0  502  501  0.00000000000E+00  0.00000000000E+00  0.61713978178E+02  0.61713978178E+02  0.00000000000E+00 0. -1.
         21   -1    0    0  504  502 -0.00000000000E+00 -0.00000000000E+00 -0.14922070354E+04  0.14922070354E+04  0.00000000000E+00 0. -1.
         25    1    1    2    0    0 -0.19511613722E+03 -0.16452085262E+03 -0.78293531302E+03  0.83291663588E+03  0.12500000000E+03 0.  0.
         21    1    1    2  503  501 -0.20516091586E+02  0.55497274138E+02 -0.53822647548E+02  0.79985841496E+02  0.00000000000E+00 0. -1.
         21    1    1    2  504  503  0.21563222880E+03  0.10902357848E+03 -0.59373509670E+03  0.64101853625E+03  0.00000000000E+00 0. -1.
<mgrwt>
<rscale>  4 0.27643661E+03</rscale>
<asrwt>0</asrwt>
<pdfrwt beam="1">  1       21 0.94944583E-02 0.27643661E+03</pdfrwt>
<pdfrwt beam="2">  1       21 0.22957031E+00 0.27643661E+03</pdfrwt>
<totfact> 0.73173514E+03</totfact>
</mgrwt>
</event>
<event>
 5    0  0.1531977E+001  0.2292276E+03  0.7546771E-02  0.1127185E+00
         21   -1    0    0  503  501  0.00000000000E+00  0.00000000000E+00  0.16105671982E+03  0.16105671982E+03  0.00000000000E+00 0.  1.
         21   -1    0    0  504  502 -0.00000000000E+00 -0.00000000000E+00 -0.76332733996E+03  0.76332733996E+03  0.00000000000E+00 0.  1.
         25    1    1    2    0    0 -0.21200785296E+03 -0.10218260222E+02 -0.63290938956E+03  0.67915464951E+03  0.12500000000E+03 0.  0.
         21    1    1    2  503  502  0.22363976481E+02 -0.28883216045E+01 -0.37107822702E+02  0.43422118229E+02  0.00000000000E+00 0.  1.
         21    1    1    2  504  501  0.18964387648E+03  0.13106581826E+02  0.67746592133E+02  0.20180729204E+03  0.00000000000E+00 0.  1.
<mgrwt>
<rscale>  4 0.22922757E+03</rscale>
<asrwt>0</asrwt>
<pdfrwt beam="1">  1       21 0.24777957E-01 0.22922757E+03</pdfrwt>
<pdfrwt beam="2">  1       21 0.11743497E+00 0.22922757E+03</pdfrwt>
<totfact> 0.83639814E+03</totfact>
</mgrwt>
</event>
<event>
 5    0  0.1531977E+001  0.2645301E+03  0.7546771E-02  0.1104452E+00
         21   -1    0    0  502  501  0.00000000000E+00  0.00000000000E+00  0.46469340065E+03  0.46469340065E+03  0.00000000000E+00 0. -1.
         21   -1    0    0  504  502 -0.00000000000E+00 -0.00000000000E+00 -0.16078041789E+03  0.16078041789E+03  0.00000000000E+00 0. -1.
         25    1    1    2    0    0  0.14824549856E+03  0.17867829983E+03  0.87591674217E+02  0.27784881512E+03  0.12500000000E+03 0.  0.
         21    1    1    2  503  501 -0.12420958217E+03 -0.19878585849E+03  0.21188839003E+03  0.31597551751E+03  0.00000000000E+00 0. -1.
         21    1    1    2  504  503 -0.24035916384E+02  0.20107558662E+02  0.44329185135E+01  0.31649485909E+02  0.00000000000E+00 0. -1.
<mgrwt>
<rscale>  4 0.26453012E+03</rscale>
<asrwt>0</asrwt>
<pdfrwt beam="1">  1       21 0.71491292E-01 0.26453012E+03</pdfrwt>
<pdfrwt beam="2">  1       21 0.24735449E-01 0.26453012E+03</pdfrwt>
<totfact> 0.26365160E+04</totfact>
</mgrwt>
</event>
<event>
 5    0  0.1531977E+001  0.1884030E+03  0.7546771E-02  0.1159910E+00
         21   -1    0    0  502  501  0.00000000000E+00  0.00000000000E+00  0.27781973113E+04  0.27781973113E+04  0.00000000000E+00 0. -1.
         21   -1    0    0  504  502 -0.00000000000E+00 -0.00000000000E+00 -0.30455581863E+03  0.30455581863E+03  0.00000000000E+00 0.  1.
         25    1    1    2    0    0 -0.22823265163E+01  0.20982294420E+03  0.25275647283E+04  0.25393383652E+04  0.12500000000E+03 0.  0.
         21    1    1    2  503  501 -0.11438465622E+02 -0.69983464918E+02  0.22239276569E+03  0.23342464756E+03  0.00000000000E+00 0. -1.
         21    1    1    2  504  503  0.13720792138E+02 -0.13983947928E+03 -0.27631600140E+03  0.30999011715E+03  0.00000000000E+00 0.  1.
<mgrwt>
<rscale>  4 0.18840305E+03</rscale>
<asrwt>0</asrwt>
<pdfrwt beam="1">  1       21 0.42741496E+00 0.18840305E+03</pdfrwt>
<pdfrwt beam="2">  1       21 0.46854743E-01 0.18840305E+03</pdfrwt>
<totfact> 0.25707560E+01</totfact>
</mgrwt>
</event>
<event>
 5    0  0.1531977E+001  0.3010247E+03  0.7546771E-02  0.1084729E+00
         21   -1    0    0  504  501  0.00000000000E+00  0.00000000000E+00  0.43446979115E+03  0.43446979115E+03  0.00000000000E+00 0.  1.
         21   -1    0    0  501  502 -0.00000000000E+00 -0.00000000000E+00 -0.26020486582E+03  0.26020486582E+03  0.00000000000E+00 0. -1.
         25    1    1    2    0    0  0.59646054280E+02  0.24863270850E+03  0.23814115596E+03  0.37109579045E+03  0.12500000000E+03 0.  0.
         21    1    1    2  503  502  0.21436930692E+01  0.24542462654E+02  0.19429896994E+02  0.31375926923E+02  0.00000000000E+00 0.  1.
         21    1    1    2  504  503 -0.61789747349E+02 -0.27317517115E+03 -0.83306127626E+02  0.29220293960E+03  0.00000000000E+00 0. -1.
<mgrwt>
<rscale>  4 0.30102469E+03</rscale>
<asrwt>0</asrwt>
<pdfrwt beam="1">  1       21 0.66841506E-01 0.30102469E+03</pdfrwt>
<pdfrwt beam="2">  1       21 0.40031518E-01 0.30102469E+03</pdfrwt>
<totfact> 0.11622252E+04</totfact>
</mgrwt>
</event>
<event>
 5    0  0.1531977E+001  0.2873753E+03  0.7546771E-02  0.1091728E+00
         21   -1    0    0  502  501  0.00000000000E+00  0.00000000000E+00  0.40953045154E+03  0.40953045154E+03  0.00000000000E+00 0. -1.
         21   -1    0    0  504  502 -0.00000000000E+00 -0.00000000000E+00 -0.42059775843E+03  0.42059775843E+03  0.00000000000E+00 0. -1.
         25    1    1    2    0    0  0.25749952228E+03  0.10791144019E+03 -0.21132165098E+03  0.37179661519E+03  0.12500000000E+03 0.  0.
         21    1    1    2  503  501 -0.24423108915E+03 -0.74873798095E+02  0.27512243144E+03  0.37542943788E+03  0.00000000000E+00 0. -1.
         21    1    1    2  504  503 -0.13268433128E+02 -0.33037642100E+02 -0.74868087350E+02  0.82902156888E+02  0.00000000000E+00 0. -1.
<mgrwt>
<rscale>  4 0.28737533E+03</rscale>
<asrwt>0</asrwt>
<pdfrwt beam="1">  1       21 0.63004685E-01 0.28737533E+03</pdfrwt>
<pdfrwt beam="2">  1       21 0.64707347E-01 0.28737533E+03</pdfrwt>
<totfact> 0.48251325E+03</totfact>
</mgrwt>
</event>
<event>
 5    0  0.1531977E+001  0.3620827E+03  0.7546771E-02  0.1057762E+00
         21   -1    0    0  502  501  0.00000000000E+00  0.00000000000E+00  0.59060523307E+03  0.59060523307E+03  0.00000000000E+00 0. -1.
         21   -1    0    0  504  502 -0.00000000000E+00 -0.00000000000E+00 -0.27309738592E+03  0.27309738592E+03  0.00000000000E+00 0. -1.
         25    1    1    2    0    0 -0.33131559140E+03 -0.13834946635E+03  0.17182683789E+03  0.41720505529E+03  0.12500000000E+03 0.  0.
         21    1    1    2  503  501  0.79287232656E+01  0.74670208464E+02  0.81300204457E+02  0.11067171242E+03  0.00000000000E+00 0. -1.
         21    1    1    2  504  503  0.32338686813E+03  0.63679257882E+02  0.64380804804E+02  0.33582585128E+03  0.00000000000E+00 0. -1.
<mgrwt>
<rscale>  4 0.36208274E+03</rscale>
<asrwt>0</asrwt>
<pdfrwt beam="1">  1       21 0.90862343E-01 0.36208274E+03</pdfrwt>
<pdfrwt beam="2">  1       21 0.42014982E-01 0.36208274E+03</pdfrwt>
<totfact> 0.50867510E+03</totfact>
</mgrwt>
</event>
<event>
 5    0  0.1531977E+001  0.2378285E+03  0.7546771E-02  0.1121248E+00
         21   -1    0    0  504  501  0.00000000000E+00  0.00000000000E+00  0.18600213488E+03  0.18600213488E+03  0.00000000000E+00 0. -1.
         21   -1    0    0  503  502 -0.00000000000E+00 -0.00000000000E+00 -0.44350497233E+03  0.44350497233E+03  0.00000000000E+00 0. -1.
         25    1    1    2    0    0  0.18444459509E+03 -0.11515192224E+03 -0.19050275405E+02  0.25153068768E+03  0.12500000000E+03 0.  0.
         21    1    1    2  503  501 -0.16209815053E+03  0.11407185272E+03 -0.27266577545E+03  0.33709764623E+03  0.00000000000E+00 0. -1.
         21    1    1    2  504  502 -0.22346444560E+02  0.10800695162E+01  0.34213213412E+02  0.40878773301E+02  0.00000000000E+00 0.  1.
<mgrwt>
<rscale>  4 0.23782845E+03</rscale>
<asrwt>0</asrwt>
<pdfrwt beam="1">  1       21 0.28615714E-01 0.23782845E+03</pdfrwt>
<pdfrwt beam="2">  1       21 0.68231533E-01 0.23782845E+03</pdfrwt>
<totfact> 0.22334045E+04</totfact>
</mgrwt>
</event>
<event>
 5    0  0.1531977E+001  0.2555490E+03  0.7546771E-02  0.1109847E+00
         21   -1    0    0  503  501  0.00000000000E+00  0.00000000000E+00  0.20304115461E+04  0.20304115461E+04  0.00000000000E+00 0. -1.
         21   -1    0    0  504  502 -0.00000000000E+00 -0.00000000000E+00 -0.33200486156E+02  0.33200486156E+02  0.00000000000E+00 0. -1.
         25    1    1    2    0    0 -0.18003703441E+03  0.14486583105E+03  0.11911101630E+04  0.12197409000E+04  0.12500000000E+03 0.  0.
         21    1    1    2  503  502  0.23212204686E+02  0.20399944124E+01  0.26927975344E+02  0.35610165399E+02  0.00000000000E+00 0. -1.
         21    1    1    2  504  501  0.15682482972E+03 -0.14690582546E+03  0.77917292160E+03  0.80826096685E+03  0.00000000000E+00 0. -1.
<mgrwt>
<rscale>  4 0.25554898E+03</rscale>
<asrwt>0</asrwt>
<pdfrwt beam="1">  1       21 0.31237091E+00 0.25554898E+03</pdfrwt>
<pdfrwt beam="2">  1       21 0.51077687E-02 0.25554898E+03</pdfrwt>
<totfact> 0.70574708E+03</totfact>
</mgrwt>
</event>
<event>
 5    0  0.1531977E+001  0.2589478E+03  0.7546771E-02  0.1107777E+00
         21   -1    0    0  503  501  0.00000000000E+00  0.00000000000E+00  0.37336476798E+02  0.37336476798E+02  0.00000000000E+00 0.  1.
         21   -1    0    0  504  502 -0.00000000000E+00 -0.00000000000E+00 -0.21271629722E+04  0.21271629722E+04  0.00000000000E+00 0.  1.
         25    1    1    2    0    0 -0.14880908410E+03  0.19772918087E+03 -0.87937271476E+03  0.92204248490E+03  0.12500000000E+03 0.  0.
         21    1    1    2  503  502  0.13647724109E+02 -0.36664981136E+02 -0.50036360268E+03  0.50189074120E+03  0.00000000000E+00 0.  1.
         21    1    1    2  504  501  0.13516136000E+03 -0.16106419974E+03 -0.71009017794E+03  0.74056622288E+03  0.00000000000E+00 0.  1.
<mgrwt>
<rscale>  4 0.25894785E+03</rscale>
<asrwt>0</asrwt>
<pdfrwt beam="1">  1       21 0.57440712E-02 0.25894785E+03</pdfrwt>
<pdfrwt beam="2">  1       21 0.32725596E+00 0.25894785E+03</pdfrwt>
<totfact> 0.47044108E+03</totfact>
</mgrwt>
</event>
<event>
 5    0  0.1531977E+001  0.2243355E+03  0.7546771E-02  0.1130691E+00
         21   -1    0    0  502  501  0.00000000000E+00  0.00000000000E+00  0.65400609854E+03  0.65400609854E+03  0.00000000000E+00 0.  1.
         21   -1    0    0  504  502 -0.00000000000E+00 -0.00000000000E+00 -0.13161499314E+04  0.13161499314E+04  0.00000000000E+00 0. -1.
         25    1    1    2    0    0 -0.28785287187E+03 -0.34808350275E+02 -0.45025270868E+03  0.54993035811E+03  0.12500000000E+03 0.  0.
         21    1    1    2  503  501  0.18336119560E+03 -0.63170747548E+01  0.58621674048E+03  0.61425670554E+03  0.00000000000E+00 0.  1.
         21    1    1    2  504  503  0.10449167627E+03  0.41125425029E+02 -0.79810786463E+03  0.80596896627E+03  0.00000000000E+00 0. -1.
<mgrwt>
<rscale>  4 0.22433552E+03</rscale>
<asrwt>0</asrwt>
<pdfrwt beam="1">  1       21 0.10061632E+00 0.22433552E+03</pdfrwt>
<pdfrwt beam="2">  1       21 0.20248461E+00 0.22433552E+03</pdfrwt>
<totfact> 0.10032138E+02</totfact>
</mgrwt>
</event>
<event>
 5    0  0.1531977E+001  0.4244581E+03  0.7546771E-02  0.1035625E+00
         21   -1    0    0  504  501  0.00000000000E+00  0.00000000000E+00  0.81777070802E+03  0.81777070802E+03  0.00000000000E+00 0. -1.
         21   -1    0    0  503  502 -0.00000000000E+00 -0.00000000000E+00 -0.61754368069E+03  0.61754368069E+03  0.00000000000E+00 0. -1.
         25    1    1    2    0    0 -0.34076025933E+03 -0.22177094042E+03 -0.46572554454E+03  0.63073384814E+03  0.12500000000E+03 0.  0.
         21    1    1    2  503  501  0.25032986975E+02 -0.21633384744E+02  0.60907565860E+01  0.33641508411E+02  0.00000000000E+00 0.  1.
         21    1    1    2  504  502  0.31572727235E+03  0.24340432516E+03  0.65986181529E+03  0.77093903215E+03  0.00000000000E+00 0. -1.
<mgrwt>
<rscale>  4 0.42445813E+03</rscale>
<asrwt>0</asrwt>
<pdfrwt beam="1">  1       21 0.12581088E+00 0.42445813E+03</pdfrwt>
<pdfrwt beam="2">  1       21 0.95006719E-01 0.42445813E+03</pdfrwt>
<totfact> 0.36516380E+02</totfact>
</mgrwt>
</event>
<event>
 5    0  0.1531977E+001  0.3002949E+03  0.7546771E-02  0.1085093E+00
         21   -1    0    0  502  501  0.00000000000E+00  0.00000000000E+00  0.15727256315E+04  0.15727256315E+04  0.00000000000E+00 0. -1.
         21   -1    0    0  504  502 -0.00000000000E+00 -0.00000000000E+00 -0.33076119773E+03  0.33076119773E+03  0.00000000000E+00 0. -1.
         25    1    1    2    0    0  0.19796865049E+03  0.14089437154E+03  0.84479204485E+03  0.88788592147E+03  0.12500000000E+03 0.  0.
         21    1    1    2  503  501  0.34419294070E+02  0.65056980836E+01  0.64458827206E+03  0.64553935000E+03  0.00000000000E+00 0. -1.
         21    1    1    2  504  503 -0.23238794456E+03 -0.14740006963E+03 -0.24741588314E+03  0.37006155776E+03  0.00000000000E+00 0. -1.
<mgrwt>
<rscale>  4 0.30029489E+03</rscale>
<asrwt>0</asrwt>
<pdfrwt beam="1">  1       21 0.24195778E+00 0.30029489E+03</pdfrwt>
<pdfrwt beam="2">  1       21 0.50886339E-01 0.30029489E+03</pdfrwt>
<totfact> 0.24190414E+02</totfact>
</mgrwt>
</event>
<event>
 5    0  0.1531977E+001  0.2659982E+03  0.7546771E-02  0.1103592E+00
         21   -1    0    0  504  501  0.00000000000E+00  0.00000000000E+00  0.12948696421E+03  0.12948696421E+03  0.00000000000E+00 0.  1.
         21   -1    0    0  503  502 -0.00000000000E+00 -0.00000000000E+00 -0.13615158074E+04  0.13615158074E+04  0.00000000000E+00 0.  1.
         25    1    1    2    0    0 -0.61432946856E+02  0.25475258883E+03 -0.10403814521E+04  0.10801349242E+04  0.12500000000E+03 0.  0.
         21    1    1    2  503  501  0.11432621517E+03 -0.15803753485E+03 -0.22299319936E+03  0.29626392432E+03  0.00000000000E+00 0.  1.
         21    1    1    2  504  502 -0.52893268314E+02 -0.96715053989E+02  0.31345808278E+02  0.11460392313E+03  0.00000000000E+00 0.  1.
<mgrwt>
<rscale>  4 0.26599819E+03</rscale>
<asrwt>0</asrwt>
<pdfrwt beam="1">  1       21 0.19921072E-01 0.26599819E+03</pdfrwt>
<pdfrwt beam="2">  1       21 0.20946397E+00 0.26599819E+03</pdfrwt>
<totfact> 0.25485914E+03</totfact>
</mgrwt>
</event>
<event>
 5    0  0.1531977E+001  0.2460567E+03  0.7546771E-02  0.1115823E+00
         21   -1    0    0  502  501  0.00000000000E+00  0.00000000000E+00  0.38230522064E+03  0.38230522064E+03  0.00000000000E+00 0. -1.
         21   -1    0    0  504  502 -0.00000000000E+00 -0.00000000000E+00 -0.29683455453E+03  0.29683455453E+03  0.00000000000E+00 0. -1.
         25    1    1    2    0    0  0.15092507593E+03 -0.16500110126E+03 -0.14191967049E+02  0.25657387609E+03  0.12500000000E+03 0.  0.
         21    1    1    2  503  501 -0.16771316909E+03  0.12506735843E+03  0.21461925016E+03  0.29971815723E+03  0.00000000000E+00 0. -1.
         21    1    1    2  504  503  0.16788093157E+02  0.39933742826E+02 -0.11495661700E+03  0.12284774186E+03  0.00000000000E+00 0. -1.
<mgrwt>
<rscale>  4 0.24605673E+03</rscale>
<asrwt>0</asrwt>
<pdfrwt beam="1">  1       21 0.58816188E-01 0.24605673E+03</pdfrwt>
<pdfrwt beam="2">  1       21 0.45666854E-01 0.24605673E+03</pdfrwt>
<totfact> 0.12036202E+04</totfact>
</mgrwt>
</event>
<event>
 5    0  0.1531977E+001  0.1783963E+03  0.7546771E-02  0.1169364E+00
         21   -1    0    0  504  501  0.00000000000E+00  0.00000000000E+00  0.92012464440E+02  0.92012464440E+02  0.00000000000E+00 0. -1.
         21   -1    0    0  503  502 -0.00000000000E+00 -0.00000000000E+00 -0.11260801809E+04  0.11260801809E+04  0.00000000000E+00 0. -1.
         25    1    1    2    0    0 -0.14636929533E+03 -0.15524703376E+03 -0.50499879569E+03  0.56229386957E+03  0.12500000000E+03 0.  0.
         21    1    1    2  503  501  0.41002469140E+02  0.10078668445E+03 -0.52601468006E+03  0.53715044622E+03  0.00000000000E+00 0. -1.
         21    1    1    2  504  502  0.10536682619E+03  0.54460349307E+02 -0.30542406664E+01  0.11864832950E+03  0.00000000000E+00 0. -1.
<mgrwt>
<rscale>  4 0.17839625E+03</rscale>
<asrwt>0</asrwt>
<pdfrwt beam="1">  1       21 0.14155764E-01 0.17839625E+03</pdfrwt>
<pdfrwt beam="2">  1       21 0.17324310E+00 0.17839625E+03</pdfrwt>
<totfact> 0.89311072E+03</totfact>
</mgrwt>
</event>
<event>
 5    0  0.1531977E+001  0.3313533E+03  0.7546771E-02  0.1070540E+00
         21   -1    0    0  504  501  0.00000000000E+00  0.00000000000E+00  0.21142900320E+04  0.21142900320E+04  0.00000000000E+00 0. -1.
         21   -1    0    0  503  502 -0.00000000000E+00 -0.00000000000E+00 -0.25003578195E+03  0.25003578195E+03  0.00000000000E+00 0. -1.
         25    1    1    2    0    0  0.72918630915E+02  0.31554738706E+03  0.19482631118E+04  0.19789495782E+04  0.12500000000E+03 0.  0.
         21    1    1    2  503  501 -0.91847256093E+02 -0.29193089559E+03 -0.12820731208E+03  0.33180819930E+03  0.00000000000E+00 0. -1.
         21    1    1    2  504  502  0.18928625178E+02 -0.23616491468E+02  0.44198450390E+02  0.53568036527E+02  0.00000000000E+00 0.  1.
<mgrwt>
<rscale>  4 0.33135334E+03</rscale>
<asrwt>0</asrwt>
<pdfrwt beam="1">  1       21 0.32527538E+00 0.33135334E+03</pdfrwt>
<pdfrwt beam="2">  1       21 0.38467045E-01 0.33135334E+03</pdfrwt>
<totfact> 0.13411201E+02</totfact>
</mgrwt>
</event>
<event>
 5    0  0.1531977E+001  0.2436087E+03  0.7546771E-02  0.1117412E+00
         21   -1    0    0  503  501  0.00000000000E+00  0.00000000000E+00  0.14861319088E+03  0.14861319088E+03  0.00000000000E+00 0. -1.
         21   -1    0    0  504  502 -0.00000000000E+00 -0.00000000000E+00 -0.61946356939E+03  0.61946356939E+03  0.00000000000E+00 0. -1.
         25    1    1    2    0    0 -0.17895136729E+03  0.11541211689E+03 -0.27759993494E+02  0.24847367229E+03  0.12500000000E+03 0.  0.
         21    1    1    2  503  502  0.18507651168E+03 -0.95926165427E+02 -0.45166533832E+03  0.49745022086E+03  0.00000000000E+00 0. -1.
         21    1    1    2  504  501 -0.61251443832E+01 -0.19485951459E+02  0.85749533053E+01  0.22152867132E+02  0.00000000000E+00 0. -1.
<mgrwt>
<rscale>  4 0.24360872E+03</rscale>
<asrwt>0</asrwt>
<pdfrwt beam="1">  1       21 0.22863567E-01 0.24360872E+03</pdfrwt>
<pdfrwt beam="2">  1       21 0.95302089E-01 0.24360872E+03</pdfrwt>
<totfact> 0.16013043E+04</totfact>
</mgrwt>
</event>
<event>
 5    0  0.1531977E+001  0.2015903E+03  0.7546771E-02  0.1148404E+00
         21   -1    0    0  502  501  0.00000000000E+00  0.00000000000E+00  0.88656266237E+03  0.88656266237E+03  0.00000000000E+00 0. -1.
         21   -1    0    0  504  502 -0.00000000000E+00 -0.00000000000E+00 -0.65837812991E+02  0.65837812991E+02  0.00000000000E+00 0. -1.
         25    1    1    2    0    0  0.14062371942E+03 -0.15971080788E+03  0.41808390361E+03  0.48549121833E+03  0.12500000000E+03 0.  0.
         21    1    1    2  503  501 -0.96651576100E+02  0.97089312303E+02  0.34471070241E+03  0.37093574926E+03  0.00000000000E+00 0. -1.
         21    1    1    2  504  503 -0.43972143323E+02  0.62621495580E+02  0.57930243359E+02  0.95973507765E+02  0.00000000000E+00 0. -1.
<mgrwt>
<rscale>  4 0.20159031E+03</rscale>
<asrwt>0</asrwt>
<pdfrwt beam="1">  1       21 0.13639425E+00 0.20159031E+03</pdfrwt>
<pdfrwt beam="2">  1       21 0.10128895E-01 0.20159031E+03</pdfrwt>
<totfact> 0.30193411E+04</totfact>
</mgrwt>
</event>
<event>
 5    0  0.1531977E+001  0.2087312E+03  0.7546771E-02  0.1142575E+00
         21   -1    0    0  502  501  0.00000000000E+00  0.00000000000E+00  0.41707046315E+03  0.41707046315E+03  0.00000000000E+00 0.  1.
         21   -1    0    0  504  502 -0.00000000000E+00 -0.00000000000E+00 -0.17053487849E+03  0.17053487849E+03  0.00000000000E+00 0.  1.
         25    1    1    2    0    0 -0.15550111462E+03 -0.15308509057E+03  0.14438622669E+03  0.28997935109E+03  0.12500000000E+03 0.  0.
         21    1    1    2  503  501  0.66540850077E+02  0.29454808994E+02  0.12398149385E+03  0.14375910865E+03  0.00000000000E+00 0.  1.
         21    1    1    2  504  503  0.88960264541E+02  0.12363028157E+03 -0.21832135881E+02  0.15386688190E+03  0.00000000000E+00 0.  1.
<mgrwt>
<rscale>  4 0.20873115E+03</rscale>
<asrwt>0</asrwt>
<pdfrwt beam="1">  1       21 0.64164686E-01 0.20873115E+03</pdfrwt>
<pdfrwt beam="2">  1       21 0.26236135E-01 0.20873115E+03</pdfrwt>
<totfact> 0.30686889E+04</totfact>
</mgrwt>
</event>
<event>
 5    0  0.1531977E+001  0.2197037E+03  0.7546771E-02  0.1134104E+00
         21   -1    0    0  504  501  0.00000000000E+00  0.00000000000E+00  0.15805425764E+03  0.15805425764E+03  0.00000000000E+00 0.  1.
         21   -1    0    0  501  502 -0.00000000000E+00 -0.00000000000E+00 -0.11380072974E+04  0.11380072974E+04  0.00000000000E+00 0.  1.
         25    1    1    2    0    0  0.17325484125E+03  0.21631572519E+03 -0.77471481769E+02  0.31374601746E+03  0.12500000000E+03 0.  0.
         21    1    1    2  503  502 -0.83422951911E+02 -0.67770272368E+02 -0.61974458705E+02  0.12406865944E+03  0.00000000000E+00 0.  1.
         21    1    1    2  504  503 -0.89831889342E+02 -0.14854545282E+03 -0.84050709930E+03  0.85824687816E+03  0.00000000000E+00 0.  1.
<mgrwt>
<rscale>  4 0.21970367E+03</rscale>
<asrwt>0</asrwt>
<pdfrwt beam="1">  1       21 0.24316040E-01 0.21970367E+03</pdfrwt>
<pdfrwt beam="2">  1       21 0.17507804E+00 0.21970367E+03</pdfrwt>
<totfact> 0.30650700E+03</totfact>
</mgrwt>
</event>
<event>
 5    0  0.1531977E+001  0.3075912E+03  0.7546771E-02  0.1081506E+00
         21   -1    0    0  504  501  0.00000000000E+00  0.00000000000E+00  0.88165818110E+02  0.88165818110E+02  0.00000000000E+00 0. -1.
         21   -1    0    0  503  502 -0.00000000000E+00 -0.00000000000E+00 -0.16003512137E+04  0.16003512137E+04  0.00000000000E+00 0. -1.
         25    1    1    2    0    0 -0.22066613864E+03  0.18432428996E+03 -0.11500197204E+04  0.11919896585E+04  0.12500000000E+03 0.  0.
         21    1    1    2  503  501  0.19873072841E+03 -0.17999037993E+03 -0.38195447217E+03  0.46666868128E+03  0.00000000000E+00 0. -1.
         21    1    1    2  504  502  0.21935410226E+02 -0.43339100306E+01  0.19788797049E+02  0.29858691978E+02  0.00000000000E+00 0. -1.
<mgrwt>
<rscale>  4 0.30759119E+03</rscale>
<asrwt>0</asrwt>
<pdfrwt beam="1">  1       21 0.13563973E-01 0.30759119E+03</pdfrwt>
<pdfrwt beam="2">  1       21 0.24620786E+00 0.30759119E+03</pdfrwt>
<totfact> 0.29865192E+03</totfact>
</mgrwt>
</event>
<event>
 5    0  0.1531977E+001  0.2861335E+03  0.7546771E-02  0.1092385E+00
         21   -1    0    0  504  501  0.00000000000E+00  0.00000000000E+00  0.18650726758E+03  0.18650726758E+03  0.00000000000E+00 0.  1.
         21   -1    0    0  503  502 -0.00000000000E+00 -0.00000000000E+00 -0.13733339602E+04  0.13733339602E+04  0.00000000000E+00 0.  1.
         25    1    1    2    0    0  0.12418961860E+03 -0.22313695403E+03  0.47525760555E+02  0.28826525899E+03  0.12500000000E+03 0.  0.
         21    1    1    2  503  501 -0.13403308159E+03  0.24309486494E+03 -0.11900576518E+04  0.12220053989E+04  0.00000000000E+00 0.  1.
         21    1    1    2  504  502  0.98434629939E+01 -0.19957910906E+02 -0.44294801396E+02  0.49570569920E+02  0.00000000000E+00 0.  1.
<mgrwt>
<rscale>  4 0.28613351E+03</rscale>
<asrwt>0</asrwt>
<pdfrwt beam="1">  1       21 0.28693426E-01 0.28613351E+03</pdfrwt>
<pdfrwt beam="2">  1       21 0.21128214E+00 0.28613351E+03</pdfrwt>
<totfact> 0.12140359E+03</totfact>
</mgrwt>
</event>
<event>
 5    0  0.1531977E+001  0.2556123E+03  0.7546771E-02  0.1109808E+00
         21   -1    0    0  502  501  0.00000000000E+00  0.00000000000E+00  0.77549057837E+03  0.77549057837E+03  0.00000000000E+00 0.  1.
         21   -1    0    0  504  502 -0.00000000000E+00 -0.00000000000E+00 -0.76692804271E+03  0.76692804271E+03  0.00000000000E+00 0. -1.
         25    1    1    2    0    0  0.33180696447E+03 -0.14766850638E+03 -0.38422027246E+03  0.54327899575E+03  0.12500000000E+03 0.  0.
         21    1    1    2  503  501 -0.21634463599E+03 -0.38358136503E+02  0.63541158373E+03  0.67232747147E+03  0.00000000000E+00 0.  1.
         21    1    1    2  504  503 -0.11546232847E+03  0.18602664289E+03 -0.24262877561E+03  0.32681215387E+03  0.00000000000E+00 0. -1.
<mgrwt>
<rscale>  4 0.25561231E+03</rscale>
<asrwt>0</asrwt>
<pdfrwt beam="1">  1       21 0.11930624E+00 0.25561231E+03</pdfrwt>
<pdfrwt beam="2">  1       21 0.11798893E+00 0.25561231E+03</pdfrwt>
<totfact> 0.27596382E+02</totfact>
</mgrwt>
</event>
<event>
 5    0  0.1531977E+001  0.2532007E+03  0.7546771E-02  0.1111299E+00
         21   -1    0    0  502  501  0.00000000000E+00  0.00000000000E+00  0.19529257265E+03  0.19529257265E+03  0.00000000000E+00 0.  1.
         21   -1    0    0  504  502 -0.00000000000E+00 -0.00000000000E+00 -0.41411653894E+03  0.41411653894E+03  0.00000000000E+00 0.  1.
         25    1    1    2    0    0 -0.11007695386E+03 -0.21597200540E+03 -0.16294723635E+03  0.31770685344E+03  0.12500000000E+03 0.  0.
         21    1    1    2  503  501  0.10031055235E+03  0.18588200939E+03  0.17351771427E+02  0.21193256546E+03  0.00000000000E+00 0.  1.
         21    1    1    2  504  503  0.97664015172E+01  0.30089996008E+02 -0.73228501374E+02  0.79769692690E+02  0.00000000000E+00 0.  1.
<mgrwt>
<rscale>  4 0.25320072E+03</rscale>
<asrwt>0</asrwt>
<pdfrwt beam="1">  1       21 0.30045011E-01 0.25320072E+03</pdfrwt>
<pdfrwt beam="2">  1       21 0.63710236E-01 0.25320072E+03</pdfrwt>
<totfact> 0.23429416E+04</totfact>
</mgrwt>
</event>
<event>
 5    0  0.1531977E+001  0.2158083E+03  0.7546771E-02  0.1137047E+00
         21   -1    0    0  504  501  0.00000000000E+00  0.00000000000E+00  0.11403965443E+04  0.11403965443E+04  0.00000000000E+00 0. -1.
         21   -1    0    0  503  502 -0.00000000000E+00 -0.00000000000E+00 -0.61974772948E+02  0.61974772948E+02  0.00000000000E+00 0.  1.
         25    1    1    2    0    0  0.45648839401E+01 -0.20648020840E+03  0.67101815486E+03  0.71312360694E+03  0.12500000000E+03 0.  0.
         21    1    1    2  503  501 -0.72074845308E+02  0.15424083122E+03  0.18699951898E+03  0.25289095958E+03  0.00000000000E+00 0.  1.
         21    1    1    2  504  502  0.67509961368E+02  0.52239377181E+02  0.22040409756E+03  0.23635675076E+03  0.00000000000E+00 0.  1.
<mgrwt>
<rscale>  4 0.21580833E+03</rscale>
<asrwt>0</asrwt>
<pdfrwt beam="1">  1       21 0.17544561E+00 0.21580833E+03</pdfrwt>
<pdfrwt beam="2">  1       21 0.95345813E-02 0.21580833E+03</pdfrwt>
<totfact> 0.16974631E+04</totfact>
</mgrwt>
</event>
<event>
 5    0  0.1531977E+001  0.2641088E+03  0.7546771E-02  0.1104699E+00
         21   -1    0    0  504  501  0.00000000000E+00  0.00000000000E+00  0.26547266150E+03  0.26547266150E+03  0.00000000000E+00 0. -1.
         21   -1    0    0  503  502 -0.00000000000E+00 -0.00000000000E+00 -0.43881365987E+03  0.43881365987E+03  0.00000000000E+00 0. -1.
         25    1    1    2    0    0  0.12841915989E+03  0.22624092017E+03 -0.21801556031E+03  0.36170736669E+03  0.12500000000E+03 0.  0.
         21    1    1    2  503  501 -0.11821100554E+02 -0.32313935590E+02 -0.77951485226E+02  0.85207763147E+02  0.00000000000E+00 0.  1.
         21    1    1    2  504  502 -0.11659805933E+03 -0.19392698458E+03  0.12262604716E+03  0.25737119153E+03  0.00000000000E+00 0. -1.
<mgrwt>
<rscale>  4 0.26410880E+03</rscale>
<asrwt>0</asrwt>
<pdfrwt beam="1">  1       21 0.40841948E-01 0.26410880E+03</pdfrwt>
<pdfrwt beam="2">  1       21 0.67509793E-01 0.26410880E+03</pdfrwt>
<totfact> 0.11105416E+04</totfact>
</mgrwt>
</event>
<event>
 5    0  0.1531977E+001  0.4540307E+03  0.7546771E-02  0.1026527E+00
         21   -1    0    0  502  501  0.00000000000E+00  0.00000000000E+00  0.94098556772E+03  0.94098556772E+03  0.00000000000E+00 0. -1.
         21   -1    0    0  504  502 -0.00000000000E+00 -0.00000000000E+00 -0.29028306591E+03  0.29028306591E+03  0.00000000000E+00 0. -1.
         25    1    1    2    0    0 -0.16536066669E+03 -0.40399873401E+03  0.37543981550E+03  0.58918518501E+03  0.12500000000E+03 0.  0.
         21    1    1    2  503  501  0.19746399225E+03  0.38999399493E+03  0.34971069231E+03  0.55980792477E+03  0.00000000000E+00 0. -1.
         21    1    1    2  504  503 -0.32103325567E+02  0.14004739081E+02 -0.74448005995E+02  0.82275523856E+02  0.00000000000E+00 0.  1.
<mgrwt>
<rscale>  4 0.45403066E+03</rscale>
<asrwt>0</asrwt>
<pdfrwt beam="1">  1       21 0.14476701E+00 0.45403066E+03</pdfrwt>
<pdfrwt beam="2">  1       21 0.44658934E-01 0.45403066E+03</pdfrwt>
<totfact> 0.13405529E+03</totfact>
</mgrwt>
</event>
<event>
 5    0  0.1531977E+001  0.2579468E+03  0.7546771E-02  0.1108383E+00
         21   -1    0    0  504  501  0.00000000000E+00  0.00000000000E+00  0.27538694353E+03  0.27538694353E+03  0.00000000000E+00 0.  1.
         21   -1    0    0  503  502 -0.00000000000E+00 -0.00000000000E+00 -0.28652848819E+03  0.28652848819E+03  0.00000000000E+00 0.  1.
         25    1    1    2    0    0  0.16121643766E+03  0.16890484292E+03 -0.99601441874E+02  0.28295765224E+03  0.12500000000E+03 0.  0.
         21    1    1    2  503  501  0.49673372823E+01 -0.20231060036E+02 -0.21844061063E+02  0.30184983578E+02  0.00000000000E+00 0. -1.
         21    1    1    2  504  502 -0.16618377495E+03 -0.14867378289E+03  0.11030395828E+03  0.24877279591E+03  0.00000000000E+00 0.  1.
<mgrwt>
<rscale>  4 0.25794680E+03</rscale>
<asrwt>0</asrwt>
<pdfrwt beam="1">  1       21 0.42367222E-01 0.25794680E+03</pdfrwt>
<pdfrwt beam="2">  1       21 0.44081306E-01 0.25794680E+03</pdfrwt>
<totfact> 0.25633288E+04</totfact>
</mgrwt>
</event>
<event>
 5    0  0.1531977E+001  0.3053462E+03  0.7546771E-02  0.1082598E+00
         21   -1    0    0  503  501  0.00000000000E+00  0.00000000000E+00  0.51230614991E+03  0.51230614991E+03  0.00000000000E+00 0.  1.
         21   -1    0    0  504  502 -0.00000000000E+00 -0.00000000000E+00 -0.33438155495E+03  0.33438155495E+03  0.00000000000E+00 0.  1.
         25    1    1    2    0    0  0.59704304346E+02 -0.30608525830E+03  0.22770328797E+03  0.40586521982E+03  0.12500000000E+03 0.  0.
         21    1    1    2  503  502 -0.72085965064E+02  0.55905191414E+02 -0.14627706470E+03  0.17239128877E+03  0.00000000000E+00 0.  1.
         21    1    1    2  504  501  0.12381660718E+02  0.25018006688E+03  0.96498371687E+02  0.26843119626E+03  0.00000000000E+00 0.  1.
<mgrwt>
<rscale>  4 0.30534618E+03</rscale>
<asrwt>0</asrwt>
<pdfrwt beam="1">  1       21 0.78816331E-01 0.30534618E+03</pdfrwt>
<pdfrwt beam="2">  1       21 0.51443316E-01 0.30534618E+03</pdfrwt>
<totfact> 0.47553660E+03</totfact>
</mgrwt>
</event>
<event>
 5    0  0.1531977E+001  0.2269214E+03  0.7546771E-02  0.1128826E+00
         21   -1    0    0  504  501  0.00000000000E+00  0.00000000000E+00  0.16120241182E+03  0.16120241182E+03  0.00000000000E+00 0. -1.
         21   -1    0    0  503  502 -0.00000000000E+00 -0.00000000000E+00 -0.41129204982E+03  0.41129204982E+03  0.00000000000E+00 0. -1.
         25    1    1    2    0    0 -0.77099480192E+02 -0.18680347965E+03 -0.32772658965E+02  0.23987271006E+03  0.12500000000E+03 0.  0.
         21    1    1    2  503  501  0.40578509028E+02  0.13112659075E+02 -0.12599708807E+03  0.13301813194E+03  0.00000000000E+00 0. -1.
         21    1    1    2  504  502  0.36520971164E+02  0.17369082058E+03 -0.91319890965E+02  0.19960361964E+03  0.00000000000E+00 0. -1.
<mgrwt>
<rscale>  4 0.22692143E+03</rscale>
<asrwt>0</asrwt>
<pdfrwt beam="1">  1       21 0.24800371E-01 0.22692143E+03</pdfrwt>
<pdfrwt beam="2">  1       21 0.63275699E-01 0.22692143E+03</pdfrwt>
<totfact> 0.34918310E+04</totfact>
</mgrwt>
</event>
<event>
 5    0  0.1531977E+001  0.2977592E+03  0.7546771E-02  0.1086366E+00
         21   -1    0    0  504  501  0.00000000000E+00  0.00000000000E+00  0.18620630359E+03  0.18620630359E+03  0.00000000000E+00 0. -1.
         21   -1    0    0  501  502 -0.00000000000E+00 -0.00000000000E+00 -0.52111192539E+03  0.52111192539E+03  0.00000000000E+00 0. -1.
         25    1    1    2    0    0 -0.23769114050E+03  0.13995260940E+03 -0.65584875179E+02  0.30985510646E+03  0.12500000000E+03 0.  0.
         21    1    1    2  503  502 -0.29469723507E+01 -0.22173613072E+02 -0.96614980745E+01  0.24365925136E+02  0.00000000000E+00 0. -1.
         21    1    1    2  504  503  0.24063811285E+03 -0.11777899632E+03 -0.25965924855E+03  0.37309719738E+03  0.00000000000E+00 0. -1.
<mgrwt>
<rscale>  4 0.29775918E+03</rscale>
<asrwt>0</asrwt>
<pdfrwt beam="1">  1       21 0.28647124E-01 0.29775918E+03</pdfrwt>
<pdfrwt beam="2">  1       21 0.80171064E-01 0.29775918E+03</pdfrwt>
<totfact> 0.15091253E+04</totfact>
</mgrwt>
</event>
<event>
 5    0  0.1531977E+001  0.4463145E+03  0.7546771E-02  0.1028827E+00
         21   -1    0    0  504  501  0.00000000000E+00  0.00000000000E+00  0.92538321268E+03  0.92538321268E+03  0.00000000000E+00 0.  1.
         21   -1    0    0  501  502 -0.00000000000E+00 -0.00000000000E+00 -0.21273232628E+03  0.21273232628E+03  0.00000000000E+00 0.  1.
         25    1    1    2    0    0  0.42717493169E+03 -0.33064375619E+02  0.32216176625E+03  0.55044062244E+03  0.12500000000E+03 0.  0.
         21    1    1    2  503  502 -0.14603188471E+02 -0.18309674598E+02  0.21319979970E+02  0.31670788486E+02  0.00000000000E+00 0. -1.
         21    1    1    2  504  503 -0.41257174322E+03  0.51374050217E+02  0.36916914017E+03  0.55600412804E+03  0.00000000000E+00 0.  1.
<mgrwt>
<rscale>  4 0.44631455E+03</rscale>
<asrwt>0</asrwt>
<pdfrwt beam="1">  1       21 0.14236665E+00 0.44631455E+03</pdfrwt>
<pdfrwt beam="2">  1       21 0.32728051E-01 0.44631455E+03</pdfrwt>
<totfact> 0.26580276E+03</totfact>
</mgrwt>
</event>
<event>
 5    0  0.1531977E+001  0.3839058E+03  0.7546771E-02  0.1049500E+00
         21   -1    0    0  502  501  0.00000000000E+00  0.00000000000E+00  0.10364479443E+04  0.10364479443E+04  0.00000000000E+00 0.  1.
         21   -1    0    0  504  502 -0.00000000000E+00 -0.00000000000E+00 -0.34305947077E+03  0.34305947077E+03  0.00000000000E+00 0.  1.
         25    1    1    2    0    0 -0.44024430868E+03  0.22193943899E+03  0.18608385934E+03  0.54159428414E+03  0.12500000000E+03 0.  0.
         21    1    1    2  503  501  0.20119994830E+03 -0.28308798364E+02  0.48924207249E+03  0.52975523853E+03  0.00000000000E+00 0.  1.
         21    1    1    2  504  503  0.23904436038E+03 -0.19363064063E+03  0.18062541684E+02  0.30815789237E+03  0.00000000000E+00 0.  1.
<mgrwt>
<rscale>  4 0.38390582E+03</rscale>
<asrwt>0</asrwt>
<pdfrwt beam="1">  1       21 0.15945353E+00 0.38390582E+03</pdfrwt>
<pdfrwt beam="2">  1       21 0.52778381E-01 0.38390582E+03</pdfrwt>
<totfact> 0.74783786E+02</totfact>
</mgrwt>
</event>
<event>
 5    0  0.1531977E+001  0.2275326E+03  0.7546771E-02  0.1128389E+00
         21   -1    0    0  504  501  0.00000000000E+00  0.00000000000E+00  0.15383498684E+03  0.15383498684E+03  0.00000000000E+00 0. -1.
         21   -1    0    0  503  502 -0.00000000000E+00 -0.00000000000E+00 -0.96803547525E+03  0.96803547525E+03  0.00000000000E+00 0.  1.
         25    1    1    2    0    0  0.19976338066E+03 -0.11594286233E+03 -0.35265847823E+02  0.26498459502E+03  0.12500000000E+03 0.  0.
         21    1    1    2  503  501 -0.17258291468E+03  0.70460698900E+02 -0.78190374808E+03  0.80381779266E+03  0.00000000000E+00 0.  1.
         21    1    1    2  504  502 -0.27180465982E+02  0.45482163428E+02  0.29691074988E+01  0.53068074399E+02  0.00000000000E+00 0. -1.
<mgrwt>
<rscale>  4 0.22753258E+03</rscale>
<asrwt>0</asrwt>
<pdfrwt beam="1">  1       21 0.23666921E-01 0.22753258E+03</pdfrwt>
<pdfrwt beam="2">  1       21 0.14892854E+00 0.22753258E+03</pdfrwt>
<totfact> 0.49804006E+03</totfact>
</mgrwt>
</event>
<event>
 5    0  0.1531977E+001  0.3005804E+03  0.7546771E-02  0.1084951E+00
         21   -1    0    0  503  501  0.00000000000E+00  0.00000000000E+00  0.48429248410E+03  0.48429248410E+03  0.00000000000E+00 0. -1.
         21   -1    0    0  501  502 -0.00000000000E+00 -0.00000000000E+00 -0.30084260515E+03  0.30084260515E+03  0.00000000000E+00 0. -1.
         25    1    1    2    0    0  0.94251498588E+02  0.25659350708E+03  0.33811153076E+03  0.45240245368E+03  0.12500000000E+03 0.  0.
         21    1    1    2  503  504 -0.63105846891E+02 -0.42309533534E+02 -0.23309875220E+02  0.79471975076E+02  0.00000000000E+00 0. -1.
         21    1    1    2  504  502 -0.31145651698E+02 -0.21428397355E+03 -0.13135177659E+03  0.25326066049E+03  0.00000000000E+00 0. -1.
<mgrwt>
<rscale>  4 0.30058039E+03</rscale>
<asrwt>0</asrwt>
<pdfrwt beam="1">  1       21 0.74506536E-01 0.30058039E+03</pdfrwt>
<pdfrwt beam="2">  1       21 0.46283478E-01 0.30058039E+03</pdfrwt>
<totfact> 0.67613827E+03</totfact>
</mgrwt>
</event>
<event>
 5    0  0.1531977E+001  0.2530360E+03  0.7546771E-02  0.1111401E+00
         21   -1    0    0  504  501  0.00000000000E+00  0.00000000000E+00  0.72863323821E+02  0.72863323821E+02  0.00000000000E+00 0. -1.
         21   -1    0    0  501  502 -0.00000000000E+00 -0.00000000000E+00 -0.99146983374E+03  0.99146983374E+03  0.00000000000E+00 0. -1.
         25    1    1    2    0    0  0.21670829282E+03  0.36246624609E+02 -0.65721027027E+03  0.70414958731E+03  0.12500000000E+03 0.  0.
         21    1    1    2  503  502  0.41764270330E+01 -0.22812848563E+02 -0.99754415418E+01  0.25246346989E+02  0.00000000000E+00 0.  1.
         21    1    1    2  504  503 -0.22088471985E+03 -0.13433776046E+02 -0.25142079811E+03  0.33493722326E+03  0.00000000000E+00 0. -1.
<mgrwt>
<rscale>  4 0.25303595E+03</rscale>
<asrwt>0</asrwt>
<pdfrwt beam="1">  1       21 0.11209743E-01 0.25303595E+03</pdfrwt>
<pdfrwt beam="2">  1       21 0.15253381E+00 0.25303595E+03</pdfrwt>
<totfact> 0.18255369E+04</totfact>
</mgrwt>
</event>
<event>
 5    0  0.1531977E+001  0.3032930E+03  0.7546771E-02  0.1083606E+00
         21   -1    0    0  502  501  0.00000000000E+00  0.00000000000E+00  0.38171151294E+03  0.38171151294E+03  0.00000000000E+00 0. -1.
         21   -1    0    0  504  502 -0.00000000000E+00 -0.00000000000E+00 -0.37389472348E+03  0.37389472348E+03  0.00000000000E+00 0. -1.
         25    1    1    2    0    0 -0.20998269434E+03 -0.14631067659E+03 -0.20708811521E+03  0.35215058351E+03  0.12500000000E+03 0.  0.
         21    1    1    2  503  501  0.23283742818E+03  0.15747207856E+03  0.23859446198E+03  0.36869776346E+03  0.00000000000E+00 0. -1.
         21    1    1    2  504  503 -0.22854733842E+02 -0.11161401974E+02 -0.23689557318E+02  0.34757889449E+02  0.00000000000E+00 0. -1.
<mgrwt>
<rscale>  4 0.30329298E+03</rscale>
<asrwt>0</asrwt>
<pdfrwt beam="1">  1       21 0.58724849E-01 0.30329298E+03</pdfrwt>
<pdfrwt beam="2">  1       21 0.57522265E-01 0.30329298E+03</pdfrwt>
<totfact> 0.72074543E+03</totfact>
</mgrwt>
</event>
<event>
 5    0  0.1531977E+001  0.1948922E+03  0.7546771E-02  0.1154121E+00
         21   -1    0    0  504  501  0.00000000000E+00  0.00000000000E+00  0.36636417317E+03  0.36636417317E+03  0.00000000000E+00 0. -1.
         21   -1    0    0  503  502 -0.00000000000E+00 -0.00000000000E+00 -0.26521560448E+03  0.26521560448E+03  0.00000000000E+00 0. -1.
         25    1    1    2    0    0  0.10052156895E+03 -0.20083795620E+03 -0.47834115289E+01  0.25707654794E+03  0.12500000000E+03 0.  0.
         21    1    1    2  503  501 -0.58576637933E+02  0.11531642643E+03 -0.89367860634E+02  0.15721232531E+03  0.00000000000E+00 0. -1.
         21    1    1    2  504  502 -0.41944931016E+02  0.85521529777E+02  0.19529984086E+03  0.21729090440E+03  0.00000000000E+00 0. -1.
<mgrwt>
<rscale>  4 0.19489218E+03</rscale>
<asrwt>0</asrwt>
<pdfrwt beam="1">  1       21 0.56363719E-01 0.19489218E+03</pdfrwt>
<pdfrwt beam="2">  1       21 0.40802401E-01 0.19489218E+03</pdfrwt>
<totfact> 0.17112139E+04</totfact>
</mgrwt>
</event>
<event>
 5    0  0.1531977E+001  0.3044772E+03  0.7546771E-02  0.1083024E+00
         21   -1    0    0  504  501  0.00000000000E+00  0.00000000000E+00  0.82234760932E+03  0.82234760932E+03  0.00000000000E+00 0. -1.
         21   -1    0    0  501  502 -0.00000000000E+00 -0.00000000000E+00 -0.25396757503E+03  0.25396757503E+03  0.00000000000E+00 0. -1.
         25    1    1    2    0    0  0.49292215330E+02  0.40910902956E+03  0.33935962549E+03  0.54826077370E+03  0.12500000000E+03 0.  0.
         21    1    1    2  503  502 -0.47369486496E+02 -0.16776711620E+03  0.22761291161E+03  0.28670073432E+03  0.00000000000E+00 0. -1.
         21    1    1    2  504  503 -0.19227288337E+01 -0.24134191337E+03  0.14074971944E+01  0.24135367634E+03  0.00000000000E+00 0. -1.
<mgrwt>
<rscale>  4 0.30447715E+03</rscale>
<asrwt>0</asrwt>
<pdfrwt beam="1">  1       21 0.12651502E+00 0.30447715E+03</pdfrwt>
<pdfrwt beam="2">  1       21 0.39071935E-01 0.30447715E+03</pdfrwt>
<totfact> 0.26986810E+03</totfact>
</mgrwt>
</event>
<event>
 5    0  0.1531977E+001  0.2511242E+03  0.7546771E-02  0.1112596E+00
         21   -1    0    0  504  501  0.00000000000E+00  0.00000000000E+00  0.42870244511E+03  0.42870244511E+03  0.00000000000E+00 0. -1.
         21   -1    0    0  503  502 -0.00000000000E+00 -0.00000000000E+00 -0.19026045226E+03  0.19026045226E+03  0.00000000000E+00 0. -1.
         25    1    1    2    0    0  0.10987470152E+03  0.18676218293E+03  0.16763852141E+03  0.30113159394E+03  0.12500000000E+03 0.  0.
         21    1    1    2  503  501 -0.90060838546E+02 -0.19922775536E+03 -0.24211966609E+02  0.21997470871E+03  0.00000000000E+00 0. -1.
         21    1    1    2  504  502 -0.19813862972E+02  0.12465572424E+02  0.95015438056E+02  0.97856594722E+02  0.00000000000E+00 0. -1.
<mgrwt>
<rscale>  4 0.25112418E+03</rscale>
<asrwt>0</asrwt>
<pdfrwt beam="1">  1       21 0.65954222E-01 0.25112418E+03</pdfrwt>
<pdfrwt beam="2">  1       21 0.29270839E-01 0.25112418E+03</pdfrwt>
<totfact> 0.22880154E+04</totfact>
</mgrwt>
</event>
<event>
 5    0  0.1531977E+001  0.2718518E+03  0.7546771E-02  0.1100224E+00
         21   -1    0    0  502  501  0.00000000000E+00  0.00000000000E+00  0.84212497534E+03  0.84212497534E+03  0.00000000000E+00 0. -1.
         21   -1    0    0  504  502 -0.00000000000E+00 -0.00000000000E+00 -0.72697307602E+03  0.72697307602E+03  0.00000000000E+00 0.  1.
         25    1    1    2    0    0  0.20091754537E+03 -0.20712906113E+03  0.63046982099E+03  0.70454772953E+03  0.12500000000E+03 0.  0.
         21    1    1    2  503  501 -0.51520776596E+02  0.19340371629E+02  0.14867120839E+03  0.15852939348E+03  0.00000000000E+00 0. -1.
         21    1    1    2  504  503 -0.14939676878E+03  0.18778868950E+03 -0.66398913005E+03  0.70602092834E+03  0.00000000000E+00 0.  1.
<mgrwt>
<rscale>  4 0.27185179E+03</rscale>
<asrwt>0</asrwt>
<pdfrwt beam="1">  1       21 0.12955769E+00 0.27185179E+03</pdfrwt>
<pdfrwt beam="2">  1       21 0.11184201E+00 0.27185179E+03</pdfrwt>
<totfact> 0.25194507E+02</totfact>
</mgrwt>
</event>
<event>
 5    0  0.1531977E+001  0.3728453E+03  0.7546771E-02  0.1053610E+00
         21   -1    0    0  504  501  0.00000000000E+00  0.00000000000E+00  0.61107044741E+03  0.61107044741E+03  0.00000000000E+00 0.  1.
         21   -1    0    0  503  502 -0.00000000000E+00 -0.00000000000E+00 -0.25457163375E+03  0.25457163375E+03  0.00000000000E+00 0.  1.
         25    1    1    2    0    0 -0.33637122384E+03 -0.48884134961E+02  0.27586535213E+03  0.45526031167E+03  0.12500000000E+03 0.  0.
         21    1    1    2  503  501  0.36661109790E+03  0.55697748170E+02  0.68489383548E+02  0.37708981943E+03  0.00000000000E+00 0.  1.
         21    1    1    2  504  502 -0.30239874061E+02 -0.68136132085E+01  0.12144077983E+02  0.33291950051E+02  0.00000000000E+00 0. -1.
<mgrwt>
<rscale>  4 0.37284535E+03</rscale>
<asrwt>0</asrwt>
<pdfrwt beam="1">  1       21 0.94010838E-01 0.37284535E+03</pdfrwt>
<pdfrwt beam="2">  1       21 0.39164867E-01 0.37284535E+03</pdfrwt>
<totfact> 0.53973443E+03</totfact>
</mgrwt>
</event>
<event>
 5    0  0.1531977E+001  0.2679383E+03  0.7546771E-02  0.1102465E+00
         21   -1    0    0  503  501  0.00000000000E+00  0.00000000000E+00  0.29057809994E+03  0.29057809994E+03  0.00000000000E+00 0.  1.
         21   -1    0    0  504  502 -0.00000000000E+00 -0.00000000000E+00 -0.31413770001E+03  0.31413770001E+03  0.00000000000E+00 0.  1.
         25    1    1    2    0    0  0.23429020107E+03  0.11951146153E+03 -0.90935472581E+02  0.30507236507E+03  0.12500000000E+03 0.  0.
         21    1    1    2  503  502 -0.24923402198E+02 -0.30734617658E+02 -0.32558685140E+02  0.51243152497E+02  0.00000000000E+00 0. -1.
         21    1    1    2  504  501 -0.20936679887E+03 -0.88776843867E+02  0.99934557650E+02  0.24840028239E+03  0.00000000000E+00 0.  1.
<mgrwt>
<rscale>  4 0.26793834E+03</rscale>
<asrwt>0</asrwt>
<pdfrwt beam="1">  1       21 0.44704323E-01 0.26793834E+03</pdfrwt>
<pdfrwt beam="2">  1       21 0.48328877E-01 0.26793834E+03</pdfrwt>
<totfact> 0.18873564E+04</totfact>
</mgrwt>
</event>
<event>
 5    0  0.1531977E+001  0.2546129E+03  0.7546771E-02  0.1110424E+00
         21   -1    0    0  504  501  0.00000000000E+00  0.00000000000E+00  0.21606675848E+04  0.21606675848E+04  0.00000000000E+00 0.  1.
         21   -1    0    0  503  502 -0.00000000000E+00 -0.00000000000E+00 -0.10747167117E+03  0.10747167117E+03  0.00000000000E+00 0.  1.
         25    1    1    2    0    0 -0.18871251422E+03 -0.25275423797E+03  0.80732905375E+03  0.87572959232E+03  0.12500000000E+03 0.  0.
         21    1    1    2  503  501  0.12824699989E+03  0.16026314321E+03  0.78396777449E+02  0.21972169389E+03  0.00000000000E+00 0.  1.
         21    1    1    2  504  502  0.60465514338E+02  0.92491094760E+02  0.11674700824E+04  0.11726879697E+04  0.00000000000E+00 0.  1.
<mgrwt>
<rscale>  4 0.25461294E+03</rscale>
<asrwt>0</asrwt>
<pdfrwt beam="1">  1       21 0.33241037E+00 0.25461294E+03</pdfrwt>
<pdfrwt beam="2">  1       21 0.16534105E-01 0.25461294E+03</pdfrwt>
<totfact> 0.67259787E+02</totfact>
</mgrwt>
</event>
<event>
 5    0  0.1531977E+001  0.2853963E+03  0.7546771E-02  0.1092778E+00
         21   -1    0    0  502  501  0.00000000000E+00  0.00000000000E+00  0.42230035738E+03  0.42230035738E+03  0.00000000000E+00 0. -1.
         21   -1    0    0  504  502 -0.00000000000E+00 -0.00000000000E+00 -0.68995013684E+03  0.68995013684E+03  0.00000000000E+00 0.  1.
         25    1    1    2    0    0 -0.21353843095E+03  0.71163220138E+02 -0.41526183484E+03  0.48860030379E+03  0.12500000000E+03 0.  0.
         21    1    1    2  503  501  0.22379877431E+03 -0.13258398009E+03  0.33617984160E+03  0.42506621726E+03  0.00000000000E+00 0. -1.
         21    1    1    2  504  503 -0.10260343355E+02  0.61420759950E+02 -0.18856778621E+03  0.19858397316E+03  0.00000000000E+00 0.  1.
<mgrwt>
<rscale>  4 0.28539630E+03</rscale>
<asrwt>0</asrwt>
<pdfrwt beam="1">  1       21 0.64969287E-01 0.28539630E+03</pdfrwt>
<pdfrwt beam="2">  1       21 0.10614617E+00 0.28539630E+03</pdfrwt>
<totfact> 0.14425607E+03</totfact>
</mgrwt>
</event>
<event>
 5    0  0.1531977E+001  0.2387588E+03  0.7546771E-02  0.1120622E+00
         21   -1    0    0  503  501  0.00000000000E+00  0.00000000000E+00  0.33631893196E+03  0.33631893196E+03  0.00000000000E+00 0.  1.
         21   -1    0    0  504  502 -0.00000000000E+00 -0.00000000000E+00 -0.77596624767E+03  0.77596624767E+03  0.00000000000E+00 0. -1.
         25    1    1    2    0    0 -0.13230769517E+03 -0.15440559971E+03  0.18458093576E+03  0.30173090208E+03  0.12500000000E+03 0.  0.
         21    1    1    2  503  502  0.11147542008E+03  0.17027793531E+03 -0.70073324392E+03  0.72969063559E+03  0.00000000000E+00 0. -1.
         21    1    1    2  504  501  0.20832275091E+02 -0.15872335604E+02  0.76504992443E+02  0.80863641964E+02  0.00000000000E+00 0.  1.
<mgrwt>
<rscale>  4 0.23875877E+03</rscale>
<asrwt>0</asrwt>
<pdfrwt beam="1">  1       21 0.51741375E-01 0.23875877E+03</pdfrwt>
<pdfrwt beam="2">  1       21 0.11937942E+00 0.23875877E+03</pdfrwt>
<totfact> 0.18236982E+03</totfact>
</mgrwt>
</event>
<event>
 5    0  0.1531977E+001  0.2621701E+03  0.7546771E-02  0.1105846E+00
         21   -1    0    0  503  501  0.00000000000E+00  0.00000000000E+00  0.30273157459E+03  0.30273157459E+03  0.00000000000E+00 0. -1.
         21   -1    0    0  501  502 -0.00000000000E+00 -0.00000000000E+00 -0.25999394461E+03  0.25999394461E+03  0.00000000000E+00 0. -1.
         25    1    1    2    0    0 -0.74039881749E+02 -0.21823441218E+03  0.14660111345E+03  0.30037484784E+03  0.12500000000E+03 0.  0.
         21    1    1    2  503  504  0.38656107908E+02  0.19209965050E+03 -0.93708698993E+02  0.21720472064E+03  0.00000000000E+00 0. -1.
         21    1    1    2  504  502  0.35383773841E+02  0.26134761680E+02 -0.10154784477E+02  0.45145950727E+02  0.00000000000E+00 0.  1.
<mgrwt>
<rscale>  4 0.26217010E+03</rscale>
<asrwt>0</asrwt>
<pdfrwt beam="1">  1       21 0.46574089E-01 0.26217010E+03</pdfrwt>
<pdfrwt beam="2">  1       21 0.39999068E-01 0.26217010E+03</pdfrwt>
<totfact> 0.25678684E+04</totfact>
</mgrwt>
</event>
<event>
 5    0  0.1531977E+001  0.2190249E+03  0.7546771E-02  0.1134612E+00
         21   -1    0    0  504  501  0.00000000000E+00  0.00000000000E+00  0.14873544195E+04  0.14873544195E+04  0.00000000000E+00 0. -1.
         21   -1    0    0  503  502 -0.00000000000E+00 -0.00000000000E+00 -0.10224936581E+03  0.10224936581E+03  0.00000000000E+00 0. -1.
         25    1    1    2    0    0  0.17559001671E+03  0.11750669126E+03  0.29365826002E+03  0.38275298841E+03  0.12500000000E+03 0.  0.
         21    1    1    2  503  501 -0.33620968094E+02 -0.14954647684E+02 -0.44351881690E+02  0.57628989167E+02  0.00000000000E+00 0. -1.
         21    1    1    2  504  502 -0.14196904861E+03 -0.10255204358E+03  0.11357986753E+04  0.11492218077E+04  0.00000000000E+00 0. -1.
<mgrwt>
<rscale>  4 0.21902487E+03</rscale>
<asrwt>0</asrwt>
<pdfrwt beam="1">  1       21 0.22882374E+00 0.21902487E+03</pdfrwt>
<pdfrwt beam="2">  1       21 0.15730673E-01 0.21902487E+03</pdfrwt>
<totfact> 0.31143867E+03</totfact>
</mgrwt>
</event>
<event>
 5    0  0.1531977E+001  0.2720142E+03  0.7546771E-02  0.1100132E+00
         21   -1    0    0  503  501  0.00000000000E+00  0.00000000000E+00  0.48231139210E+03  0.48231139210E+03  0.00000000000E+00 0.  1.
         21   -1    0    0  504  502 -0.00000000000E+00 -0.00000000000E+00 -0.35795304568E+03  0.35795304568E+03  0.00000000000E+00 0. -1.
         25    1    1    2    0    0 -0.12859038948E+03  0.22535576527E+03  0.24456595205E+03  0.37783357991E+03  0.12500000000E+03 0.  0.
         21    1    1    2  503  502 -0.54593875400E+02 -0.22901126909E+03 -0.14656674042E+03  0.27732374944E+03  0.00000000000E+00 0. -1.
         21    1    1    2  504  501  0.18318426488E+03  0.36555038240E+01  0.26359134793E+02  0.18510710844E+03  0.00000000000E+00 0.  1.
<mgrwt>
<rscale>  4 0.27201423E+03</rscale>
<asrwt>0</asrwt>
<pdfrwt beam="1">  1       21 0.74201753E-01 0.27201423E+03</pdfrwt>
<pdfrwt beam="2">  1       21 0.55069699E-01 0.27201423E+03</pdfrwt>
<totfact> 0.48011883E+03</totfact>
</mgrwt>
</event>
<event>
 5    0  0.1531977E+001  0.3519502E+03  0.7546771E-02  0.1061817E+00
         21   -1    0    0  503  501  0.00000000000E+00  0.00000000000E+00  0.27882116754E+03  0.27882116754E+03  0.00000000000E+00 0.  1.
         21   -1    0    0  504  502 -0.00000000000E+00 -0.00000000000E+00 -0.48930196679E+03  0.48930196679E+03  0.00000000000E+00 0.  1.
         25    1    1    2    0    0 -0.16946281764E+03  0.27272675243E+03 -0.10310492877E+02  0.34471558467E+03  0.12500000000E+03 0.  0.
         21    1    1    2  503  502  0.29244680353E+01  0.25146324924E+02 -0.37770067669E+02  0.45469420298E+02  0.00000000000E+00 0.  1.
         21    1    1    2  504  501  0.16653834960E+03 -0.29787307735E+03 -0.16240023871E+03  0.37793812937E+03  0.00000000000E+00 0.  1.
<mgrwt>
<rscale>  4 0.35195020E+03</rscale>
<asrwt>0</asrwt>
<pdfrwt beam="1">  1       21 0.42895564E-01 0.35195020E+03</pdfrwt>
<pdfrwt beam="2">  1       21 0.75277225E-01 0.35195020E+03</pdfrwt>
<totfact> 0.75625096E+03</totfact>
</mgrwt>
</event>
<event>
 5    0  0.1531977E+001  0.2494991E+03  0.7546771E-02  0.1113622E+00
         21   -1    0    0  502  501  0.00000000000E+00  0.00000000000E+00  0.35294794547E+03  0.35294794547E+03  0.00000000000E+00 0. -1.
         21   -1    0    0  504  502 -0.00000000000E+00 -0.00000000000E+00 -0.49044344955E+03  0.49044344955E+03  0.00000000000E+00 0. -1.
         25    1    1    2    0    0  0.11029065790E+03 -0.17246858298E+03 -0.33733168674E+03  0.41391678900E+03  0.12500000000E+03 0.  0.
         21    1    1    2  503  501 -0.11558060097E+03  0.26413513013E+03  0.14995147859E+03  0.32497951970E+03  0.00000000000E+00 0. -1.
         21    1    1    2  504  503  0.52899430685E+01 -0.91666547154E+02  0.49884704070E+02  0.10449508632E+03  0.00000000000E+00 0.  1.
<mgrwt>
<rscale>  4 0.24949905E+03</rscale>
<asrwt>0</asrwt>
<pdfrwt beam="1">  1       21 0.54299684E-01 0.24949905E+03</pdfrwt>
<pdfrwt beam="2">  1       21 0.75452839E-01 0.24949905E+03</pdfrwt>
<totfact> 0.48290349E+03</totfact>
</mgrwt>
</event>
<event>
 5    0  0.1531977E+001  0.2444403E+03  0.7546771E-02  0.1116870E+00
         21   -1    0    0  504  501  0.00000000000E+00  0.00000000000E+00  0.12433145779E+03  0.12433145779E+03  0.00000000000E+00 0.  1.
         21   -1    0    0  503  502 -0.00000000000E+00 -0.00000000000E+00 -0.87246166368E+03  0.87246166368E+03  0.00000000000E+00 0.  1.
         25    1    1    2    0    0  0.13217622206E+03  0.15156786178E+03 -0.36005014509E+02  0.23950935571E+03  0.12500000000E+03 0.  0.
         21    1    1    2  503  501 -0.16172810240E+03 -0.13677329652E+03 -0.67561059287E+03  0.70803431199E+03  0.00000000000E+00 0.  1.
         21    1    1    2  504  502  0.29551880346E+02 -0.14794565257E+02 -0.36514598509E+02  0.49249453778E+02  0.00000000000E+00 0. -1.
<mgrwt>
<rscale>  4 0.24444030E+03</rscale>
<asrwt>0</asrwt>
<pdfrwt beam="1">  1       21 0.19127916E-01 0.24444030E+03</pdfrwt>
<pdfrwt beam="2">  1       21 0.13422488E+00 0.24444030E+03</pdfrwt>
<totfact> 0.96540209E+03</totfact>
</mgrwt>
</event>
<event>
 5    0  0.1531977E+001  0.4815001E+03  0.7546771E-02  0.1018724E+00
         21   -1    0    0  503  501  0.00000000000E+00  0.00000000000E+00  0.13282974541E+04  0.13282974541E+04  0.00000000000E+00 0. -1.
         21   -1    0    0  504  502 -0.00000000000E+00 -0.00000000000E+00 -0.21048403202E+03  0.21048403202E+03  0.00000000000E+00 0.  1.
         25    1    1    2    0    0  0.41433960875E+03  0.18553738228E+03  0.84716104745E+03  0.96923076298E+03  0.12500000000E+03 0.  0.
         21    1    1    2  503  502 -0.43687830898E+03 -0.17257936634E+03  0.23447264843E+03  0.52499877848E+03  0.00000000000E+00 0.  1.
         21    1    1    2  504  501  0.22538700227E+02 -0.12958015936E+02  0.36179726222E+02  0.44551944676E+02  0.00000000000E+00 0.  1.
<mgrwt>
<rscale>  4 0.48150009E+03</rscale>
<asrwt>0</asrwt>
<pdfrwt beam="1">  1       21 0.20435345E+00 0.48150009E+03</pdfrwt>
<pdfrwt beam="2">  1       21 0.32382159E-01 0.48150009E+03</pdfrwt>
<totfact> 0.94889035E+02</totfact>
</mgrwt>
</event>
<event>
 5    0  0.1531977E+001  0.2096051E+03  0.7546771E-02  0.1141879E+00
         21   -1    0    0  502  501  0.00000000000E+00  0.00000000000E+00  0.46325932737E+03  0.46325932737E+03  0.00000000000E+00 0. -1.
         21   -1    0    0  504  502 -0.00000000000E+00 -0.00000000000E+00 -0.11150998172E+04  0.11150998172E+04  0.00000000000E+00 0. -1.
         25    1    1    2    0    0 -0.20644784792E+03 -0.12309796014E+03  0.37629652870E+03  0.46367865944E+03  0.12500000000E+03 0.  0.
         21    1    1    2  503  501  0.76692026419E+02  0.17764470303E+02 -0.59788100836E+01  0.78949284300E+02  0.00000000000E+00 0. -1.
         21    1    1    2  504  503  0.12975582150E+03  0.10533348983E+03 -0.10221582084E+04  0.10357312008E+04  0.00000000000E+00 0. -1.
<mgrwt>
<rscale>  4 0.20960506E+03</rscale>
<asrwt>0</asrwt>
<pdfrwt beam="1">  1       21 0.71270666E-01 0.20960506E+03</pdfrwt>
<pdfrwt beam="2">  1       21 0.17155382E+00 0.20960506E+03</pdfrwt>
<totfact> 0.36323424E+02</totfact>
</mgrwt>
</event>
<event>
 5    0  0.1531977E+001  0.3818111E+03  0.7546771E-02  0.1050266E+00
         21   -1    0    0  502  501  0.00000000000E+00  0.00000000000E+00  0.38143150264E+03  0.38143150264E+03  0.00000000000E+00 0.  1.
         21   -1    0    0  504  502 -0.00000000000E+00 -0.00000000000E+00 -0.56100225677E+03  0.56100225677E+03  0.00000000000E+00 0.  1.
         25    1    1    2    0    0  0.82690340741E+02 -0.38768151016E+03 -0.17887792968E+03  0.45250078398E+03  0.12500000000E+03 0.  0.
         21    1    1    2  503  501 -0.15748572807E+02  0.63809060422E+02  0.12086790496E+03  0.13758148199E+03  0.00000000000E+00 0.  1.
         21    1    1    2  504  503 -0.66941767934E+02  0.32387244974E+03 -0.12156072941E+03  0.35235149344E+03  0.00000000000E+00 0.  1.
<mgrwt>
<rscale>  4 0.38181111E+03</rscale>
<asrwt>0</asrwt>
<pdfrwt beam="1">  1       21 0.58681770E-01 0.38181111E+03</pdfrwt>
<pdfrwt beam="2">  1       21 0.86308039E-01 0.38181111E+03</pdfrwt>
<totfact> 0.28058850E+03</totfact>
</mgrwt>
</event>
<event>
 5    0  0.1531977E+001  0.2992602E+03  0.7546771E-02  0.1085611E+00
         21   -1    0    0  502  501  0.00000000000E+00  0.00000000000E+00  0.56834711160E+03  0.56834711160E+03  0.00000000000E+00 0.  1.
         21   -1    0    0  504  502 -0.00000000000E+00 -0.00000000000E+00 -0.17432899818E+03  0.17432899818E+03  0.00000000000E+00 0.  1.
         25    1    1    2    0    0  0.27540420478E+03  0.82068346815E+02  0.13336445555E+03  0.34057857767E+03  0.12500000000E+03 0.  0.
         21    1    1    2  503  501 -0.24671727548E+03 -0.93774687736E+02  0.26088667221E+03  0.37111313884E+03  0.00000000000E+00 0.  1.
         21    1    1    2  504  503 -0.28686929306E+02  0.11706340921E+02 -0.23301434650E+00  0.30984393273E+02  0.00000000000E+00 0. -1.
<mgrwt>
<rscale>  4 0.29926016E+03</rscale>
<asrwt>0</asrwt>
<pdfrwt beam="1">  1       21 0.87438016E-01 0.29926016E+03</pdfrwt>
<pdfrwt beam="2">  1       21 0.26819846E-01 0.29926016E+03</pdfrwt>
<totfact> 0.14038749E+04</totfact>
</mgrwt>
</event>
<event>
 5    0  0.1531977E+001  0.1880673E+03  0.7546771E-02  0.1160216E+00
         21   -1    0    0  502  501  0.00000000000E+00  0.00000000000E+00  0.11108829416E+04  0.11108829416E+04  0.00000000000E+00 0.  1.
         21   -1    0    0  504  502 -0.00000000000E+00 -0.00000000000E+00 -0.58151750393E+03  0.58151750393E+03  0.00000000000E+00 0.  1.
         25    1    1    2    0    0  0.22238268336E+03  0.82029392343E+02  0.31123715705E+03  0.41070238251E+03  0.12500000000E+03 0.  0.
         21    1    1    2  503  501 -0.89584904659E+02 -0.44067275992E+02  0.73752468240E+03  0.74425132657E+03  0.00000000000E+00 0.  1.
         21    1    1    2  504  503 -0.13279777871E+03 -0.37962116351E+02 -0.51939640180E+03  0.53744673644E+03  0.00000000000E+00 0.  1.
<mgrwt>
<rscale>  4 0.18806727E+03</rscale>
<asrwt>0</asrwt>
<pdfrwt beam="1">  1       21 0.17090507E+00 0.18806727E+03</pdfrwt>
<pdfrwt beam="2">  1       21 0.89464231E-01 0.18806727E+03</pdfrwt>
<totfact> 0.22534072E+02</totfact>
</mgrwt>
</event>
<event>
 5    0  0.1531977E+001  0.2205712E+03  0.7546771E-02  0.1133458E+00
         21   -1    0    0  504  501  0.00000000000E+00  0.00000000000E+00  0.65107827526E+03  0.65107827526E+03  0.00000000000E+00 0.  1.
         21   -1    0    0  503  502 -0.00000000000E+00 -0.00000000000E+00 -0.89215243033E+02  0.89215243033E+02  0.00000000000E+00 0.  1.
         25    1    1    2    0    0 -0.14997209398E+03 -0.13972225680E+03  0.21193813397E+03  0.32024476678E+03  0.12500000000E+03 0.  0.
         21    1    1    2  503  501  0.10973431172E+03  0.12173533119E+03  0.17544301319E+03  0.24008615309E+03  0.00000000000E+00 0.  1.
         21    1    1    2  504  502  0.40237782267E+02  0.17986925610E+02  0.17448188506E+03  0.17996259842E+03  0.00000000000E+00 0.  1.
<mgrwt>
<rscale>  4 0.22057119E+03</rscale>
<asrwt>0</asrwt>
<pdfrwt beam="1">  1       21 0.10016589E+00 0.22057119E+03</pdfrwt>
<pdfrwt beam="2">  1       21 0.13725422E-01 0.22057119E+03</pdfrwt>
<totfact> 0.37132008E+04</totfact>
</mgrwt>
</event>
<event>
 5    0  0.1531977E+001  0.3301276E+03  0.7546771E-02  0.1071080E+00
         21   -1    0    0  502  501  0.00000000000E+00  0.00000000000E+00  0.21561769791E+03  0.21561769791E+03  0.00000000000E+00 0. -1.
         21   -1    0    0  504  502 -0.00000000000E+00 -0.00000000000E+00 -0.23810566312E+04  0.23810566312E+04  0.00000000000E+00 0.  1.
         25    1    1    2    0    0  0.51892548399E+02  0.22908637483E+03 -0.18917063233E+03  0.32647194649E+03  0.12500000000E+03 0.  0.
         21    1    1    2  503  501  0.84430001816E+02  0.59162339513E+02  0.11518409511E+03  0.15458325714E+03  0.00000000000E+00 0. -1.
         21    1    1    2  504  503 -0.13632255022E+03 -0.28824871434E+03 -0.20914523961E+04  0.21156191255E+04  0.00000000000E+00 0.  1.
<mgrwt>
<rscale>  4 0.33012757E+03</rscale>
<asrwt>0</asrwt>
<pdfrwt beam="1">  1       21 0.33171954E-01 0.33012757E+03</pdfrwt>
<pdfrwt beam="2">  1       21 0.36631640E+00 0.33012757E+03</pdfrwt>
<totfact> 0.10223559E+02</totfact>
</mgrwt>
</event>
<event>
 5    0  0.1531977E+001  0.2602533E+03  0.7546771E-02  0.1106991E+00
         21   -1    0    0  503  501  0.00000000000E+00  0.00000000000E+00  0.93267789274E+02  0.93267789274E+02  0.00000000000E+00 0. -1.
         21   -1    0    0  501  502 -0.00000000000E+00 -0.00000000000E+00 -0.85403906559E+03  0.85403906559E+03  0.00000000000E+00 0. -1.
         25    1    1    2    0    0 -0.18505666088E+03  0.14434567795E+03 -0.45265157405E+03  0.52497627563E+03  0.12500000000E+03 0.  0.
         21    1    1    2  503  504  0.19996546751E+03 -0.10075183154E+03 -0.30185012195E+03  0.37583322880E+03  0.00000000000E+00 0. -1.
         21    1    1    2  504  502 -0.14908806629E+02 -0.43593846411E+02 -0.62695803129E+01  0.46497350433E+02  0.00000000000E+00 0. -1.
<mgrwt>
<rscale>  4 0.26025334E+03</rscale>
<asrwt>0</asrwt>
<pdfrwt beam="1">  1       21 0.14348891E-01 0.26025334E+03</pdfrwt>
<pdfrwt beam="2">  1       21 0.13139063E+00 0.26025334E+03</pdfrwt>
<totfact> 0.17190699E+04</totfact>
</mgrwt>
</event>
<event>
 5    0  0.1531977E+001  0.2780194E+03  0.7546771E-02  0.1096776E+00
         21   -1    0    0  503  501  0.00000000000E+00  0.00000000000E+00  0.35831081238E+03  0.35831081238E+03  0.00000000000E+00 0. -1.
         21   -1    0    0  504  502 -0.00000000000E+00 -0.00000000000E+00 -0.57766699448E+03  0.57766699448E+03  0.00000000000E+00 0.  1.
         25    1    1    2    0    0 -0.24015440962E+03 -0.11185667012E+02  0.36430674036E+02  0.27340712064E+03  0.12500000000E+03 0.  0.
         21    1    1    2  503  502 -0.88166178391E+01 -0.45163894289E+02 -0.37713178288E+03  0.37992879827E+03  0.00000000000E+00 0. -1.
         21    1    1    2  504  501  0.24897102746E+03  0.56349561300E+02  0.12134492675E+03  0.28264188795E+03  0.00000000000E+00 0. -1.
<mgrwt>
<rscale>  4 0.27801943E+03</rscale>
<asrwt>0</asrwt>
<pdfrwt beam="1">  1       21 0.55124741E-01 0.27801943E+03</pdfrwt>
<pdfrwt beam="2">  1       21 0.88871844E-01 0.27801943E+03</pdfrwt>
<totfact> 0.31587851E+03</totfact>
</mgrwt>
</event>
<event>
 5    0  0.1531977E+001  0.2524687E+03  0.7546771E-02  0.1111755E+00
         21   -1    0    0  502  501  0.00000000000E+00  0.00000000000E+00  0.89389718697E+02  0.89389718697E+02  0.00000000000E+00 0.  1.
         21   -1    0    0  504  502 -0.00000000000E+00 -0.00000000000E+00 -0.11533190329E+04  0.11533190329E+04  0.00000000000E+00 0. -1.
         25    1    1    2    0    0 -0.53107764517E+02  0.22270655015E+03 -0.17912465495E+03  0.31643211617E+03  0.12500000000E+03 0.  0.
         21    1    1    2  503  501  0.37522532711E+02 -0.53537701993E+01 -0.45872146093E+02  0.59505101492E+02  0.00000000000E+00 0.  1.
         21    1    1    2  504  503  0.15585231806E+02 -0.21735277995E+03 -0.83893251317E+03  0.86677153395E+03  0.00000000000E+00 0. -1.
<mgrwt>
<rscale>  4 0.25246868E+03</rscale>
<asrwt>0</asrwt>
<pdfrwt beam="1">  1       21 0.13752264E-01 0.25246868E+03</pdfrwt>
<pdfrwt beam="2">  1       21 0.17743370E+00 0.25246868E+03</pdfrwt>
<totfact> 0.83262976E+03</totfact>
</mgrwt>
</event>
<event>
 5    0  0.1531977E+001  0.5598777E+03  0.7546771E-02  0.9992332E-01
         21   -1    0    0  502  501  0.00000000000E+00  0.00000000000E+00  0.13908792189E+04  0.13908792189E+04  0.00000000000E+00 0. -1.
         21   -1    0    0  504  502 -0.00000000000E+00 -0.00000000000E+00 -0.15075607954E+04  0.15075607954E+04  0.00000000000E+00 0. -1.
         25    1    1    2    0    0 -0.54705739008E+03 -0.77879412460E+02  0.85377071468E+03  0.10246396558E+04  0.12500000000E+03 0.  0.
         21    1    1    2  503  501  0.41395256513E+01  0.25947159823E+02  0.39893511201E+03  0.39979946770E+03  0.00000000000E+00 0.  1.
         21    1    1    2  504  503  0.54291786443E+03  0.51932252637E+02 -0.13693874032E+04  0.14740008909E+04  0.00000000000E+00 0. -1.
<mgrwt>
<rscale>  4 0.55987765E+03</rscale>
<asrwt>0</asrwt>
<pdfrwt beam="1">  1       21 0.21398142E+00 0.55987765E+03</pdfrwt>
<pdfrwt beam="2">  1       21 0.23193243E+00 0.55987765E+03</pdfrwt>
<totfact> 0.63114392E+00</totfact>
</mgrwt>
</event>
<event>
 5    0  0.1531977E+001  0.4805442E+03  0.7546771E-02  0.1018986E+00
         21   -1    0    0  502  501  0.00000000000E+00  0.00000000000E+00  0.13581422970E+04  0.13581422970E+04  0.00000000000E+00 0. -1.
         21   -1    0    0  504  502 -0.00000000000E+00 -0.00000000000E+00 -0.99112356803E+03  0.99112356803E+03  0.00000000000E+00 0. -1.
         25    1    1    2    0    0 -0.40627555571E+03  0.26820447775E+03 -0.83495492937E+03  0.97456051794E+03  0.12500000000E+03 0.  0.
         21    1    1    2  503  501  0.38487636289E+03 -0.25728113304E+03  0.12434154359E+04  0.13268026765E+04  0.00000000000E+00 0. -1.
         21    1    1    2  504  503  0.21399192818E+02 -0.10923344705E+02 -0.41441777617E+02  0.47902670540E+02  0.00000000000E+00 0. -1.
<mgrwt>
<rscale>  4 0.48054424E+03</rscale>
<asrwt>0</asrwt>
<pdfrwt beam="1">  1       21 0.20894497E+00 0.48054424E+03</pdfrwt>
<pdfrwt beam="2">  1       21 0.15248055E+00 0.48054424E+03</pdfrwt>
<totfact> 0.25351344E+01</totfact>
</mgrwt>
</event>
<event>
 5    0  0.1531977E+001  0.2387983E+03  0.7546771E-02  0.1120596E+00
         21   -1    0    0  502  501  0.00000000000E+00  0.00000000000E+00  0.89374939833E+03  0.89374939833E+03  0.00000000000E+00 0. -1.
         21   -1    0    0  504  502 -0.00000000000E+00 -0.00000000000E+00 -0.60659518018E+02  0.60659518018E+02  0.00000000000E+00 0. -1.
         25    1    1    2    0    0 -0.37293587625E+01 -0.20343477845E+03  0.56441111841E+03  0.61284951480E+03  0.12500000000E+03 0.  0.
         21    1    1    2  503  501  0.26899951411E+01  0.17976388046E+03  0.26045474341E+03  0.31647900745E+03  0.00000000000E+00 0. -1.
         21    1    1    2  504  503  0.10393636214E+01  0.23670897987E+02  0.82240184918E+01  0.25080394104E+02  0.00000000000E+00 0. -1.
<mgrwt>
<rscale>  4 0.23879828E+03</rscale>
<asrwt>0</asrwt>
<pdfrwt beam="1">  1       21 0.13749990E+00 0.23879828E+03</pdfrwt>
<pdfrwt beam="2">  1       21 0.93322342E-02 0.23879828E+03</pdfrwt>
<totfact> 0.33485039E+04</totfact>
</mgrwt>
</event>
<event>
 5    0  0.1531977E+001  0.2930768E+03  0.7546771E-02  0.1088754E+00
         21   -1    0    0  503  501  0.00000000000E+00  0.00000000000E+00  0.37423217751E+03  0.37423217751E+03  0.00000000000E+00 0. -1.
         21   -1    0    0  501  502 -0.00000000000E+00 -0.00000000000E+00 -0.27026048759E+03  0.27026048759E+03  0.00000000000E+00 0.  1.
         25    1    1    2    0    0  0.21928874002E+03 -0.59121806216E+02  0.76561334891E+02  0.27031384994E+03  0.12500000000E+03 0.  0.
         21    1    1    2  503  504 -0.28487258996E+03  0.85326437921E+02 -0.27340757931E+01  0.29738942262E+03  0.00000000000E+00 0. -1.
         21    1    1    2  504  502  0.65583849934E+02 -0.26204631705E+02  0.30144430827E+02  0.76789392528E+02  0.00000000000E+00 0.  1.
<mgrwt>
<rscale>  4 0.29307682E+03</rscale>
<asrwt>0</asrwt>
<pdfrwt beam="1">  1       21 0.57574181E-01 0.29307682E+03</pdfrwt>
<pdfrwt beam="2">  1       21 0.41578536E-01 0.29307682E+03</pdfrwt>
<totfact> 0.14947940E+04</totfact>
</mgrwt>
</event>
<event>
 5    0  0.1531977E+001  0.3812501E+03  0.7546771E-02  0.1050473E+00
         21   -1    0    0  502  501  0.00000000000E+00  0.00000000000E+00  0.17810372399E+03  0.17810372399E+03  0.00000000000E+00 0.  1.
         21   -1    0    0  504  502 -0.00000000000E+00 -0.00000000000E+00 -0.11397827410E+04  0.11397827410E+04  0.00000000000E+00 0.  1.
         25    1    1    2    0    0  0.30432478592E+03 -0.44700876893E+02 -0.31828035479E+03  0.45993382998E+03  0.12500000000E+03 0.  0.
         21    1    1    2  503  501  0.10836289615E+03  0.76540242632E+02 -0.67818703067E+02  0.14899765935E+03  0.00000000000E+00 0.  1.
         21    1    1    2  504  503 -0.41268768207E+03 -0.31839365739E+02 -0.57557995918E+03  0.70895497569E+03  0.00000000000E+00 0.  1.
<mgrwt>
<rscale>  4 0.38125006E+03</rscale>
<asrwt>0</asrwt>
<pdfrwt beam="1">  1       21 0.27400572E-01 0.38125006E+03</pdfrwt>
<pdfrwt beam="2">  1       21 0.17535120E+00 0.38125006E+03</pdfrwt>
<totfact> 0.21858297E+03</totfact>
</mgrwt>
</event>
<event>
 5    0  0.1531977E+001  0.2096749E+03  0.7546771E-02  0.1141824E+00
         21   -1    0    0  503  501  0.00000000000E+00  0.00000000000E+00  0.57510134174E+03  0.57510134174E+03  0.00000000000E+00 0.  1.
         21   -1    0    0  504  502 -0.00000000000E+00 -0.00000000000E+00 -0.10948975199E+04  0.10948975199E+04  0.00000000000E+00 0.  1.
         25    1    1    2    0    0 -0.17866070318E+03 -0.16851648071E+03 -0.50703197835E+03  0.57708221095E+03  0.12500000000E+03 0.  0.
         21    1    1    2  503  502  0.52021015618E+02  0.60407950360E+02 -0.53699363107E+03  0.54287886894E+03  0.00000000000E+00 0.  1.
         21    1    1    2  504  501  0.12663968756E+03  0.10810853035E+03  0.52422943124E+03  0.55003778177E+03  0.00000000000E+00 0.  1.
<mgrwt>
<rscale>  4 0.20967493E+03</rscale>
<asrwt>0</asrwt>
<pdfrwt beam="1">  1       21 0.88477130E-01 0.20967493E+03</pdfrwt>
<pdfrwt beam="2">  1       21 0.16844577E+00 0.20967493E+03</pdfrwt>
<totfact> 0.23417645E+02</totfact>
</mgrwt>
</event>
<event>
 5    0  0.1531977E+001  0.4306800E+03  0.7546771E-02  0.1033645E+00
         21   -1    0    0  502  501  0.00000000000E+00  0.00000000000E+00  0.30415808163E+03  0.30415808163E+03  0.00000000000E+00 0.  1.
         21   -1    0    0  504  502 -0.00000000000E+00 -0.00000000000E+00 -0.14152900547E+04  0.14152900547E+04  0.00000000000E+00 0. -1.
         25    1    1    2    0    0 -0.20119172531E+03 -0.38615896239E+03  0.18024126087E+02  0.45337261022E+03  0.12500000000E+03 0.  0.
         21    1    1    2  503  501  0.13955512044E+02  0.22891629075E+02  0.28063231526E+02  0.38811441120E+02  0.00000000000E+00 0.  1.
         21    1    1    2  504  503  0.18723621327E+03  0.36326733332E+03 -0.11572193307E+04  0.12272640850E+04  0.00000000000E+00 0. -1.
<mgrwt>
<rscale>  4 0.43067996E+03</rscale>
<asrwt>0</asrwt>
<pdfrwt beam="1">  1       21 0.46793552E-01 0.43067996E+03</pdfrwt>
<pdfrwt beam="2">  1       21 0.21773693E+00 0.43067996E+03</pdfrwt>
<totfact> 0.37361827E+02</totfact>
</mgrwt>
</event>
<event>
 5    0  0.1531977E+001  0.2302943E+03  0.7546771E-02  0.1126433E+00
         21   -1    0    0  502  501  0.00000000000E+00  0.00000000000E+00  0.50229088051E+03  0.50229088051E+03  0.00000000000E+00 0.  1.
         21   -1    0    0  504  502 -0.00000000000E+00 -0.00000000000E+00 -0.30612544055E+03  0.30612544055E+03  0.00000000000E+00 0.  1.
         25    1    1    2    0    0 -0.22567979275E+03  0.19770454879E+03  0.11863499438E+03  0.34600248462E+03  0.12500000000E+03 0.  0.
         21    1    1    2  503  501  0.11119828196E+03 -0.66873996306E+02  0.20793051836E+03  0.24509649071E+03  0.00000000000E+00 0.  1.
         21    1    1    2  504  503  0.11448151079E+03 -0.13083055249E+03 -0.13040007278E+03  0.21731734574E+03  0.00000000000E+00 0.  1.
<mgrwt>
<rscale>  4 0.23029426E+03</rscale>
<asrwt>0</asrwt>
<pdfrwt beam="1">  1       21 0.77275520E-01 0.23029426E+03</pdfrwt>
<pdfrwt beam="2">  1       21 0.47096222E-01 0.23029426E+03</pdfrwt>
<totfact> 0.62460273E+03</totfact>
</mgrwt>
</event>
<event>
 5    0  0.1531977E+001  0.1998909E+03  0.7546771E-02  0.1149831E+00
         21   -1    0    0  502  501  0.00000000000E+00  0.00000000000E+00  0.58439929315E+03  0.58439929315E+03  0.00000000000E+00 0. -1.
         21   -1    0    0  504  502 -0.00000000000E+00 -0.00000000000E+00 -0.19464517949E+03  0.19464517949E+03  0.00000000000E+00 0. -1.
         25    1    1    2    0    0 -0.20079318522E+03 -0.82791023814E+02 -0.36248301205E+01  0.25062002364E+03  0.12500000000E+03 0.  0.
         21    1    1    2  503  501  0.14909752056E+03  0.19223474658E+02  0.41690353732E+03  0.44317961601E+03  0.00000000000E+00 0. -1.
         21    1    1    2  504  503  0.51695664661E+02  0.63567549157E+02 -0.23524593546E+02  0.85244832993E+02  0.00000000000E+00 0. -1.
<mgrwt>
<rscale>  4 0.19989092E+03</rscale>
<asrwt>0</asrwt>
<pdfrwt beam="1">  1       21 0.89907583E-01 0.19989092E+03</pdfrwt>
<pdfrwt beam="2">  1       21 0.29945412E-01 0.19989092E+03</pdfrwt>
<totfact> 0.11205949E+04</totfact>
</mgrwt>
</event>
<event>
 5    0  0.1531977E+001  0.2590667E+03  0.7546771E-02  0.1107705E+00
         21   -1    0    0  503  501  0.00000000000E+00  0.00000000000E+00  0.65720537882E+03  0.65720537882E+03  0.00000000000E+00 0.  1.
         21   -1    0    0  504  502 -0.00000000000E+00 -0.00000000000E+00 -0.16789927732E+04  0.16789927732E+04  0.00000000000E+00 0.  1.
         25    1    1    2    0    0  0.21632584459E+03 -0.86012664901E+01  0.59446959713E+03  0.64489530525E+03  0.12500000000E+03 0.  0.
         21    1    1    2  503  502 -0.22443965067E+03  0.34421345438E+02 -0.16397908366E+04  0.16554370945E+04  0.00000000000E+00 0.  1.
         21    1    1    2  504  501  0.81138060838E+01 -0.25820078948E+02  0.23533845100E+02  0.35865752345E+02  0.00000000000E+00 0. -1.
<mgrwt>
<rscale>  4 0.25906666E+03</rscale>
<asrwt>0</asrwt>
<pdfrwt beam="1">  1       21 0.10110852E+00 0.25906666E+03</pdfrwt>
<pdfrwt beam="2">  1       21 0.25830658E+00 0.25906666E+03</pdfrwt>
<totfact> 0.43210579E+01</totfact>
</mgrwt>
</event>
<event>
 5    0  0.1531977E+001  0.2399960E+03  0.7546771E-02  0.1119796E+00
         21   -1    0    0  503  501  0.00000000000E+00  0.00000000000E+00  0.17273985827E+04  0.17273985827E+04  0.00000000000E+00 0.  1.
         21   -1    0    0  504  502 -0.00000000000E+00 -0.00000000000E+00 -0.58625174155E+02  0.58625174155E+02  0.00000000000E+00 0. -1.
         25    1    1    2    0    0 -0.24719670398E+03 -0.41860331794E+02  0.12882347745E+04  0.13183445422E+04  0.12500000000E+03 0.  0.
         21    1    1    2  503  502  0.19229952905E+03  0.39367874152E+02  0.20534748963E+03  0.28407134647E+03  0.00000000000E+00 0. -1.
         21    1    1    2  504  501  0.54897174931E+02  0.24924576411E+01  0.17519114445E+03  0.18360786817E+03  0.00000000000E+00 0.  1.
<mgrwt>
<rscale>  4 0.23999595E+03</rscale>
<asrwt>0</asrwt>
<pdfrwt beam="1">  1       21 0.26575359E+00 0.23999595E+03</pdfrwt>
<pdfrwt beam="2">  1       21 0.90192589E-02 0.23999595E+03</pdfrwt>
<totfact> 0.49990004E+03</totfact>
</mgrwt>
</event>
<event>
 5    0  0.1531977E+001  0.2948581E+03  0.7546771E-02  0.1087840E+00
         21   -1    0    0  504  501  0.00000000000E+00  0.00000000000E+00  0.90522459951E+03  0.90522459951E+03  0.00000000000E+00 0.  1.
         21   -1    0    0  503  502 -0.00000000000E+00 -0.00000000000E+00 -0.26246390644E+03  0.26246390644E+03  0.00000000000E+00 0.  1.
         25    1    1    2    0    0  0.93478633457E+02  0.24421258004E+03  0.65586871218E+03  0.71705425651E+03  0.12500000000E+03 0.  0.
         21    1    1    2  503  501 -0.12810621242E+03 -0.23530901224E+03 -0.15143821501E+03  0.30775812884E+03  0.00000000000E+00 0.  1.
         21    1    1    2  504  502  0.34627578965E+02 -0.89035678029E+01  0.13833019589E+03  0.14287612060E+03  0.00000000000E+00 0.  1.
<mgrwt>
<rscale>  4 0.29485812E+03</rscale>
<asrwt>0</asrwt>
<pdfrwt beam="1">  1       21 0.13926532E+00 0.29485812E+03</pdfrwt>
<pdfrwt beam="2">  1       21 0.40379063E-01 0.29485812E+03</pdfrwt>
<totfact> 0.19814876E+03</totfact>
</mgrwt>
</event>
<event>
 5    0  0.1531977E+001  0.2244475E+03  0.7546771E-02  0.1130610E+00
         21   -1    0    0  502  501  0.00000000000E+00  0.00000000000E+00  0.18807685552E+04  0.18807685552E+04  0.00000000000E+00 0.  1.
         21   -1    0    0  504  502 -0.00000000000E+00 -0.00000000000E+00 -0.53748809757E+02  0.53748809757E+02  0.00000000000E+00 0.  1.
         25    1    1    2    0    0 -0.34299113773E+02  0.22662040737E+03  0.12344362605E+04  0.12617413045E+04  0.12500000000E+03 0.  0.
         21    1    1    2  503  501 -0.86902360159E+01 -0.52472526168E+02  0.42167309901E+03  0.42501422168E+03  0.00000000000E+00 0.  1.
         21    1    1    2  504  503  0.42989349789E+02 -0.17414788120E+03  0.17091038587E+03  0.24776183871E+03  0.00000000000E+00 0.  1.
<mgrwt>
<rscale>  4 0.22444746E+03</rscale>
<asrwt>0</asrwt>
<pdfrwt beam="1">  1       21 0.28934896E+00 0.22444746E+03</pdfrwt>
<pdfrwt beam="2">  1       21 0.82690491E-02 0.22444746E+03</pdfrwt>
<totfact> 0.43027671E+03</totfact>
</mgrwt>
</event>
<event>
 5    0  0.1531977E+001  0.2823825E+03  0.7546771E-02  0.1094395E+00
         21   -1    0    0  504  501  0.00000000000E+00  0.00000000000E+00  0.72722073216E+03  0.72722073216E+03  0.00000000000E+00 0.  1.
         21   -1    0    0  503  502 -0.00000000000E+00 -0.00000000000E+00 -0.17869808318E+03  0.17869808318E+03  0.00000000000E+00 0.  1.
         25    1    1    2    0    0 -0.45808623003E+02  0.25589993074E+03  0.15320878470E+02  0.28886490581E+03  0.12500000000E+03 0.  0.
         21    1    1    2  503  501 -0.24810527462E+02 -0.13933267225E+02  0.13405446928E+01  0.28486756020E+02  0.00000000000E+00 0. -1.
         21    1    1    2  504  502  0.70619150465E+02 -0.24196666351E+03  0.53186122582E+03  0.58856715351E+03  0.00000000000E+00 0.  1.
<mgrwt>
<rscale>  4 0.28238252E+03</rscale>
<asrwt>0</asrwt>
<pdfrwt beam="1">  1       21 0.11188011E+00 0.28238252E+03</pdfrwt>
<pdfrwt beam="2">  1       21 0.27492013E-01 0.28238252E+03</pdfrwt>
<totfact> 0.74745757E+03</totfact>
</mgrwt>
</event>
<event>
 5    0  0.1531977E+001  0.2769292E+03  0.7546771E-02  0.1097378E+00
         21   -1    0    0  504  501  0.00000000000E+00  0.00000000000E+00  0.41728850980E+03  0.41728850980E+03  0.00000000000E+00 0.  1.
         21   -1    0    0  501  502 -0.00000000000E+00 -0.00000000000E+00 -0.20893722249E+03  0.20893722249E+03  0.00000000000E+00 0.  1.
         25    1    1    2    0    0  0.23457192911E+03  0.94823454824E+02  0.54025186498E+02  0.28733116484E+03  0.12500000000E+03 0.  0.
         21    1    1    2  503  502 -0.21806519084E+03 -0.11014088105E+03  0.18095544379E+03  0.30402025224E+03  0.00000000000E+00 0.  1.
         21    1    1    2  504  503 -0.16506738272E+02  0.15317426229E+02 -0.26629342972E+02  0.34874315216E+02  0.00000000000E+00 0. -1.
<mgrwt>
<rscale>  4 0.27692918E+03</rscale>
<asrwt>0</asrwt>
<pdfrwt beam="1">  1       21 0.64198232E-01 0.27692918E+03</pdfrwt>
<pdfrwt beam="2">  1       21 0.32144188E-01 0.27692918E+03</pdfrwt>
<totfact> 0.19954942E+04</totfact>
</mgrwt>
</event>
<event>
 5    0  0.1531977E+001  0.2872404E+03  0.7546771E-02  0.1091799E+00
         21   -1    0    0  503  501  0.00000000000E+00  0.00000000000E+00  0.28079502738E+03  0.28079502738E+03  0.00000000000E+00 0. -1.
         21   -1    0    0  501  502 -0.00000000000E+00 -0.00000000000E+00 -0.60506416545E+03  0.60506416545E+03  0.00000000000E+00 0. -1.
         25    1    1    2    0    0  0.22990024751E+03 -0.13818129447E+03 -0.43154248527E+03  0.52326103480E+03  0.12500000000E+03 0.  0.
         21    1    1    2  503  504  0.68813721507E+01  0.10639740187E+03  0.21527822908E+02  0.10877135453E+03  0.00000000000E+00 0. -1.
         21    1    1    2  504  502 -0.23678161966E+03  0.31783892604E+02  0.85745524293E+02  0.25382680350E+03  0.00000000000E+00 0. -1.
<mgrwt>
<rscale>  4 0.28724039E+03</rscale>
<asrwt>0</asrwt>
<pdfrwt beam="1">  1       21 0.43199235E-01 0.28724039E+03</pdfrwt>
<pdfrwt beam="2">  1       21 0.93086795E-01 0.28724039E+03</pdfrwt>
<totfact> 0.47006552E+03</totfact>
</mgrwt>
</event>
<event>
 5    0  0.1531977E+001  0.2791363E+03  0.7546771E-02  0.1096162E+00
         21   -1    0    0  504  501  0.00000000000E+00  0.00000000000E+00  0.92247918932E+03  0.92247918932E+03  0.00000000000E+00 0.  1.
         21   -1    0    0  503  502 -0.00000000000E+00 -0.00000000000E+00 -0.10619090035E+03  0.10619090035E+03  0.00000000000E+00 0.  1.
         25    1    1    2    0    0 -0.99199381443E+02  0.22902307712E+03  0.15821004109E+03  0.32085433491E+03  0.12500000000E+03 0.  0.
         21    1    1    2  503  501 -0.74241416556E+01 -0.28936400011E+02  0.43667437850E+02  0.52908205916E+02  0.00000000000E+00 0. -1.
         21    1    1    2  504  502  0.10662352310E+03 -0.20008667711E+03  0.61441081003E+03  0.65490754884E+03  0.00000000000E+00 0.  1.
<mgrwt>
<rscale>  4 0.27913632E+03</rscale>
<asrwt>0</asrwt>
<pdfrwt beam="1">  1       21 0.14191987E+00 0.27913632E+03</pdfrwt>
<pdfrwt beam="2">  1       21 0.16337062E-01 0.27913632E+03</pdfrwt>
<totfact> 0.10982506E+04</totfact>
</mgrwt>
</event>
<event>
 5    0  0.1531977E+001  0.3550393E+03  0.7546771E-02  0.1060565E+00
         21   -1    0    0  504  501  0.00000000000E+00  0.00000000000E+00  0.61488560435E+03  0.61488560435E+03  0.00000000000E+00 0. -1.
         21   -1    0    0  501  502 -0.00000000000E+00 -0.00000000000E+00 -0.29124063896E+03  0.29124063896E+03  0.00000000000E+00 0.  1.
         25    1    1    2    0    0 -0.28051732815E+03 -0.27227376325E+03  0.19722448313E+03  0.45535202897E+03  0.12500000000E+03 0.  0.
         21    1    1    2  503  502  0.37216640682E+02  0.89482040703E+02  0.10915530207E+03  0.14596915401E+03  0.00000000000E+00 0. -1.
         21    1    1    2  504  503  0.24330068747E+03  0.18279172255E+03  0.17265180197E+02  0.30480506033E+03  0.00000000000E+00 0.  1.
<mgrwt>
<rscale>  4 0.35503933E+03</rscale>
<asrwt>0</asrwt>
<pdfrwt beam="1">  1       21 0.94597785E-01 0.35503933E+03</pdfrwt>
<pdfrwt beam="2">  1       21 0.44806252E-01 0.35503933E+03</pdfrwt>
<totfact> 0.40584097E+03</totfact>
</mgrwt>
</event>
<event>
 5    0  0.1531977E+001  0.8203916E+03  0.7546771E-02  0.9530961E-01
         21   -1    0    0  502  501  0.00000000000E+00  0.00000000000E+00  0.11778960194E+04  0.11778960194E+04  0.00000000000E+00 0.  1.
         21   -1    0    0  504  502 -0.00000000000E+00 -0.00000000000E+00 -0.77099651902E+03  0.77099651902E+03  0.00000000000E+00 0. -1.
         25    1    1    2    0    0 -0.50650410702E+03  0.62456904035E+03 -0.26778052085E+03  0.85671716683E+03  0.12500000000E+03 0.  0.
         21    1    1    2  503  501  0.52746824275E+03 -0.61880976642E+03  0.68930857714E+03  0.10659711950E+04  0.00000000000E+00 0.  1.
         21    1    1    2  504  503 -0.20964135735E+02 -0.57592739221E+01 -0.14628555887E+02  0.26204176586E+02  0.00000000000E+00 0. -1.
<mgrwt>
<rscale>  4 0.82039156E+03</rscale>
<asrwt>0</asrwt>
<pdfrwt beam="1">  1       21 0.18121477E+00 0.82039156E+03</pdfrwt>
<pdfrwt beam="2">  1       21 0.11861485E+00 0.82039156E+03</pdfrwt>
<totfact> 0.66064020E+01</totfact>
</mgrwt>
</event>
<event>
 5    0  0.1531977E+001  0.2839950E+03  0.7546771E-02  0.1093527E+00
         21   -1    0    0  504  501  0.00000000000E+00  0.00000000000E+00  0.44939420939E+03  0.44939420939E+03  0.00000000000E+00 0.  1.
         21   -1    0    0  503  502 -0.00000000000E+00 -0.00000000000E+00 -0.28900653535E+03  0.28900653535E+03  0.00000000000E+00 0.  1.
         25    1    1    2    0    0 -0.25685091716E+03 -0.11200877494E+03 -0.84322513206E+02  0.31820377990E+03  0.12500000000E+03 0.  0.
         21    1    1    2  503  501  0.17987626681E+02  0.40596485501E+02 -0.26578874416E+02  0.51750032984E+02  0.00000000000E+00 0.  1.
         21    1    1    2  504  502  0.23886329048E+03  0.71412289440E+02  0.27128906166E+03  0.36844693186E+03  0.00000000000E+00 0.  1.
<mgrwt>
<rscale>  4 0.28399500E+03</rscale>
<asrwt>0</asrwt>
<pdfrwt beam="1">  1       21 0.69137571E-01 0.28399500E+03</pdfrwt>
<pdfrwt beam="2">  1       21 0.44462544E-01 0.28399500E+03</pdfrwt>
<totfact> 0.87588252E+03</totfact>
</mgrwt>
</event>
<event>
 5    0  0.1531977E+001  0.2949872E+03  0.7546771E-02  0.1087774E+00
         21   -1    0    0  502  501  0.00000000000E+00  0.00000000000E+00  0.17733357297E+04  0.17733357297E+04  0.00000000000E+00 0. -1.
         21   -1    0    0  504  502 -0.00000000000E+00 -0.00000000000E+00 -0.44682113963E+03  0.44682113963E+03  0.00000000000E+00 0.  1.
         25    1    1    2    0    0  0.60031305101E+02  0.23720730978E+03 -0.11615142947E+03  0.29830725766E+03  0.12500000000E+03 0.  0.
         21    1    1    2  503  501  0.80043541760E+02  0.20889779210E+02  0.15907963927E+04  0.15929458605E+04  0.00000000000E+00 0. -1.
         21    1    1    2  504  503 -0.14007484686E+03 -0.25809708899E+03 -0.14813037318E+03  0.32890375116E+03  0.00000000000E+00 0.  1.
<mgrwt>
<rscale>  4 0.29498723E+03</rscale>
<asrwt>0</asrwt>
<pdfrwt beam="1">  1       21 0.27282088E+00 0.29498723E+03</pdfrwt>
<pdfrwt beam="2">  1       21 0.68741715E-01 0.29498723E+03</pdfrwt>
<totfact> 0.82825675E+01</totfact>
</mgrwt>
</event>
<event>
 5    0  0.1531977E+001  0.2462555E+03  0.7546771E-02  0.1115694E+00
         21   -1    0    0  503  501  0.00000000000E+00  0.00000000000E+00  0.15994057821E+04  0.15994057821E+04  0.00000000000E+00 0.  1.
         21   -1    0    0  504  502 -0.00000000000E+00 -0.00000000000E+00 -0.92678881973E+02  0.92678881973E+02  0.00000000000E+00 0. -1.
         25    1    1    2    0    0 -0.22475429778E+03  0.77706835859E+02  0.40361422374E+03  0.48485285223E+03  0.12500000000E+03 0.  0.
         21    1    1    2  503  502  0.31726746583E+02 -0.47846813536E+01 -0.36783103408E+02  0.48810616885E+02  0.00000000000E+00 0.  1.
         21    1    1    2  504  501  0.19302755119E+03 -0.72922154505E+02  0.11398957798E+04  0.11584211950E+04  0.00000000000E+00 0.  1.
<mgrwt>
<rscale>  4 0.24625548E+03</rscale>
<asrwt>0</asrwt>
<pdfrwt beam="1">  1       21 0.24606241E+00 0.24625548E+03</pdfrwt>
<pdfrwt beam="2">  1       21 0.14258291E-01 0.24625548E+03</pdfrwt>
<totfact> 0.28627773E+03</totfact>
</mgrwt>
</event>
<event>
 5    0  0.1531977E+001  0.1942651E+03  0.7546771E-02  0.1154670E+00
         21   -1    0    0  502  501  0.00000000000E+00  0.00000000000E+00  0.42752134497E+03  0.42752134497E+03  0.00000000000E+00 0.  1.
         21   -1    0    0  504  502 -0.00000000000E+00 -0.00000000000E+00 -0.82249077523E+03  0.82249077523E+03  0.00000000000E+00 0.  1.
         25    1    1    2    0    0 -0.16517777953E+03 -0.12801596468E+03 -0.67567459111E+03  0.71821510645E+03  0.12500000000E+03 0.  0.
         21    1    1    2  503  501  0.88326889647E+02  0.11832249329E+03  0.37894341723E+03  0.40669394551E+03  0.00000000000E+00 0.  1.
         21    1    1    2  504  503  0.76850889886E+02  0.96934713924E+01 -0.98238256386E+02  0.12510306823E+03  0.00000000000E+00 0. -1.
<mgrwt>
<rscale>  4 0.19426508E+03</rscale>
<asrwt>0</asrwt>
<pdfrwt beam="1">  1       21 0.65772514E-01 0.19426508E+03</pdfrwt>
<pdfrwt beam="2">  1       21 0.12653704E+00 0.19426508E+03</pdfrwt>
<totfact> 0.98110701E+02</totfact>
</mgrwt>
</event>
<event>
 5    0  0.1531977E+001  0.3042350E+03  0.7546771E-02  0.1083143E+00
         21   -1    0    0  503  501  0.00000000000E+00  0.00000000000E+00  0.30507604902E+03  0.30507604902E+03  0.00000000000E+00 0. -1.
         21   -1    0    0  504  502 -0.00000000000E+00 -0.00000000000E+00 -0.41383383759E+03  0.41383383759E+03  0.00000000000E+00 0. -1.
         25    1    1    2    0    0  0.26623113997E+03  0.25827479752E+02 -0.96762818660E+02  0.31069940726E+03  0.12500000000E+03 0.  0.
         21    1    1    2  503  502  0.84570372174E+01  0.44283553782E+02 -0.10138480093E+03  0.11095689467E+03  0.00000000000E+00 0. -1.
         21    1    1    2  504  501 -0.27468817719E+03 -0.70111033534E+02  0.89389831023E+02  0.29725358467E+03  0.00000000000E+00 0. -1.
<mgrwt>
<rscale>  4 0.30423503E+03</rscale>
<asrwt>0</asrwt>
<pdfrwt beam="1">  1       21 0.46934777E-01 0.30423503E+03</pdfrwt>
<pdfrwt beam="2">  1       21 0.63666744E-01 0.30423503E+03</pdfrwt>
<totfact> 0.93007186E+03</totfact>
</mgrwt>
</event>
<event>
 5    0  0.1531977E+001  0.2256359E+03  0.7546771E-02  0.1129750E+00
         21   -1    0    0  504  501  0.00000000000E+00  0.00000000000E+00  0.34610664109E+03  0.34610664109E+03  0.00000000000E+00 0.  1.
         21   -1    0    0  503  502 -0.00000000000E+00 -0.00000000000E+00 -0.50930335251E+03  0.50930335251E+03  0.00000000000E+00 0.  1.
         25    1    1    2    0    0 -0.22838022013E+03 -0.32758004166E+02  0.15272114833E+03  0.30361054153E+03  0.12500000000E+03 0.  0.
         21    1    1    2  503  501  0.18427697364E+03  0.77013316985E+00 -0.40637311021E+03  0.44620365397E+03  0.00000000000E+00 0.  1.
         21    1    1    2  504  502  0.44103246489E+02  0.31987870996E+02  0.90455250452E+02  0.10559579810E+03  0.00000000000E+00 0. -1.
<mgrwt>
<rscale>  4 0.22563586E+03</rscale>
<asrwt>0</asrwt>
<pdfrwt beam="1">  1       21 0.53247176E-01 0.22563586E+03</pdfrwt>
<pdfrwt beam="2">  1       21 0.78354361E-01 0.22563586E+03</pdfrwt>
<totfact> 0.46959175E+03</totfact>
</mgrwt>
</event>
<event>
 5    0  0.1531977E+001  0.2375171E+03  0.7546771E-02  0.1121458E+00
         21   -1    0    0  502  501  0.00000000000E+00  0.00000000000E+00  0.33942715404E+03  0.33942715404E+03  0.00000000000E+00 0.  1.
         21   -1    0    0  504  502 -0.00000000000E+00 -0.00000000000E+00 -0.54502914278E+03  0.54502914278E+03  0.00000000000E+00 0.  1.
         25    1    1    2    0    0 -0.25409177165E+03  0.35600547444E+01  0.91336567383E+02  0.29756120539E+03  0.12500000000E+03 0.  0.
         21    1    1    2  503  501  0.61904923082E+02  0.37119484601E+02  0.11198581381E+03  0.13323249654E+03  0.00000000000E+00 0.  1.
         21    1    1    2  504  503  0.19218684857E+03 -0.40679539345E+02 -0.40892436993E+03  0.45366259490E+03  0.00000000000E+00 0.  1.
<mgrwt>
<rscale>  4 0.23751712E+03</rscale>
<asrwt>0</asrwt>
<pdfrwt beam="1">  1       21 0.52219563E-01 0.23751712E+03</pdfrwt>
<pdfrwt beam="2">  1       21 0.83850637E-01 0.23751712E+03</pdfrwt>
<totfact> 0.41590172E+03</totfact>
</mgrwt>
</event>
<event>
 5    0  0.1531977E+001  0.3944859E+03  0.7546771E-02  0.1045706E+00
         21   -1    0    0  504  501  0.00000000000E+00  0.00000000000E+00  0.68429126138E+02  0.68429126138E+02  0.00000000000E+00 0.  1.
         21   -1    0    0  503  502 -0.00000000000E+00 -0.00000000000E+00 -0.25529608387E+04  0.25529608387E+04  0.00000000000E+00 0.  1.
         25    1    1    2    0    0  0.32669458181E+03  0.20561512199E+03 -0.10873081235E+04  0.11605476654E+04  0.12500000000E+03 0.  0.
         21    1    1    2  503  501 -0.15019900315E+02 -0.19265030781E+02 -0.37928907662E+03  0.38007491691E+03  0.00000000000E+00 0.  1.
         21    1    1    2  504  502 -0.31167468150E+03 -0.18635009120E+03 -0.10179345124E+04  0.10807673825E+04  0.00000000000E+00 0.  1.
<mgrwt>
<rscale>  4 0.39448588E+03</rscale>
<asrwt>0</asrwt>
<pdfrwt beam="1">  1       21 0.10527558E-01 0.39448588E+03</pdfrwt>
<pdfrwt beam="2">  1       21 0.39276321E+00 0.39448588E+03</pdfrwt>
<totfact> 0.57820299E+02</totfact>
</mgrwt>
</event>
<event>
 5    0  0.1531977E+001  0.3267779E+03  0.7546771E-02  0.1072572E+00
         21   -1    0    0  504  501  0.00000000000E+00  0.00000000000E+00  0.59258327445E+03  0.59258327445E+03  0.00000000000E+00 0. -1.
         21   -1    0    0  501  502 -0.00000000000E+00 -0.00000000000E+00 -0.22352923259E+03  0.22352923259E+03  0.00000000000E+00 0. -1.
         25    1    1    2    0    0 -0.11949238728E+03 -0.27376462822E+03  0.31556027937E+03  0.45213802339E+03  0.12500000000E+03 0.  0.
         21    1    1    2  503  502  0.87969563108E+02  0.29630494074E+03  0.77151710292E+02  0.31857126101E+03  0.00000000000E+00 0. -1.
         21    1    1    2  504  503  0.31522824169E+02 -0.22540312519E+02 -0.23657947809E+02  0.45403222645E+02  0.00000000000E+00 0.  1.
<mgrwt>
<rscale>  4 0.32677788E+03</rscale>
<asrwt>0</asrwt>
<pdfrwt beam="1">  1       21 0.91166657E-01 0.32677788E+03</pdfrwt>
<pdfrwt beam="2">  1       21 0.34389113E-01 0.32677788E+03</pdfrwt>
<totfact> 0.76998531E+03</totfact>
</mgrwt>
</event>
<event>
 5    0  0.1531977E+001  0.2110260E+03  0.7546771E-02  0.1140756E+00
         21   -1    0    0  502  501  0.00000000000E+00  0.00000000000E+00  0.25605193551E+03  0.25605193551E+03  0.00000000000E+00 0. -1.
         21   -1    0    0  504  502 -0.00000000000E+00 -0.00000000000E+00 -0.26939596102E+03  0.26939596102E+03  0.00000000000E+00 0. -1.
         25    1    1    2    0    0 -0.22905074048E+03  0.22952599535E+02  0.18373560413E+02  0.26259027260E+03  0.12500000000E+03 0.  0.
         21    1    1    2  503  501  0.86535576744E+02  0.25753190659E+02  0.36671152152E+02  0.97449506267E+02  0.00000000000E+00 0. -1.
         21    1    1    2  504  503  0.14251516374E+03 -0.48705790194E+02 -0.68388738075E+02  0.16540811766E+03  0.00000000000E+00 0. -1.
<mgrwt>
<rscale>  4 0.21102596E+03</rscale>
<asrwt>0</asrwt>
<pdfrwt beam="1">  1       21 0.39392605E-01 0.21102596E+03</pdfrwt>
<pdfrwt beam="2">  1       21 0.41445532E-01 0.21102596E+03</pdfrwt>
<totfact> 0.34489384E+04</totfact>
</mgrwt>
</event>
<event>
 5    0  0.1531977E+001  0.3495123E+03  0.7546771E-02  0.1062815E+00
         21   -1    0    0  502  501  0.00000000000E+00  0.00000000000E+00  0.91936234956E+03  0.91936234956E+03  0.00000000000E+00 0. -1.
         21   -1    0    0  504  502 -0.00000000000E+00 -0.00000000000E+00 -0.76757852495E+03  0.76757852495E+03  0.00000000000E+00 0. -1.
         25    1    1    2    0    0  0.27091931530E+03 -0.63533556768E+02  0.12943996876E+03  0.33138119100E+03  0.12500000000E+03 0.  0.
         21    1    1    2  503  501  0.32494866432E+02 -0.81585090349E+02  0.64335451415E+03  0.64932047110E+03  0.00000000000E+00 0. -1.
         21    1    1    2  504  503 -0.30341418173E+03  0.14511864712E+03 -0.62101065830E+03  0.70623921241E+03  0.00000000000E+00 0. -1.
<mgrwt>
<rscale>  4 0.34951229E+03</rscale>
<asrwt>0</asrwt>
<pdfrwt beam="1">  1       21 0.14144036E+00 0.34951229E+03</pdfrwt>
<pdfrwt beam="2">  1       21 0.11808900E+00 0.34951229E+03</pdfrwt>
<totfact> 0.16515891E+02</totfact>
</mgrwt>
</event>
<event>
 5    0  0.1531977E+001  0.2668871E+03  0.7546771E-02  0.1103075E+00
         21   -1    0    0  504  501  0.00000000000E+00  0.00000000000E+00  0.38344273361E+02  0.38344273361E+02  0.00000000000E+00 0.  1.
         21   -1    0    0  503  502 -0.00000000000E+00 -0.00000000000E+00 -0.20800669062E+04  0.20800669062E+04  0.00000000000E+00 0.  1.
         25    1    1    2    0    0  0.23492710999E+03  0.20321420236E+02 -0.64747503707E+03  0.70032323306E+03  0.12500000000E+03 0.  0.
         21    1    1    2  503  501 -0.12798301873E+03 -0.15188059479E+02 -0.45962027585E+03  0.47734801582E+03  0.00000000000E+00 0.  1.
         21    1    1    2  504  502 -0.10694409126E+03 -0.51333607574E+01 -0.93462731989E+03  0.94073993065E+03  0.00000000000E+00 0.  1.
<mgrwt>
<rscale>  4 0.26688707E+03</rscale>
<asrwt>0</asrwt>
<pdfrwt beam="1">  1       21 0.58991193E-02 0.26688707E+03</pdfrwt>
<pdfrwt beam="2">  1       21 0.32001028E+00 0.26688707E+03</pdfrwt>
<totfact> 0.49229161E+03</totfact>
</mgrwt>
</event>
<event>
 5    0  0.1531977E+001  0.2715610E+03  0.7546771E-02  0.1100390E+00
         21   -1    0    0  503  501  0.00000000000E+00  0.00000000000E+00  0.39129614046E+03  0.39129614046E+03  0.00000000000E+00 0.  1.
         21   -1    0    0  504  502 -0.00000000000E+00 -0.00000000000E+00 -0.36878085890E+03  0.36878085890E+03  0.00000000000E+00 0.  1.
         25    1    1    2    0    0  0.72414907948E+02  0.28258038766E+03  0.57088153029E+02  0.32245875953E+03  0.12500000000E+03 0.  0.
         21    1    1    2  503  502  0.78724007817E+02 -0.11698613934E+03 -0.13201486466E+03  0.19316094506E+03  0.00000000000E+00 0.  1.
         21    1    1    2  504  501 -0.15113891577E+03 -0.16559424831E+03  0.97441993186E+02  0.24445729478E+03  0.00000000000E+00 0.  1.
<mgrwt>
<rscale>  4 0.27156096E+03</rscale>
<asrwt>0</asrwt>
<pdfrwt beam="1">  1       21 0.60199406E-01 0.27156096E+03</pdfrwt>
<pdfrwt beam="2">  1       21 0.56735517E-01 0.27156096E+03</pdfrwt>
<totfact> 0.71483370E+03</totfact>
</mgrwt>
</event>
<event>
 5    0  0.1531977E+001  0.2630332E+03  0.7546771E-02  0.1105334E+00
         21   -1    0    0  502  501  0.00000000000E+00  0.00000000000E+00  0.22173901346E+04  0.22173901346E+04  0.00000000000E+00 0. -1.
         21   -1    0    0  504  502 -0.00000000000E+00 -0.00000000000E+00 -0.10413611555E+04  0.10413611555E+04  0.00000000000E+00 0. -1.
         25    1    1    2    0    0  0.69855792668E+02 -0.24661108637E+03 -0.97135412408E+03  0.10123490969E+04  0.12500000000E+03 0.  0.
         21    1    1    2  503  501 -0.59607114097E+02  0.22346766093E+03  0.21871059477E+04  0.21993006229E+04  0.00000000000E+00 0. -1.
         21    1    1    2  504  503 -0.10248678572E+02  0.23143425436E+02 -0.39722844498E+02  0.47101570339E+02  0.00000000000E+00 0.  1.
<mgrwt>
<rscale>  4 0.26303325E+03</rscale>
<asrwt>0</asrwt>
<pdfrwt beam="1">  1       21 0.34113694E+00 0.26303325E+03</pdfrwt>
<pdfrwt beam="2">  1       21 0.16020941E+00 0.26303325E+03</pdfrwt>
<totfact> 0.43354968E+00</totfact>
</mgrwt>
</event>
<event>
 5    0  0.1531977E+001  0.2597719E+03  0.7546771E-02  0.1107280E+00
         21   -1    0    0  502  501  0.00000000000E+00  0.00000000000E+00  0.67053285080E+03  0.67053285080E+03  0.00000000000E+00 0. -1.
         21   -1    0    0  504  502 -0.00000000000E+00 -0.00000000000E+00 -0.33638038938E+03  0.33638038938E+03  0.00000000000E+00 0. -1.
         25    1    1    2    0    0 -0.77460051028E+02  0.23571652778E+03  0.53865535531E+03  0.60608327215E+03  0.12500000000E+03 0.  0.
         21    1    1    2  503  501  0.31704251838E+02 -0.14093774662E+02  0.49623582965E+02  0.60549930265E+02  0.00000000000E+00 0.  1.
         21    1    1    2  504  503  0.45755799191E+02 -0.22162275312E+03 -0.25412647686E+03  0.34028003777E+03  0.00000000000E+00 0. -1.
<mgrwt>
<rscale>  4 0.25977192E+03</rscale>
<asrwt>0</asrwt>
<pdfrwt beam="1">  1       21 0.10315890E+00 0.25977192E+03</pdfrwt>
<pdfrwt beam="2">  1       21 0.51750829E-01 0.25977192E+03</pdfrwt>
<totfact> 0.25663290E+03</totfact>
</mgrwt>
</event>
<event>
 5    0  0.1531977E+001  0.2204697E+03  0.7546771E-02  0.1133533E+00
         21   -1    0    0  503  501  0.00000000000E+00  0.00000000000E+00  0.84729600650E+03  0.84729600650E+03  0.00000000000E+00 0. -1.
         21   -1    0    0  504  502 -0.00000000000E+00 -0.00000000000E+00 -0.12279711390E+03  0.12279711390E+03  0.00000000000E+00 0. -1.
         25    1    1    2    0    0  0.14672181150E+03  0.18536812994E+03  0.29268443966E+03  0.39645657364E+03  0.12500000000E+03 0.  0.
         21    1    1    2  503  502 -0.14379158712E+03 -0.86247889085E+02  0.44009233055E+02  0.17335377553E+03  0.00000000000E+00 0. -1.
         21    1    1    2  504  501 -0.29302243803E+01 -0.99120240858E+02  0.38780521989E+03  0.40028277122E+03  0.00000000000E+00 0. -1.
<mgrwt>
<rscale>  4 0.22046972E+03</rscale>
<asrwt>0</asrwt>
<pdfrwt beam="1">  1       21 0.13035323E+00 0.22046972E+03</pdfrwt>
<pdfrwt beam="2">  1       21 0.18891864E-01 0.22046972E+03</pdfrwt>
<totfact> 0.10807819E+04</totfact>
</mgrwt>
</event>
<event>
 5    0  0.1531977E+001  0.2086417E+03  0.7546771E-02  0.1142646E+00
         21   -1    0    0  502  501  0.00000000000E+00  0.00000000000E+00  0.14617521477E+04  0.14617521477E+04  0.00000000000E+00 0. -1.
         21   -1    0    0  504  502 -0.00000000000E+00 -0.00000000000E+00 -0.16863755819E+03  0.16863755819E+03  0.00000000000E+00 0. -1.
         25    1    1    2    0    0  0.53737962551E+02  0.20368961223E+03  0.12409391993E+04  0.12648843121E+04  0.12500000000E+03 0.  0.
         21    1    1    2  503  501 -0.10175931037E+02 -0.10955716293E+03  0.17377357896E+03  0.20567833689E+03  0.00000000000E+00 0. -1.
         21    1    1    2  504  503 -0.43562031514E+02 -0.94132449307E+02 -0.12159818874E+03  0.15982705687E+03  0.00000000000E+00 0. -1.
<mgrwt>
<rscale>  4 0.20864171E+03</rscale>
<asrwt>0</asrwt>
<pdfrwt beam="1">  1       21 0.22488494E+00 0.20864171E+03</pdfrwt>
<pdfrwt beam="2">  1       21 0.25944241E-01 0.20864171E+03</pdfrwt>
<totfact> 0.13017810E+03</totfact>
</mgrwt>
</event>
<event>
 5    0  0.1531977E+001  0.1993243E+03  0.7546771E-02  0.1150310E+00
         21   -1    0    0  503  501  0.00000000000E+00  0.00000000000E+00  0.53525127889E+03  0.53525127889E+03  0.00000000000E+00 0. -1.
         21   -1    0    0  504  502 -0.00000000000E+00 -0.00000000000E+00 -0.20070952404E+03  0.20070952404E+03  0.00000000000E+00 0. -1.
         25    1    1    2    0    0  0.13714812871E+03 -0.20022487929E+03  0.98389688927E-01  0.27299198006E+03  0.12500000000E+03 0.  0.
         21    1    1    2  503  502 -0.41488699046E+02  0.90387639722E+02  0.13961509052E+01  0.99464500202E+02  0.00000000000E+00 0. -1.
         21    1    1    2  504  501 -0.95659429664E+02  0.10983723957E+03  0.33304721425E+03  0.36350432267E+03  0.00000000000E+00 0. -1.
<mgrwt>
<rscale>  4 0.19932431E+03</rscale>
<asrwt>0</asrwt>
<pdfrwt beam="1">  1       21 0.82346350E-01 0.19932431E+03</pdfrwt>
<pdfrwt beam="2">  1       21 0.30878388E-01 0.19932431E+03</pdfrwt>
<totfact> 0.12917175E+04</totfact>
</mgrwt>
</event>
<event>
 5    0  0.1531977E+001  0.1852280E+03  0.7546771E-02  0.1162837E+00
         21   -1    0    0  502  501  0.00000000000E+00  0.00000000000E+00  0.13905200408E+03  0.13905200408E+03  0.00000000000E+00 0.  1.
         21   -1    0    0  504  502 -0.00000000000E+00 -0.00000000000E+00 -0.12378286144E+04  0.12378286144E+04  0.00000000000E+00 0.  1.
         25    1    1    2    0    0 -0.21904836903E+03  0.21635750171E+02 -0.35082501806E+02  0.25555053432E+03  0.12500000000E+03 0.  0.
         21    1    1    2  503  501  0.87171852195E+02 -0.16331454084E+01 -0.53339902924E+02  0.10220931573E+03  0.00000000000E+00 0.  1.
         21    1    1    2  504  503  0.13187651683E+03 -0.20002604762E+02 -0.10103542056E+04  0.10191207684E+04  0.00000000000E+00 0.  1.
<mgrwt>
<rscale>  4 0.18522799E+03</rscale>
<asrwt>0</asrwt>
<pdfrwt beam="1">  1       21 0.21392615E-01 0.18522799E+03</pdfrwt>
<pdfrwt beam="2">  1       21 0.19043518E+00 0.18522799E+03</pdfrwt>
<totfact> 0.31757775E+03</totfact>
</mgrwt>
</event>
<event>
 5    0  0.1531977E+001  0.2550189E+03  0.7546771E-02  0.1110173E+00
         21   -1    0    0  504  501  0.00000000000E+00  0.00000000000E+00  0.18022541059E+04  0.18022541059E+04  0.00000000000E+00 0. -1.
         21   -1    0    0  503  502 -0.00000000000E+00 -0.00000000000E+00 -0.15673919927E+03  0.15673919927E+03  0.00000000000E+00 0.  1.
         25    1    1    2    0    0 -0.86074786514E+01  0.27471952239E+03  0.11054856053E+04  0.11459792006E+04  0.12500000000E+03 0.  0.
         21    1    1    2  503  501  0.53466390656E+02 -0.21193849909E+03 -0.44795085590E+02  0.22312145128E+03  0.00000000000E+00 0.  1.
         21    1    1    2  504  502 -0.44858912004E+02 -0.62781023300E+02  0.58482438691E+03  0.58989265328E+03  0.00000000000E+00 0.  1.
<mgrwt>
<rscale>  4 0.25501893E+03</rscale>
<asrwt>0</asrwt>
<pdfrwt beam="1">  1       21 0.27726985E+00 0.25501893E+03</pdfrwt>
<pdfrwt beam="2">  1       21 0.24113724E-01 0.25501893E+03</pdfrwt>
<totfact> 0.69608310E+02</totfact>
</mgrwt>
</event>
<event>
 5    0  0.1531977E+001  0.2637956E+03  0.7546771E-02  0.1104884E+00
         21   -1    0    0  502  501  0.00000000000E+00  0.00000000000E+00  0.24873722129E+03  0.24873722129E+03  0.00000000000E+00 0.  1.
         21   -1    0    0  504  502 -0.00000000000E+00 -0.00000000000E+00 -0.51396373325E+03  0.51396373325E+03  0.00000000000E+00 0.  1.
         25    1    1    2    0    0  0.13278979296E+03 -0.19218232140E+03 -0.36391335534E+03  0.45013898295E+03  0.12500000000E+03 0.  0.
         21    1    1    2  503  501 -0.15401409280E+03  0.17393699229E+03  0.13345614083E+03  0.26792715352E+03  0.00000000000E+00 0.  1.
         21    1    1    2  504  503  0.21224299843E+02  0.18245329112E+02 -0.34769297460E+02  0.44634818069E+02  0.00000000000E+00 0. -1.
<mgrwt>
<rscale>  4 0.26379564E+03</rscale>
<asrwt>0</asrwt>
<pdfrwt beam="1">  1       21 0.38267265E-01 0.26379564E+03</pdfrwt>
<pdfrwt beam="2">  1       21 0.79071344E-01 0.26379564E+03</pdfrwt>
<totfact> 0.88969785E+03</totfact>
</mgrwt>
</event>
<event>
 5    0  0.1531977E+001  0.2406456E+03  0.7546771E-02  0.1119363E+00
         21   -1    0    0  504  501  0.00000000000E+00  0.00000000000E+00  0.47542239086E+03  0.47542239086E+03  0.00000000000E+00 0.  1.
         21   -1    0    0  501  502 -0.00000000000E+00 -0.00000000000E+00 -0.15621043697E+03  0.15621043697E+03  0.00000000000E+00 0.  1.
         25    1    1    2    0    0 -0.16342998652E+03  0.16250450567E+03  0.20551549035E+03  0.33313464490E+03  0.12500000000E+03 0.  0.
         21    1    1    2  503  502  0.80081358909E+02 -0.17155801574E+03  0.98052385146E+02  0.21321221129E+03  0.00000000000E+00 0.  1.
         21    1    1    2  504  503  0.83348627612E+02  0.90535100681E+01  0.15644078404E+02  0.85285971640E+02  0.00000000000E+00 0.  1.
<mgrwt>
<rscale>  4 0.24064563E+03</rscale>
<asrwt>0</asrwt>
<pdfrwt beam="1">  1       21 0.73141906E-01 0.24064563E+03</pdfrwt>
<pdfrwt beam="2">  1       21 0.24032375E-01 0.24064563E+03</pdfrwt>
<totfact> 0.26766510E+04</totfact>
</mgrwt>
</event>
<event>
 5    0  0.1531977E+001  0.2885898E+03  0.7546771E-02  0.1091088E+00
         21   -1    0    0  504  501  0.00000000000E+00  0.00000000000E+00  0.79067697537E+02  0.79067697537E+02  0.00000000000E+00 0. -1.
         21   -1    0    0  501  502 -0.00000000000E+00 -0.00000000000E+00 -0.13725178108E+04  0.13725178108E+04  0.00000000000E+00 0. -1.
         25    1    1    2    0    0  0.42099100066E+02  0.24530242829E+03 -0.35898304640E+03  0.45435607529E+03  0.12500000000E+03 0.  0.
         21    1    1    2  503  502 -0.86471585316E+02 -0.26664201963E+03 -0.64030025276E+03  0.69897046818E+03  0.00000000000E+00 0. -1.
         21    1    1    2  504  503  0.44372485250E+02  0.21339591342E+02 -0.29416681412E+03  0.29825896489E+03  0.00000000000E+00 0. -1.
<mgrwt>
<rscale>  4 0.28858977E+03</rscale>
<asrwt>0</asrwt>
<pdfrwt beam="1">  1       21 0.12164261E-01 0.28858977E+03</pdfrwt>
<pdfrwt beam="2">  1       21 0.21115658E+00 0.28858977E+03</pdfrwt>
<totfact> 0.60741391E+03</totfact>
</mgrwt>
</event>
<event>
 5    0  0.1531977E+001  0.2347622E+03  0.7546771E-02  0.1123332E+00
         21   -1    0    0  504  501  0.00000000000E+00  0.00000000000E+00  0.19052449995E+03  0.19052449995E+03  0.00000000000E+00 0.  1.
         21   -1    0    0  503  502 -0.00000000000E+00 -0.00000000000E+00 -0.16476666337E+04  0.16476666337E+04  0.00000000000E+00 0.  1.
         25    1    1    2    0    0  0.10689381158E+03  0.19307724760E+03  0.58073203478E+02  0.26019724721E+03  0.12500000000E+03 0.  0.
         21    1    1    2  503  501 -0.75970215045E+01 -0.19860010926E+03 -0.14390988899E+04  0.14527578370E+04  0.00000000000E+00 0.  1.
         21    1    1    2  504  502 -0.99296790076E+02  0.55228616657E+01 -0.76116447369E+02  0.12523604944E+03  0.00000000000E+00 0.  1.
<mgrwt>
<rscale>  4 0.23476218E+03</rscale>
<asrwt>0</asrwt>
<pdfrwt beam="1">  1       21 0.29311460E-01 0.23476218E+03</pdfrwt>
<pdfrwt beam="2">  1       21 0.25348719E+00 0.23476218E+03</pdfrwt>
<totfact> 0.67271678E+02</totfact>
</mgrwt>
</event>
<event>
 5    0  0.1531977E+001  0.2246452E+03  0.7546771E-02  0.1130466E+00
         21   -1    0    0  502  501  0.00000000000E+00  0.00000000000E+00  0.26384264858E+04  0.26384264858E+04  0.00000000000E+00 0.  1.
         21   -1    0    0  504  502 -0.00000000000E+00 -0.00000000000E+00 -0.78661227768E+02  0.78661227768E+02  0.00000000000E+00 0. -1.
         25    1    1    2    0    0  0.10827768406E+03  0.19332610259E+03  0.18407058915E+03  0.31401595596E+03  0.12500000000E+03 0.  0.
         21    1    1    2  503  501 -0.59507921128E+02 -0.17503441294E+03  0.23179307765E+04  0.23252916640E+04  0.00000000000E+00 0.  1.
         21    1    1    2  504  503 -0.48769762933E+02 -0.18291689646E+02  0.57763892388E+02  0.77780093536E+02  0.00000000000E+00 0. -1.
<mgrwt>
<rscale>  4 0.22464524E+03</rscale>
<asrwt>0</asrwt>
<pdfrwt beam="1">  1       21 0.40591170E+00 0.22464524E+03</pdfrwt>
<pdfrwt beam="2">  1       21 0.12101729E-01 0.22464524E+03</pdfrwt>
<totfact> 0.44038567E+02</totfact>
</mgrwt>
</event>
<event>
 5    0  0.1531977E+001  0.2283863E+03  0.7546771E-02  0.1127781E+00
         21   -1    0    0  504  501  0.00000000000E+00  0.00000000000E+00  0.41933389437E+03  0.41933389437E+03  0.00000000000E+00 0.  1.
         21   -1    0    0  503  502 -0.00000000000E+00 -0.00000000000E+00 -0.18442298969E+03  0.18442298969E+03  0.00000000000E+00 0.  1.
         25    1    1    2    0    0 -0.15582953210E+03 -0.16372753805E+03  0.20167194992E+01  0.25829947144E+03  0.12500000000E+03 0.  0.
         21    1    1    2  503  501  0.10834138135E+03  0.11407303867E+03  0.77129820640E+02  0.17521279147E+03  0.00000000000E+00 0.  1.
         21    1    1    2  504  502  0.47488150741E+02  0.49654499388E+02  0.15576436453E+03  0.17024462114E+03  0.00000000000E+00 0.  1.
<mgrwt>
<rscale>  4 0.22838632E+03</rscale>
<asrwt>0</asrwt>
<pdfrwt beam="1">  1       21 0.64512906E-01 0.22838632E+03</pdfrwt>
<pdfrwt beam="2">  1       21 0.28372768E-01 0.22838632E+03</pdfrwt>
<totfact> 0.25802054E+04</totfact>
</mgrwt>
</event>
<event>
 5    0  0.1531977E+001  0.4648821E+03  0.7546771E-02  0.1023375E+00
         21   -1    0    0  504  501  0.00000000000E+00  0.00000000000E+00  0.23523925070E+04  0.23523925070E+04  0.00000000000E+00 0. -1.
         21   -1    0    0  503  502 -0.00000000000E+00 -0.00000000000E+00 -0.16325104517E+03  0.16325104517E+03  0.00000000000E+00 0.  1.
         25    1    1    2    0    0 -0.21818224495E+02 -0.42766746385E+03  0.15720905907E+04  0.16341570671E+04  0.12500000000E+03 0.  0.
         21    1    1    2  503  501  0.36825358611E+02  0.45103841500E+03  0.25711466344E+03  0.52048026764E+03  0.00000000000E+00 0.  1.
         21    1    1    2  504  502 -0.15007134116E+02 -0.23370951152E+02  0.35993620764E+03  0.36100621740E+03  0.00000000000E+00 0.  1.
<mgrwt>
<rscale>  4 0.46488213E+03</rscale>
<asrwt>0</asrwt>
<pdfrwt beam="1">  1       21 0.36190651E+00 0.46488213E+03</pdfrwt>
<pdfrwt beam="2">  1       21 0.25115547E-01 0.46488213E+03</pdfrwt>
<totfact> 0.16947777E+02</totfact>
</mgrwt>
</event>
<event>
 5    0  0.1531977E+001  0.4261233E+03  0.7546771E-02  0.1035092E+00
         21   -1    0    0  502  501  0.00000000000E+00  0.00000000000E+00  0.14047413427E+04  0.14047413427E+04  0.00000000000E+00 0. -1.
         21   -1    0    0  504  502 -0.00000000000E+00 -0.00000000000E+00 -0.71947360608E+03  0.71947360608E+03  0.00000000000E+00 0. -1.
         25    1    1    2    0    0  0.17921664168E+03  0.37231904075E+03  0.11828985447E+04  0.12592116739E+04  0.12500000000E+03 0.  0.
         21    1    1    2  503  501 -0.15868670808E+03 -0.34268935161E+03 -0.11794380523E+02  0.37783140478E+03  0.00000000000E+00 0. -1.
         21    1    1    2  504  503 -0.20529933598E+02 -0.29629689142E+02 -0.48583642754E+03  0.48717187006E+03  0.00000000000E+00 0. -1.
<mgrwt>
<rscale>  4 0.42612333E+03</rscale>
<asrwt>0</asrwt>
<pdfrwt beam="1">  1       21 0.21611405E+00 0.42612333E+03</pdfrwt>
<pdfrwt beam="2">  1       21 0.11068825E+00 0.42612333E+03</pdfrwt>
<totfact> 0.54248502E+01</totfact>
</mgrwt>
</event>
<event>
 5    0  0.1531977E+001  0.2335315E+03  0.7546771E-02  0.1124179E+00
         21   -1    0    0  502  501  0.00000000000E+00  0.00000000000E+00  0.37180449966E+03  0.37180449966E+03  0.00000000000E+00 0.  1.
         21   -1    0    0  504  502 -0.00000000000E+00 -0.00000000000E+00 -0.50270558420E+03  0.50270558420E+03  0.00000000000E+00 0. -1.
         25    1    1    2    0    0 -0.16145283628E+03  0.18698659159E+03  0.26603846822E+03  0.38396936121E+03  0.12500000000E+03 0.  0.
         21    1    1    2  503  501  0.32916342457E+02 -0.41957756055E+02 -0.53168603215E+01  0.53592983660E+02  0.00000000000E+00 0. -1.
         21    1    1    2  504  503  0.12853649382E+03 -0.14502883553E+03 -0.39162269243E+03  0.43694773899E+03  0.00000000000E+00 0. -1.
<mgrwt>
<rscale>  4 0.23353152E+03</rscale>
<asrwt>0</asrwt>
<pdfrwt beam="1">  1       21 0.57200693E-01 0.23353152E+03</pdfrwt>
<pdfrwt beam="2">  1       21 0.77339320E-01 0.23353152E+03</pdfrwt>
<totfact> 0.41303613E+03</totfact>
</mgrwt>
</event>
<event>
 5    0  0.1531977E+001  0.3471997E+03  0.7546771E-02  0.1063770E+00
         21   -1    0    0  502  501  0.00000000000E+00  0.00000000000E+00  0.79559160281E+03  0.79559160281E+03  0.00000000000E+00 0. -1.
         21   -1    0    0  504  502 -0.00000000000E+00 -0.00000000000E+00 -0.27160581263E+03  0.27160581263E+03  0.00000000000E+00 0. -1.
         25    1    1    2    0    0  0.20292205962E+03  0.24069731343E+03  0.31403323892E+03  0.46190305705E+03  0.12500000000E+03 0.  0.
         21    1    1    2  503  501 -0.14532972521E+02  0.27103836555E+02  0.27056325519E+03  0.27230552749E+03  0.00000000000E+00 0.  1.
         21    1    1    2  504  503 -0.18838908710E+03 -0.26780114998E+03 -0.60610703917E+02  0.33298883089E+03  0.00000000000E+00 0. -1.
<mgrwt>
<rscale>  4 0.34719970E+03</rscale>
<asrwt>0</asrwt>
<pdfrwt beam="1">  1       21 0.12239871E+00 0.34719970E+03</pdfrwt>
<pdfrwt beam="2">  1       21 0.41785510E-01 0.34719970E+03</pdfrwt>
<totfact> 0.25009296E+03</totfact>
</mgrwt>
</event>
<event>
 5    0  0.1531977E+001  0.2982220E+03  0.7546771E-02  0.1086133E+00
         21   -1    0    0  502  501  0.00000000000E+00  0.00000000000E+00  0.86873173968E+02  0.86873173968E+02  0.00000000000E+00 0.  1.
         21   -1    0    0  504  502 -0.00000000000E+00 -0.00000000000E+00 -0.12748187011E+04  0.12748187011E+04  0.00000000000E+00 0.  1.
         25    1    1    2    0    0  0.74373868724E+02 -0.26813801051E+03 -0.88028953555E+03  0.93164592600E+03  0.12500000000E+03 0.  0.
         21    1    1    2  503  501 -0.37515807363E+02  0.14916681540E+02 -0.70055247226E+02  0.80855926524E+02  0.00000000000E+00 0. -1.
         21    1    1    2  504  503 -0.36858061361E+02  0.25322132897E+03 -0.23760074439E+03  0.34919002258E+03  0.00000000000E+00 0.  1.
<mgrwt>
<rscale>  4 0.29822198E+03</rscale>
<asrwt>0</asrwt>
<pdfrwt beam="1">  1       21 0.13365104E-01 0.29822198E+03</pdfrwt>
<pdfrwt beam="2">  1       21 0.19612596E+00 0.29822198E+03</pdfrwt>
<totfact> 0.63732295E+03</totfact>
</mgrwt>
</event>
<event>
 5    0  0.1531977E+001  0.3417638E+03  0.7546771E-02  0.1066047E+00
         21   -1    0    0  502  501  0.00000000000E+00  0.00000000000E+00  0.87175665860E+03  0.87175665860E+03  0.00000000000E+00 0. -1.
         21   -1    0    0  504  502 -0.00000000000E+00 -0.00000000000E+00 -0.11336874044E+04  0.11336874044E+04  0.00000000000E+00 0. -1.
         25    1    1    2    0    0  0.19118863273E+03 -0.23869540922E+03  0.62771062296E+03  0.70934774113E+03  0.12500000000E+03 0.  0.
         21    1    1    2  503  501  0.45484105953E+02  0.25337697466E+02  0.17615364898E+03  0.18368699152E+03  0.00000000000E+00 0.  1.
         21    1    1    2  504  503 -0.23667273868E+03  0.21335771175E+03 -0.10657950177E+04  0.11124093303E+04  0.00000000000E+00 0. -1.
<mgrwt>
<rscale>  4 0.34176382E+03</rscale>
<asrwt>0</asrwt>
<pdfrwt beam="1">  1       21 0.13411641E+00 0.34176382E+03</pdfrwt>
<pdfrwt beam="2">  1       21 0.17441345E+00 0.34176382E+03</pdfrwt>
<totfact> 0.67574400E+01</totfact>
</mgrwt>
</event>
<event>
 5    0  0.1531977E+001  0.3580019E+03  0.7546771E-02  0.1059378E+00
         21   -1    0    0  503  501  0.00000000000E+00  0.00000000000E+00  0.20849114444E+04  0.20849114444E+04  0.00000000000E+00 0.  1.
         21   -1    0    0  504  502 -0.00000000000E+00 -0.00000000000E+00 -0.29874289690E+03  0.29874289690E+03  0.00000000000E+00 0.  1.
         25    1    1    2    0    0  0.85795842640E+02  0.26696497609E+03 -0.17338432718E+02  0.30750096962E+03  0.12500000000E+03 0.  0.
         21    1    1    2  503  502 -0.25783201975E+03  0.37916240291E+02  0.23066510305E+02  0.26162388190E+03  0.00000000000E+00 0.  1.
         21    1    1    2  504  501  0.17203617711E+03 -0.30488121638E+03  0.17804404699E+04  0.18145294898E+04  0.00000000000E+00 0.  1.
<mgrwt>
<rscale>  4 0.35800189E+03</rscale>
<asrwt>0</asrwt>
<pdfrwt beam="1">  1       21 0.32075560E+00 0.35800189E+03</pdfrwt>
<pdfrwt beam="2">  1       21 0.45960447E-01 0.35800189E+03</pdfrwt>
<totfact> 0.96563202E+01</totfact>
</mgrwt>
</event>
<event>
 5    0  0.1531977E+001  0.2674348E+03  0.7546771E-02  0.1102757E+00
         21   -1    0    0  502  501  0.00000000000E+00  0.00000000000E+00  0.10009468747E+04  0.10009468747E+04  0.00000000000E+00 0.  1.
         21   -1    0    0  504  502 -0.00000000000E+00 -0.00000000000E+00 -0.38590827081E+03  0.38590827081E+03  0.00000000000E+00 0.  1.
         25    1    1    2    0    0  0.27167973534E+03  0.10415872143E+03  0.71132698176E+02  0.32456706332E+03  0.12500000000E+03 0.  0.
         21    1    1    2  503  501 -0.20469092147E+03 -0.10378648935E+03  0.78198355253E+03  0.81496520486E+03  0.00000000000E+00 0.  1.
         21    1    1    2  504  503 -0.66988813872E+02 -0.37223207040E+00 -0.23807764681E+03  0.24732287733E+03  0.00000000000E+00 0.  1.
<mgrwt>
<rscale>  4 0.26743479E+03</rscale>
<asrwt>0</asrwt>
<pdfrwt beam="1">  1       21 0.15399183E+00 0.26743479E+03</pdfrwt>
<pdfrwt beam="2">  1       21 0.59370504E-01 0.26743479E+03</pdfrwt>
<totfact> 0.68881082E+02</totfact>
</mgrwt>
</event>
<event>
 5    0  0.1531977E+001  0.3028478E+03  0.7546771E-02  0.1083826E+00
         21   -1    0    0  502  501  0.00000000000E+00  0.00000000000E+00  0.33317742085E+03  0.33317742085E+03  0.00000000000E+00 0.  1.
         21   -1    0    0  504  502 -0.00000000000E+00 -0.00000000000E+00 -0.56964003739E+03  0.56964003739E+03  0.00000000000E+00 0.  1.
         25    1    1    2    0    0 -0.22321665987E+03 -0.18564318432E+03 -0.36448223915E+03  0.48245349183E+03  0.12500000000E+03 0.  0.
         21    1    1    2  503  501  0.21787375076E+03  0.16539784428E+03  0.20420237989E+03  0.34135616314E+03  0.00000000000E+00 0.  1.
         21    1    1    2  504  503  0.53429091056E+01  0.20245340038E+02 -0.76182757273E+02  0.79007803264E+02  0.00000000000E+00 0.  1.
<mgrwt>
<rscale>  4 0.30284780E+03</rscale>
<asrwt>0</asrwt>
<pdfrwt beam="1">  1       21 0.51258065E-01 0.30284780E+03</pdfrwt>
<pdfrwt beam="2">  1       21 0.87636929E-01 0.30284780E+03</pdfrwt>
<totfact> 0.37568912E+03</totfact>
</mgrwt>
</event>
<event>
 5    0  0.1531977E+001  0.2561771E+03  0.7546771E-02  0.1109462E+00
         21   -1    0    0  504  501  0.00000000000E+00  0.00000000000E+00  0.28987754796E+03  0.28987754796E+03  0.00000000000E+00 0. -1.
         21   -1    0    0  501  502 -0.00000000000E+00 -0.00000000000E+00 -0.22136042848E+03  0.22136042848E+03  0.00000000000E+00 0. -1.
         25    1    1    2    0    0 -0.26373135648E+02 -0.22204987419E+03  0.63515072504E+02  0.26393342597E+03  0.12500000000E+03 0.  0.
         21    1    1    2  503  502  0.44359214688E+02  0.74712166002E+02  0.38665729406E+02  0.95103555701E+02  0.00000000000E+00 0. -1.
         21    1    1    2  504  503 -0.17986079041E+02  0.14733770819E+03 -0.33663682426E+02  0.15220099477E+03  0.00000000000E+00 0. -1.
<mgrwt>
<rscale>  4 0.25617707E+03</rscale>
<asrwt>0</asrwt>
<pdfrwt beam="1">  1       21 0.44596546E-01 0.25617707E+03</pdfrwt>
<pdfrwt beam="2">  1       21 0.34055450E-01 0.25617707E+03</pdfrwt>
<totfact> 0.38934221E+04</totfact>
</mgrwt>
</event>
<event>
 5    0  0.1531977E+001  0.2396131E+03  0.7546771E-02  0.1120051E+00
         21   -1    0    0  504  501  0.00000000000E+00  0.00000000000E+00  0.26771325174E+03  0.26771325174E+03  0.00000000000E+00 0.  1.
         21   -1    0    0  503  502 -0.00000000000E+00 -0.00000000000E+00 -0.93291320606E+03  0.93291320606E+03  0.00000000000E+00 0.  1.
         25    1    1    2    0    0  0.22677389923E+03 -0.38695625577E+02  0.16631062187E+03  0.31017410555E+03  0.12500000000E+03 0.  0.
         21    1    1    2  503  501 -0.20016333694E+03  0.34532173642E+02 -0.83839723889E+03  0.86265158822E+03  0.00000000000E+00 0.  1.
         21    1    1    2  504  502 -0.26610562284E+02  0.41634519354E+01  0.68866626981E+01  0.27800764022E+02  0.00000000000E+00 0.  1.
<mgrwt>
<rscale>  4 0.23961314E+03</rscale>
<asrwt>0</asrwt>
<pdfrwt beam="1">  1       21 0.41186655E-01 0.23961314E+03</pdfrwt>
<pdfrwt beam="2">  1       21 0.14352511E+00 0.23961314E+03</pdfrwt>
<totfact> 0.18274867E+03</totfact>
</mgrwt>
</event>
<event>
 5    0  0.1531977E+001  0.2753690E+03  0.7546771E-02  0.1098246E+00
         21   -1    0    0  502  501  0.00000000000E+00  0.00000000000E+00  0.16458976827E+03  0.16458976827E+03  0.00000000000E+00 0.  1.
         21   -1    0    0  504  502 -0.00000000000E+00 -0.00000000000E+00 -0.67224653727E+03  0.67224653727E+03  0.00000000000E+00 0.  1.
         25    1    1    2    0    0 -0.11334077930E+03 -0.23888938812E+03 -0.34632806605E+03  0.45330166705E+03  0.12500000000E+03 0.  0.
         21    1    1    2  503  501  0.34795707738E+02  0.24475040149E+02  0.54629988859E+02  0.69240194613E+02  0.00000000000E+00 0.  1.
         21    1    1    2  504  503  0.78545071560E+02  0.21441434797E+03 -0.21595869181E+03  0.31429444388E+03  0.00000000000E+00 0.  1.
<mgrwt>
<rscale>  4 0.27536897E+03</rscale>
<asrwt>0</asrwt>
<pdfrwt beam="1">  1       21 0.25321503E-01 0.27536897E+03</pdfrwt>
<pdfrwt beam="2">  1       21 0.10342255E+00 0.27536897E+03</pdfrwt>
<totfact> 0.10655709E+04</totfact>
</mgrwt>
</event>
<event>
 5    0  0.1531977E+001  0.2749546E+03  0.7546771E-02  0.1098477E+00
         21   -1    0    0  503  501  0.00000000000E+00  0.00000000000E+00  0.19226729915E+04  0.19226729915E+04  0.00000000000E+00 0. -1.
         21   -1    0    0  504  502 -0.00000000000E+00 -0.00000000000E+00 -0.45727314019E+02  0.45727314019E+02  0.00000000000E+00 0. -1.
         25    1    1    2    0    0 -0.92915572449E+02 -0.19557838663E+03  0.10112720236E+04  0.10417198830E+04  0.12500000000E+03 0.  0.
         21    1    1    2  503  502  0.15179906338E+03  0.21678375354E+03  0.64179061765E+03  0.69421419486E+03  0.00000000000E+00 0. -1.
         21    1    1    2  504  501 -0.58883490930E+02 -0.21205366905E+02  0.22388303621E+03  0.23246622763E+03  0.00000000000E+00 0.  1.
<mgrwt>
<rscale>  4 0.27495461E+03</rscale>
<asrwt>0</asrwt>
<pdfrwt beam="1">  1       21 0.29579578E+00 0.27495461E+03</pdfrwt>
<pdfrwt beam="2">  1       21 0.70349729E-02 0.27495461E+03</pdfrwt>
<totfact> 0.50005814E+03</totfact>
</mgrwt>
</event>
<event>
 5    0  0.1531977E+001  0.3554832E+03  0.7546771E-02  0.1060387E+00
         21   -1    0    0  504  501  0.00000000000E+00  0.00000000000E+00  0.17962137948E+04  0.17962137948E+04  0.00000000000E+00 0.  1.
         21   -1    0    0  501  502 -0.00000000000E+00 -0.00000000000E+00 -0.10126072837E+03  0.10126072837E+03  0.00000000000E+00 0.  1.
         25    1    1    2    0    0 -0.18393568201E+03  0.30491142908E+03  0.10703097532E+04  0.11348970361E+04  0.12500000000E+03 0.  0.
         21    1    1    2  503  502  0.10040758098E+03  0.11404526537E+02  0.22094266986E+03  0.24295556983E+03  0.00000000000E+00 0.  1.
         21    1    1    2  504  503  0.83528101036E+02 -0.31631595562E+03  0.40370064334E+03  0.51962191724E+03  0.00000000000E+00 0.  1.
<mgrwt>
<rscale>  4 0.35548317E+03</rscale>
<asrwt>0</asrwt>
<pdfrwt beam="1">  1       21 0.27634056E+00 0.35548317E+03</pdfrwt>
<pdfrwt beam="2">  1       21 0.15578575E-01 0.35548317E+03</pdfrwt>
<totfact> 0.14788645E+03</totfact>
</mgrwt>
</event>
<event>
 5    0  0.1531977E+001  0.2376161E+03  0.7546771E-02  0.1121391E+00
         21   -1    0    0  503  501  0.00000000000E+00  0.00000000000E+00  0.39847790755E+02  0.39847790755E+02  0.00000000000E+00 0. -1.
         21   -1    0    0  504  502 -0.00000000000E+00 -0.00000000000E+00 -0.29851870169E+04  0.29851870169E+04  0.00000000000E+00 0. -1.
         25    1    1    2    0    0 -0.24895086198E+02 -0.25340857905E+03 -0.12170474328E+04  0.12496660061E+04  0.12500000000E+03 0.  0.
         21    1    1    2  503  502  0.36587160749E+02  0.18217959576E+03 -0.16759175994E+04  0.16861873636E+04  0.00000000000E+00 0. -1.
         21    1    1    2  504  501 -0.11692074552E+02  0.71228983289E+02 -0.52374194043E+02  0.89181437920E+02  0.00000000000E+00 0. -1.
<mgrwt>
<rscale>  4 0.23761613E+03</rscale>
<asrwt>0</asrwt>
<pdfrwt beam="1">  1       21 0.61304276E-02 0.23761613E+03</pdfrwt>
<pdfrwt beam="2">  1       21 0.45925967E+00 0.23761613E+03</pdfrwt>
<totfact> 0.64156804E+02</totfact>
</mgrwt>
</event>
<event>
 5    0  0.1531977E+001  0.2357322E+03  0.7546771E-02  0.1122669E+00
         21   -1    0    0  503  501  0.00000000000E+00  0.00000000000E+00  0.14991710839E+03  0.14991710839E+03  0.00000000000E+00 0. -1.
         21   -1    0    0  504  502 -0.00000000000E+00 -0.00000000000E+00 -0.57412135826E+03  0.57412135826E+03  0.00000000000E+00 0. -1.
         25    1    1    2    0    0 -0.11728366633E+03 -0.17022857636E+03 -0.15788697497E+03  0.28859404613E+03  0.12500000000E+03 0.  0.
         21    1    1    2  503  502 -0.44402394443E+02  0.52232854254E+02 -0.21939272710E+03  0.22985432866E+03  0.00000000000E+00 0. -1.
         21    1    1    2  504  501  0.16168606077E+03  0.11799572210E+03 -0.46924547799E+02  0.20559009186E+03  0.00000000000E+00 0. -1.
<mgrwt>
<rscale>  4 0.23573217E+03</rscale>
<asrwt>0</asrwt>
<pdfrwt beam="1">  1       21 0.23064171E-01 0.23573217E+03</pdfrwt>
<pdfrwt beam="2">  1       21 0.88326363E-01 0.23573217E+03</pdfrwt>
<totfact> 0.18890893E+04</totfact>
</mgrwt>
</event>
<event>
 5    0  0.1531977E+001  0.2600009E+03  0.7546771E-02  0.1107143E+00
         21   -1    0    0  503  501  0.00000000000E+00  0.00000000000E+00  0.24904242315E+03  0.24904242315E+03  0.00000000000E+00 0.  1.
         21   -1    0    0  504  502 -0.00000000000E+00 -0.00000000000E+00 -0.34190474334E+03  0.34190474334E+03  0.00000000000E+00 0.  1.
         25    1    1    2    0    0 -0.20145465519E+03 -0.95700066213E+02  0.17853605240E+02  0.25629325389E+03  0.12500000000E+03 0.  0.
         21    1    1    2  503  502  0.22080288682E+03  0.67687266062E+02 -0.15548664861E+03  0.27840901334E+03  0.00000000000E+00 0.  1.
         21    1    1    2  504  501 -0.19348231626E+02  0.28012800152E+02  0.44770723173E+02  0.56244899260E+02  0.00000000000E+00 0. -1.
<mgrwt>
<rscale>  4 0.26000085E+03</rscale>
<asrwt>0</asrwt>
<pdfrwt beam="1">  1       21 0.38314219E-01 0.26000085E+03</pdfrwt>
<pdfrwt beam="2">  1       21 0.52600729E-01 0.26000085E+03</pdfrwt>
<totfact> 0.21729220E+04</totfact>
</mgrwt>
</event>
<event>
 5    0  0.1531977E+001  0.2244881E+03  0.7546771E-02  0.1130581E+00
         21   -1    0    0  502  501  0.00000000000E+00  0.00000000000E+00  0.37277403217E+03  0.37277403217E+03  0.00000000000E+00 0.  1.
         21   -1    0    0  504  502 -0.00000000000E+00 -0.00000000000E+00 -0.26979267121E+03  0.26979267121E+03  0.00000000000E+00 0.  1.
         25    1    1    2    0    0  0.20248483504E+03  0.75093326221E+01 -0.15339369097E+03  0.28321568270E+03  0.12500000000E+03 0.  0.
         21    1    1    2  503  501 -0.18173750155E+03  0.33615617303E+02  0.25279305196E+03  0.31314989432E+03  0.00000000000E+00 0.  1.
         21    1    1    2  504  503 -0.20747333490E+02 -0.41124949925E+02  0.35819999681E+01  0.46201126361E+02  0.00000000000E+00 0. -1.
<mgrwt>
<rscale>  4 0.22448809E+03</rscale>
<asrwt>0</asrwt>
<pdfrwt beam="1">  1       21 0.57349851E-01 0.22448809E+03</pdfrwt>
<pdfrwt beam="2">  1       21 0.41506565E-01 0.22448809E+03</pdfrwt>
<totfact> 0.15646263E+04</totfact>
</mgrwt>
</event>
<event>
 5    0  0.1531977E+001  0.3582745E+03  0.7546771E-02  0.1059269E+00
         21   -1    0    0  502  501  0.00000000000E+00  0.00000000000E+00  0.39983158283E+03  0.39983158283E+03  0.00000000000E+00 0. -1.
         21   -1    0    0  504  502 -0.00000000000E+00 -0.00000000000E+00 -0.57697702237E+03  0.57697702237E+03  0.00000000000E+00 0. -1.
         25    1    1    2    0    0  0.80535252284E+02  0.32624168533E+03 -0.29181350504E+03  0.46227663344E+03  0.12500000000E+03 0.  0.
         21    1    1    2  503  501 -0.99978174026E+02 -0.32058552467E+03  0.22378812893E+03  0.40354905595E+03  0.00000000000E+00 0. -1.
         21    1    1    2  504  503  0.19442921742E+02 -0.56561606571E+01 -0.10912006342E+03  0.11098291581E+03  0.00000000000E+00 0.  1.
<mgrwt>
<rscale>  4 0.35827452E+03</rscale>
<asrwt>0</asrwt>
<pdfrwt beam="1">  1       21 0.61512552E-01 0.35827452E+03</pdfrwt>
<pdfrwt beam="2">  1       21 0.88765695E-01 0.35827452E+03</pdfrwt>
<totfact> 0.23956566E+03</totfact>
</mgrwt>
</event>
<event>
 5    0  0.1531977E+001  0.2256768E+03  0.7546771E-02  0.1129720E+00
         21   -1    0    0  504  501  0.00000000000E+00  0.00000000000E+00  0.10632242820E+04  0.10632242820E+04  0.00000000000E+00 0. -1.
         21   -1    0    0  503  502 -0.00000000000E+00 -0.00000000000E+00 -0.18965077097E+03  0.18965077097E+03  0.00000000000E+00 0. -1.
         25    1    1    2    0    0 -0.91460640261E+02  0.18660981351E+03 -0.66270166365E+02  0.25140605833E+03  0.12500000000E+03 0.  0.
         21    1    1    2  503  501 -0.15594820711E+02 -0.33428780229E+02 -0.59713952748E+01  0.37367624251E+02  0.00000000000E+00 0. -1.
         21    1    1    2  504  502  0.10705546097E+03 -0.15318103328E+03  0.94581507270E+03  0.96410137041E+03  0.00000000000E+00 0. -1.
<mgrwt>
<rscale>  4 0.22567681E+03</rscale>
<asrwt>0</asrwt>
<pdfrwt beam="1">  1       21 0.16357296E+00 0.22567681E+03</pdfrwt>
<pdfrwt beam="2">  1       21 0.29177042E-01 0.22567681E+03</pdfrwt>
<totfact> 0.25893505E+03</totfact>
</mgrwt>
</event>
<event>
 5    0  0.1531977E+001  0.2647477E+03  0.7546771E-02  0.1104324E+00
         21   -1    0    0  502  501  0.00000000000E+00  0.00000000000E+00  0.56233243428E+03  0.56233243428E+03  0.00000000000E+00 0.  1.
         21   -1    0    0  504  502 -0.00000000000E+00 -0.00000000000E+00 -0.24421174596E+03  0.24421174596E+03  0.00000000000E+00 0. -1.
         25    1    1    2    0    0 -0.24057446695E+03  0.67089068072E+02  0.39187959594E+03  0.48121890541E+03  0.12500000000E+03 0.  0.
         21    1    1    2  503  501  0.13825293262E+02 -0.23277899484E+02  0.54718941219E+02  0.61050486208E+02  0.00000000000E+00 0.  1.
         21    1    1    2  504  503  0.22674917368E+03 -0.43811168589E+02 -0.12847784884E+03  0.26427478863E+03  0.00000000000E+00 0. -1.
<mgrwt>
<rscale>  4 0.26474767E+03</rscale>
<asrwt>0</asrwt>
<pdfrwt beam="1">  1       21 0.86512682E-01 0.26474767E+03</pdfrwt>
<pdfrwt beam="2">  1       21 0.37571038E-01 0.26474767E+03</pdfrwt>
<totfact> 0.75073481E+03</totfact>
</mgrwt>
</event>
<event>
 5    0  0.1531977E+001  0.2216541E+03  0.7546771E-02  0.1132656E+00
         21   -1    0    0  502  501  0.00000000000E+00  0.00000000000E+00  0.87140551746E+03  0.87140551746E+03  0.00000000000E+00 0. -1.
         21   -1    0    0  504  502 -0.00000000000E+00 -0.00000000000E+00 -0.29528090304E+03  0.29528090304E+03  0.00000000000E+00 0. -1.
         25    1    1    2    0    0  0.20616748360E+03  0.19697200160E+02  0.65308973526E+03  0.69645115643E+03  0.12500000000E+03 0.  0.
         21    1    1    2  503  501 -0.29572839431E+02  0.24564334286E+02  0.16387657547E+03  0.16832555165E+03  0.00000000000E+00 0. -1.
         21    1    1    2  504  503 -0.17659464417E+03 -0.44261534445E+02 -0.24084169630E+03  0.30190971243E+03  0.00000000000E+00 0. -1.
<mgrwt>
<rscale>  4 0.22165414E+03</rscale>
<asrwt>0</asrwt>
<pdfrwt beam="1">  1       21 0.13406239E+00 0.22165414E+03</pdfrwt>
<pdfrwt beam="2">  1       21 0.45427832E-01 0.22165414E+03</pdfrwt>
<totfact> 0.18099666E+03</totfact>
</mgrwt>
</event>
<event>
 5    0  0.1531977E+001  0.3885031E+03  0.7546771E-02  0.1047835E+00
         21   -1    0    0  502  501  0.00000000000E+00  0.00000000000E+00  0.49303703854E+03  0.49303703854E+03  0.00000000000E+00 0.  1.
         21   -1    0    0  504  502 -0.00000000000E+00 -0.00000000000E+00 -0.14236595736E+04  0.14236595736E+04  0.00000000000E+00 0. -1.
         25    1    1    2    0    0 -0.26815951459E+03  0.38029440613E+03  0.28941647052E+03  0.56206783755E+03  0.12500000000E+03 0.  0.
         21    1    1    2  503  501  0.72670446446E+02 -0.75943499769E+02 -0.27802571929E+02  0.10872622476E+03  0.00000000000E+00 0.  1.
         21    1    1    2  504  503  0.19548906814E+03 -0.30435090636E+03 -0.11922364336E+04  0.12459025498E+04  0.00000000000E+00 0. -1.
<mgrwt>
<rscale>  4 0.38850308E+03</rscale>
<asrwt>0</asrwt>
<pdfrwt beam="1">  1       21 0.75851854E-01 0.38850308E+03</pdfrwt>
<pdfrwt beam="2">  1       21 0.21902454E+00 0.38850308E+03</pdfrwt>
<totfact> 0.13082019E+02</totfact>
</mgrwt>
</event>
<event>
 5    0  0.1531977E+001  0.2171365E+03  0.7546771E-02  0.1136036E+00
         21   -1    0    0  503  501  0.00000000000E+00  0.00000000000E+00  0.24228294084E+03  0.24228294084E+03  0.00000000000E+00 0. -1.
         21   -1    0    0  504  502 -0.00000000000E+00 -0.00000000000E+00 -0.65105889602E+03  0.65105889602E+03  0.00000000000E+00 0. -1.
         25    1    1    2    0    0 -0.20173998122E+03  0.85849779222E+02 -0.43161939015E+03  0.49998950246E+03  0.12500000000E+03 0.  0.
         21    1    1    2  503  502  0.31383743837E+02 -0.48240265695E+02 -0.14207090238E+03  0.15328471520E+03  0.00000000000E+00 0. -1.
         21    1    1    2  504  501  0.17035623738E+03 -0.37609513527E+02  0.16491433735E+03  0.24006761920E+03  0.00000000000E+00 0. -1.
<mgrwt>
<rscale>  4 0.21713648E+03</rscale>
<asrwt>0</asrwt>
<pdfrwt beam="1">  1       21 0.37274300E-01 0.21713648E+03</pdfrwt>
<pdfrwt beam="2">  1       21 0.10016290E+00 0.21713648E+03</pdfrwt>
<totfact> 0.55727678E+03</totfact>
</mgrwt>
</event>
<event>
 5    0  0.1531977E+001  0.2657348E+03  0.7546771E-02  0.1103746E+00
         21   -1    0    0  503  501  0.00000000000E+00  0.00000000000E+00  0.12077219744E+03  0.12077219744E+03  0.00000000000E+00 0. -1.
         21   -1    0    0  501  502 -0.00000000000E+00 -0.00000000000E+00 -0.76869146623E+03  0.76869146623E+03  0.00000000000E+00 0. -1.
         25    1    1    2    0    0 -0.23574461346E+03 -0.40602930293E+02 -0.53679219670E+03  0.60082858051E+03  0.12500000000E+03 0.  0.
         21    1    1    2  503  504  0.32329927718E+01  0.20556488126E+02 -0.39280295223E+02  0.44451805803E+02  0.00000000000E+00 0.  1.
         21    1    1    2  504  502  0.23251162068E+03  0.20046442166E+02 -0.71846776868E+02  0.24418327736E+03  0.00000000000E+00 0. -1.
<mgrwt>
<rscale>  4 0.26573484E+03</rscale>
<asrwt>0</asrwt>
<pdfrwt beam="1">  1       21 0.18580338E-01 0.26573484E+03</pdfrwt>
<pdfrwt beam="2">  1       21 0.11826022E+00 0.26573484E+03</pdfrwt>
<totfact> 0.13877633E+04</totfact>
</mgrwt>
</event>
<event>
 5    0  0.1531977E+001  0.2454989E+03  0.7546771E-02  0.1116183E+00
         21   -1    0    0  502  501  0.00000000000E+00  0.00000000000E+00  0.70991815495E+03  0.70991815495E+03  0.00000000000E+00 0. -1.
         21   -1    0    0  504  502 -0.00000000000E+00 -0.00000000000E+00 -0.46479289399E+03  0.46479289399E+03  0.00000000000E+00 0. -1.
         25    1    1    2    0    0  0.23594438764E+03 -0.82311409415E+02  0.53677185943E+03  0.60513961302E+03  0.12500000000E+03 0.  0.
         21    1    1    2  503  501 -0.64402209556E+02 -0.38707037700E+02  0.10007381798E+03  0.12514251239E+03  0.00000000000E+00 0.  1.
         21    1    1    2  504  503 -0.17154217808E+03  0.12101844712E+03 -0.39172041645E+03  0.44442892352E+03  0.00000000000E+00 0. -1.
<mgrwt>
<rscale>  4 0.24549889E+03</rscale>
<asrwt>0</asrwt>
<pdfrwt beam="1">  1       21 0.10921818E+00 0.24549889E+03</pdfrwt>
<pdfrwt beam="2">  1       21 0.71506599E-01 0.24549889E+03</pdfrwt>
<totfact> 0.11202069E+03</totfact>
</mgrwt>
</event>
<event>
 5    0  0.1531977E+001  0.2704204E+03  0.7546771E-02  0.1101039E+00
         21   -1    0    0  502  501  0.00000000000E+00  0.00000000000E+00  0.39241566932E+03  0.39241566932E+03  0.00000000000E+00 0. -1.
         21   -1    0    0  504  502 -0.00000000000E+00 -0.00000000000E+00 -0.65903361201E+03  0.65903361201E+03  0.00000000000E+00 0. -1.
         25    1    1    2    0    0  0.26865434278E+03  0.23816305000E+03 -0.29610565199E+03  0.48187171677E+03  0.12500000000E+03 0.  0.
         21    1    1    2  503  501 -0.99441129749E+02 -0.20488346381E+03  0.21717463474E+03  0.31469126775E+03  0.00000000000E+00 0. -1.
         21    1    1    2  504  503 -0.16921321303E+03 -0.33279586193E+02 -0.18768692543E+03  0.25488629681E+03  0.00000000000E+00 0. -1.
<mgrwt>
<rscale>  4 0.27042037E+03</rscale>
<asrwt>0</asrwt>
<pdfrwt beam="1">  1       21 0.60371642E-01 0.27042037E+03</pdfrwt>
<pdfrwt beam="2">  1       21 0.10138979E+00 0.27042037E+03</pdfrwt>
<totfact> 0.19108600E+03</totfact>
</mgrwt>
</event>
<event>
 5    0  0.1531977E+001  0.2634122E+03  0.7546771E-02  0.1105110E+00
         21   -1    0    0  504  501  0.00000000000E+00  0.00000000000E+00  0.66510561562E+03  0.66510561562E+03  0.00000000000E+00 0.  1.
         21   -1    0    0  503  502 -0.00000000000E+00 -0.00000000000E+00 -0.24850972424E+03  0.24850972424E+03  0.00000000000E+00 0.  1.
         25    1    1    2    0    0 -0.23227162935E+03  0.38873051782E+01  0.45363349444E+03  0.52476048653E+03  0.12500000000E+03 0.  0.
         21    1    1    2  503  501  0.23060446939E+03 -0.24611116835E+02 -0.14855646328E+03  0.27541450789E+03  0.00000000000E+00 0.  1.
         21    1    1    2  504  502  0.16671599668E+01  0.20723811657E+02  0.11151886021E+03  0.11344034545E+03  0.00000000000E+00 0. -1.
<mgrwt>
<rscale>  4 0.26341221E+03</rscale>
<asrwt>0</asrwt>
<pdfrwt beam="1">  1       21 0.10232394E+00 0.26341221E+03</pdfrwt>
<pdfrwt beam="2">  1       21 0.38232266E-01 0.26341221E+03</pdfrwt>
<totfact> 0.48809794E+03</totfact>
</mgrwt>
</event>
<event>
 5    0  0.1531977E+001  0.2027473E+03  0.7546771E-02  0.1147442E+00
         21   -1    0    0  502  501  0.00000000000E+00  0.00000000000E+00  0.51999185651E+03  0.51999185651E+03  0.00000000000E+00 0.  1.
         21   -1    0    0  504  502 -0.00000000000E+00 -0.00000000000E+00 -0.14916773157E+04  0.14916773157E+04  0.00000000000E+00 0. -1.
         25    1    1    2    0    0  0.10273778501E+03 -0.19533206608E+03  0.40950821006E+02  0.25692730149E+03  0.12500000000E+03 0.  0.
         21    1    1    2  503  501  0.36355301202E+02  0.11865719524E+03  0.35595343221E+03  0.37696695320E+03  0.00000000000E+00 0.  1.
         21    1    1    2  504  503 -0.13909308622E+03  0.76674870840E+02 -0.13685897124E+04  0.13777749175E+04  0.00000000000E+00 0. -1.
<mgrwt>
<rscale>  4 0.20274732E+03</rscale>
<asrwt>0</asrwt>
<pdfrwt beam="1">  1       21 0.79998747E-01 0.20274732E+03</pdfrwt>
<pdfrwt beam="2">  1       21 0.22948882E+00 0.20274732E+03</pdfrwt>
<totfact> 0.11939693E+02</totfact>
</mgrwt>
</event>
<event>
 5    0  0.1531977E+001  0.2394982E+03  0.7546771E-02  0.1120128E+00
         21   -1    0    0  502  501  0.00000000000E+00  0.00000000000E+00  0.28943796113E+03  0.28943796113E+03  0.00000000000E+00 0. -1.
         21   -1    0    0  504  502 -0.00000000000E+00 -0.00000000000E+00 -0.32362604910E+03  0.32362604910E+03  0.00000000000E+00 0. -1.
         25    1    1    2    0    0  0.21247686913E+03  0.33181498326E+02 -0.59622641523E+02  0.25578758986E+03  0.12500000000E+03 0.  0.
         21    1    1    2  503  501 -0.14889632499E+03 -0.15385328969E+03  0.46951470912E+02  0.21919258875E+03  0.00000000000E+00 0. -1.
         21    1    1    2  504  503 -0.63580544141E+02  0.12067179136E+03 -0.21516917357E+02  0.13808383162E+03  0.00000000000E+00 0. -1.
<mgrwt>
<rscale>  4 0.23949817E+03</rscale>
<asrwt>0</asrwt>
<pdfrwt beam="1">  1       21 0.44528917E-01 0.23949817E+03</pdfrwt>
<pdfrwt beam="2">  1       21 0.49788623E-01 0.23949817E+03</pdfrwt>
<totfact> 0.18124392E+04</totfact>
</mgrwt>
</event>
<event>
 5    0  0.1531977E+001  0.2427119E+03  0.7546771E-02  0.1117999E+00
         21   -1    0    0  504  501  0.00000000000E+00  0.00000000000E+00  0.98231095940E+03  0.98231095940E+03  0.00000000000E+00 0.  1.
         21   -1    0    0  503  502 -0.00000000000E+00 -0.00000000000E+00 -0.98624147471E+02  0.98624147471E+02  0.00000000000E+00 0.  1.
         25    1    1    2    0    0  0.27014901961E+02 -0.22404891899E+03  0.71747519885E+03  0.76244565970E+03  0.12500000000E+03 0.  0.
         21    1    1    2  503  501 -0.56310908464E+02  0.44727480516E+02 -0.47605809534E+00  0.71914480855E+02  0.00000000000E+00 0.  1.
         21    1    1    2  504  502  0.29296006503E+02  0.17932143847E+03  0.16668767117E+03  0.24657496632E+03  0.00000000000E+00 0.  1.
<mgrwt>
<rscale>  4 0.24271191E+03</rscale>
<asrwt>0</asrwt>
<pdfrwt beam="1">  1       21 0.15112476E+00 0.24271191E+03</pdfrwt>
<pdfrwt beam="2">  1       21 0.15172946E-01 0.24271191E+03</pdfrwt>
<totfact> 0.10878398E+04</totfact>
</mgrwt>
</event>
<event>
 5    0  0.1531977E+001  0.2397283E+03  0.7546771E-02  0.1119974E+00
         21   -1    0    0  502  501  0.00000000000E+00  0.00000000000E+00  0.28812913764E+03  0.28812913764E+03  0.00000000000E+00 0.  1.
         21   -1    0    0  504  502 -0.00000000000E+00 -0.00000000000E+00 -0.43365486604E+03  0.43365486604E+03  0.00000000000E+00 0.  1.
         25    1    1    2    0    0  0.13104197291E+03  0.16319196815E+03 -0.29579800069E+03  0.38330806715E+03  0.12500000000E+03 0.  0.
         21    1    1    2  503  501  0.32585066379E+02 -0.50784074211E+02  0.12442336776E+03  0.13828225912E+03  0.00000000000E+00 0.  1.
         21    1    1    2  504  503 -0.16362703929E+03 -0.11240789394E+03  0.25848904527E+02  0.20019367740E+03  0.00000000000E+00 0.  1.
<mgrwt>
<rscale>  4 0.23972835E+03</rscale>
<asrwt>0</asrwt>
<pdfrwt beam="1">  1       21 0.44327560E-01 0.23972835E+03</pdfrwt>
<pdfrwt beam="2">  1       21 0.66716132E-01 0.23972835E+03</pdfrwt>
<totfact> 0.97638459E+03</totfact>
</mgrwt>
</event>
<event>
 5    0  0.1531977E+001  0.2448830E+03  0.7546771E-02  0.1116582E+00
         21   -1    0    0  503  501  0.00000000000E+00  0.00000000000E+00  0.39958638635E+03  0.39958638635E+03  0.00000000000E+00 0. -1.
         21   -1    0    0  504  502 -0.00000000000E+00 -0.00000000000E+00 -0.53053597383E+03  0.53053597383E+03  0.00000000000E+00 0. -1.
         25    1    1    2    0    0 -0.35250439225E+03  0.28040481179E+02  0.14285032085E+03  0.40134377946E+03  0.12500000000E+03 0.  0.
         21    1    1    2  503  502  0.19478660881E+03  0.21202322902E+02 -0.30315670786E+03  0.36096447331E+03  0.00000000000E+00 0. -1.
         21    1    1    2  504  501  0.15771778344E+03 -0.49242804081E+02  0.29356799536E+02  0.16781410741E+03  0.00000000000E+00 0.  1.
<mgrwt>
<rscale>  4 0.24488295E+03</rscale>
<asrwt>0</asrwt>
<pdfrwt beam="1">  1       21 0.61474828E-01 0.24488295E+03</pdfrwt>
<pdfrwt beam="2">  1       21 0.81620919E-01 0.24488295E+03</pdfrwt>
<totfact> 0.31051068E+03</totfact>
</mgrwt>
</event>
<event>
 5    0  0.1531977E+001  0.4312867E+03  0.7546771E-02  0.1033454E+00
         21   -1    0    0  504  501  0.00000000000E+00  0.00000000000E+00  0.22320749989E+04  0.22320749989E+04  0.00000000000E+00 0.  1.
         21   -1    0    0  503  502 -0.00000000000E+00 -0.00000000000E+00 -0.32009509773E+03  0.32009509773E+03  0.00000000000E+00 0.  1.
         25    1    1    2    0    0  0.23018303162E+03 -0.31938893508E+03 -0.13791867953E+03  0.43547684446E+03  0.12500000000E+03 0.  0.
         21    1    1    2  503  501  0.22027706041E+02 -0.91261618961E+01 -0.15125354131E+01  0.23891304438E+02  0.00000000000E+00 0. -1.
         21    1    1    2  504  502 -0.25221073766E+03  0.32851509697E+03  0.20514111161E+04  0.20928019478E+04  0.00000000000E+00 0.  1.
<mgrwt>
<rscale>  4 0.43128672E+03</rscale>
<asrwt>0</asrwt>
<pdfrwt beam="1">  1       21 0.34339614E+00 0.43128672E+03</pdfrwt>
<pdfrwt beam="2">  1       21 0.49245401E-01 0.43128672E+03</pdfrwt>
<totfact> 0.57512410E+01</totfact>
</mgrwt>
</event>
<event>
 5    0  0.1531977E+001  0.2574788E+03  0.7546771E-02  0.1108668E+00
         21   -1    0    0  503  501  0.00000000000E+00  0.00000000000E+00  0.20246830090E+03  0.20246830090E+03  0.00000000000E+00 0.  1.
         21   -1    0    0  501  502 -0.00000000000E+00 -0.00000000000E+00 -0.60946816799E+03  0.60946816799E+03  0.00000000000E+00 0.  1.
         25    1    1    2    0    0 -0.14243086457E+03 -0.16340389379E+03 -0.27913772131E+03  0.37487364690E+03  0.12500000000E+03 0.  0.
         21    1    1    2  503  504  0.36994083561E+02  0.26422443112E+03 -0.11527057607E+03  0.29063794991E+03  0.00000000000E+00 0.  1.
         21    1    1    2  504  502  0.10543678100E+03 -0.10082053733E+03 -0.12591569713E+02  0.14642487208E+03  0.00000000000E+00 0.  1.
<mgrwt>
<rscale>  4 0.25747882E+03</rscale>
<asrwt>0</asrwt>
<pdfrwt beam="1">  1       21 0.31148970E-01 0.25747882E+03</pdfrwt>
<pdfrwt beam="2">  1       21 0.93764332E-01 0.25747882E+03</pdfrwt>
<totfact> 0.90767499E+03</totfact>
</mgrwt>
</event>
<event>
 5    0  0.1531977E+001  0.2421862E+03  0.7546771E-02  0.1118345E+00
         21   -1    0    0  504  501  0.00000000000E+00  0.00000000000E+00  0.37581645908E+03  0.37581645908E+03  0.00000000000E+00 0.  1.
         21   -1    0    0  503  502 -0.00000000000E+00 -0.00000000000E+00 -0.56479143252E+03  0.56479143252E+03  0.00000000000E+00 0.  1.
         25    1    1    2    0    0  0.19380842681E+03  0.94121100262E+02 -0.45799965875E+03  0.52135321543E+03  0.12500000000E+03 0.  0.
         21    1    1    2  503  501 -0.32059844191E+02  0.35430724127E+02 -0.29272719737E+02  0.56036255607E+02  0.00000000000E+00 0.  1.
         21    1    1    2  504  502 -0.16174858262E+03 -0.12955182439E+03  0.29829740505E+03  0.36321842057E+03  0.00000000000E+00 0.  1.
<mgrwt>
<rscale>  4 0.24218619E+03</rscale>
<asrwt>0</asrwt>
<pdfrwt beam="1">  1       21 0.57817917E-01 0.24218619E+03</pdfrwt>
<pdfrwt beam="2">  1       21 0.86890990E-01 0.24218619E+03</pdfrwt>
<totfact> 0.30753676E+03</totfact>
</mgrwt>
</event>
<event>
 5    0  0.1531977E+001  0.2970429E+03  0.7546771E-02  0.1086728E+00
         21   -1    0    0  502  501  0.00000000000E+00  0.00000000000E+00  0.58075519886E+02  0.58075519886E+02  0.00000000000E+00 0.  1.
         21   -1    0    0  504  502 -0.00000000000E+00 -0.00000000000E+00 -0.28977307871E+04  0.28977307871E+04  0.00000000000E+00 0.  1.
         25    1    1    2    0    0 -0.17296357435E+02  0.27841779645E+03 -0.43936693379E+03  0.53524194143E+03  0.12500000000E+03 0.  0.
         21    1    1    2  503  501  0.21130788528E+02 -0.23962068301E+03 -0.14775825003E+04  0.14970352792E+04  0.00000000000E+00 0.  1.
         21    1    1    2  504  503 -0.38344310927E+01 -0.38797113438E+02 -0.92270583307E+03  0.92352908631E+03  0.00000000000E+00 0. -1.
<mgrwt>
<rscale>  4 0.29704291E+03</rscale>
<asrwt>0</asrwt>
<pdfrwt beam="1">  1       21 0.89346960E-02 0.29704291E+03</pdfrwt>
<pdfrwt beam="2">  1       21 0.44580470E+00 0.29704291E+03</pdfrwt>
<totfact> 0.38159907E+02</totfact>
</mgrwt>
</event>
<event>
 5    0  0.1531977E+001  0.5252552E+03  0.7546771E-02  0.1007389E+00
         21   -1    0    0  502  501  0.00000000000E+00  0.00000000000E+00  0.35286202811E+03  0.35286202811E+03  0.00000000000E+00 0. -1.
         21   -1    0    0  504  502 -0.00000000000E+00 -0.00000000000E+00 -0.21464219261E+04  0.21464219261E+04  0.00000000000E+00 0. -1.
         25    1    1    2    0    0  0.47784774215E+03  0.18904912806E+02 -0.17890468325E+04  0.18560736595E+04  0.12500000000E+03 0.  0.
         21    1    1    2  503  501 -0.50939864392E+03 -0.69481269565E+02  0.99188852170E+02  0.52359626970E+03  0.00000000000E+00 0. -1.
         21    1    1    2  504  503  0.31550901772E+02  0.50576356759E+02 -0.10370191766E+03  0.11961402507E+03  0.00000000000E+00 0.  1.
<mgrwt>
<rscale>  4 0.52525521E+03</rscale>
<asrwt>0</asrwt>
<pdfrwt beam="1">  1       21 0.54286467E-01 0.52525521E+03</pdfrwt>
<pdfrwt beam="2">  1       21 0.33021875E+00 0.52525521E+03</pdfrwt>
<totfact> 0.52813412E+01</totfact>
</mgrwt>
</event>
<event>
 5    0  0.1531977E+001  0.5300700E+03  0.7546771E-02  0.1006215E+00
         21   -1    0    0  502  501  0.00000000000E+00  0.00000000000E+00  0.41148682831E+03  0.41148682831E+03  0.00000000000E+00 0.  1.
         21   -1    0    0  504  502 -0.00000000000E+00 -0.00000000000E+00 -0.99546553434E+03  0.99546553434E+03  0.00000000000E+00 0.  1.
         25    1    1    2    0    0  0.66984827333E+02  0.52323487797E+03  0.79683712710E+02  0.54793813399E+03  0.12500000000E+03 0.  0.
         21    1    1    2  503  501  0.11301039339E+02 -0.17539073114E+02  0.14253609188E+00  0.20865111846E+02  0.00000000000E+00 0. -1.
         21    1    1    2  504  503 -0.78285866672E+02 -0.50569580485E+03 -0.66380495482E+03  0.83814911681E+03  0.00000000000E+00 0.  1.
<mgrwt>
<rscale>  4 0.53006999E+03</rscale>
<asrwt>0</asrwt>
<pdfrwt beam="1">  1       21 0.63305666E-01 0.53006999E+03</pdfrwt>
<pdfrwt beam="2">  1       21 0.15314854E+00 0.53006999E+03</pdfrwt>
<totfact> 0.52652942E+02</totfact>
</mgrwt>
</event>
<event>
 5    0  0.1531977E+001  0.3728786E+03  0.7546771E-02  0.1053598E+00
         21   -1    0    0  503  501  0.00000000000E+00  0.00000000000E+00  0.84015049063E+03  0.84015049063E+03  0.00000000000E+00 0. -1.
         21   -1    0    0  501  502 -0.00000000000E+00 -0.00000000000E+00 -0.16124147819E+03  0.16124147819E+03  0.00000000000E+00 0. -1.
         25    1    1    2    0    0 -0.34575531524E+03  0.62182874644E+02  0.26964915264E+03  0.46016205128E+03  0.12500000000E+03 0.  0.
         21    1    1    2  503  504  0.35667184481E+02  0.11673245511E+01  0.25839994967E+02  0.44059233258E+02  0.00000000000E+00 0.  1.
         21    1    1    2  504  502  0.31008813076E+03 -0.63350199196E+02  0.38341986483E+03  0.49717068429E+03  0.00000000000E+00 0. -1.
<mgrwt>
<rscale>  4 0.37287860E+03</rscale>
<asrwt>0</asrwt>
<pdfrwt beam="1">  1       21 0.12925392E+00 0.37287860E+03</pdfrwt>
<pdfrwt beam="2">  1       21 0.24806382E-01 0.37287860E+03</pdfrwt>
<totfact> 0.60874562E+03</totfact>
</mgrwt>
</event>
<event>
 5    0  0.1531977E+001  0.2125410E+03  0.7546771E-02  0.1139569E+00
         21   -1    0    0  504  501  0.00000000000E+00  0.00000000000E+00  0.10812891935E+04  0.10812891935E+04  0.00000000000E+00 0. -1.
         21   -1    0    0  503  502 -0.00000000000E+00 -0.00000000000E+00 -0.78346514684E+02  0.78346514684E+02  0.00000000000E+00 0.  1.
         25    1    1    2    0    0 -0.99317122688E+02  0.18176229837E+03  0.29992996400E+03  0.38533674529E+03  0.12500000000E+03 0.  0.
         21    1    1    2  503  501  0.76121087489E+02 -0.13404359416E+03  0.13829204696E+03  0.20709127299E+03  0.00000000000E+00 0.  1.
         21    1    1    2  504  502  0.23196035199E+02 -0.47718704217E+02  0.56472066790E+03  0.56720768994E+03  0.00000000000E+00 0. -1.
<mgrwt>
<rscale>  4 0.21254100E+03</rscale>
<asrwt>0</asrwt>
<pdfrwt beam="1">  1       21 0.16635217E+00 0.21254100E+03</pdfrwt>
<pdfrwt beam="2">  1       21 0.12053311E-01 0.21254100E+03</pdfrwt>
<totfact> 0.12992428E+04</totfact>
</mgrwt>
</event>
<event>
 5    0  0.1531977E+001  0.3299913E+03  0.7546771E-02  0.1071141E+00
         21   -1    0    0  504  501  0.00000000000E+00  0.00000000000E+00  0.25263332588E+03  0.25263332588E+03  0.00000000000E+00 0. -1.
         21   -1    0    0  503  502 -0.00000000000E+00 -0.00000000000E+00 -0.51538830270E+03  0.51538830270E+03  0.00000000000E+00 0. -1.
         25    1    1    2    0    0  0.13496426509E+02  0.29566548628E+03 -0.15161246071E+03  0.35526267965E+03  0.12500000000E+03 0.  0.
         21    1    1    2  503  501  0.45199870148E+02 -0.31461143523E+03 -0.13670455386E+03  0.34599352377E+03  0.00000000000E+00 0. -1.
         21    1    1    2  504  502 -0.58696296657E+02  0.18945948951E+02  0.25562037758E+02  0.66765425163E+02  0.00000000000E+00 0.  1.
<mgrwt>
<rscale>  4 0.32999134E+03</rscale>
<asrwt>0</asrwt>
<pdfrwt beam="1">  1       21 0.38866666E-01 0.32999134E+03</pdfrwt>
<pdfrwt beam="2">  1       21 0.79290507E-01 0.32999134E+03</pdfrwt>
<totfact> 0.83016009E+03</totfact>
</mgrwt>
</event>
<event>
 5    0  0.1531977E+001  0.2435651E+03  0.7546771E-02  0.1117440E+00
         21   -1    0    0  504  501  0.00000000000E+00  0.00000000000E+00  0.32300967737E+03  0.32300967737E+03  0.00000000000E+00 0. -1.
         21   -1    0    0  503  502 -0.00000000000E+00 -0.00000000000E+00 -0.27574533227E+03  0.27574533227E+03  0.00000000000E+00 0. -1.
         25    1    1    2    0    0  0.20383403849E+03  0.34069937560E+02 -0.11484871294E+03  0.26744027886E+03  0.12500000000E+03 0.  0.
         21    1    1    2  503  501  0.59881785648E+01 -0.61303894489E+02 -0.48549299873E+01  0.61786698465E+02  0.00000000000E+00 0. -1.
         21    1    1    2  504  502 -0.20982221706E+03  0.27233956929E+02  0.16696798802E+03  0.26952803232E+03  0.00000000000E+00 0. -1.
<mgrwt>
<rscale>  4 0.24356507E+03</rscale>
<asrwt>0</asrwt>
<pdfrwt beam="1">  1       21 0.49693797E-01 0.24356507E+03</pdfrwt>
<pdfrwt beam="2">  1       21 0.42422359E-01 0.24356507E+03</pdfrwt>
<totfact> 0.20061738E+04</totfact>
</mgrwt>
</event>
<event>
 5    0  0.1531977E+001  0.1858649E+03  0.7546771E-02  0.1162245E+00
         21   -1    0    0  503  501  0.00000000000E+00  0.00000000000E+00  0.64371397124E+03  0.64371397124E+03  0.00000000000E+00 0.  1.
         21   -1    0    0  504  502 -0.00000000000E+00 -0.00000000000E+00 -0.16989202694E+04  0.16989202694E+04  0.00000000000E+00 0. -1.
         25    1    1    2    0    0 -0.21814543767E+03  0.70265924215E+02 -0.14067833959E+04  0.14308002149E+04  0.12500000000E+03 0.  0.
         21    1    1    2  503  502  0.82178321693E+02 -0.52786957150E+02 -0.26383750649E+03  0.28133604325E+03  0.00000000000E+00 0. -1.
         21    1    1    2  504  501  0.13596711597E+03 -0.17478967065E+02  0.61541460417E+03  0.63049798251E+03  0.00000000000E+00 0.  1.
<mgrwt>
<rscale>  4 0.18586488E+03</rscale>
<asrwt>0</asrwt>
<pdfrwt beam="1">  1       21 0.99032919E-01 0.18586488E+03</pdfrwt>
<pdfrwt beam="2">  1       21 0.26137235E+00 0.18586488E+03</pdfrwt>
<totfact> 0.48486694E+01</totfact>
</mgrwt>
</event>
<event>
 5    0  0.1531977E+001  0.2890729E+03  0.7546771E-02  0.1090834E+00
         21   -1    0    0  504  501  0.00000000000E+00  0.00000000000E+00  0.11064732086E+03  0.11064732086E+03  0.00000000000E+00 0. -1.
         21   -1    0    0  503  502 -0.00000000000E+00 -0.00000000000E+00 -0.10488780480E+04  0.10488780480E+04  0.00000000000E+00 0. -1.
         25    1    1    2    0    0 -0.48353955344E+02 -0.27858519494E+03 -0.31319314012E+03  0.44007131110E+03  0.12500000000E+03 0.  0.
         21    1    1    2  503  501  0.42970500246E+01  0.25287416972E+03 -0.61826800182E+03  0.66799635660E+03  0.00000000000E+00 0. -1.
         21    1    1    2  504  502  0.44056905319E+02  0.25711025211E+02 -0.67695851742E+01  0.51457701145E+02  0.00000000000E+00 0.  1.
<mgrwt>
<rscale>  4 0.28907294E+03</rscale>
<asrwt>0</asrwt>
<pdfrwt beam="1">  1       21 0.17022664E-01 0.28907294E+03</pdfrwt>
<pdfrwt beam="2">  1       21 0.16136586E+00 0.28907294E+03</pdfrwt>
<totfact> 0.71720157E+03</totfact>
</mgrwt>
</event>
<event>
 5    0  0.1531977E+001  0.2758607E+03  0.7546771E-02  0.1097971E+00
         21   -1    0    0  503  501  0.00000000000E+00  0.00000000000E+00  0.64653581611E+03  0.64653581611E+03  0.00000000000E+00 0. -1.
         21   -1    0    0  504  502 -0.00000000000E+00 -0.00000000000E+00 -0.13574487867E+03  0.13574487867E+03  0.00000000000E+00 0. -1.
         25    1    1    2    0    0  0.11136160936E+03 -0.22707941327E+03  0.12017073885E+03  0.30664714974E+03  0.12500000000E+03 0.  0.
         21    1    1    2  503  502  0.15375527634E+02  0.19176280373E+02  0.17805996503E+02  0.30351113496E+02  0.00000000000E+00 0. -1.
         21    1    1    2  504  501 -0.12673713699E+03  0.20790313289E+03  0.37281420209E+03  0.44528243154E+03  0.00000000000E+00 0. -1.
<mgrwt>
<rscale>  4 0.27586071E+03</rscale>
<asrwt>0</asrwt>
<pdfrwt beam="1">  1       21 0.99467047E-01 0.27586071E+03</pdfrwt>
<pdfrwt beam="2">  1       21 0.20883828E-01 0.27586071E+03</pdfrwt>
<totfact> 0.16906110E+04</totfact>
</mgrwt>
</event>
<event>
 5    0  0.1531977E+001  0.2780398E+03  0.7546771E-02  0.1096764E+00
         21   -1    0    0  502  501  0.00000000000E+00  0.00000000000E+00  0.14323608647E+03  0.14323608647E+03  0.00000000000E+00 0. -1.
         21   -1    0    0  504  502 -0.00000000000E+00 -0.00000000000E+00 -0.14256559118E+04  0.14256559118E+04  0.00000000000E+00 0.  1.
         25    1    1    2    0    0  0.22457434541E+03 -0.26018239675E+02 -0.11786569896E+04  0.12066349425E+04  0.12500000000E+03 0.  0.
         21    1    1    2  503  501 -0.24887117337E+03  0.29822504108E+02  0.50471936330E+01  0.25070244683E+03  0.00000000000E+00 0. -1.
         21    1    1    2  504  503  0.24296827954E+02 -0.38042644321E+01 -0.10881002944E+03  0.11155460897E+03  0.00000000000E+00 0. -1.
<mgrwt>
<rscale>  4 0.27803981E+03</rscale>
<asrwt>0</asrwt>
<pdfrwt beam="1">  1       21 0.22036320E-01 0.27803981E+03</pdfrwt>
<pdfrwt beam="2">  1       21 0.21933169E+00 0.27803981E+03</pdfrwt>
<totfact> 0.18074374E+03</totfact>
</mgrwt>
</event>
<event>
 5    0  0.1531977E+001  0.2492771E+03  0.7546771E-02  0.1113763E+00
         21   -1    0    0  502  501  0.00000000000E+00  0.00000000000E+00  0.44371191418E+03  0.44371191418E+03  0.00000000000E+00 0.  1.
         21   -1    0    0  504  502 -0.00000000000E+00 -0.00000000000E+00 -0.15419044759E+03  0.15419044759E+03  0.00000000000E+00 0.  1.
         25    1    1    2    0    0  0.22437291698E+03 -0.48610873903E+02  0.23286197234E+03  0.35007987817E+03  0.12500000000E+03 0.  0.
         21    1    1    2  503  501 -0.17827455289E+02  0.10656764581E+02  0.29487912938E+02  0.36068293595E+02  0.00000000000E+00 0.  1.
         21    1    1    2  504  503 -0.20654546169E+03  0.37954109322E+02  0.27171581310E+02  0.21175419001E+03  0.00000000000E+00 0.  1.
<mgrwt>
<rscale>  4 0.24927708E+03</rscale>
<asrwt>0</asrwt>
<pdfrwt beam="1">  1       21 0.68263371E-01 0.24927708E+03</pdfrwt>
<pdfrwt beam="2">  1       21 0.23721608E-01 0.24927708E+03</pdfrwt>
<totfact> 0.31864638E+04</totfact>
</mgrwt>
</event>
<event>
 5    0  0.1531977E+001  0.3530329E+03  0.7546771E-02  0.1061377E+00
         21   -1    0    0  504  501  0.00000000000E+00  0.00000000000E+00  0.36766516220E+03  0.36766516220E+03  0.00000000000E+00 0. -1.
         21   -1    0    0  503  502 -0.00000000000E+00 -0.00000000000E+00 -0.57849558541E+03  0.57849558541E+03  0.00000000000E+00 0.  1.
         25    1    1    2    0    0 -0.30859065020E+03 -0.12177526454E+03 -0.40961217194E+03  0.54172367112E+03  0.12500000000E+03 0.  0.
         21    1    1    2  503  501  0.90968024786E+00  0.21484159016E+02 -0.49072690862E+01  0.22056243939E+02  0.00000000000E+00 0. -1.
         21    1    1    2  504  502  0.30768096995E+03  0.10029110553E+03  0.20368901782E+03  0.38238083255E+03  0.00000000000E+00 0. -1.
<mgrwt>
<rscale>  4 0.35303292E+03</rscale>
<asrwt>0</asrwt>
<pdfrwt beam="1">  1       21 0.56563871E-01 0.35303292E+03</pdfrwt>
<pdfrwt beam="2">  1       21 0.88999320E-01 0.35303292E+03</pdfrwt>
<totfact> 0.28640129E+03</totfact>
</mgrwt>
</event>
<event>
 5    0  0.1531977E+001  0.3185473E+03  0.7546771E-02  0.1076320E+00
         21   -1    0    0  502  501  0.00000000000E+00  0.00000000000E+00  0.15757270939E+04  0.15757270939E+04  0.00000000000E+00 0.  1.
         21   -1    0    0  504  502 -0.00000000000E+00 -0.00000000000E+00 -0.45876917981E+03  0.45876917981E+03  0.00000000000E+00 0. -1.
         25    1    1    2    0    0  0.48644748038E+02 -0.26058745514E+03  0.13627750667E+04  0.13939343656E+04  0.12500000000E+03 0.  0.
         21    1    1    2  503  501  0.13334974349E+02 -0.26796304994E+02  0.14694210284E+03  0.14995947816E+03  0.00000000000E+00 0.  1.
         21    1    1    2  504  503 -0.61979722387E+02  0.28738376013E+03 -0.39275925541E+03  0.49060242996E+03  0.00000000000E+00 0. -1.
<mgrwt>
<rscale>  4 0.31854732E+03</rscale>
<asrwt>0</asrwt>
<pdfrwt beam="1">  1       21 0.24241955E+00 0.31854732E+03</pdfrwt>
<pdfrwt beam="2">  1       21 0.70579875E-01 0.31854732E+03</pdfrwt>
<totfact> 0.11618908E+02</totfact>
</mgrwt>
</event>
<event>
 5    0  0.1531977E+001  0.6661657E+03  0.7546771E-02  0.9776909E-01
         21   -1    0    0  504  501  0.00000000000E+00  0.00000000000E+00  0.62216226211E+03  0.62216226211E+03  0.00000000000E+00 0. -1.
         21   -1    0    0  503  502 -0.00000000000E+00 -0.00000000000E+00 -0.15309581676E+04  0.15309581676E+04  0.00000000000E+00 0.  1.
         25    1    1    2    0    0  0.66795576891E+03 -0.18095089589E+03 -0.11411373657E+04  0.13404206889E+04  0.12500000000E+03 0.  0.
         21    1    1    2  503  501 -0.57331452921E+02 -0.36997814323E+02 -0.69615357694E+02  0.97478365731E+02  0.00000000000E+00 0. -1.
         21    1    1    2  504  502 -0.61062431599E+03  0.21794871021E+03  0.30195681783E+03  0.71522137510E+03  0.00000000000E+00 0. -1.
<mgrwt>
<rscale>  4 0.66616569E+03</rscale>
<asrwt>0</asrwt>
<pdfrwt beam="1">  1       21 0.95717272E-01 0.66616569E+03</pdfrwt>
<pdfrwt beam="2">  1       21 0.23553202E+00 0.66616569E+03</pdfrwt>
<totfact> 0.51505433E+01</totfact>
</mgrwt>
</event>
<event>
 5    0  0.1531977E+001  0.2309023E+03  0.7546771E-02  0.1126006E+00
         21   -1    0    0  504  501  0.00000000000E+00  0.00000000000E+00  0.26308702859E+03  0.26308702859E+03  0.00000000000E+00 0.  1.
         21   -1    0    0  503  502 -0.00000000000E+00 -0.00000000000E+00 -0.57635070857E+03  0.57635070857E+03  0.00000000000E+00 0.  1.
         25    1    1    2    0    0  0.99643855627E+02  0.19826056815E+03 -0.89456156757E+02  0.26993250050E+03  0.12500000000E+03 0.  0.
         21    1    1    2  503  501 -0.11373122944E+03 -0.14962780205E+03 -0.36988847872E+03  0.41489849166E+03  0.00000000000E+00 0.  1.
         21    1    1    2  504  502  0.14087373810E+02 -0.48632766099E+02  0.14608095550E+03  0.15460674500E+03  0.00000000000E+00 0.  1.
<mgrwt>
<rscale>  4 0.23090232E+03</rscale>
<asrwt>0</asrwt>
<pdfrwt beam="1">  1       21 0.40474927E-01 0.23090232E+03</pdfrwt>
<pdfrwt beam="2">  1       21 0.88669340E-01 0.23090232E+03</pdfrwt>
<totfact> 0.62228165E+03</totfact>
</mgrwt>
</event>
<event>
 5    0  0.1531977E+001  0.2242007E+03  0.7546771E-02  0.1130789E+00
         21   -1    0    0  502  501  0.00000000000E+00  0.00000000000E+00  0.86592378548E+03  0.86592378548E+03  0.00000000000E+00 0.  1.
         21   -1    0    0  504  502 -0.00000000000E+00 -0.00000000000E+00 -0.33914939135E+03  0.33914939135E+03  0.00000000000E+00 0.  1.
         25    1    1    2    0    0  0.18712925203E+03  0.12406304370E+03 -0.23012074744E+03  0.34494862542E+03  0.12500000000E+03 0.  0.
         21    1    1    2  503  501 -0.14192242862E+03 -0.11826121607E+03  0.78508928239E+03  0.80653138333E+03  0.00000000000E+00 0.  1.
         21    1    1    2  504  503 -0.45206823418E+02 -0.58018276262E+01 -0.28194140820E+02  0.53593168071E+02  0.00000000000E+00 0. -1.
<mgrwt>
<rscale>  4 0.22420069E+03</rscale>
<asrwt>0</asrwt>
<pdfrwt beam="1">  1       21 0.13321904E+00 0.22420069E+03</pdfrwt>
<pdfrwt beam="2">  1       21 0.52176830E-01 0.22420069E+03</pdfrwt>
<totfact> 0.13749844E+03</totfact>
</mgrwt>
</event>
<event>
 5    0  0.1531977E+001  0.1986774E+03  0.7546771E-02  0.1150860E+00
         21   -1    0    0  503  501  0.00000000000E+00  0.00000000000E+00  0.59024220060E+02  0.59024220060E+02  0.00000000000E+00 0.  1.
         21   -1    0    0  504  502 -0.00000000000E+00 -0.00000000000E+00 -0.19118444049E+04  0.19118444049E+04  0.00000000000E+00 0. -1.
         25    1    1    2    0    0  0.19414168831E+03 -0.85251527201E+02 -0.12649974610E+04  0.12887212245E+04  0.12500000000E+03 0.  0.
         21    1    1    2  503  502 -0.53995226370E+02  0.34867895842E+02 -0.51014667103E+03  0.51417981348E+03  0.00000000000E+00 0. -1.
         21    1    1    2  504  501 -0.14014646194E+03  0.50383631360E+02 -0.77676052772E+02  0.16796758698E+03  0.00000000000E+00 0.  1.
<mgrwt>
<rscale>  4 0.19867741E+03</rscale>
<asrwt>0</asrwt>
<pdfrwt beam="1">  1       21 0.90806502E-02 0.19867741E+03</pdfrwt>
<pdfrwt beam="2">  1       21 0.29412988E+00 0.19867741E+03</pdfrwt>
<totfact> 0.35232182E+03</totfact>
</mgrwt>
</event>
<event>
 5    0  0.1531977E+001  0.2935501E+03  0.7546771E-02  0.1088510E+00
         21   -1    0    0  502  501  0.00000000000E+00  0.00000000000E+00  0.56229191534E+03  0.56229191534E+03  0.00000000000E+00 0. -1.
         21   -1    0    0  504  502 -0.00000000000E+00 -0.00000000000E+00 -0.31813138964E+03  0.31813138964E+03  0.00000000000E+00 0. -1.
         25    1    1    2    0    0  0.25421962885E+03 -0.12468102137E+03 -0.13832084558E+03  0.33901420782E+03  0.12500000000E+03 0.  0.
         21    1    1    2  503  501 -0.24467206437E+03  0.96321399313E+02  0.41870452210E+03  0.49442462305E+03  0.00000000000E+00 0. -1.
         21    1    1    2  504  503 -0.95475644811E+01  0.28359622059E+02 -0.36223150827E+02  0.46984474103E+02  0.00000000000E+00 0. -1.
<mgrwt>
<rscale>  4 0.29355011E+03</rscale>
<asrwt>0</asrwt>
<pdfrwt beam="1">  1       21 0.86506448E-01 0.29355011E+03</pdfrwt>
<pdfrwt beam="2">  1       21 0.48943291E-01 0.29355011E+03</pdfrwt>
<totfact> 0.42893364E+03</totfact>
</mgrwt>
</event>
<event>
 5    0  0.1531977E+001  0.2353559E+03  0.7546771E-02  0.1122926E+00
         21   -1    0    0  502  501  0.00000000000E+00  0.00000000000E+00  0.83219343133E+03  0.83219343133E+03  0.00000000000E+00 0.  1.
         21   -1    0    0  504  502 -0.00000000000E+00 -0.00000000000E+00 -0.89347638898E+03  0.89347638898E+03  0.00000000000E+00 0.  1.
         25    1    1    2    0    0  0.43476217181E+02  0.27665939571E+03 -0.32881037706E+03  0.44963525969E+03  0.12500000000E+03 0.  0.
         21    1    1    2  503  501 -0.14550368155E+02 -0.19629557184E+03  0.75546076701E+03  0.78068216018E+03  0.00000000000E+00 0.  1.
         21    1    1    2  504  503 -0.28925849026E+02 -0.80363823874E+02 -0.48793334760E+03  0.49535240044E+03  0.00000000000E+00 0.  1.
<mgrwt>
<rscale>  4 0.23535590E+03</rscale>
<asrwt>0</asrwt>
<pdfrwt beam="1">  1       21 0.12802976E+00 0.23535590E+03</pdfrwt>
<pdfrwt beam="2">  1       21 0.13745791E+00 0.23535590E+03</pdfrwt>
<totfact> 0.16008972E+02</totfact>
</mgrwt>
</event>
<event>
 5    0  0.1531977E+001  0.3129302E+03  0.7546771E-02  0.1078950E+00
         21   -1    0    0  504  501  0.00000000000E+00  0.00000000000E+00  0.41011495768E+03  0.41011495768E+03  0.00000000000E+00 0. -1.
         21   -1    0    0  501  502 -0.00000000000E+00 -0.00000000000E+00 -0.38090552667E+03  0.38090552667E+03  0.00000000000E+00 0.  1.
         25    1    1    2    0    0 -0.24464376852E+03 -0.16884196144E+03  0.53513320489E+02  0.32687437478E+03  0.12500000000E+03 0.  0.
         21    1    1    2  503  502  0.98399026627E+02 -0.83047267577E+02  0.83618142881E+02  0.15352918586E+03  0.00000000000E+00 0. -1.
         21    1    1    2  504  503  0.14624474190E+03  0.25188922902E+03 -0.10792203236E+03  0.31061692371E+03  0.00000000000E+00 0.  1.
<mgrwt>
<rscale>  4 0.31293025E+03</rscale>
<asrwt>0</asrwt>
<pdfrwt beam="1">  1       21 0.63094609E-01 0.31293025E+03</pdfrwt>
<pdfrwt beam="2">  1       21 0.58600850E-01 0.31293025E+03</pdfrwt>
<totfact> 0.58950670E+03</totfact>
</mgrwt>
</event>
<event>
 5    0  0.1531977E+001  0.2690358E+03  0.7546771E-02  0.1101833E+00
         21   -1    0    0  502  501  0.00000000000E+00  0.00000000000E+00  0.31644038532E+03  0.31644038532E+03  0.00000000000E+00 0.  1.
         21   -1    0    0  504  502 -0.00000000000E+00 -0.00000000000E+00 -0.97738486267E+03  0.97738486267E+03  0.00000000000E+00 0.  1.
         25    1    1    2    0    0 -0.80359593586E+02 -0.20702662753E+03 -0.64812694975E+03  0.69642747776E+03  0.12500000000E+03 0.  0.
         21    1    1    2  503  501  0.14317528001E+02 -0.70927100548E+02  0.21826645867E+03  0.22994758572E+03  0.00000000000E+00 0.  1.
         21    1    1    2  504  503  0.66042065586E+02  0.27795372808E+03 -0.23108398627E+03  0.36745018451E+03  0.00000000000E+00 0.  1.
<mgrwt>
<rscale>  4 0.26903577E+03</rscale>
<asrwt>0</asrwt>
<pdfrwt beam="1">  1       21 0.48683136E-01 0.26903577E+03</pdfrwt>
<pdfrwt beam="2">  1       21 0.15036690E+00 0.26903577E+03</pdfrwt>
<totfact> 0.11181961E+03</totfact>
</mgrwt>
</event>
<event>
 5    0  0.1531977E+001  0.2578998E+03  0.7546771E-02  0.1108412E+00
         21   -1    0    0  502  501  0.00000000000E+00  0.00000000000E+00  0.47909543593E+03  0.47909543593E+03  0.00000000000E+00 0. -1.
         21   -1    0    0  504  502 -0.00000000000E+00 -0.00000000000E+00 -0.13201209273E+03  0.13201209273E+03  0.00000000000E+00 0. -1.
         25    1    1    2    0    0 -0.16369679323E+03  0.15521163339E+03  0.11293231167E+03  0.28154217850E+03  0.12500000000E+03 0.  0.
         21    1    1    2  503  501  0.36734841321E+02 -0.48917807193E+02  0.34672981345E+02  0.70317964012E+02  0.00000000000E+00 0. -1.
         21    1    1    2  504  503  0.12696195191E+03 -0.10629382619E+03  0.19947805018E+03  0.25924738615E+03  0.00000000000E+00 0. -1.
<mgrwt>
<rscale>  4 0.25789977E+03</rscale>
<asrwt>0</asrwt>
<pdfrwt beam="1">  1       21 0.73706989E-01 0.25789977E+03</pdfrwt>
<pdfrwt beam="2">  1       21 0.20309553E-01 0.25789977E+03</pdfrwt>
<totfact> 0.35929678E+04</totfact>
</mgrwt>
</event>
<event>
 5    0  0.1531977E+001  0.2844815E+03  0.7546771E-02  0.1093266E+00
         21   -1    0    0  502  501  0.00000000000E+00  0.00000000000E+00  0.59674266670E+02  0.59674266670E+02  0.00000000000E+00 0. -1.
         21   -1    0    0  504  502 -0.00000000000E+00 -0.00000000000E+00 -0.15679607768E+04  0.15679607768E+04  0.00000000000E+00 0. -1.
         25    1    1    2    0    0 -0.25752898657E+03 -0.58043279438E+02 -0.49874438801E+03  0.57798024688E+03  0.12500000000E+03 0.  0.
         21    1    1    2  503  501  0.30955724096E+02 -0.30526853911E+02 -0.12918378317E+03  0.13630332167E+03  0.00000000000E+00 0. -1.
         21    1    1    2  504  503  0.22657326247E+03  0.88570133348E+02 -0.88035833897E+03  0.91335147494E+03  0.00000000000E+00 0. -1.
<mgrwt>
<rscale>  4 0.28448150E+03</rscale>
<asrwt>0</asrwt>
<pdfrwt beam="1">  1       21 0.91806560E-02 0.28448150E+03</pdfrwt>
<pdfrwt beam="2">  1       21 0.24122475E+00 0.28448150E+03</pdfrwt>
<totfact> 0.65573366E+03</totfact>
</mgrwt>
</event>
<event>
 5    0  0.1531977E+001  0.2906943E+03  0.7546771E-02  0.1089987E+00
         21   -1    0    0  504  501  0.00000000000E+00  0.00000000000E+00  0.37335400991E+03  0.37335400991E+03  0.00000000000E+00 0.  1.
         21   -1    0    0  501  502 -0.00000000000E+00 -0.00000000000E+00 -0.25493737028E+03  0.25493737028E+03  0.00000000000E+00 0.  1.
         25    1    1    2    0    0  0.12800254845E+02 -0.26830076824E+03  0.45308802361E+02  0.29971158859E+03  0.12500000000E+03 0.  0.
         21    1    1    2  503  502  0.39510813531E+02  0.25712051378E+03  0.85204014431E+02  0.27373671122E+03  0.00000000000E+00 0.  1.
         21    1    1    2  504  503 -0.52311068376E+02  0.11180254456E+02 -0.12096177162E+02  0.54843080386E+02  0.00000000000E+00 0.  1.
<mgrwt>
<rscale>  4 0.29069428E+03</rscale>
<asrwt>0</asrwt>
<pdfrwt beam="1">  1       21 0.57439078E-01 0.29069428E+03</pdfrwt>
<pdfrwt beam="2">  1       21 0.39221134E-01 0.29069428E+03</pdfrwt>
<totfact> 0.16944168E+04</totfact>
</mgrwt>
</event>
<event>
 5    0  0.1531977E+001  0.2475840E+03  0.7546771E-02  0.1114841E+00
         21   -1    0    0  504  501  0.00000000000E+00  0.00000000000E+00  0.12341514633E+04  0.12341514633E+04  0.00000000000E+00 0. -1.
         21   -1    0    0  501  502 -0.00000000000E+00 -0.00000000000E+00 -0.78847076163E+02  0.78847076163E+02  0.00000000000E+00 0. -1.
         25    1    1    2    0    0  0.17351863694E+03  0.14505508645E+03  0.20725710394E+03  0.33125549445E+03  0.12500000000E+03 0.  0.
         21    1    1    2  503  502 -0.14494681919E+03 -0.15405460012E+03  0.90438977206E+03  0.92879667314E+03  0.00000000000E+00 0. -1.
         21    1    1    2  504  503 -0.28571817753E+02  0.89995136716E+01  0.43657511101E+02  0.52946371845E+02  0.00000000000E+00 0. -1.
<mgrwt>
<rscale>  4 0.24758401E+03</rscale>
<asrwt>0</asrwt>
<pdfrwt beam="1">  1       21 0.18986944E+00 0.24758401E+03</pdfrwt>
<pdfrwt beam="2">  1       21 0.12130320E-01 0.24758401E+03</pdfrwt>
<totfact> 0.86277424E+03</totfact>
</mgrwt>
</event>
<event>
 5    0  0.1531977E+001  0.2766783E+03  0.7546771E-02  0.1097517E+00
         21   -1    0    0  502  501  0.00000000000E+00  0.00000000000E+00  0.36630392146E+03  0.36630392146E+03  0.00000000000E+00 0.  1.
         21   -1    0    0  504  502 -0.00000000000E+00 -0.00000000000E+00 -0.29167353373E+03  0.29167353373E+03  0.00000000000E+00 0.  1.
         25    1    1    2    0    0  0.10848856153E+03  0.22761621131E+03  0.14507427857E+03  0.31662352082E+03  0.12500000000E+03 0.  0.
         21    1    1    2  503  501  0.67664287664E+02 -0.54278529640E+02 -0.22435635243E+02  0.89598952749E+02  0.00000000000E+00 0.  1.
         21    1    1    2  504  503 -0.17615284920E+03 -0.17333768167E+03 -0.48008255594E+02  0.25175498163E+03  0.00000000000E+00 0.  1.
<mgrwt>
<rscale>  4 0.27667828E+03</rscale>
<asrwt>0</asrwt>
<pdfrwt beam="1">  1       21 0.56354449E-01 0.27667828E+03</pdfrwt>
<pdfrwt beam="2">  1       21 0.44872851E-01 0.27667828E+03</pdfrwt>
<totfact> 0.13473542E+04</totfact>
</mgrwt>
</event>
<event>
 5    0  0.1531977E+001  0.2928205E+03  0.7546771E-02  0.1088886E+00
         21   -1    0    0  503  501  0.00000000000E+00  0.00000000000E+00  0.61059807317E+02  0.61059807317E+02  0.00000000000E+00 0. -1.
         21   -1    0    0  504  502 -0.00000000000E+00 -0.00000000000E+00 -0.31437538806E+04  0.31437538806E+04  0.00000000000E+00 0. -1.
         25    1    1    2    0    0 -0.74977092793E+02 -0.19748357152E+03 -0.12450506536E+04  0.12690143638E+04  0.12500000000E+03 0.  0.
         21    1    1    2  503  502 -0.57165924356E+02 -0.52744457263E+02 -0.14690571575E+04  0.14711148333E+04  0.00000000000E+00 0. -1.
         21    1    1    2  504  501  0.13214301715E+03  0.25022802878E+03 -0.36858626216E+03  0.46468449083E+03  0.00000000000E+00 0. -1.
<mgrwt>
<rscale>  4 0.29282046E+03</rscale>
<asrwt>0</asrwt>
<pdfrwt beam="1">  1       21 0.93938159E-02 0.29282046E+03</pdfrwt>
<pdfrwt beam="2">  1       21 0.48365447E+00 0.29282046E+03</pdfrwt>
<totfact> 0.19356245E+02</totfact>
</mgrwt>
</event>
<event>
 5    0  0.1531977E+001  0.2403864E+03  0.7546771E-02  0.1119536E+00
         21   -1    0    0  503  501  0.00000000000E+00  0.00000000000E+00  0.10630299463E+03  0.10630299463E+03  0.00000000000E+00 0. -1.
         21   -1    0    0  504  502 -0.00000000000E+00 -0.00000000000E+00 -0.63279100773E+03  0.63279100773E+03  0.00000000000E+00 0. -1.
         25    1    1    2    0    0  0.18539524649E+03 -0.10154823194E+03 -0.17819025634E+03  0.30341425195E+03  0.12500000000E+03 0.  0.
         21    1    1    2  503  502 -0.19668038756E+03  0.54953888957E+02 -0.32116801546E+03  0.38059427074E+03  0.00000000000E+00 0. -1.
         21    1    1    2  504  501  0.11285141077E+02  0.46594342987E+02 -0.27129741303E+02  0.55085479671E+02  0.00000000000E+00 0.  1.
<mgrwt>
<rscale>  4 0.24038643E+03</rscale>
<asrwt>0</asrwt>
<pdfrwt beam="1">  1       21 0.16354307E-01 0.24038643E+03</pdfrwt>
<pdfrwt beam="2">  1       21 0.97352461E-01 0.24038643E+03</pdfrwt>
<totfact> 0.28558329E+04</totfact>
</mgrwt>
</event>
<event>
 5    0  0.1531977E+001  0.2258220E+03  0.7546771E-02  0.1129615E+00
         21   -1    0    0  504  501  0.00000000000E+00  0.00000000000E+00  0.21283020944E+03  0.21283020944E+03  0.00000000000E+00 0.  1.
         21   -1    0    0  503  502 -0.00000000000E+00 -0.00000000000E+00 -0.82815376100E+03  0.82815376100E+03  0.00000000000E+00 0.  1.
         25    1    1    2    0    0  0.88185084210E+02 -0.21016566198E+03 -0.47991893217E+01  0.25998893586E+03  0.12500000000E+03 0.  0.
         21    1    1    2  503  501 -0.52122830366E+02  0.17680973395E+03 -0.67512581349E+03  0.69983807807E+03  0.00000000000E+00 0.  1.
         21    1    1    2  504  502 -0.36062253844E+02  0.33355928027E+02  0.64601451250E+02  0.81156956513E+02  0.00000000000E+00 0.  1.
<mgrwt>
<rscale>  4 0.22582202E+03</rscale>
<asrwt>0</asrwt>
<pdfrwt beam="1">  1       21 0.32743110E-01 0.22582202E+03</pdfrwt>
<pdfrwt beam="2">  1       21 0.12740827E+00 0.22582202E+03</pdfrwt>
<totfact> 0.39752721E+03</totfact>
</mgrwt>
</event>
<event>
 5    0  0.1531977E+001  0.2396127E+03  0.7546771E-02  0.1120051E+00
         21   -1    0    0  503  501  0.00000000000E+00  0.00000000000E+00  0.25657513717E+03  0.25657513717E+03  0.00000000000E+00 0. -1.
         21   -1    0    0  504  502 -0.00000000000E+00 -0.00000000000E+00 -0.10356451315E+04  0.10356451315E+04  0.00000000000E+00 0.  1.
         25    1    1    2    0    0  0.29496878189E+03  0.96729934256E+02  0.32607525563E+02  0.33623133880E+03  0.12500000000E+03 0.  0.
         21    1    1    2  503  502 -0.16797254918E+03 -0.10493147815E+03 -0.80450627838E+03  0.82852624843E+03  0.00000000000E+00 0.  1.
         21    1    1    2  504  501 -0.12699623271E+03  0.82015438970E+01 -0.71712414720E+01  0.12746268140E+03  0.00000000000E+00 0. -1.
<mgrwt>
<rscale>  4 0.23961265E+03</rscale>
<asrwt>0</asrwt>
<pdfrwt beam="1">  1       21 0.39473098E-01 0.23961265E+03</pdfrwt>
<pdfrwt beam="2">  1       21 0.15933002E+00 0.23961265E+03</pdfrwt>
<totfact> 0.15082750E+03</totfact>
</mgrwt>
</event>
<event>
 5    0  0.1531977E+001  0.2274701E+03  0.7546771E-02  0.1128433E+00
         21   -1    0    0  503  501  0.00000000000E+00  0.00000000000E+00  0.18322728239E+03  0.18322728239E+03  0.00000000000E+00 0.  1.
         21   -1    0    0  504  502 -0.00000000000E+00 -0.00000000000E+00 -0.32319830957E+03  0.32319830957E+03  0.00000000000E+00 0.  1.
         25    1    1    2    0    0  0.17444181187E+03 -0.11238260960E+03 -0.27972339368E+02  0.24385907496E+03  0.12500000000E+03 0.  0.
         21    1    1    2  503  502 -0.54835258631E+02 -0.17742030736E+02 -0.46583957183E+02  0.74106344604E+02  0.00000000000E+00 0.  1.
         21    1    1    2  504  501 -0.11960655324E+03  0.13012464034E+03 -0.65414730629E+02  0.18846017241E+03  0.00000000000E+00 0.  1.
<mgrwt>
<rscale>  4 0.22747005E+03</rscale>
<asrwt>0</asrwt>
<pdfrwt beam="1">  1       21 0.28188813E-01 0.22747005E+03</pdfrwt>
<pdfrwt beam="2">  1       21 0.49722816E-01 0.22747005E+03</pdfrwt>
<totfact> 0.45594186E+04</totfact>
</mgrwt>
</event>
<event>
 5    0  0.1531977E+001  0.2569333E+03  0.7546771E-02  0.1109000E+00
         21   -1    0    0  503  501  0.00000000000E+00  0.00000000000E+00  0.26622117975E+03  0.26622117975E+03  0.00000000000E+00 0. -1.
         21   -1    0    0  504  502 -0.00000000000E+00 -0.00000000000E+00 -0.85318632218E+03  0.85318632218E+03  0.00000000000E+00 0. -1.
         25    1    1    2    0    0  0.13661879445E+03  0.18876725429E+03 -0.55806441513E+03  0.61754243799E+03  0.12500000000E+03 0.  0.
         21    1    1    2  503  502 -0.32209169044E+02  0.92918787992E+01 -0.21076548328E+03  0.21341475704E+03  0.00000000000E+00 0. -1.
         21    1    1    2  504  501 -0.10440962540E+03 -0.19805913309E+03  0.18186475598E+03  0.28845030689E+03  0.00000000000E+00 0. -1.
<mgrwt>
<rscale>  4 0.25693325E+03</rscale>
<asrwt>0</asrwt>
<pdfrwt beam="1">  1       21 0.40957105E-01 0.25693325E+03</pdfrwt>
<pdfrwt beam="2">  1       21 0.13125943E+00 0.25693325E+03</pdfrwt>
<totfact> 0.22995648E+03</totfact>
</mgrwt>
</event>
<event>
 5    0  0.1531977E+001  0.3225623E+03  0.7546771E-02  0.1074476E+00
         21   -1    0    0  502  501  0.00000000000E+00  0.00000000000E+00  0.65426566408E+03  0.65426566408E+03  0.00000000000E+00 0.  1.
         21   -1    0    0  504  502 -0.00000000000E+00 -0.00000000000E+00 -0.24158732302E+03  0.24158732302E+03  0.00000000000E+00 0.  1.
         25    1    1    2    0    0  0.13545399847E+03  0.24133080522E+03  0.19000425928E+03  0.35821077845E+03  0.12500000000E+03 0.  0.
         21    1    1    2  503  501 -0.72989343658E+02  0.68080846098E+02  0.19712734158E+03  0.22095618274E+03  0.00000000000E+00 0.  1.
         21    1    1    2  504  503 -0.62464654817E+02 -0.30941165132E+03  0.25546740204E+02  0.31668602591E+03  0.00000000000E+00 0.  1.
<mgrwt>
<rscale>  4 0.32256231E+03</rscale>
<asrwt>0</asrwt>
<pdfrwt beam="1">  1       21 0.10065626E+00 0.32256231E+03</pdfrwt>
<pdfrwt beam="2">  1       21 0.37167281E-01 0.32256231E+03</pdfrwt>
<totfact> 0.52110967E+03</totfact>
</mgrwt>
</event>
<event>
 5    0  0.1531977E+001  0.2927447E+03  0.7546771E-02  0.1088925E+00
         21   -1    0    0  503  501  0.00000000000E+00  0.00000000000E+00  0.12122370696E+04  0.12122370696E+04  0.00000000000E+00 0.  1.
         21   -1    0    0  504  502 -0.00000000000E+00 -0.00000000000E+00 -0.10301806467E+03  0.10301806467E+03  0.00000000000E+00 0. -1.
         25    1    1    2    0    0 -0.24460302782E+03  0.20816245886E+03  0.56725781090E+03  0.66375347421E+03  0.12500000000E+03 0.  0.
         21    1    1    2  503  502  0.41755949074E+02 -0.90317818673E+02  0.61898617346E+02  0.11718492430E+03  0.00000000000E+00 0.  1.
         21    1    1    2  504  501  0.20284707874E+03 -0.11784464019E+03  0.48006257666E+03  0.53431673573E+03  0.00000000000E+00 0.  1.
<mgrwt>
<rscale>  4 0.29274469E+03</rscale>
<asrwt>0</asrwt>
<pdfrwt beam="1">  1       21 0.18649800E+00 0.29274469E+03</pdfrwt>
<pdfrwt beam="2">  1       21 0.15848934E-01 0.29274469E+03</pdfrwt>
<totfact> 0.54256040E+03</totfact>
</mgrwt>
</event>
<event>
 5    0  0.1531977E+001  0.2586209E+03  0.7546771E-02  0.1107975E+00
         21   -1    0    0  503  501  0.00000000000E+00  0.00000000000E+00  0.98619491403E+03  0.98619491403E+03  0.00000000000E+00 0. -1.
         21   -1    0    0  501  502 -0.00000000000E+00 -0.00000000000E+00 -0.10803327762E+03  0.10803327762E+03  0.00000000000E+00 0. -1.
         25    1    1    2    0    0  0.84092139204E+02 -0.20969703037E+03  0.76142601720E+03  0.80401424868E+03  0.12500000000E+03 0.  0.
         21    1    1    2  503  504 -0.30572967827E+02 -0.14097472715E+02  0.27281601569E+02  0.43332792235E+02  0.00000000000E+00 0.  1.
         21    1    1    2  504  502 -0.53519171377E+02  0.22379450308E+03  0.89454017640E+02  0.24688115073E+03  0.00000000000E+00 0. -1.
<mgrwt>
<rscale>  4 0.25862092E+03</rscale>
<asrwt>0</asrwt>
<pdfrwt beam="1">  1       21 0.15172229E+00 0.25862092E+03</pdfrwt>
<pdfrwt beam="2">  1       21 0.16620505E-01 0.25862092E+03</pdfrwt>
<totfact> 0.90159141E+03</totfact>
</mgrwt>
</event>
<event>
 5    0  0.1531977E+001  0.3074129E+03  0.7546771E-02  0.1081593E+00
         21   -1    0    0  504  501  0.00000000000E+00  0.00000000000E+00  0.19457114848E+03  0.19457114848E+03  0.00000000000E+00 0. -1.
         21   -1    0    0  503  502 -0.00000000000E+00 -0.00000000000E+00 -0.86589174958E+03  0.86589174958E+03  0.00000000000E+00 0. -1.
         25    1    1    2    0    0  0.23280457153E+03 -0.24354163848E+03 -0.41105556692E+03  0.54598734170E+03  0.12500000000E+03 0.  0.
         21    1    1    2  503  501 -0.69969326871E+01  0.10397733386E+03 -0.22334792037E+03  0.24646406747E+03  0.00000000000E+00 0. -1.
         21    1    1    2  504  502 -0.22580763885E+03  0.13956430462E+03 -0.36917113812E+02  0.26801148889E+03  0.00000000000E+00 0. -1.
<mgrwt>
<rscale>  4 0.30741289E+03</rscale>
<asrwt>0</asrwt>
<pdfrwt beam="1">  1       21 0.29934023E-01 0.30741289E+03</pdfrwt>
<pdfrwt beam="2">  1       21 0.13321411E+00 0.30741289E+03</pdfrwt>
<totfact> 0.40234992E+03</totfact>
</mgrwt>
</event>
<event>
 5    0  0.1531977E+001  0.1931814E+03  0.7546771E-02  0.1155623E+00
         21   -1    0    0  502  501  0.00000000000E+00  0.00000000000E+00  0.10750952488E+04  0.10750952488E+04  0.00000000000E+00 0.  1.
         21   -1    0    0  504  502 -0.00000000000E+00 -0.00000000000E+00 -0.17966845247E+03  0.17966845247E+03  0.00000000000E+00 0. -1.
         25    1    1    2    0    0 -0.13554142637E+03 -0.19910771701E+03  0.51879600858E+03  0.58548241627E+03  0.12500000000E+03 0.  0.
         21    1    1    2  503  501  0.45734853662E+02  0.89957302222E+02  0.48233621653E+03  0.49278009176E+03  0.00000000000E+00 0.  1.
         21    1    1    2  504  503  0.89806572706E+02  0.10915041479E+03 -0.10570542878E+03  0.17650119326E+03  0.00000000000E+00 0. -1.
<mgrwt>
<rscale>  4 0.19318138E+03</rscale>
<asrwt>0</asrwt>
<pdfrwt beam="1">  1       21 0.16539927E+00 0.19318138E+03</pdfrwt>
<pdfrwt beam="2">  1       21 0.27641301E-01 0.19318138E+03</pdfrwt>
<totfact> 0.28720290E+03</totfact>
</mgrwt>
</event>
<event>
 5    0  0.1531977E+001  0.2969087E+03  0.7546771E-02  0.1086796E+00
         21   -1    0    0  504  501  0.00000000000E+00  0.00000000000E+00  0.12904380543E+03  0.12904380543E+03  0.00000000000E+00 0.  1.
         21   -1    0    0  503  502 -0.00000000000E+00 -0.00000000000E+00 -0.91841054853E+03  0.91841054853E+03  0.00000000000E+00 0.  1.
         25    1    1    2    0    0  0.11544164437E+03  0.26994069362E+03 -0.25530129721E+03  0.40865450405E+03  0.12500000000E+03 0.  0.
         21    1    1    2  503  501 -0.12332286199E+03 -0.22910373887E+03 -0.53740324219E+03  0.59707562014E+03  0.00000000000E+00 0.  1.
         21    1    1    2  504  502  0.78812176222E+01 -0.40836954759E+02  0.33377962888E+01  0.41724229762E+02  0.00000000000E+00 0.  1.
<mgrwt>
<rscale>  4 0.29690872E+03</rscale>
<asrwt>0</asrwt>
<pdfrwt beam="1">  1       21 0.19852893E-01 0.29690872E+03</pdfrwt>
<pdfrwt beam="2">  1       21 0.14129393E+00 0.29690872E+03</pdfrwt>
<totfact> 0.76519099E+03</totfact>
</mgrwt>
</event>
<event>
 5    0  0.1531977E+001  0.2834866E+03  0.7546771E-02  0.1093800E+00
         21   -1    0    0  504  501  0.00000000000E+00  0.00000000000E+00  0.26977886504E+03  0.26977886504E+03  0.00000000000E+00 0.  1.
         21   -1    0    0  503  502 -0.00000000000E+00 -0.00000000000E+00 -0.12868310389E+04  0.12868310389E+04  0.00000000000E+00 0.  1.
         25    1    1    2    0    0  0.27246342240E+03  0.19158578682E+03  0.51353953831E+01  0.35579882313E+03  0.12500000000E+03 0.  0.
         21    1    1    2  503  501 -0.18488148771E+03 -0.16590184519E+03 -0.10695266775E+04  0.10979944902E+04  0.00000000000E+00 0.  1.
         21    1    1    2  504  502 -0.87581934688E+02 -0.25683941625E+02  0.47339108194E+02  0.10281659061E+03  0.00000000000E+00 0.  1.
<mgrwt>
<rscale>  4 0.28348659E+03</rscale>
<asrwt>0</asrwt>
<pdfrwt beam="1">  1       21 0.41504441E-01 0.28348659E+03</pdfrwt>
<pdfrwt beam="2">  1       21 0.19797401E+00 0.28348659E+03</pdfrwt>
<totfact> 0.70849206E+02</totfact>
</mgrwt>
</event>
<event>
 5    0  0.1531977E+001  0.2453616E+03  0.7546771E-02  0.1116272E+00
         21   -1    0    0  502  501  0.00000000000E+00  0.00000000000E+00  0.19521137574E+04  0.19521137574E+04  0.00000000000E+00 0.  1.
         21   -1    0    0  504  502 -0.00000000000E+00 -0.00000000000E+00 -0.40005902956E+02  0.40005902956E+02  0.00000000000E+00 0.  1.
         25    1    1    2    0    0  0.70209513005E+01  0.23105188997E+03  0.69295327357E+03  0.74110964706E+03  0.12500000000E+03 0.  0.
         21    1    1    2  503  501 -0.63116519687E+01 -0.37000017769E+02  0.62168275425E+03  0.62281480811E+03  0.00000000000E+00 0. -1.
         21    1    1    2  504  503 -0.70929933185E+00 -0.19405187220E+03  0.59747182663E+03  0.62819520519E+03  0.00000000000E+00 0.  1.
<mgrwt>
<rscale>  4 0.24536156E+03</rscale>
<asrwt>0</asrwt>
<pdfrwt beam="1">  1       21 0.30032512E+00 0.24536156E+03</pdfrwt>
<pdfrwt beam="2">  1       21 0.61547558E-02 0.24536156E+03</pdfrwt>
<totfact> 0.60817881E+03</totfact>
</mgrwt>
</event>
<event>
 5    0  0.1531977E+001  0.3261337E+03  0.7546771E-02  0.1072861E+00
         21   -1    0    0  504  501  0.00000000000E+00  0.00000000000E+00  0.64227541274E+03  0.64227541274E+03  0.00000000000E+00 0.  1.
         21   -1    0    0  503  502 -0.00000000000E+00 -0.00000000000E+00 -0.17400414574E+03  0.17400414574E+03  0.00000000000E+00 0.  1.
         25    1    1    2    0    0  0.13038077644E+03  0.26876056926E+03  0.31989962969E+03  0.45518365912E+03  0.12500000000E+03 0.  0.
         21    1    1    2  503  501 -0.11094927267E+03 -0.28197657782E+03  0.12450116549E+03  0.32759894956E+03  0.00000000000E+00 0.  1.
         21    1    1    2  504  502 -0.19431503767E+02  0.13216008564E+02  0.23870471822E+02  0.33496949802E+02  0.00000000000E+00 0.  1.
<mgrwt>
<rscale>  4 0.32613369E+03</rscale>
<asrwt>0</asrwt>
<pdfrwt beam="1">  1       21 0.98811601E-01 0.32613369E+03</pdfrwt>
<pdfrwt beam="2">  1       21 0.26769869E-01 0.32613369E+03</pdfrwt>
<totfact> 0.10433789E+04</totfact>
</mgrwt>
</event>
<event>
 5    0  0.1531977E+001  0.2113419E+03  0.7546771E-02  0.1140508E+00
         21   -1    0    0  504  501  0.00000000000E+00  0.00000000000E+00  0.17322921662E+04  0.17322921662E+04  0.00000000000E+00 0. -1.
         21   -1    0    0  503  502 -0.00000000000E+00 -0.00000000000E+00 -0.89876992835E+02  0.89876992835E+02  0.00000000000E+00 0.  1.
         25    1    1    2    0    0 -0.17076516572E+03 -0.21880331599E+03  0.90495673931E+03  0.95478130110E+03  0.12500000000E+03 0.  0.
         21    1    1    2  503  501  0.74702097482E+02  0.11564178370E+03  0.23519599924E+02  0.13966601979E+03  0.00000000000E+00 0.  1.
         21    1    1    2  504  502  0.96063068236E+02  0.10316153229E+03  0.71393883412E+03  0.72772183812E+03  0.00000000000E+00 0. -1.
<mgrwt>
<rscale>  4 0.21134188E+03</rscale>
<asrwt>0</asrwt>
<pdfrwt beam="1">  1       21 0.26650646E+00 0.21134188E+03</pdfrwt>
<pdfrwt beam="2">  1       21 0.13827231E-01 0.21134188E+03</pdfrwt>
<totfact> 0.23716739E+03</totfact>
</mgrwt>
</event>
<event>
 5    0  0.1531977E+001  0.4768296E+03  0.7546771E-02  0.1020010E+00
         21   -1    0    0  502  501  0.00000000000E+00  0.00000000000E+00  0.90978899834E+03  0.90978899834E+03  0.00000000000E+00 0. -1.
         21   -1    0    0  504  502 -0.00000000000E+00 -0.00000000000E+00 -0.25158290958E+03  0.25158290958E+03  0.00000000000E+00 0. -1.
         25    1    1    2    0    0  0.36464826380E+03  0.28066543345E+03  0.26035732109E+03  0.54327928036E+03  0.12500000000E+03 0.  0.
         21    1    1    2  503  501 -0.34902056568E+03 -0.25626281091E+03  0.39940122091E+03  0.58907327115E+03  0.00000000000E+00 0. -1.
         21    1    1    2  504  503 -0.15627698121E+02 -0.24402622538E+02 -0.15524532383E+01  0.29019356409E+02  0.00000000000E+00 0. -1.
<mgrwt>
<rscale>  4 0.47682957E+03</rscale>
<asrwt>0</asrwt>
<pdfrwt beam="1">  1       21 0.13996754E+00 0.47682957E+03</pdfrwt>
<pdfrwt beam="2">  1       21 0.38705063E-01 0.47682957E+03</pdfrwt>
<totfact> 0.19563573E+03</totfact>
</mgrwt>
</event>
<event>
 5    0  0.1531977E+001  0.3331073E+03  0.7546771E-02  0.1069770E+00
         21   -1    0    0  502  501  0.00000000000E+00  0.00000000000E+00  0.41292876967E+03  0.41292876967E+03  0.00000000000E+00 0. -1.
         21   -1    0    0  504  502 -0.00000000000E+00 -0.00000000000E+00 -0.44274246021E+03  0.44274246021E+03  0.00000000000E+00 0. -1.
         25    1    1    2    0    0  0.14422720135E+03 -0.28447324969E+03  0.13418756347E+03  0.36791006726E+03  0.12500000000E+03 0.  0.
         21    1    1    2  503  501 -0.24593700531E+03  0.19047127880E+03 -0.65719579954E+02  0.31793612852E+03  0.00000000000E+00 0. -1.
         21    1    1    2  504  503  0.10170980396E+03  0.94001970893E+02 -0.98281674049E+02  0.16982503410E+03  0.00000000000E+00 0. -1.
<mgrwt>
<rscale>  4 0.33310729E+03</rscale>
<asrwt>0</asrwt>
<pdfrwt beam="1">  1       21 0.63527503E-01 0.33310729E+03</pdfrwt>
<pdfrwt beam="2">  1       21 0.68114225E-01 0.33310729E+03</pdfrwt>
<totfact> 0.41349143E+03</totfact>
</mgrwt>
</event>
<event>
 5    0  0.1531977E+001  0.2368114E+03  0.7546771E-02  0.1121935E+00
         21   -1    0    0  502  501  0.00000000000E+00  0.00000000000E+00  0.11687511128E+03  0.11687511128E+03  0.00000000000E+00 0.  1.
         21   -1    0    0  504  502 -0.00000000000E+00 -0.00000000000E+00 -0.69087405319E+03  0.69087405319E+03  0.00000000000E+00 0.  1.
         25    1    1    2    0    0 -0.19062361089E+03  0.15004208818E+03 -0.39413594486E+03  0.47939350463E+03  0.12500000000E+03 0.  0.
         21    1    1    2  503  501  0.64845391903E+02 -0.36153728240E+02  0.86279975143E+01  0.74742620089E+02  0.00000000000E+00 0.  1.
         21    1    1    2  504  503  0.12577821898E+03 -0.11388835994E+03 -0.18849099457E+03  0.25361303975E+03  0.00000000000E+00 0.  1.
<mgrwt>
<rscale>  4 0.23681136E+03</rscale>
<asrwt>0</asrwt>
<pdfrwt beam="1">  1       21 0.17980787E-01 0.23681136E+03</pdfrwt>
<pdfrwt beam="2">  1       21 0.10628831E+00 0.23681136E+03</pdfrwt>
<totfact> 0.19447022E+04</totfact>
</mgrwt>
</event>
<event>
 5    0  0.1531977E+001  0.1771258E+03  0.7546771E-02  0.1170614E+00
         21   -1    0    0  504  501  0.00000000000E+00  0.00000000000E+00  0.41606104814E+03  0.41606104814E+03  0.00000000000E+00 0.  1.
         21   -1    0    0  503  502 -0.00000000000E+00 -0.00000000000E+00 -0.32419409024E+03  0.32419409024E+03  0.00000000000E+00 0.  1.
         25    1    1    2    0    0  0.12358642083E+03 -0.16494610400E+03 -0.75641365295E+02  0.25264092460E+03  0.12500000000E+03 0.  0.
         21    1    1    2  503  501 -0.42652250535E+02  0.76427607552E+02 -0.13573828627E+03  0.16150936825E+03  0.00000000000E+00 0.  1.
         21    1    1    2  504  502 -0.80934170295E+02  0.88518496446E+02  0.30324660946E+03  0.32610484554E+03  0.00000000000E+00 0.  1.
<mgrwt>
<rscale>  4 0.17712582E+03</rscale>
<asrwt>0</asrwt>
<pdfrwt beam="1">  1       21 0.64009392E-01 0.17712582E+03</pdfrwt>
<pdfrwt beam="2">  1       21 0.49876014E-01 0.17712582E+03</pdfrwt>
<totfact> 0.87279988E+03</totfact>
</mgrwt>
</event>
<event>
 5    0  0.1531977E+001  0.5179511E+03  0.7546771E-02  0.1009197E+00
         21   -1    0    0  503  501  0.00000000000E+00  0.00000000000E+00  0.45111280245E+03  0.45111280245E+03  0.00000000000E+00 0.  1.
         21   -1    0    0  501  502 -0.00000000000E+00 -0.00000000000E+00 -0.66862248479E+03  0.66862248479E+03  0.00000000000E+00 0.  1.
         25    1    1    2    0    0  0.24368301872E+02  0.52061991549E+03 -0.21913625423E+03  0.57903765720E+03  0.12500000000E+03 0.  0.
         21    1    1    2  503  504 -0.14457160163E+02 -0.28634365036E+02 -0.34722681325E+02  0.47271565866E+02  0.00000000000E+00 0.  1.
         21    1    1    2  504  502 -0.99111417088E+01 -0.49198555045E+03  0.36349253219E+02  0.49342606416E+03  0.00000000000E+00 0.  1.
<mgrwt>
<rscale>  4 0.51795111E+03</rscale>
<asrwt>0</asrwt>
<pdfrwt beam="1">  1       21 0.69401969E-01 0.51795111E+03</pdfrwt>
<pdfrwt beam="2">  1       21 0.10286500E+00 0.51795111E+03</pdfrwt>
<totfact> 0.12063399E+03</totfact>
</mgrwt>
</event>
<event>
 5    0  0.1531977E+001  0.2445703E+03  0.7546771E-02  0.1116785E+00
         21   -1    0    0  503  501  0.00000000000E+00  0.00000000000E+00  0.28376573978E+03  0.28376573978E+03  0.00000000000E+00 0.  1.
         21   -1    0    0  504  502 -0.00000000000E+00 -0.00000000000E+00 -0.32440654192E+03  0.32440654192E+03  0.00000000000E+00 0.  1.
         25    1    1    2    0    0  0.64991754200E+02  0.19479305663E+03 -0.13416038651E+03  0.27530396353E+03  0.12500000000E+03 0.  0.
         21    1    1    2  503  502 -0.46237070824E+02  0.17114789847E+02 -0.54661143893E+02  0.73611299415E+02  0.00000000000E+00 0. -1.
         21    1    1    2  504  501 -0.18754683376E+02 -0.21190784648E+03  0.14818072827E+03  0.25925701876E+03  0.00000000000E+00 0.  1.
<mgrwt>
<rscale>  4 0.24457031E+03</rscale>
<asrwt>0</asrwt>
<pdfrwt beam="1">  1       21 0.43656267E-01 0.24457031E+03</pdfrwt>
<pdfrwt beam="2">  1       21 0.49908699E-01 0.24457031E+03</pdfrwt>
<totfact> 0.18735431E+04</totfact>
</mgrwt>
</event>
<event>
 5    0  0.1531977E+001  0.2142789E+03  0.7546771E-02  0.1138222E+00
         21   -1    0    0  504  501  0.00000000000E+00  0.00000000000E+00  0.32958746677E+03  0.32958746677E+03  0.00000000000E+00 0.  1.
         21   -1    0    0  503  502 -0.00000000000E+00 -0.00000000000E+00 -0.76361215252E+03  0.76361215252E+03  0.00000000000E+00 0. -1.
         25    1    1    2    0    0 -0.20425508742E+03  0.10228332631E+02  0.25612303440E+03  0.35078307866E+03  0.12500000000E+03 0.  0.
         21    1    1    2  503  501  0.17156000636E+03 -0.22154371724E+02 -0.68587503227E+03  0.70735296130E+03  0.00000000000E+00 0. -1.
         21    1    1    2  504  502  0.32695081055E+02  0.11926039092E+02 -0.42726878739E+01  0.35063579328E+02  0.00000000000E+00 0. -1.
<mgrwt>
<rscale>  4 0.21427889E+03</rscale>
<asrwt>0</asrwt>
<pdfrwt beam="1">  1       21 0.50705764E-01 0.21427889E+03</pdfrwt>
<pdfrwt beam="2">  1       21 0.11747879E+00 0.21427889E+03</pdfrwt>
<totfact> 0.20198857E+03</totfact>
</mgrwt>
</event>
<event>
 5    0  0.1531977E+001  0.3002684E+03  0.7546771E-02  0.1085107E+00
         21   -1    0    0  503  501  0.00000000000E+00  0.00000000000E+00  0.22203683368E+04  0.22203683368E+04  0.00000000000E+00 0.  1.
         21   -1    0    0  504  502 -0.00000000000E+00 -0.00000000000E+00 -0.12310154823E+03  0.12310154823E+03  0.00000000000E+00 0.  1.
         25    1    1    2    0    0  0.38010813433E+03 -0.60010800379E+02  0.61497494595E+03  0.73614039020E+03  0.12500000000E+03 0.  0.
         21    1    1    2  503  502 -0.13658689548E+03  0.14331770035E+03  0.14475515586E+03  0.24525496610E+03  0.00000000000E+00 0.  1.
         21    1    1    2  504  501 -0.24352123885E+03 -0.83306899967E+02  0.13375366868E+04  0.13620745287E+04  0.00000000000E+00 0.  1.
<mgrwt>
<rscale>  4 0.30026841E+03</rscale>
<asrwt>0</asrwt>
<pdfrwt beam="1">  1       21 0.34159510E+00 0.30026841E+03</pdfrwt>
<pdfrwt beam="2">  1       21 0.18938701E-01 0.30026841E+03</pdfrwt>
<totfact> 0.43946289E+02</totfact>
</mgrwt>
</event>
<event>
 5    0  0.1531977E+001  0.2969735E+03  0.7546771E-02  0.1086763E+00
         21   -1    0    0  502  501  0.00000000000E+00  0.00000000000E+00  0.75281388095E+02  0.75281388095E+02  0.00000000000E+00 0. -1.
         21   -1    0    0  504  502 -0.00000000000E+00 -0.00000000000E+00 -0.16458186814E+04  0.16458186814E+04  0.00000000000E+00 0. -1.
         25    1    1    2    0    0 -0.26865196706E+03 -0.10071784544E+03 -0.38969001308E+03  0.49980123058E+03  0.12500000000E+03 0.  0.
         21    1    1    2  503  501  0.15736082431E+02  0.22610499397E+02 -0.31419800003E+02  0.41785916353E+02  0.00000000000E+00 0. -1.
         21    1    1    2  504  503  0.25291588463E+03  0.78107346039E+02 -0.11494274802E+04  0.11795129226E+04  0.00000000000E+00 0. -1.
<mgrwt>
<rscale>  4 0.29697348E+03</rscale>
<asrwt>0</asrwt>
<pdfrwt beam="1">  1       21 0.11581751E-01 0.29697348E+03</pdfrwt>
<pdfrwt beam="2">  1       21 0.25320290E+00 0.29697348E+03</pdfrwt>
<totfact> 0.36355405E+03</totfact>
</mgrwt>
</event>
<event>
 5    0  0.1531977E+001  0.2435377E+03  0.7546771E-02  0.1117458E+00
         21   -1    0    0  503  501  0.00000000000E+00  0.00000000000E+00  0.42828115178E+02  0.42828115178E+02  0.00000000000E+00 0.  1.
         21   -1    0    0  504  502 -0.00000000000E+00 -0.00000000000E+00 -0.18194825959E+04  0.18194825959E+04  0.00000000000E+00 0. -1.
         25    1    1    2    0    0 -0.19448581903E+03  0.52534821800E+02 -0.47918658975E+03  0.53463017976E+03  0.12500000000E+03 0.  0.
         21    1    1    2  503  502  0.18828240106E+03 -0.99151854366E+02 -0.12080655666E+04  0.12266636727E+04  0.00000000000E+00 0. -1.
         21    1    1    2  504  501  0.62034179740E+01  0.46617032567E+02 -0.89402324398E+02  0.10101685863E+03  0.00000000000E+00 0. -1.
<mgrwt>
<rscale>  4 0.24353773E+03</rscale>
<asrwt>0</asrwt>
<pdfrwt beam="1">  1       21 0.65889416E-02 0.24353773E+03</pdfrwt>
<pdfrwt beam="2">  1       21 0.27992037E+00 0.24353773E+03</pdfrwt>
<totfact> 0.71227652E+03</totfact>
</mgrwt>
</event>
<event>
 5    0  0.1531977E+001  0.2973432E+03  0.7546771E-02  0.1086576E+00
         21   -1    0    0  503  501  0.00000000000E+00  0.00000000000E+00  0.18661869539E+04  0.18661869539E+04  0.00000000000E+00 0.  1.
         21   -1    0    0  504  502 -0.00000000000E+00 -0.00000000000E+00 -0.64960325828E+03  0.64960325828E+03  0.00000000000E+00 0.  1.
         25    1    1    2    0    0 -0.22762918434E+03  0.26013252226E+02 -0.58475391583E+03  0.64035449318E+03  0.12500000000E+03 0.  0.
         21    1    1    2  503  502 -0.39898362972E+02  0.13714472185E+02 -0.10537548228E+02  0.43485699233E+02  0.00000000000E+00 0.  1.
         21    1    1    2  504  501  0.26752754732E+03 -0.39727724411E+02  0.18118751597E+04  0.18319500198E+04  0.00000000000E+00 0.  1.
<mgrwt>
<rscale>  4 0.29734325E+03</rscale>
<asrwt>0</asrwt>
<pdfrwt beam="1">  1       21 0.28710568E+00 0.29734325E+03</pdfrwt>
<pdfrwt beam="2">  1       21 0.99938964E-01 0.29734325E+03</pdfrwt>
<totfact> 0.28715309E+01</totfact>
</mgrwt>
</event>
<event>
 5    0  0.1531977E+001  0.2739397E+03  0.7546771E-02  0.1099046E+00
         21   -1    0    0  504  501  0.00000000000E+00  0.00000000000E+00  0.14290209355E+03  0.14290209355E+03  0.00000000000E+00 0. -1.
         21   -1    0    0  503  502 -0.00000000000E+00 -0.00000000000E+00 -0.65209485551E+03  0.65209485551E+03  0.00000000000E+00 0. -1.
         25    1    1    2    0    0 -0.23770766728E+03  0.11124718003E+03 -0.29974468600E+03  0.41755568124E+03  0.12500000000E+03 0.  0.
         21    1    1    2  503  501  0.21180222215E+03 -0.87739359947E+02 -0.23934263029E+03  0.33142611736E+03  0.00000000000E+00 0. -1.
         21    1    1    2  504  502  0.25905445127E+02 -0.23507820086E+02  0.29894554344E+02  0.46015150460E+02  0.00000000000E+00 0. -1.
<mgrwt>
<rscale>  4 0.27393966E+03</rscale>
<asrwt>0</asrwt>
<pdfrwt beam="1">  1       21 0.21984937E-01 0.27393966E+03</pdfrwt>
<pdfrwt beam="2">  1       21 0.10032229E+00 0.27393966E+03</pdfrwt>
<totfact> 0.15039160E+04</totfact>
</mgrwt>
</event>
<event>
 5    0  0.1531977E+001  0.2400393E+03  0.7546771E-02  0.1119767E+00
         21   -1    0    0  504  501  0.00000000000E+00  0.00000000000E+00  0.23910004539E+04  0.23910004539E+04  0.00000000000E+00 0.  1.
         21   -1    0    0  503  502 -0.00000000000E+00 -0.00000000000E+00 -0.30498740698E+02  0.30498740698E+02  0.00000000000E+00 0.  1.
         25    1    1    2    0    0 -0.30512608712E+02  0.21457566668E+03  0.88491986560E+03  0.91960964793E+03  0.12500000000E+03 0.  0.
         21    1    1    2  503  501 -0.38018134017E+01 -0.19613834123E+03  0.74901239551E+03  0.77427661163E+03  0.00000000000E+00 0.  1.
         21    1    1    2  504  502  0.34314422114E+02 -0.18437325449E+02  0.72656945210E+03  0.72761293506E+03  0.00000000000E+00 0.  1.
<mgrwt>
<rscale>  4 0.24003929E+03</rscale>
<asrwt>0</asrwt>
<pdfrwt beam="1">  1       21 0.36784608E+00 0.24003929E+03</pdfrwt>
<pdfrwt beam="2">  1       21 0.46921158E-02 0.24003929E+03</pdfrwt>
<totfact> 0.38745434E+03</totfact>
</mgrwt>
</event>
<event>
 5    0  0.1531977E+001  0.1941142E+03  0.7546771E-02  0.1154802E+00
         21   -1    0    0  502  501  0.00000000000E+00  0.00000000000E+00  0.98370114635E+02  0.98370114635E+02  0.00000000000E+00 0.  1.
         21   -1    0    0  504  502 -0.00000000000E+00 -0.00000000000E+00 -0.11628155818E+04  0.11628155818E+04  0.00000000000E+00 0.  1.
         25    1    1    2    0    0  0.13306051607E+03 -0.16957406413E+03 -0.14136264501E+03  0.28647663354E+03  0.12500000000E+03 0.  0.
         21    1    1    2  503  501 -0.48851120382E+02  0.53801512987E+02 -0.45969738934E+02  0.85989834631E+02  0.00000000000E+00 0.  1.
         21    1    1    2  504  503 -0.84209395691E+02  0.11577255114E+03 -0.87711308324E+03  0.88871922828E+03  0.00000000000E+00 0.  1.
<mgrwt>
<rscale>  4 0.19411420E+03</rscale>
<asrwt>0</asrwt>
<pdfrwt beam="1">  1       21 0.15133863E-01 0.19411420E+03</pdfrwt>
<pdfrwt beam="2">  1       21 0.17889471E+00 0.19411420E+03</pdfrwt>
<totfact> 0.71377281E+03</totfact>
</mgrwt>
</event>
<event>
 5    0  0.1531977E+001  0.3479904E+03  0.7546771E-02  0.1063443E+00
         21   -1    0    0  503  501  0.00000000000E+00  0.00000000000E+00  0.14721938005E+03  0.14721938005E+03  0.00000000000E+00 0. -1.
         21   -1    0    0  504  502 -0.00000000000E+00 -0.00000000000E+00 -0.12151538655E+04  0.12151538655E+04  0.00000000000E+00 0. -1.
         25    1    1    2    0    0  0.23655664478E+03 -0.27904011845E+03 -0.30305693687E+03  0.49121374256E+03  0.12500000000E+03 0.  0.
         21    1    1    2  503  502 -0.80457961925E+02  0.43229303302E+02 -0.39576365597E+03  0.40616637932E+03  0.00000000000E+00 0. -1.
         21    1    1    2  504  501 -0.15609868286E+03  0.23581081515E+03 -0.36911389257E+03  0.46499312363E+03  0.00000000000E+00 0. -1.
<mgrwt>
<rscale>  4 0.34799044E+03</rscale>
<asrwt>0</asrwt>
<pdfrwt beam="1">  1       21 0.22649137E-01 0.34799044E+03</pdfrwt>
<pdfrwt beam="2">  1       21 0.18694674E+00 0.34799044E+03</pdfrwt>
<totfact> 0.26689596E+03</totfact>
</mgrwt>
</event>
<event>
 5    0  0.1531977E+001  0.2512892E+03  0.7546771E-02  0.1112493E+00
         21   -1    0    0  504  501  0.00000000000E+00  0.00000000000E+00  0.35175639666E+03  0.35175639666E+03  0.00000000000E+00 0.  1.
         21   -1    0    0  503  502 -0.00000000000E+00 -0.00000000000E+00 -0.26240549496E+03  0.26240549496E+03  0.00000000000E+00 0. -1.
         25    1    1    2    0    0 -0.15219230881E+03 -0.14025319184E+03  0.89734584389E+02  0.25789678617E+03  0.12500000000E+03 0.  0.
         21    1    1    2  503  501  0.51866749707E+01 -0.34843412856E+02 -0.10063738383E+03  0.10662480031E+03  0.00000000000E+00 0. -1.
         21    1    1    2  504  502  0.14700563384E+03  0.17509660470E+03  0.10025370114E+03  0.24964030514E+03  0.00000000000E+00 0.  1.
<mgrwt>
<rscale>  4 0.25128922E+03</rscale>
<asrwt>0</asrwt>
<pdfrwt beam="1">  1       21 0.54116369E-01 0.25128922E+03</pdfrwt>
<pdfrwt beam="2">  1       21 0.40370076E-01 0.25128922E+03</pdfrwt>
<totfact> 0.18475688E+04</totfact>
</mgrwt>
</event>
<event>
 5    0  0.1531977E+001  0.2446882E+03  0.7546771E-02  0.1116708E+00
         21   -1    0    0  502  501  0.00000000000E+00  0.00000000000E+00  0.60168712611E+02  0.60168712611E+02  0.00000000000E+00 0. -1.
         21   -1    0    0  504  502 -0.00000000000E+00 -0.00000000000E+00 -0.12589731649E+04  0.12589731649E+04  0.00000000000E+00 0. -1.
         25    1    1    2    0    0  0.21470018206E+03 -0.24656588544E+02 -0.66359614285E+03  0.70900561094E+03  0.12500000000E+03 0.  0.
         21    1    1    2  503  501 -0.17682231097E+02 -0.40079601236E+02 -0.92537557320E+01  0.44773515910E+02  0.00000000000E+00 0. -1.
         21    1    1    2  504  503 -0.19701795096E+03  0.64736189781E+02 -0.52595455368E+03  0.56536275064E+03  0.00000000000E+00 0. -1.
<mgrwt>
<rscale>  4 0.24468822E+03</rscale>
<asrwt>0</asrwt>
<pdfrwt beam="1">  1       21 0.92567257E-02 0.24468822E+03</pdfrwt>
<pdfrwt beam="2">  1       21 0.19368816E+00 0.24468822E+03</pdfrwt>
<totfact> 0.13206933E+04</totfact>
</mgrwt>
</event>
<event>
 5    0  0.1531977E+001  0.2129677E+03  0.7546771E-02  0.1139237E+00
         21   -1    0    0  502  501  0.00000000000E+00  0.00000000000E+00  0.94451426780E+03  0.94451426780E+03  0.00000000000E+00 0.  1.
         21   -1    0    0  504  502 -0.00000000000E+00 -0.00000000000E+00 -0.15350727613E+03  0.15350727613E+03  0.00000000000E+00 0.  1.
         25    1    1    2    0    0  0.19842468531E+03 -0.98910777925E+02  0.49632272429E+02  0.25931459696E+03  0.12500000000E+03 0.  0.
         21    1    1    2  503  501 -0.16779675792E+03  0.19956923180E+02  0.73456137890E+03  0.75374694037E+03  0.00000000000E+00 0.  1.
         21    1    1    2  504  503 -0.30627927388E+02  0.78953854746E+02  0.68133403426E+01  0.84960006603E+02  0.00000000000E+00 0.  1.
<mgrwt>
<rscale>  4 0.21296767E+03</rscale>
<asrwt>0</asrwt>
<pdfrwt beam="1">  1       21 0.14530988E+00 0.21296767E+03</pdfrwt>
<pdfrwt beam="2">  1       21 0.23616505E-01 0.21296767E+03</pdfrwt>
<totfact> 0.53944424E+03</totfact>
</mgrwt>
</event>
<event>
 5    0  0.1531977E+001  0.2389114E+03  0.7546771E-02  0.1120520E+00
         21   -1    0    0  503  501  0.00000000000E+00  0.00000000000E+00  0.94642678592E+03  0.94642678592E+03  0.00000000000E+00 0.  1.
         21   -1    0    0  504  502 -0.00000000000E+00 -0.00000000000E+00 -0.20229452633E+03  0.20229452633E+03  0.00000000000E+00 0.  1.
         25    1    1    2    0    0  0.20595262606E+03  0.90552266265E+02  0.11168116147E+03  0.28055993822E+03  0.12500000000E+03 0.  0.
         21    1    1    2  503  502 -0.20943609859E+02 -0.14002874282E+02 -0.10295189986E+03  0.10598966443E+03  0.00000000000E+00 0.  1.
         21    1    1    2  504  501 -0.18500901620E+03 -0.76549391982E+02  0.73540299798E+03  0.76217170960E+03  0.00000000000E+00 0.  1.
<mgrwt>
<rscale>  4 0.23891137E+03</rscale>
<asrwt>0</asrwt>
<pdfrwt beam="1">  1       21 0.14560412E+00 0.23891137E+03</pdfrwt>
<pdfrwt beam="2">  1       21 0.31122235E-01 0.23891137E+03</pdfrwt>
<totfact> 0.30850084E+03</totfact>
</mgrwt>
</event>
<event>
 5    0  0.1531977E+001  0.3473839E+03  0.7546771E-02  0.1063694E+00
         21   -1    0    0  503  501  0.00000000000E+00  0.00000000000E+00  0.50574776727E+03  0.50574776727E+03  0.00000000000E+00 0. -1.
         21   -1    0    0  504  502 -0.00000000000E+00 -0.00000000000E+00 -0.90540920903E+03  0.90540920903E+03  0.00000000000E+00 0.  1.
         25    1    1    2    0    0 -0.26154114056E+03  0.24713207840E+03 -0.66002128499E+03  0.76205716913E+03  0.12500000000E+03 0.  0.
         21    1    1    2  503  502  0.67386648514E+02  0.92131637493E+01 -0.12796227257E+03  0.14491440917E+03  0.00000000000E+00 0.  1.
         21    1    1    2  504  501  0.19415449204E+03 -0.25634524215E+03  0.38832211579E+03  0.50418539801E+03  0.00000000000E+00 0. -1.
<mgrwt>
<rscale>  4 0.34738390E+03</rscale>
<asrwt>0</asrwt>
<pdfrwt beam="1">  1       21 0.77807349E-01 0.34738390E+03</pdfrwt>
<pdfrwt beam="2">  1       21 0.13929372E+00 0.34738390E+03</pdfrwt>
<totfact> 0.46663237E+02</totfact>
</mgrwt>
</event>
<event>
 5    0  0.1531977E+001  0.2097260E+03  0.7546771E-02  0.1141783E+00
         21   -1    0    0  504  501  0.00000000000E+00  0.00000000000E+00  0.26557273952E+03  0.26557273952E+03  0.00000000000E+00 0.  1.
         21   -1    0    0  501  502 -0.00000000000E+00 -0.00000000000E+00 -0.24121650450E+03  0.24121650450E+03  0.00000000000E+00 0.  1.
         25    1    1    2    0    0 -0.22166625530E+03 -0.24797904998E+02  0.55199683023E+01  0.25574662243E+03  0.12500000000E+03 0.  0.
         21    1    1    2  503  502  0.14656391346E+03  0.17182250163E+02  0.66401819683E+02  0.16181907214E+03  0.00000000000E+00 0.  1.
         21    1    1    2  504  503  0.75102341839E+02  0.76156548351E+01 -0.47565552972E+02  0.89223549458E+02  0.00000000000E+00 0.  1.
<mgrwt>
<rscale>  4 0.20972597E+03</rscale>
<asrwt>0</asrwt>
<pdfrwt beam="1">  1       21 0.40857344E-01 0.20972597E+03</pdfrwt>
<pdfrwt beam="2">  1       21 0.37110232E-01 0.20972597E+03</pdfrwt>
<totfact> 0.40061361E+04</totfact>
</mgrwt>
</event>
<event>
 5    0  0.1531977E+001  0.2838451E+03  0.7546771E-02  0.1093607E+00
         21   -1    0    0  503  501  0.00000000000E+00  0.00000000000E+00  0.31817111898E+03  0.31817111898E+03  0.00000000000E+00 0. -1.
         21   -1    0    0  501  502 -0.00000000000E+00 -0.00000000000E+00 -0.29310437202E+03  0.29310437202E+03  0.00000000000E+00 0. -1.
         25    1    1    2    0    0 -0.19552663251E+03  0.96238063082E+02  0.68675163435E+02  0.26044904853E+03  0.12500000000E+03 0.  0.
         21    1    1    2  503  504  0.24942325743E+03 -0.12816508698E+03 -0.58443503508E+02  0.28645050876E+03  0.00000000000E+00 0. -1.
         21    1    1    2  504  502 -0.53896624924E+02  0.31927023893E+02  0.14835087034E+02  0.64375933703E+02  0.00000000000E+00 0. -1.
<mgrwt>
<rscale>  4 0.28384509E+03</rscale>
<asrwt>0</asrwt>
<pdfrwt beam="1">  1       21 0.48949403E-01 0.28384509E+03</pdfrwt>
<pdfrwt beam="2">  1       21 0.45092981E-01 0.28384509E+03</pdfrwt>
<totfact> 0.17922703E+04</totfact>
</mgrwt>
</event>
<event>
 5    0  0.1531977E+001  0.2803003E+03  0.7546771E-02  0.1095525E+00
         21   -1    0    0  504  501  0.00000000000E+00  0.00000000000E+00  0.34052753819E+03  0.34052753819E+03  0.00000000000E+00 0.  1.
         21   -1    0    0  503  502 -0.00000000000E+00 -0.00000000000E+00 -0.10501537893E+04  0.10501537893E+04  0.00000000000E+00 0.  1.
         25    1    1    2    0    0  0.33361816313E+03  0.12314491528E+03 -0.68138626224E+03  0.77870275927E+03  0.12500000000E+03 0.  0.
         21    1    1    2  503  501 -0.17154029388E+03 -0.74084493322E+02 -0.26293628587E+03  0.32256793859E+03  0.00000000000E+00 0.  1.
         21    1    1    2  504  502 -0.16207786924E+03 -0.49060421958E+02  0.23469629702E+03  0.28941062962E+03  0.00000000000E+00 0.  1.
<mgrwt>
<rscale>  4 0.28030030E+03</rscale>
<asrwt>0</asrwt>
<pdfrwt beam="1">  1       21 0.52388852E-01 0.28030030E+03</pdfrwt>
<pdfrwt beam="2">  1       21 0.16156212E+00 0.28030030E+03</pdfrwt>
<totfact> 0.78209693E+02</totfact>
</mgrwt>
</event>
<event>
 5    0  0.1531977E+001  0.3723501E+03  0.7546771E-02  0.1054368E+00
         21   -1    0    0  503  501  0.00000000000E+00  0.00000000000E+00  0.13599913017E+03  0.13599913017E+03  0.00000000000E+00 0. -1.
         21   -1    0    0  504  502 -0.00000000000E+00 -0.00000000000E+00 -0.10685584257E+04  0.10685584257E+04  0.00000000000E+00 0. -1.
         25    1    1    2    0    0  0.24091136609E+03 -0.24612598999E+03 -0.61169837638E+03  0.71303309385E+03  0.12500000000E+03 0.  0.
         21    1    1    2  503  502 -0.73921494792E+02  0.25073938710E+02 -0.16168982462E+02  0.79715279517E+02  0.00000000000E+00 0.  1.
         21    1    1    2  504  501 -0.16698987130E+03  0.22105205128E+03 -0.30469193665E+03  0.41180918245E+03  0.00000000000E+00 0. -1.
<mgrwt>
<rscale>  4 0.37085090E+03</rscale>
<asrwt>0</asrwt>
<pdfrwt beam="1">  1       21 0.20922942E-01 0.37235006E+03</pdfrwt>
<pdfrwt beam="2">  1       21 0.16439361E+00 0.37235006E+03</pdfrwt>
<totfact> 0.44342771E+03</totfact>
</mgrwt>
</event>
<event>
 5    0  0.1531977E+001  0.5228120E+03  0.7546771E-02  0.1007990E+00
         21   -1    0    0  503  501  0.00000000000E+00  0.00000000000E+00  0.26784308463E+03  0.26784308463E+03  0.00000000000E+00 0. -1.
         21   -1    0    0  504  502 -0.00000000000E+00 -0.00000000000E+00 -0.29542086569E+04  0.29542086569E+04  0.00000000000E+00 0. -1.
         25    1    1    2    0    0  0.51457416968E+03 -0.24883758293E+03 -0.94904249603E+03  0.11149050982E+04  0.12500000000E+03 0.  0.
         21    1    1    2  503  502 -0.39767662402E+02  0.12806942217E+03 -0.15898669658E+04  0.15955125235E+04  0.00000000000E+00 0. -1.
         21    1    1    2  504  501 -0.47480650728E+03  0.12076816077E+03 -0.14745611046E+03  0.51163411978E+03  0.00000000000E+00 0. -1.
<mgrwt>
<rscale>  4 0.52281197E+03</rscale>
<asrwt>0</asrwt>
<pdfrwt beam="1">  1       21 0.41206626E-01 0.52281197E+03</pdfrwt>
<pdfrwt beam="2">  1       21 0.45449366E+00 0.52281197E+03</pdfrwt>
<totfact> 0.15107339E+01</totfact>
</mgrwt>
</event>
<event>
 5    0  0.1531977E+001  0.3406605E+03  0.7546771E-02  0.1066515E+00
         21   -1    0    0  503  501  0.00000000000E+00  0.00000000000E+00  0.39977235052E+03  0.39977235052E+03  0.00000000000E+00 0.  1.
         21   -1    0    0  504  502 -0.00000000000E+00 -0.00000000000E+00 -0.38853627539E+03  0.38853627539E+03  0.00000000000E+00 0.  1.
         25    1    1    2    0    0  0.23385488766E+03  0.19098634515E+03 -0.15913027913E+03  0.36347123442E+03  0.12500000000E+03 0.  0.
         21    1    1    2  503  502  0.19639777450E+02  0.74866333248E+01 -0.36526474285E+02  0.42142067587E+02  0.00000000000E+00 0. -1.
         21    1    1    2  504  501 -0.25349466511E+03 -0.19847297847E+03  0.20689282855E+03  0.38269532390E+03  0.00000000000E+00 0.  1.
<mgrwt>
<rscale>  4 0.34066051E+03</rscale>
<asrwt>0</asrwt>
<pdfrwt beam="1">  1       21 0.61503439E-01 0.34066051E+03</pdfrwt>
<pdfrwt beam="2">  1       21 0.59774811E-01 0.34066051E+03</pdfrwt>
<totfact> 0.58968588E+03</totfact>
</mgrwt>
</event>
<event>
 5    0  0.1531977E+001  0.2448607E+03  0.7546771E-02  0.1116596E+00
         21   -1    0    0  502  501  0.00000000000E+00  0.00000000000E+00  0.41204128834E+03  0.41204128834E+03  0.00000000000E+00 0.  1.
         21   -1    0    0  504  502 -0.00000000000E+00 -0.00000000000E+00 -0.25946470102E+03  0.25946470102E+03  0.00000000000E+00 0.  1.
         25    1    1    2    0    0 -0.55890881973E+02 -0.23081131456E+03 -0.10155989249E+03  0.28694435938E+03  0.12500000000E+03 0.  0.
         21    1    1    2  503  501  0.98260314066E+02  0.18167342274E+03  0.24268084152E+03  0.31867587403E+03  0.00000000000E+00 0.  1.
         21    1    1    2  504  503 -0.42369432092E+02  0.49137891822E+02  0.11455638296E+02  0.65885755952E+02  0.00000000000E+00 0.  1.
<mgrwt>
<rscale>  4 0.24486074E+03</rscale>
<asrwt>0</asrwt>
<pdfrwt beam="1">  1       21 0.63390967E-01 0.24486074E+03</pdfrwt>
<pdfrwt beam="2">  1       21 0.39917646E-01 0.24486074E+03</pdfrwt>
<totfact> 0.13493471E+04</totfact>
</mgrwt>
</event>
<event>
 5    0  0.1531977E+001  0.2898913E+03  0.7546771E-02  0.1090406E+00
         21   -1    0    0  503  501  0.00000000000E+00  0.00000000000E+00  0.59721526687E+02  0.59721526687E+02  0.00000000000E+00 0. -1.
         21   -1    0    0  504  502 -0.00000000000E+00 -0.00000000000E+00 -0.24116289663E+04  0.24116289663E+04  0.00000000000E+00 0.  1.
         25    1    1    2    0    0  0.14297672227E+03  0.22776861553E+03 -0.40467829216E+03  0.50170748996E+03  0.12500000000E+03 0.  0.
         21    1    1    2  503  502 -0.15390599039E+03 -0.20994873602E+03 -0.19030013231E+04  0.19207237077E+04  0.00000000000E+00 0.  1.
         21    1    1    2  504  501  0.10929268120E+02 -0.17819879512E+02 -0.44227824319E+02  0.48919295288E+02  0.00000000000E+00 0. -1.
<mgrwt>
<rscale>  4 0.28989135E+03</rscale>
<asrwt>0</asrwt>
<pdfrwt beam="1">  1       21 0.91879280E-02 0.28989135E+03</pdfrwt>
<pdfrwt beam="2">  1       21 0.37101981E+00 0.28989135E+03</pdfrwt>
<totfact> 0.10990744E+03</totfact>
</mgrwt>
</event>
<event>
 5    0  0.1531977E+001  0.4357232E+03  0.7546771E-02  0.1032067E+00
         21   -1    0    0  504  501  0.00000000000E+00  0.00000000000E+00  0.48159731916E+03  0.48159731916E+03  0.00000000000E+00 0. -1.
         21   -1    0    0  501  502 -0.00000000000E+00 -0.00000000000E+00 -0.48796745494E+03  0.48796745494E+03  0.00000000000E+00 0. -1.
         25    1    1    2    0    0 -0.52444115852E+02 -0.39728285846E+03 -0.21126498093E+03  0.46993823752E+03  0.12500000000E+03 0.  0.
         21    1    1    2  503  502  0.52345463855E+02  0.42055303433E+03  0.21384512814E+03  0.47469426066E+03  0.00000000000E+00 0. -1.
         21    1    1    2  504  503  0.98651996914E-01 -0.23270175871E+02 -0.89502829843E+01  0.24932275925E+02  0.00000000000E+00 0.  1.
<mgrwt>
<rscale>  4 0.43572320E+03</rscale>
<asrwt>0</asrwt>
<pdfrwt beam="1">  1       21 0.74091895E-01 0.43572320E+03</pdfrwt>
<pdfrwt beam="2">  1       21 0.75071916E-01 0.43572320E+03</pdfrwt>
<totfact> 0.22555724E+03</totfact>
</mgrwt>
</event>
<event>
 5    0  0.1531977E+001  0.3789181E+03  0.7546771E-02  0.1051334E+00
         21   -1    0    0  502  501  0.00000000000E+00  0.00000000000E+00  0.40075382321E+03  0.40075382321E+03  0.00000000000E+00 0. -1.
         21   -1    0    0  504  502 -0.00000000000E+00 -0.00000000000E+00 -0.86432538024E+03  0.86432538024E+03  0.00000000000E+00 0. -1.
         25    1    1    2    0    0  0.30952011811E+03 -0.14977574467E+03 -0.56588709866E+03  0.67386102843E+03  0.12500000000E+03 0.  0.
         21    1    1    2  503  501 -0.31062417897E+03  0.18186204015E+03  0.25118578429E+03  0.43892537001E+03  0.00000000000E+00 0. -1.
         21    1    1    2  504  503  0.11040608628E+01 -0.32086295481E+02 -0.14887024266E+03  0.15229280501E+03  0.00000000000E+00 0.  1.
<mgrwt>
<rscale>  4 0.37891809E+03</rscale>
<asrwt>0</asrwt>
<pdfrwt beam="1">  1       21 0.61654435E-01 0.37891809E+03</pdfrwt>
<pdfrwt beam="2">  1       21 0.13297313E+00 0.37891809E+03</pdfrwt>
<totfact> 0.87099340E+02</totfact>
</mgrwt>
</event>
<event>
 5    0  0.1531977E+001  0.1991317E+03  0.7546771E-02  0.1150474E+00
         21   -1    0    0  503  501  0.00000000000E+00  0.00000000000E+00  0.65816894340E+03  0.65816894340E+03  0.00000000000E+00 0.  1.
         21   -1    0    0  504  502 -0.00000000000E+00 -0.00000000000E+00 -0.16279640951E+03  0.16279640951E+03  0.00000000000E+00 0.  1.
         25    1    1    2    0    0 -0.21812246741E+03 -0.15684560128E+02  0.27765554508E+03  0.37488800718E+03  0.12500000000E+03 0.  0.
         21    1    1    2  503  502  0.83833950991E+02 -0.52588711381E+01 -0.81749388852E+02  0.11721241249E+03  0.00000000000E+00 0.  1.
         21    1    1    2  504  501  0.13428851642E+03  0.20943431266E+02  0.29946637767E+03  0.32886493323E+03  0.00000000000E+00 0.  1.
<mgrwt>
<rscale>  4 0.19913175E+03</rscale>
<asrwt>0</asrwt>
<pdfrwt beam="1">  1       21 0.10125676E+00 0.19913175E+03</pdfrwt>
<pdfrwt beam="2">  1       21 0.25045602E-01 0.19913175E+03</pdfrwt>
<totfact> 0.11975406E+04</totfact>
</mgrwt>
</event>
<event>
 5    0  0.1531977E+001  0.3360060E+03  0.7546771E-02  0.1068510E+00
         21   -1    0    0  504  501  0.00000000000E+00  0.00000000000E+00  0.85341026649E+03  0.85341026649E+03  0.00000000000E+00 0. -1.
         21   -1    0    0  501  502 -0.00000000000E+00 -0.00000000000E+00 -0.16880089663E+03  0.16880089663E+03  0.00000000000E+00 0. -1.
         25    1    1    2    0    0 -0.17997326263E+03  0.27143969196E+03  0.49291816228E+03  0.60387349365E+03  0.12500000000E+03 0.  0.
         21    1    1    2  503  502  0.18843617364E+02 -0.10522638999E+02  0.94070079665E+02  0.96514184114E+02  0.00000000000E+00 0. -1.
         21    1    1    2  504  503  0.16112964526E+03 -0.26091705296E+03  0.97621127921E+02  0.32182348535E+03  0.00000000000E+00 0. -1.
<mgrwt>
<rscale>  4 0.33600598E+03</rscale>
<asrwt>0</asrwt>
<pdfrwt beam="1">  1       21 0.13129388E+00 0.33600598E+03</pdfrwt>
<pdfrwt beam="2">  1       21 0.25969369E-01 0.33600598E+03</pdfrwt>
<totfact> 0.54361430E+03</totfact>
</mgrwt>
</event>
<event>
 5    0  0.1531977E+001  0.2060484E+03  0.7546771E-02  0.1144734E+00
         21   -1    0    0  502  501  0.00000000000E+00  0.00000000000E+00  0.22386439135E+03  0.22386439135E+03  0.00000000000E+00 0. -1.
         21   -1    0    0  504  502 -0.00000000000E+00 -0.00000000000E+00 -0.65052464073E+03  0.65052464073E+03  0.00000000000E+00 0. -1.
         25    1    1    2    0    0 -0.12302386729E+03  0.18072229361E+03 -0.49079355845E+03  0.55163279121E+03  0.12500000000E+03 0.  0.
         21    1    1    2  503  501  0.10565772682E+03 -0.12043702037E+03  0.14793865219E+03  0.21806988770E+03  0.00000000000E+00 0. -1.
         21    1    1    2  504  503  0.17366140468E+02 -0.60285273236E+02 -0.83805343116E+02  0.10468635316E+03  0.00000000000E+00 0. -1.
<mgrwt>
<rscale>  4 0.20604842E+03</rscale>
<asrwt>0</asrwt>
<pdfrwt beam="1">  1       21 0.34440676E-01 0.20604842E+03</pdfrwt>
<pdfrwt beam="2">  1       21 0.10008071E+00 0.20604842E+03</pdfrwt>
<totfact> 0.65907297E+03</totfact>
</mgrwt>
</event>
<event>
 5    0  0.1531977E+001  0.2988633E+03  0.7546771E-02  0.1085810E+00
         21   -1    0    0  502  501  0.00000000000E+00  0.00000000000E+00  0.62689502661E+03  0.62689502661E+03  0.00000000000E+00 0. -1.
         21   -1    0    0  504  502 -0.00000000000E+00 -0.00000000000E+00 -0.36175208692E+03  0.36175208692E+03  0.00000000000E+00 0. -1.
         25    1    1    2    0    0  0.20125091554E+03  0.18462056110E+03  0.45146241016E+03  0.54224532306E+03  0.12500000000E+03 0.  0.
         21    1    1    2  503  501 -0.22740197097E+03 -0.14457938293E+03 -0.16499397463E+02  0.26997608132E+03  0.00000000000E+00 0. -1.
         21    1    1    2  504  503  0.26151055421E+02 -0.40041178170E+02 -0.16982007301E+03  0.17642570914E+03  0.00000000000E+00 0. -1.
<mgrwt>
<rscale>  4 0.29886326E+03</rscale>
<asrwt>0</asrwt>
<pdfrwt beam="1">  1       21 0.96445388E-01 0.29886326E+03</pdfrwt>
<pdfrwt beam="2">  1       21 0.55654167E-01 0.29886326E+03</pdfrwt>
<totfact> 0.25220477E+03</totfact>
</mgrwt>
</event>
<event>
 5    0  0.1531977E+001  0.2940105E+03  0.7546771E-02  0.1088274E+00
         21   -1    0    0  503  501  0.00000000000E+00  0.00000000000E+00  0.78568262506E+03  0.78568262506E+03  0.00000000000E+00 0.  1.
         21   -1    0    0  504  502 -0.00000000000E+00 -0.00000000000E+00 -0.13039213018E+03  0.13039213018E+03  0.00000000000E+00 0.  1.
         25    1    1    2    0    0 -0.63695142889E+02 -0.27600798124E+03  0.34662487511E+03  0.46477013779E+03  0.12500000000E+03 0.  0.
         21    1    1    2  503  502  0.10753579452E+02  0.28010659455E+02 -0.20091641763E+02  0.36109702060E+02  0.00000000000E+00 0.  1.
         21    1    1    2  504  501  0.52941563437E+02  0.24799732178E+03  0.32875726154E+03  0.41519491539E+03  0.00000000000E+00 0.  1.
<mgrwt>
<rscale>  4 0.29401055E+03</rscale>
<asrwt>0</asrwt>
<pdfrwt beam="1">  1       21 0.12087425E+00 0.29401055E+03</pdfrwt>
<pdfrwt beam="2">  1       21 0.20060328E-01 0.29401055E+03</pdfrwt>
<totfact> 0.11219026E+04</totfact>
</mgrwt>
</event>
<event>
 5    0  0.1531977E+001  0.2150470E+03  0.7546771E-02  0.1137631E+00
         21   -1    0    0  502  501  0.00000000000E+00  0.00000000000E+00  0.15048032222E+04  0.15048032222E+04  0.00000000000E+00 0.  1.
         21   -1    0    0  504  502 -0.00000000000E+00 -0.00000000000E+00 -0.75180046149E+02  0.75180046149E+02  0.00000000000E+00 0.  1.
         25    1    1    2    0    0  0.26826993318E+03  0.13671354841E+02  0.72780609688E+03  0.78580046936E+03  0.12500000000E+03 0.  0.
         21    1    1    2  503  501 -0.12572596355E+03  0.54578868084E+02  0.57626590991E+03  0.59234134558E+03  0.00000000000E+00 0.  1.
         21    1    1    2  504  503 -0.14254396963E+03 -0.68250222924E+02  0.12555116922E+03  0.20184145337E+03  0.00000000000E+00 0.  1.
<mgrwt>
<rscale>  4 0.21504700E+03</rscale>
<asrwt>0</asrwt>
<pdfrwt beam="1">  1       21 0.23150817E+00 0.21504700E+03</pdfrwt>
<pdfrwt beam="2">  1       21 0.11566162E-01 0.21504700E+03</pdfrwt>
<totfact> 0.52542206E+03</totfact>
</mgrwt>
</event>
<event>
 5    0  0.1531977E+001  0.3879267E+03  0.7546771E-02  0.1048042E+00
         21   -1    0    0  502  501  0.00000000000E+00  0.00000000000E+00  0.33229567588E+03  0.33229567588E+03  0.00000000000E+00 0.  1.
         21   -1    0    0  504  502 -0.00000000000E+00 -0.00000000000E+00 -0.79792955657E+03  0.79792955657E+03  0.00000000000E+00 0.  1.
         25    1    1    2    0    0 -0.36364395166E+02  0.39506848502E+03  0.46908381630E+02  0.41860109097E+03  0.12500000000E+03 0.  0.
         21    1    1    2  503  501  0.46731845171E+01 -0.36033890280E+02  0.38649660938E+02  0.53047866996E+02  0.00000000000E+00 0.  1.
         21    1    1    2  504  503  0.31691210649E+02 -0.35903459474E+03 -0.55119192326E+03  0.65857627449E+03  0.00000000000E+00 0.  1.
<mgrwt>
<rscale>  4 0.38792668E+03</rscale>
<asrwt>0</asrwt>
<pdfrwt beam="1">  1       21 0.51122413E-01 0.38792668E+03</pdfrwt>
<pdfrwt beam="2">  1       21 0.12275839E+00 0.38792668E+03</pdfrwt>
<totfact> 0.15959603E+03</totfact>
</mgrwt>
</event>
<event>
 5    0  0.1531977E+001  0.2546190E+03  0.7546771E-02  0.1110420E+00
         21   -1    0    0  504  501  0.00000000000E+00  0.00000000000E+00  0.11987451037E+03  0.11987451037E+03  0.00000000000E+00 0. -1.
         21   -1    0    0  501  502 -0.00000000000E+00 -0.00000000000E+00 -0.64305642093E+03  0.64305642093E+03  0.00000000000E+00 0. -1.
         25    1    1    2    0    0  0.22150080352E+03 -0.11967070504E+02 -0.83499801415E+02  0.26796088068E+03  0.12500000000E+03 0.  0.
         21    1    1    2  503  502 -0.19385622200E+03  0.23989514387E+02 -0.35670842908E+03  0.40668985110E+03  0.00000000000E+00 0. -1.
         21    1    1    2  504  503 -0.27644581521E+02 -0.12022443883E+02 -0.82973680066E+02  0.88280199524E+02  0.00000000000E+00 0. -1.
<mgrwt>
<rscale>  4 0.25461896E+03</rscale>
<asrwt>0</asrwt>
<pdfrwt beam="1">  1       21 0.18442232E-01 0.25461896E+03</pdfrwt>
<pdfrwt beam="2">  1       21 0.98931757E-01 0.25461896E+03</pdfrwt>
<totfact> 0.21848752E+04</totfact>
</mgrwt>
</event>
<event>
 5    0  0.1531977E+001  0.2383294E+03  0.7546771E-02  0.1120911E+00
         21   -1    0    0  504  501  0.00000000000E+00  0.00000000000E+00  0.26882681298E+03  0.26882681298E+03  0.00000000000E+00 0.  1.
         21   -1    0    0  503  502 -0.00000000000E+00 -0.00000000000E+00 -0.23297267438E+03  0.23297267438E+03  0.00000000000E+00 0.  1.
         25    1    1    2    0    0  0.20250934469E+03  0.46522671617E+02  0.18514635215E+02  0.24319166388E+03  0.12500000000E+03 0.  0.
         21    1    1    2  503  501 -0.17992088794E+03 -0.91697761830E+02 -0.80023505268E+01  0.20209909217E+03  0.00000000000E+00 0.  1.
         21    1    1    2  504  502 -0.22588456758E+02  0.45175090213E+02  0.25341853912E+02  0.56508731309E+02  0.00000000000E+00 0.  1.
<mgrwt>
<rscale>  4 0.23832938E+03</rscale>
<asrwt>0</asrwt>
<pdfrwt beam="1">  1       21 0.41357972E-01 0.23832938E+03</pdfrwt>
<pdfrwt beam="2">  1       21 0.35841950E-01 0.23832938E+03</pdfrwt>
<totfact> 0.41348217E+04</totfact>
</mgrwt>
</event>
<event>
 5    0  0.1531977E+001  0.3173178E+03  0.7546771E-02  0.1076890E+00
         21   -1    0    0  503  501  0.00000000000E+00  0.00000000000E+00  0.65450421663E+03  0.65450421663E+03  0.00000000000E+00 0.  1.
         21   -1    0    0  501  502 -0.00000000000E+00 -0.00000000000E+00 -0.38887469909E+03  0.38887469909E+03  0.00000000000E+00 0.  1.
         25    1    1    2    0    0 -0.23059437972E+03 -0.21032804011E+03 -0.21957636001E+03  0.40155999588E+03  0.12500000000E+03 0.  0.
         21    1    1    2  503  504 -0.31326869799E+02  0.84730816187E+02  0.18673247535E+02  0.92246269066E+02  0.00000000000E+00 0. -1.
         21    1    1    2  504  502  0.26192124952E+03  0.12559722393E+03  0.46653263001E+03  0.54957265077E+03  0.00000000000E+00 0.  1.
<mgrwt>
<rscale>  4 0.31731783E+03</rscale>
<asrwt>0</asrwt>
<pdfrwt beam="1">  1       21 0.10069296E+00 0.31731783E+03</pdfrwt>
<pdfrwt beam="2">  1       21 0.59826877E-01 0.31731783E+03</pdfrwt>
<totfact> 0.19261118E+03</totfact>
</mgrwt>
</event>
<event>
 5    0  0.1531977E+001  0.2443671E+03  0.7546771E-02  0.1116917E+00
         21   -1    0    0  504  501  0.00000000000E+00  0.00000000000E+00  0.31982866215E+03  0.31982866215E+03  0.00000000000E+00 0.  1.
         21   -1    0    0  503  502 -0.00000000000E+00 -0.00000000000E+00 -0.24262347670E+03  0.24262347670E+03  0.00000000000E+00 0.  1.
         25    1    1    2    0    0  0.14104915423E+03  0.19339091686E+03  0.11470032126E+03  0.29338724296E+03  0.12500000000E+03 0.  0.
         21    1    1    2  503  501 -0.10853968062E+03 -0.16806880404E+03 -0.74686432992E+02  0.21355572676E+03  0.00000000000E+00 0.  1.
         21    1    1    2  504  502 -0.32509473602E+02 -0.25322112820E+02  0.37191297176E+02  0.55509169127E+02  0.00000000000E+00 0. -1.
<mgrwt>
<rscale>  4 0.24436712E+03</rscale>
<asrwt>0</asrwt>
<pdfrwt beam="1">  1       21 0.49204409E-01 0.24436712E+03</pdfrwt>
<pdfrwt beam="2">  1       21 0.37326689E-01 0.24436712E+03</pdfrwt>
<totfact> 0.26548562E+04</totfact>
</mgrwt>
</event>
<event>
 5    0  0.1531977E+001  0.3020993E+03  0.7546771E-02  0.1084196E+00
         21   -1    0    0  502  501  0.00000000000E+00  0.00000000000E+00  0.32002948912E+03  0.32002948912E+03  0.00000000000E+00 0.  1.
         21   -1    0    0  504  502 -0.00000000000E+00 -0.00000000000E+00 -0.75504509635E+03  0.75504509635E+03  0.00000000000E+00 0.  1.
         25    1    1    2    0    0 -0.16757451175E+03  0.17084302119E+03 -0.96179556086E+01  0.27015932327E+03  0.12500000000E+03 0.  0.
         21    1    1    2  503  501  0.17994818608E+03 -0.25162592738E+03  0.57930266515E+02  0.31472666360E+03  0.00000000000E+00 0.  1.
         21    1    1    2  504  503 -0.12373674328E+02  0.80782906188E+02 -0.48332791814E+03  0.49018859860E+03  0.00000000000E+00 0.  1.
<mgrwt>
<rscale>  4 0.30209932E+03</rscale>
<asrwt>0</asrwt>
<pdfrwt beam="1">  1       21 0.49235307E-01 0.30209932E+03</pdfrwt>
<pdfrwt beam="2">  1       21 0.11616078E+00 0.30209932E+03</pdfrwt>
<totfact> 0.20766335E+03</totfact>
</mgrwt>
</event>
<event>
 5    0  0.1531977E+001  0.3830201E+03  0.7546771E-02  0.1049823E+00
         21   -1    0    0  502  501  0.00000000000E+00  0.00000000000E+00  0.38809770758E+03  0.38809770758E+03  0.00000000000E+00 0. -1.
         21   -1    0    0  504  502 -0.00000000000E+00 -0.00000000000E+00 -0.63823167243E+03  0.63823167243E+03  0.00000000000E+00 0. -1.
         25    1    1    2    0    0  0.18426269613E+03  0.40382285201E+03 -0.14794191362E+03  0.48429066355E+03  0.12500000000E+03 0.  0.
         21    1    1    2  503  501 -0.19337962382E+03 -0.26552102716E+03  0.54363390545E+02  0.33294515014E+03  0.00000000000E+00 0. -1.
         21    1    1    2  504  503  0.91169276902E+01 -0.13830182486E+03 -0.15655544177E+03  0.20909356632E+03  0.00000000000E+00 0. -1.
<mgrwt>
<rscale>  4 0.38302008E+03</rscale>
<asrwt>0</asrwt>
<pdfrwt beam="1">  1       21 0.59707340E-01 0.38302008E+03</pdfrwt>
<pdfrwt beam="2">  1       21 0.98189487E-01 0.38302008E+03</pdfrwt>
<totfact> 0.19891366E+03</totfact>
</mgrwt>
</event>
<event>
 5    0  0.1531977E+001  0.2395513E+03  0.7546771E-02  0.1120092E+00
         21   -1    0    0  504  501  0.00000000000E+00  0.00000000000E+00  0.13078998557E+03  0.13078998557E+03  0.00000000000E+00 0.  1.
         21   -1    0    0  503  502 -0.00000000000E+00 -0.00000000000E+00 -0.16536788458E+04  0.16536788458E+04  0.00000000000E+00 0.  1.
         25    1    1    2    0    0  0.16107032872E+03  0.14338099129E+03 -0.10865763383E+04  0.11147981425E+04  0.12500000000E+03 0.  0.
         21    1    1    2  503  501 -0.28653748830E+02  0.11255537620E+02 -0.46328552802E+03  0.46430723118E+03  0.00000000000E+00 0. -1.
         21    1    1    2  504  502 -0.13241657989E+03 -0.15463652891E+03  0.26973006125E+02  0.20536345771E+03  0.00000000000E+00 0.  1.
<mgrwt>
<rscale>  4 0.23955131E+03</rscale>
<asrwt>0</asrwt>
<pdfrwt beam="1">  1       21 0.20121538E-01 0.23955131E+03</pdfrwt>
<pdfrwt beam="2">  1       21 0.25441211E+00 0.23955131E+03</pdfrwt>
<totfact> 0.13581846E+03</totfact>
</mgrwt>
</event>
<event>
 5    0  0.1531977E+001  0.1903916E+03  0.7546771E-02  0.1158109E+00
         21   -1    0    0  502  501  0.00000000000E+00  0.00000000000E+00  0.81888725520E+02  0.81888725520E+02  0.00000000000E+00 0. -1.
         21   -1    0    0  504  502 -0.00000000000E+00 -0.00000000000E+00 -0.11056190895E+04  0.11056190895E+04  0.00000000000E+00 0. -1.
         25    1    1    2    0    0  0.22263373946E+03 -0.32127010166E+02 -0.64348731548E+03  0.69303596726E+03  0.12500000000E+03 0.  0.
         21    1    1    2  503  501 -0.10774499643E+03  0.40118146475E+02 -0.20552618850E+02  0.11679409264E+03  0.00000000000E+00 0. -1.
         21    1    1    2  504  503 -0.11488874303E+03 -0.79911363095E+01 -0.35969042963E+03  0.37767775510E+03  0.00000000000E+00 0. -1.
<mgrwt>
<rscale>  4 0.19039162E+03</rscale>
<asrwt>0</asrwt>
<pdfrwt beam="1">  1       21 0.12598267E-01 0.19039162E+03</pdfrwt>
<pdfrwt beam="2">  1       21 0.17009522E+00 0.19039162E+03</pdfrwt>
<totfact> 0.11478533E+04</totfact>
</mgrwt>
</event>
<event>
 5    0  0.1531977E+001  0.2350993E+03  0.7546771E-02  0.1123101E+00
         21   -1    0    0  502  501  0.00000000000E+00  0.00000000000E+00  0.35310724295E+03  0.35310724295E+03  0.00000000000E+00 0.  1.
         21   -1    0    0  504  502 -0.00000000000E+00 -0.00000000000E+00 -0.76151371779E+03  0.76151371779E+03  0.00000000000E+00 0.  1.
         25    1    1    2    0    0 -0.11610704715E+03 -0.23678660712E+03 -0.53543259738E+03  0.60980473108E+03  0.12500000000E+03 0.  0.
         21    1    1    2  503  501  0.75252093160E+02  0.18058573828E+03  0.27723664250E+03  0.33931437096E+03  0.00000000000E+00 0.  1.
         21    1    1    2  504  503  0.40854953994E+02  0.56200868840E+02 -0.15021051996E+03  0.16550185869E+03  0.00000000000E+00 0.  1.
<mgrwt>
<rscale>  4 0.23509934E+03</rscale>
<asrwt>0</asrwt>
<pdfrwt beam="1">  1       21 0.54324192E-01 0.23509934E+03</pdfrwt>
<pdfrwt beam="2">  1       21 0.11715596E+00 0.23509934E+03</pdfrwt>
<totfact> 0.17285067E+03</totfact>
</mgrwt>
</event>
<event>
 5    0  0.1531977E+001  0.2450100E+03  0.7546771E-02  0.1116500E+00
         21   -1    0    0  502  501  0.00000000000E+00  0.00000000000E+00  0.38965172464E+03  0.38965172464E+03  0.00000000000E+00 0.  1.
         21   -1    0    0  504  502 -0.00000000000E+00 -0.00000000000E+00 -0.28815816701E+03  0.28815816701E+03  0.00000000000E+00 0. -1.
         25    1    1    2    0    0 -0.20271500112E+03  0.11229283187E+03  0.26157143565E+03  0.37114372919E+03  0.12500000000E+03 0.  0.
         21    1    1    2  503  501  0.96637752795E+01 -0.35652941643E+02  0.99334743231E+01  0.38251728230E+02  0.00000000000E+00 0.  1.
         21    1    1    2  504  503  0.19305122584E+03 -0.76639890224E+02 -0.17001135234E+03  0.26841443422E+03  0.00000000000E+00 0. -1.
<mgrwt>
<rscale>  4 0.24500998E+03</rscale>
<asrwt>0</asrwt>
<pdfrwt beam="1">  1       21 0.59946419E-01 0.24500998E+03</pdfrwt>
<pdfrwt beam="2">  1       21 0.44332026E-01 0.24500998E+03</pdfrwt>
<totfact> 0.12289115E+04</totfact>
</mgrwt>
</event>
<event>
 5    0  0.1531977E+001  0.3055489E+03  0.7546771E-02  0.1082499E+00
         21   -1    0    0  503  501  0.00000000000E+00  0.00000000000E+00  0.45924126481E+03  0.45924126481E+03  0.00000000000E+00 0. -1.
         21   -1    0    0  504  502 -0.00000000000E+00 -0.00000000000E+00 -0.20499841451E+03  0.20499841451E+03  0.00000000000E+00 0. -1.
         25    1    1    2    0    0 -0.27427756756E+03  0.49983570078E+01  0.12038859643E+03  0.32460989170E+03  0.12500000000E+03 0.  0.
         21    1    1    2  503  502  0.28256004899E+03  0.19817010946E+02  0.13426724589E+03  0.31346545029E+03  0.00000000000E+00 0. -1.
         21    1    1    2  504  501 -0.82824814353E+01 -0.24815367954E+02 -0.41299202385E+00  0.26164337328E+02  0.00000000000E+00 0.  1.
<mgrwt>
<rscale>  4 0.30554894E+03</rscale>
<asrwt>0</asrwt>
<pdfrwt beam="1">  1       21 0.70652502E-01 0.30554894E+03</pdfrwt>
<pdfrwt beam="2">  1       21 0.31538218E-01 0.30554894E+03</pdfrwt>
<totfact> 0.16563172E+04</totfact>
</mgrwt>
</event>
<event>
 5    0  0.1531977E+001  0.2209881E+03  0.7546771E-02  0.1133149E+00
         21   -1    0    0  503  501  0.00000000000E+00  0.00000000000E+00  0.22884097548E+03  0.22884097548E+03  0.00000000000E+00 0.  1.
         21   -1    0    0  504  502 -0.00000000000E+00 -0.00000000000E+00 -0.40386706235E+03  0.40386706235E+03  0.00000000000E+00 0.  1.
         25    1    1    2    0    0  0.99715197101E+01 -0.24342505704E+03 -0.56363090425E+02  0.27956571243E+03  0.12500000000E+03 0.  0.
         21    1    1    2  503  502 -0.39534644397E+02  0.85118516295E+02 -0.16124073808E+03  0.18656560653E+03  0.00000000000E+00 0.  1.
         21    1    1    2  504  501  0.29563124687E+02  0.15830654075E+03  0.42577741632E+02  0.16657671887E+03  0.00000000000E+00 0.  1.
<mgrwt>
<rscale>  4 0.22098808E+03</rscale>
<asrwt>0</asrwt>
<pdfrwt beam="1">  1       21 0.35206304E-01 0.22098808E+03</pdfrwt>
<pdfrwt beam="2">  1       21 0.62133394E-01 0.22098808E+03</pdfrwt>
<totfact> 0.18382323E+04</totfact>
</mgrwt>
</event>
<event>
 5    0  0.1531977E+001  0.2293813E+03  0.7546771E-02  0.1127076E+00
         21   -1    0    0  502  501  0.00000000000E+00  0.00000000000E+00  0.69355721084E+03  0.69355721084E+03  0.00000000000E+00 0.  1.
         21   -1    0    0  504  502 -0.00000000000E+00 -0.00000000000E+00 -0.15349883478E+03  0.15349883478E+03  0.00000000000E+00 0.  1.
         25    1    1    2    0    0 -0.22504795242E+03 -0.78457562507E+02  0.34355718849E+02  0.27130699479E+03  0.12500000000E+03 0.  0.
         21    1    1    2  503  501  0.45035755443E+02  0.32837259557E+02  0.26287685325E+02  0.61624242659E+02  0.00000000000E+00 0.  1.
         21    1    1    2  504  503  0.18001219698E+03  0.45620302951E+02  0.47941497189E+03  0.51412480817E+03  0.00000000000E+00 0.  1.
<mgrwt>
<rscale>  4 0.22938126E+03</rscale>
<asrwt>0</asrwt>
<pdfrwt beam="1">  1       21 0.10670111E+00 0.22938126E+03</pdfrwt>
<pdfrwt beam="2">  1       21 0.23615206E-01 0.22938126E+03</pdfrwt>
<totfact> 0.11583736E+04</totfact>
</mgrwt>
</event>
<event>
 5    0  0.1531977E+001  0.3457682E+03  0.7546771E-02  0.1064365E+00
         21   -1    0    0  503  501  0.00000000000E+00  0.00000000000E+00  0.14866126790E+03  0.14866126790E+03  0.00000000000E+00 0. -1.
         21   -1    0    0  504  502 -0.00000000000E+00 -0.00000000000E+00 -0.10878743835E+04  0.10878743835E+04  0.00000000000E+00 0. -1.
         25    1    1    2    0    0  0.20206260673E+03  0.26290408251E+03 -0.63981383743E+03  0.73139223417E+03  0.12500000000E+03 0.  0.
         21    1    1    2  503  502 -0.16448809609E+03 -0.26385159459E+03 -0.33238062707E+03  0.45513830752E+03  0.00000000000E+00 0. -1.
         21    1    1    2  504  501 -0.37574510643E+02  0.94751207986E+00  0.32981348855E+02  0.50005109754E+02  0.00000000000E+00 0. -1.
<mgrwt>
<rscale>  4 0.34576825E+03</rscale>
<asrwt>0</asrwt>
<pdfrwt beam="1">  1       21 0.22870965E-01 0.34576825E+03</pdfrwt>
<pdfrwt beam="2">  1       21 0.16736529E+00 0.34576825E+03</pdfrwt>
<totfact> 0.36027959E+03</totfact>
</mgrwt>
</event>
<event>
 5    0  0.1531977E+001  0.2262840E+03  0.7546771E-02  0.1129283E+00
         21   -1    0    0  502  501  0.00000000000E+00  0.00000000000E+00  0.24899149358E+03  0.24899149358E+03  0.00000000000E+00 0.  1.
         21   -1    0    0  504  502 -0.00000000000E+00 -0.00000000000E+00 -0.68221180390E+03  0.68221180390E+03  0.00000000000E+00 0.  1.
         25    1    1    2    0    0 -0.16191972661E+03 -0.15019964074E+03 -0.45510701267E+03  0.52108091783E+03  0.12500000000E+03 0.  0.
         21    1    1    2  503  501  0.15576218690E+03  0.10195981366E+03  0.17130559432E+03  0.25298867388E+03  0.00000000000E+00 0.  1.
         21    1    1    2  504  503  0.61575397095E+01  0.48239827081E+02 -0.14941889197E+03  0.15713370577E+03  0.00000000000E+00 0.  1.
<mgrwt>
<rscale>  4 0.22628398E+03</rscale>
<asrwt>0</asrwt>
<pdfrwt beam="1">  1       21 0.38306384E-01 0.22628398E+03</pdfrwt>
<pdfrwt beam="2">  1       21 0.10495566E+00 0.22628398E+03</pdfrwt>
<totfact> 0.46843046E+03</totfact>
</mgrwt>
</event>
<event>
 5    0  0.1531977E+001  0.3394603E+03  0.7546771E-02  0.1067026E+00
         21   -1    0    0  504  501  0.00000000000E+00  0.00000000000E+00  0.99853562493E+02  0.99853562493E+02  0.00000000000E+00 0.  1.
         21   -1    0    0  503  502 -0.00000000000E+00 -0.00000000000E+00 -0.12389533262E+04  0.12389533262E+04  0.00000000000E+00 0.  1.
         25    1    1    2    0    0 -0.85670894343E+02 -0.29102901054E+03 -0.44157637869E+03  0.55013824202E+03  0.12500000000E+03 0.  0.
         21    1    1    2  503  501  0.71994848518E+02  0.31595550212E+03 -0.68463152710E+03  0.75745063564E+03  0.00000000000E+00 0.  1.
         21    1    1    2  504  502  0.13676045826E+02 -0.24926491586E+02 -0.12891857909E+02  0.31218011028E+02  0.00000000000E+00 0. -1.
<mgrwt>
<rscale>  4 0.33946033E+03</rscale>
<asrwt>0</asrwt>
<pdfrwt beam="1">  1       21 0.15362085E-01 0.33946033E+03</pdfrwt>
<pdfrwt beam="2">  1       21 0.19060823E+00 0.33946033E+03</pdfrwt>
<totfact> 0.52539371E+03</totfact>
</mgrwt>
</event>
<event>
 5    0  0.1531977E+001  0.4406579E+03  0.7546771E-02  0.1030545E+00
         21   -1    0    0  504  501  0.00000000000E+00  0.00000000000E+00  0.23643366188E+03  0.23643366188E+03  0.00000000000E+00 0. -1.
         21   -1    0    0  503  502 -0.00000000000E+00 -0.00000000000E+00 -0.98082961044E+03  0.98082961044E+03  0.00000000000E+00 0. -1.
         25    1    1    2    0    0 -0.43145182693E+03  0.88377742337E+02 -0.24451323577E+03  0.51901158636E+03  0.12500000000E+03 0.  0.
         21    1    1    2  503  501  0.40812070177E+03 -0.65030094892E+02 -0.51634689268E+03  0.66136641435E+03  0.00000000000E+00 0. -1.
         21    1    1    2  504  502  0.23331125167E+02 -0.23347647445E+02  0.16464179890E+02  0.36885271616E+02  0.00000000000E+00 0. -1.
<mgrwt>
<rscale>  4 0.44065792E+03</rscale>
<asrwt>0</asrwt>
<pdfrwt beam="1">  1       21 0.36374410E-01 0.44065792E+03</pdfrwt>
<pdfrwt beam="2">  1       21 0.15089686E+00 0.44065792E+03</pdfrwt>
<totfact> 0.18397210E+03</totfact>
</mgrwt>
</event>
<event>
 5    0  0.1531977E+001  0.2843017E+03  0.7546771E-02  0.1093362E+00
         21   -1    0    0  504  501  0.00000000000E+00  0.00000000000E+00  0.13316323177E+03  0.13316323177E+03  0.00000000000E+00 0.  1.
         21   -1    0    0  501  502 -0.00000000000E+00 -0.00000000000E+00 -0.69233540320E+03  0.69233540320E+03  0.00000000000E+00 0.  1.
         25    1    1    2    0    0 -0.47392534875E+02 -0.24656846671E+03 -0.27737325508E+03  0.39446544053E+03  0.12500000000E+03 0.  0.
         21    1    1    2  503  502  0.11683672318E+02  0.25916327118E+03 -0.16309052585E+03  0.30643209516E+03  0.00000000000E+00 0.  1.
         21    1    1    2  504  503  0.35708862556E+02 -0.12594804461E+02 -0.11870839051E+03  0.12460109928E+03  0.00000000000E+00 0.  1.
<mgrwt>
<rscale>  4 0.28430173E+03</rscale>
<asrwt>0</asrwt>
<pdfrwt beam="1">  1       21 0.20486650E-01 0.28430173E+03</pdfrwt>
<pdfrwt beam="2">  1       21 0.10651314E+00 0.28430173E+03</pdfrwt>
<totfact> 0.14799000E+04</totfact>
</mgrwt>
</event>
<event>
 5    0  0.1531977E+001  0.2773212E+03  0.7546771E-02  0.1097161E+00
         21   -1    0    0  502  501  0.00000000000E+00  0.00000000000E+00  0.20318306952E+04  0.20318306952E+04  0.00000000000E+00 0. -1.
         21   -1    0    0  504  502 -0.00000000000E+00 -0.00000000000E+00 -0.83121323183E+02  0.83121323183E+02  0.00000000000E+00 0.  1.
         25    1    1    2    0    0  0.19379902954E+03 -0.18819742313E+03  0.15800101024E+04  0.16078038616E+04  0.12500000000E+03 0.  0.
         21    1    1    2  503  501 -0.52603070907E+01  0.32463968312E+02  0.21678039084E+03  0.21926084448E+03  0.00000000000E+00 0. -1.
         21    1    1    2  504  503 -0.18853872245E+03  0.15573345481E+03  0.15191887877E+03  0.28788731222E+03  0.00000000000E+00 0.  1.
<mgrwt>
<rscale>  4 0.27732117E+03</rscale>
<asrwt>0</asrwt>
<pdfrwt beam="1">  1       21 0.31258930E+00 0.27732117E+03</pdfrwt>
<pdfrwt beam="2">  1       21 0.12787897E-01 0.27732117E+03</pdfrwt>
<totfact> 0.13763604E+03</totfact>
</mgrwt>
</event>
<event>
 5    0  0.1531977E+001  0.2911790E+03  0.7546771E-02  0.1089735E+00
         21   -1    0    0  503  501  0.00000000000E+00  0.00000000000E+00  0.22632752319E+03  0.22632752319E+03  0.00000000000E+00 0.  1.
         21   -1    0    0  504  502 -0.00000000000E+00 -0.00000000000E+00 -0.12138447943E+04  0.12138447943E+04  0.00000000000E+00 0. -1.
         25    1    1    2    0    0 -0.12806622564E+03  0.19576901701E+03 -0.64177817621E+02  0.27289239353E+03  0.12500000000E+03 0.  0.
         21    1    1    2  503  502  0.27017500989E+03 -0.69759959843E+02 -0.93621627657E+03  0.97691448166E+03  0.00000000000E+00 0. -1.
         21    1    1    2  504  501 -0.14210878425E+03 -0.12600905717E+03  0.12876823080E+02  0.19036544230E+03  0.00000000000E+00 0.  1.
<mgrwt>
<rscale>  4 0.29117899E+03</rscale>
<asrwt>0</asrwt>
<pdfrwt beam="1">  1       21 0.34819620E-01 0.29117899E+03</pdfrwt>
<pdfrwt beam="2">  1       21 0.18674535E+00 0.29117899E+03</pdfrwt>
<totfact> 0.11948154E+03</totfact>
</mgrwt>
</event>
<event>
 5    0  0.1531977E+001  0.2518031E+03  0.7546771E-02  0.1112171E+00
         21   -1    0    0  504  501  0.00000000000E+00  0.00000000000E+00  0.20986234179E+03  0.20986234179E+03  0.00000000000E+00 0. -1.
         21   -1    0    0  503  502 -0.00000000000E+00 -0.00000000000E+00 -0.29593192327E+03  0.29593192327E+03  0.00000000000E+00 0.  1.
         25    1    1    2    0    0 -0.21640886672E+03  0.30773546410E+02 -0.50647360926E+01  0.25185404564E+03  0.12500000000E+03 0.  0.
         21    1    1    2  503  501  0.98348614398E+02  0.21676473880E+02 -0.73231508168E+02  0.12451977057E+03  0.00000000000E+00 0.  1.
         21    1    1    2  504  502  0.11806025233E+03 -0.52450020290E+02 -0.77733372164E+01  0.12942044885E+03  0.00000000000E+00 0.  1.
<mgrwt>
<rscale>  4 0.25180312E+03</rscale>
<asrwt>0</asrwt>
<pdfrwt beam="1">  1       21 0.32286514E-01 0.25180312E+03</pdfrwt>
<pdfrwt beam="2">  1       21 0.45527988E-01 0.25180312E+03</pdfrwt>
<totfact> 0.41545570E+04</totfact>
</mgrwt>
</event>
<event>
 5    0  0.1531977E+001  0.1930365E+03  0.7546771E-02  0.1155751E+00
         21   -1    0    0  502  501  0.00000000000E+00  0.00000000000E+00  0.33174488816E+03  0.33174488816E+03  0.00000000000E+00 0. -1.
         21   -1    0    0  504  502 -0.00000000000E+00 -0.00000000000E+00 -0.31807183527E+03  0.31807183527E+03  0.00000000000E+00 0. -1.
         25    1    1    2    0    0 -0.93013958335E+02  0.20584135598E+03  0.83405334939E+02  0.27130003718E+03  0.12500000000E+03 0.  0.
         21    1    1    2  503  501  0.89172098282E+02 -0.88730861251E+02  0.10789095959E+03  0.16572654589E+03  0.00000000000E+00 0. -1.
         21    1    1    2  504  503  0.38418600533E+01 -0.11711049473E+03 -0.17762324164E+03  0.21279014036E+03  0.00000000000E+00 0. -1.
<mgrwt>
<rscale>  4 0.19303650E+03</rscale>
<asrwt>0</asrwt>
<pdfrwt beam="1">  1       21 0.51037675E-01 0.19303650E+03</pdfrwt>
<pdfrwt beam="2">  1       21 0.48934129E-01 0.19303650E+03</pdfrwt>
<totfact> 0.14545371E+04</totfact>
</mgrwt>
</event>
<event>
 5    0  0.1531977E+001  0.2042493E+03  0.7546771E-02  0.1146203E+00
         21   -1    0    0  502  501  0.00000000000E+00  0.00000000000E+00  0.26105462803E+03  0.26105462803E+03  0.00000000000E+00 0.  1.
         21   -1    0    0  504  502 -0.00000000000E+00 -0.00000000000E+00 -0.23696071439E+03  0.23696071439E+03  0.00000000000E+00 0.  1.
         25    1    1    2    0    0  0.90546205151E+01 -0.20591870682E+03  0.29201539957E+02  0.24282139508E+03  0.12500000000E+03 0.  0.
         21    1    1    2  503  501 -0.69850183223E+02  0.12614540655E+03  0.32962499483E+02  0.14791294082E+03  0.00000000000E+00 0.  1.
         21    1    1    2  504  503  0.60795562708E+02  0.79773300273E+02 -0.38070125806E+02  0.10728100652E+03  0.00000000000E+00 0.  1.
<mgrwt>
<rscale>  4 0.20424929E+03</rscale>
<asrwt>0</asrwt>
<pdfrwt beam="1">  1       21 0.40162250E-01 0.20424929E+03</pdfrwt>
<pdfrwt beam="2">  1       21 0.36455495E-01 0.20424929E+03</pdfrwt>
<totfact> 0.43100678E+04</totfact>
</mgrwt>
</event>
<event>
 5    0  0.1531977E+001  0.3517395E+03  0.7546771E-02  0.1061903E+00
         21   -1    0    0  503  501  0.00000000000E+00  0.00000000000E+00  0.99956894923E+03  0.99956894923E+03  0.00000000000E+00 0.  1.
         21   -1    0    0  504  502 -0.00000000000E+00 -0.00000000000E+00 -0.67985921934E+03  0.67985921934E+03  0.00000000000E+00 0.  1.
         25    1    1    2    0    0 -0.11905788966E+03  0.33885954617E+03 -0.19510453573E+03  0.42742409031E+03  0.12500000000E+03 0.  0.
         21    1    1    2  503  502  0.11095510054E+02 -0.31422033014E+02 -0.33770032766E+03  0.33934048654E+03  0.00000000000E+00 0.  1.
         21    1    1    2  504  501  0.10796237961E+03 -0.30743751315E+03  0.85251459328E+03  0.91266359172E+03  0.00000000000E+00 0.  1.
<mgrwt>
<rscale>  4 0.35173953E+03</rscale>
<asrwt>0</asrwt>
<pdfrwt beam="1">  1       21 0.15377984E+00 0.35173953E+03</pdfrwt>
<pdfrwt beam="2">  1       21 0.10459373E+00 0.35173953E+03</pdfrwt>
<totfact> 0.17783992E+02</totfact>
</mgrwt>
</event>
<event>
 5    0  0.1531977E+001  0.2687521E+03  0.7546771E-02  0.1101996E+00
         21   -1    0    0  502  501  0.00000000000E+00  0.00000000000E+00  0.15530334777E+04  0.15530334777E+04  0.00000000000E+00 0. -1.
         21   -1    0    0  504  502 -0.00000000000E+00 -0.00000000000E+00 -0.52896135878E+02  0.52896135878E+02  0.00000000000E+00 0. -1.
         25    1    1    2    0    0  0.15540406481E+03 -0.15589992642E+03  0.73039558263E+03  0.77301870452E+03  0.12500000000E+03 0.  0.
         21    1    1    2  503  501 -0.15375558509E+03  0.20798123479E+03  0.69691673076E+03  0.74336391060E+03  0.00000000000E+00 0. -1.
         21    1    1    2  504  503 -0.16484797183E+01 -0.52081308367E+02  0.72825028436E+02  0.89546998461E+02  0.00000000000E+00 0.  1.
<mgrwt>
<rscale>  4 0.26875206E+03</rscale>
<asrwt>0</asrwt>
<pdfrwt beam="1">  1       21 0.23892819E+00 0.26875206E+03</pdfrwt>
<pdfrwt beam="2">  1       21 0.81378682E-02 0.26875206E+03</pdfrwt>
<totfact> 0.84658051E+03</totfact>
</mgrwt>
</event>
<event>
 5    0  0.1531977E+001  0.2366830E+03  0.7546771E-02  0.1122022E+00
         21   -1    0    0  504  501  0.00000000000E+00  0.00000000000E+00  0.58102572610E+03  0.58102572610E+03  0.00000000000E+00 0.  1.
         21   -1    0    0  501  502 -0.00000000000E+00 -0.00000000000E+00 -0.11343135322E+03  0.11343135322E+03  0.00000000000E+00 0.  1.
         25    1    1    2    0    0  0.14559786033E+03 -0.16284510200E+03  0.18302832727E+03  0.31119388291E+03  0.12500000000E+03 0.  0.
         21    1    1    2  503  502 -0.14868915229E+03  0.12395125360E+03  0.28466352875E+03  0.34424657133E+03  0.00000000000E+00 0.  1.
         21    1    1    2  504  503  0.30912919560E+01  0.38893848401E+02 -0.97483125397E-01  0.39016625077E+02  0.00000000000E+00 0.  1.
<mgrwt>
<rscale>  4 0.23668303E+03</rscale>
<asrwt>0</asrwt>
<pdfrwt beam="1">  1       21 0.89388572E-01 0.23668303E+03</pdfrwt>
<pdfrwt beam="2">  1       21 0.17450978E-01 0.23668303E+03</pdfrwt>
<totfact> 0.31001736E+04</totfact>
</mgrwt>
</event>
<event>
 5    0  0.1531977E+001  0.2630553E+03  0.7546771E-02  0.1105321E+00
         21   -1    0    0  503  501  0.00000000000E+00  0.00000000000E+00  0.19935618310E+03  0.19935618310E+03  0.00000000000E+00 0. -1.
         21   -1    0    0  504  502 -0.00000000000E+00 -0.00000000000E+00 -0.72592857199E+03  0.72592857199E+03  0.00000000000E+00 0.  1.
         25    1    1    2    0    0  0.51295765267E+02  0.31418169355E+03 -0.27955078413E+03  0.44171827334E+03  0.12500000000E+03 0.  0.
         21    1    1    2  503  502 -0.23209537645E+02 -0.19750551742E+03 -0.29378947409E+03  0.35476663758E+03  0.00000000000E+00 0.  1.
         21    1    1    2  504  501 -0.28086227622E+02 -0.11667617612E+03  0.46767869337E+02  0.12879984417E+03  0.00000000000E+00 0. -1.
<mgrwt>
<rscale>  4 0.26305526E+03</rscale>
<asrwt>0</asrwt>
<pdfrwt beam="1">  1       21 0.30670182E-01 0.26305526E+03</pdfrwt>
<pdfrwt beam="2">  1       21 0.11168132E+00 0.26305526E+03</pdfrwt>
<totfact> 0.61252574E+03</totfact>
</mgrwt>
</event>
<event>
 5    0  0.1531977E+001  0.6389736E+03  0.7546771E-02  0.9827692E-01
         21   -1    0    0  502  501  0.00000000000E+00  0.00000000000E+00  0.70067697837E+03  0.70067697837E+03  0.00000000000E+00 0.  1.
         21   -1    0    0  504  502 -0.00000000000E+00 -0.00000000000E+00 -0.93362394144E+03  0.93362394144E+03  0.00000000000E+00 0. -1.
         25    1    1    2    0    0  0.30377834505E+03 -0.45455972538E+03  0.26700507146E+03  0.62114614628E+03  0.12500000000E+03 0.  0.
         21    1    1    2  503  501 -0.60925434327E+02 -0.15753611887E+03  0.25336810811E+02  0.17079663720E+03  0.00000000000E+00 0.  1.
         21    1    1    2  504  503 -0.24285291072E+03  0.61209584425E+03 -0.52528884534E+03  0.84235813633E+03  0.00000000000E+00 0. -1.
<mgrwt>
<rscale>  4 0.63897364E+03</rscale>
<asrwt>0</asrwt>
<pdfrwt beam="1">  1       21 0.10779646E+00 0.63897364E+03</pdfrwt>
<pdfrwt beam="2">  1       21 0.14363445E+00 0.63897364E+03</pdfrwt>
<totfact> 0.17280042E+02</totfact>
</mgrwt>
</event>
<event>
 5    0  0.1531977E+001  0.3273972E+03  0.7546771E-02  0.1072294E+00
         21   -1    0    0  503  501  0.00000000000E+00  0.00000000000E+00  0.19049588834E+04  0.19049588834E+04  0.00000000000E+00 0. -1.
         21   -1    0    0  504  502 -0.00000000000E+00 -0.00000000000E+00 -0.12270481342E+03  0.12270481342E+03  0.00000000000E+00 0. -1.
         25    1    1    2    0    0 -0.38186140832E+03 -0.91741874619E+02  0.78579165633E+03  0.88731518294E+03  0.12500000000E+03 0.  0.
         21    1    1    2  503  502  0.18530862174E+03 -0.10472247867E+03  0.18293029175E+03  0.28065917849E+03  0.00000000000E+00 0. -1.
         21    1    1    2  504  501  0.19655278658E+03  0.19646435329E+03  0.81353212193E+03  0.85968933542E+03  0.00000000000E+00 0. -1.
<mgrwt>
<rscale>  4 0.32739721E+03</rscale>
<asrwt>0</asrwt>
<pdfrwt beam="1">  1       21 0.29307057E+00 0.32739721E+03</pdfrwt>
<pdfrwt beam="2">  1       21 0.18877665E-01 0.32739721E+03</pdfrwt>
<totfact> 0.83859455E+02</totfact>
</mgrwt>
</event>
<event>
 5    0  0.1531977E+001  0.2422751E+03  0.7546771E-02  0.1118286E+00
         21   -1    0    0  502  501  0.00000000000E+00  0.00000000000E+00  0.84739461652E+02  0.84739461652E+02  0.00000000000E+00 0. -1.
         21   -1    0    0  504  502 -0.00000000000E+00 -0.00000000000E+00 -0.76854827670E+03  0.76854827670E+03  0.00000000000E+00 0. -1.
         25    1    1    2    0    0 -0.50062971590E+02 -0.19717853044E+03 -0.34998351075E+03  0.42367337866E+03  0.12500000000E+03 0.  0.
         21    1    1    2  503  501  0.10458651842E+03  0.18629286502E+03 -0.24776018502E+03  0.32715207576E+03  0.00000000000E+00 0. -1.
         21    1    1    2  504  503 -0.54523546833E+02  0.10885665420E+02 -0.86065119284E+02  0.10246228393E+03  0.00000000000E+00 0.  1.
<mgrwt>
<rscale>  4 0.24227509E+03</rscale>
<asrwt>0</asrwt>
<pdfrwt beam="1">  1       21 0.13036839E-01 0.24227509E+03</pdfrwt>
<pdfrwt beam="2">  1       21 0.11823821E+00 0.24227509E+03</pdfrwt>
<totfact> 0.26949436E+04</totfact>
</mgrwt>
</event>
<event>
 5    0  0.1531977E+001  0.1920254E+03  0.7546771E-02  0.1156647E+00
         21   -1    0    0  503  501  0.00000000000E+00  0.00000000000E+00  0.73803422878E+03  0.73803422878E+03  0.00000000000E+00 0. -1.
         21   -1    0    0  504  502 -0.00000000000E+00 -0.00000000000E+00 -0.32658500212E+03  0.32658500212E+03  0.00000000000E+00 0.  1.
         25    1    1    2    0    0 -0.15223871157E+03 -0.13702302586E+03  0.64655884279E+03  0.68964865846E+03  0.12500000000E+03 0.  0.
         21    1    1    2  503  502  0.10026439139E+03  0.10360897642E+03 -0.26848144024E+03  0.30474588090E+03  0.00000000000E+00 0.  1.
         21    1    1    2  504  501  0.51974320181E+02  0.33414049439E+02  0.33371824108E+02  0.70224691544E+02  0.00000000000E+00 0.  1.
<mgrwt>
<rscale>  4 0.19202544E+03</rscale>
<asrwt>0</asrwt>
<pdfrwt beam="1">  1       21 0.11354373E+00 0.19202544E+03</pdfrwt>
<pdfrwt beam="2">  1       21 0.50243847E-01 0.19202544E+03</pdfrwt>
<totfact> 0.22824687E+03</totfact>
</mgrwt>
</event>
<event>
 5    0  0.1531977E+001  0.2346388E+03  0.7546771E-02  0.1123417E+00
         21   -1    0    0  502  501  0.00000000000E+00  0.00000000000E+00  0.14677447591E+04  0.14677447591E+04  0.00000000000E+00 0.  1.
         21   -1    0    0  504  502 -0.00000000000E+00 -0.00000000000E+00 -0.54587648505E+02  0.54587648505E+02  0.00000000000E+00 0.  1.
         25    1    1    2    0    0 -0.20491307915E+03  0.10109933544E+03  0.52308969844E+03  0.58434431481E+03  0.12500000000E+03 0.  0.
         21    1    1    2  503  501  0.55433282176E+02 -0.98926897121E+00  0.55425140032E+03  0.55701745231E+03  0.00000000000E+00 0.  1.
         21    1    1    2  504  503  0.14947979697E+03 -0.10011006647E+03  0.33581601187E+03  0.38097064052E+03  0.00000000000E+00 0.  1.
<mgrwt>
<rscale>  4 0.23463878E+03</rscale>
<asrwt>0</asrwt>
<pdfrwt beam="1">  1       21 0.22580686E+00 0.23463878E+03</pdfrwt>
<pdfrwt beam="2">  1       21 0.83981009E-02 0.23463878E+03</pdfrwt>
<totfact> 0.98700687E+03</totfact>
</mgrwt>
</event>
<event>
 5    0  0.1531977E+001  0.2806092E+03  0.7546771E-02  0.1095357E+00
         21   -1    0    0  504  501  0.00000000000E+00  0.00000000000E+00  0.36811417350E+02  0.36811417350E+02  0.00000000000E+00 0. -1.
         21   -1    0    0  503  502 -0.00000000000E+00 -0.00000000000E+00 -0.21958439842E+04  0.21958439842E+04  0.00000000000E+00 0. -1.
         25    1    1    2    0    0  0.24460242123E+03  0.57325072472E+02 -0.14651248930E+04  0.14917548258E+04  0.12500000000E+03 0.  0.
         21    1    1    2  503  501 -0.84369817139E+02 -0.32881909276E+02 -0.33624703983E+03  0.34822630256E+03  0.00000000000E+00 0. -1.
         21    1    1    2  504  502 -0.16023260409E+03 -0.24443163196E+02 -0.35766063400E+03  0.39267427310E+03  0.00000000000E+00 0. -1.
<mgrwt>
<rscale>  4 0.28060917E+03</rscale>
<asrwt>0</asrwt>
<pdfrwt beam="1">  1       21 0.56632946E-02 0.28060917E+03</pdfrwt>
<pdfrwt beam="2">  1       21 0.33782217E+00 0.28060917E+03</pdfrwt>
<totfact> 0.40923686E+03</totfact>
</mgrwt>
</event>
<event>
 5    0  0.1531977E+001  0.5261529E+03  0.7546771E-02  0.1007169E+00
         21   -1    0    0  502  501  0.00000000000E+00  0.00000000000E+00  0.20505216495E+04  0.20505216495E+04  0.00000000000E+00 0.  1.
         21   -1    0    0  504  502 -0.00000000000E+00 -0.00000000000E+00 -0.12823721877E+04  0.12823721877E+04  0.00000000000E+00 0.  1.
         25    1    1    2    0    0 -0.29055217181E+03  0.32683803140E+03 -0.90439943640E+03  0.10123275181E+04  0.12500000000E+03 0.  0.
         21    1    1    2  503  501  0.40768372850E+03 -0.31289244022E+03  0.19513232701E+04  0.20178627818E+04  0.00000000000E+00 0.  1.
         21    1    1    2  504  503 -0.11713155669E+03 -0.13945591179E+02 -0.27877437193E+03  0.30270353736E+03  0.00000000000E+00 0. -1.
<mgrwt>
<rscale>  4 0.52615294E+03</rscale>
<asrwt>0</asrwt>
<pdfrwt beam="1">  1       21 0.31546487E+00 0.52615294E+03</pdfrwt>
<pdfrwt beam="2">  1       21 0.19728803E+00 0.52615294E+03</pdfrwt>
<totfact> 0.25632154E+00</totfact>
</mgrwt>
</event>
<event>
 5    0  0.1531977E+001  0.3241307E+03  0.7546771E-02  0.1073764E+00
         21   -1    0    0  502  501  0.00000000000E+00  0.00000000000E+00  0.44487550575E+03  0.44487550575E+03  0.00000000000E+00 0. -1.
         21   -1    0    0  504  502 -0.00000000000E+00 -0.00000000000E+00 -0.43649038774E+03  0.43649038774E+03  0.00000000000E+00 0. -1.
         25    1    1    2    0    0 -0.18163935745E+03 -0.23994340511E+03  0.22061850917E+03  0.39352664512E+03  0.12500000000E+03 0.  0.
         21    1    1    2  503  501  0.18093859231E+02 -0.10110744845E+02  0.72320154936E+02  0.75231773295E+02  0.00000000000E+00 0.  1.
         21    1    1    2  504  503  0.16354549822E+03  0.25005414995E+03 -0.28455354610E+03  0.41260747508E+03  0.00000000000E+00 0. -1.
<mgrwt>
<rscale>  4 0.32413068E+03</rscale>
<asrwt>0</asrwt>
<pdfrwt beam="1">  1       21 0.68442386E-01 0.32413068E+03</pdfrwt>
<pdfrwt beam="2">  1       21 0.67152367E-01 0.32413068E+03</pdfrwt>
<totfact> 0.36349159E+03</totfact>
</mgrwt>
</event>
<event>
 5    0  0.1531977E+001  0.2979889E+03  0.7546771E-02  0.1086250E+00
         21   -1    0    0  503  501  0.00000000000E+00  0.00000000000E+00  0.62743291837E+03  0.62743291837E+03  0.00000000000E+00 0.  1.
         21   -1    0    0  504  502 -0.00000000000E+00 -0.00000000000E+00 -0.27095460427E+03  0.27095460427E+03  0.00000000000E+00 0.  1.
         25    1    1    2    0    0 -0.22093354791E+03  0.18488313494E+03 -0.52243760217E+02  0.31835171848E+03  0.12500000000E+03 0.  0.
         21    1    1    2  503  502  0.19529217987E+01 -0.31741620101E+02 -0.44026803907E+02  0.54311175760E+02  0.00000000000E+00 0. -1.
         21    1    1    2  504  501  0.21898062611E+03 -0.15314151483E+03  0.45274887823E+03  0.52572462841E+03  0.00000000000E+00 0.  1.
<mgrwt>
<rscale>  4 0.29798886E+03</rscale>
<asrwt>0</asrwt>
<pdfrwt beam="1">  1       21 0.96528141E-01 0.29798886E+03</pdfrwt>
<pdfrwt beam="2">  1       21 0.41685324E-01 0.29798886E+03</pdfrwt>
<totfact> 0.46156235E+03</totfact>
</mgrwt>
</event>
<event>
 5    0  0.1531977E+001  0.2822312E+03  0.7546771E-02  0.1094477E+00
         21   -1    0    0  502  501  0.00000000000E+00  0.00000000000E+00  0.13766880644E+04  0.13766880644E+04  0.00000000000E+00 0. -1.
         21   -1    0    0  504  502 -0.00000000000E+00 -0.00000000000E+00 -0.30805185986E+03  0.30805185986E+03  0.00000000000E+00 0. -1.
         25    1    1    2    0    0 -0.38938395123E+03 -0.27012658682E+01  0.10330924052E+04  0.11110949897E+04  0.12500000000E+03 0.  0.
         21    1    1    2  503  501  0.14407607270E+03  0.52004493887E+00  0.22259242640E+03  0.26515198182E+03  0.00000000000E+00 0. -1.
         21    1    1    2  504  503  0.24530787853E+03  0.21812209293E+01 -0.18704862711E+03  0.30849295275E+03  0.00000000000E+00 0. -1.
<mgrwt>
<rscale>  4 0.28223120E+03</rscale>
<asrwt>0</asrwt>
<pdfrwt beam="1">  1       21 0.21179816E+00 0.28223120E+03</pdfrwt>
<pdfrwt beam="2">  1       21 0.47392595E-01 0.28223120E+03</pdfrwt>
<totfact> 0.43880490E+02</totfact>
</mgrwt>
</event>
<event>
 5    0  0.1531977E+001  0.2724145E+03  0.7546771E-02  0.1099906E+00
         21   -1    0    0  502  501  0.00000000000E+00  0.00000000000E+00  0.25551440416E+03  0.25551440416E+03  0.00000000000E+00 0. -1.
         21   -1    0    0  504  502 -0.00000000000E+00 -0.00000000000E+00 -0.17884699455E+04  0.17884699455E+04  0.00000000000E+00 0. -1.
         25    1    1    2    0    0 -0.18643484529E+03 -0.20134755183E+03  0.24840924318E+02  0.30255720068E+03  0.12500000000E+03 0.  0.
         21    1    1    2  503  501 -0.14802516056E+02  0.69282576491E+02  0.67827086144E+02  0.98080087182E+02  0.00000000000E+00 0. -1.
         21    1    1    2  504  503  0.20123736134E+03  0.13206497533E+03 -0.16256235518E+04  0.16433470618E+04  0.00000000000E+00 0. -1.
<mgrwt>
<rscale>  4 0.27241455E+03</rscale>
<asrwt>0</asrwt>
<pdfrwt beam="1">  1       21 0.39309907E-01 0.27241455E+03</pdfrwt>
<pdfrwt beam="2">  1       21 0.27514923E+00 0.27241455E+03</pdfrwt>
<totfact> 0.26865384E+02</totfact>
</mgrwt>
</event>
<event>
 5    0  0.1531977E+001  0.2845179E+03  0.7546771E-02  0.1093247E+00
         21   -1    0    0  504  501  0.00000000000E+00  0.00000000000E+00  0.20396868174E+03  0.20396868174E+03  0.00000000000E+00 0.  1.
         21   -1    0    0  501  502 -0.00000000000E+00 -0.00000000000E+00 -0.43522232287E+03  0.43522232287E+03  0.00000000000E+00 0.  1.
         25    1    1    2    0    0  0.11217742462E+03 -0.22965557701E+03  0.53062032350E+01  0.28456741634E+03  0.12500000000E+03 0.  0.
         21    1    1    2  503  502 -0.97617232698E+02  0.16714155704E+03 -0.14084905730E+03  0.23938229081E+03  0.00000000000E+00 0.  1.
         21    1    1    2  504  503 -0.14560191922E+02  0.62514019969E+02 -0.95710787059E+02  0.11524129746E+03  0.00000000000E+00 0.  1.
<mgrwt>
<rscale>  4 0.28451794E+03</rscale>
<asrwt>0</asrwt>
<pdfrwt beam="1">  1       21 0.31379797E-01 0.28451794E+03</pdfrwt>
<pdfrwt beam="2">  1       21 0.66957280E-01 0.28451794E+03</pdfrwt>
<totfact> 0.19015308E+04</totfact>
</mgrwt>
</event>
<event>
 5    0  0.1531977E+001  0.2439567E+03  0.7546771E-02  0.1117185E+00
         21   -1    0    0  502  501  0.00000000000E+00  0.00000000000E+00  0.63804412578E+02  0.63804412578E+02  0.00000000000E+00 0. -1.
         21   -1    0    0  504  502 -0.00000000000E+00 -0.00000000000E+00 -0.11536545161E+04  0.11536545161E+04  0.00000000000E+00 0. -1.
         25    1    1    2    0    0  0.72621196643E+02  0.21014723368E+03 -0.46878661073E+03  0.53368678495E+03  0.12500000000E+03 0.  0.
         21    1    1    2  503  501 -0.61761677139E+02 -0.19143894545E+03 -0.29536891951E+03  0.35736000505E+03  0.00000000000E+00 0. -1.
         21    1    1    2  504  503 -0.10859519504E+02 -0.18708288228E+02 -0.32569457331E+03  0.32641213871E+03  0.00000000000E+00 0. -1.
<mgrwt>
<rscale>  4 0.24395666E+03</rscale>
<asrwt>0</asrwt>
<pdfrwt beam="1">  1       21 0.98160636E-02 0.24395666E+03</pdfrwt>
<pdfrwt beam="2">  1       21 0.17748531E+00 0.24395666E+03</pdfrwt>
<totfact> 0.15324068E+04</totfact>
</mgrwt>
</event>
<event>
 5    0  0.1531977E+001  0.2128643E+03  0.7546771E-02  0.1139318E+00
         21   -1    0    0  502  501  0.00000000000E+00  0.00000000000E+00  0.28570379470E+03  0.28570379470E+03  0.00000000000E+00 0.  1.
         21   -1    0    0  504  502 -0.00000000000E+00 -0.00000000000E+00 -0.11376313718E+04  0.11376313718E+04  0.00000000000E+00 0.  1.
         25    1    1    2    0    0 -0.21143393152E+03  0.10746395291E+03 -0.37103011969E+02  0.27065557831E+03  0.12500000000E+03 0.  0.
         21    1    1    2  503  501  0.47597378752E+02 -0.67650719815E+02  0.15104132815E+03  0.17220805197E+03  0.00000000000E+00 0.  1.
         21    1    1    2  504  503  0.16383655277E+03 -0.39813233099E+02 -0.96586589329E+03  0.98047153623E+03  0.00000000000E+00 0.  1.
<mgrwt>
<rscale>  4 0.21286428E+03</rscale>
<asrwt>0</asrwt>
<pdfrwt beam="1">  1       21 0.43954430E-01 0.21286428E+03</pdfrwt>
<pdfrwt beam="2">  1       21 0.17502021E+00 0.21286428E+03</pdfrwt>
<totfact> 0.95827985E+02</totfact>
</mgrwt>
</event>
<event>
 5    0  0.1531977E+001  0.2355126E+03  0.7546771E-02  0.1122819E+00
         21   -1    0    0  502  501  0.00000000000E+00  0.00000000000E+00  0.93758119828E+02  0.93758119828E+02  0.00000000000E+00 0. -1.
         21   -1    0    0  504  502 -0.00000000000E+00 -0.00000000000E+00 -0.70630456455E+03  0.70630456455E+03  0.00000000000E+00 0. -1.
         25    1    1    2    0    0  0.19847432926E+03 -0.93078878591E+02 -0.21628740515E+03  0.33235670392E+03  0.12500000000E+03 0.  0.
         21    1    1    2  503  501 -0.19979119882E+02  0.21811426236E+02 -0.26725888312E+01  0.29699263909E+02  0.00000000000E+00 0. -1.
         21    1    1    2  504  503 -0.17849520937E+03  0.71267452355E+02 -0.39358645074E+03  0.43800671655E+03  0.00000000000E+00 0. -1.
<mgrwt>
<rscale>  4 0.23551260E+03</rscale>
<asrwt>0</asrwt>
<pdfrwt beam="1">  1       21 0.14424327E-01 0.23551260E+03</pdfrwt>
<pdfrwt beam="2">  1       21 0.10866224E+00 0.23551260E+03</pdfrwt>
<totfact> 0.27670527E+04</totfact>
</mgrwt>
</event>
<event>
 5    0  0.1531977E+001  0.2592307E+03  0.7546771E-02  0.1107606E+00
         21   -1    0    0  504  501  0.00000000000E+00  0.00000000000E+00  0.73306002235E+03  0.73306002235E+03  0.00000000000E+00 0.  1.
         21   -1    0    0  503  502 -0.00000000000E+00 -0.00000000000E+00 -0.10706503197E+03  0.10706503197E+03  0.00000000000E+00 0. -1.
         25    1    1    2    0    0 -0.10208742048E+03  0.20895497710E+03  0.16356068637E+03  0.31058190868E+03  0.12500000000E+03 0.  0.
         21    1    1    2  503  501  0.20145292603E+02  0.97191118293E+00  0.69014647662E+01  0.21316839384E+02  0.00000000000E+00 0.  1.
         21    1    1    2  504  502  0.81942127876E+02 -0.20992688828E+03  0.45553283924E+03  0.50822630626E+03  0.00000000000E+00 0.  1.
<mgrwt>
<rscale>  4 0.25923067E+03</rscale>
<asrwt>0</asrwt>
<pdfrwt beam="1">  1       21 0.11277846E+00 0.25923067E+03</pdfrwt>
<pdfrwt beam="2">  1       21 0.16471544E-01 0.25923067E+03</pdfrwt>
<totfact> 0.19575157E+04</totfact>
</mgrwt>
</event>
<event>
 5    0  0.1531977E+001  0.2777284E+03  0.7546771E-02  0.1096936E+00
         21   -1    0    0  504  501  0.00000000000E+00  0.00000000000E+00  0.12879856744E+03  0.12879856744E+03  0.00000000000E+00 0. -1.
         21   -1    0    0  501  502 -0.00000000000E+00 -0.00000000000E+00 -0.59304435999E+03  0.59304435999E+03  0.00000000000E+00 0. -1.
         25    1    1    2    0    0 -0.44289510217E+02  0.24402148253E+03 -0.33162003338E+03  0.43255622893E+03  0.12500000000E+03 0.  0.
         21    1    1    2  503  502  0.51457448336E+02 -0.22416357118E+03 -0.10084172228E+03  0.25112990381E+03  0.00000000000E+00 0. -1.
         21    1    1    2  504  503 -0.71679381199E+01 -0.19857911348E+02 -0.31784036883E+02  0.38156794684E+02  0.00000000000E+00 0. -1.
<mgrwt>
<rscale>  4 0.27772836E+03</rscale>
<asrwt>0</asrwt>
<pdfrwt beam="1">  1       21 0.19815164E-01 0.27772836E+03</pdfrwt>
<pdfrwt beam="2">  1       21 0.91237593E-01 0.27772836E+03</pdfrwt>
<totfact> 0.22882752E+04</totfact>
</mgrwt>
</event>
<event>
 5    0  0.1531977E+001  0.3049751E+03  0.7546771E-02  0.1082780E+00
         21   -1    0    0  502  501  0.00000000000E+00  0.00000000000E+00  0.32373498583E+03  0.32373498583E+03  0.00000000000E+00 0. -1.
         21   -1    0    0  504  502 -0.00000000000E+00 -0.00000000000E+00 -0.20495205128E+04  0.20495205128E+04  0.00000000000E+00 0.  1.
         25    1    1    2    0    0  0.62392419372E+01  0.24907448012E+03 -0.35477395287E+02  0.28099941346E+03  0.12500000000E+03 0.  0.
         21    1    1    2  503  501  0.31066834176E+02  0.29199518993E+02  0.18815588298E+03  0.19292588316E+03  0.00000000000E+00 0. -1.
         21    1    1    2  504  503 -0.37306076114E+02 -0.27827399912E+03 -0.18784640147E+04  0.18993302020E+04  0.00000000000E+00 0.  1.
<mgrwt>
<rscale>  4 0.30497510E+03</rscale>
<asrwt>0</asrwt>
<pdfrwt beam="1">  1       21 0.49805384E-01 0.30497510E+03</pdfrwt>
<pdfrwt beam="2">  1       21 0.31531084E+00 0.30497510E+03</pdfrwt>
<totfact> 0.92379980E+01</totfact>
</mgrwt>
</event>
<event>
 5    0  0.1531977E+001  0.2876100E+03  0.7546771E-02  0.1091604E+00
         21   -1    0    0  502  501  0.00000000000E+00  0.00000000000E+00  0.34532487582E+03  0.34532487582E+03  0.00000000000E+00 0.  1.
         21   -1    0    0  504  502 -0.00000000000E+00 -0.00000000000E+00 -0.76454820921E+03  0.76454820921E+03  0.00000000000E+00 0.  1.
         25    1    1    2    0    0  0.79113037764E+02  0.27163172885E+03  0.21214871370E+03  0.37506632159E+03  0.12500000000E+03 0.  0.
         21    1    1    2  503  501  0.21081273935E+01 -0.27747591669E+02  0.20184211589E+02  0.34376960919E+02  0.00000000000E+00 0. -1.
         21    1    1    2  504  503 -0.81221165158E+02 -0.24388413718E+03 -0.65155625868E+03  0.70042980253E+03  0.00000000000E+00 0.  1.
<mgrwt>
<rscale>  4 0.28761001E+03</rscale>
<asrwt>0</asrwt>
<pdfrwt beam="1">  1       21 0.53126905E-01 0.28761001E+03</pdfrwt>
<pdfrwt beam="2">  1       21 0.11762280E+00 0.28761001E+03</pdfrwt>
<totfact> 0.17292643E+03</totfact>
</mgrwt>
</event>
<event>
 5    0  0.1531977E+001  0.3892650E+03  0.7546771E-02  0.1047562E+00
         21   -1    0    0  504  501  0.00000000000E+00  0.00000000000E+00  0.35958453987E+03  0.35958453987E+03  0.00000000000E+00 0. -1.
         21   -1    0    0  503  502 -0.00000000000E+00 -0.00000000000E+00 -0.12124485706E+04  0.12124485706E+04  0.00000000000E+00 0.  1.
         25    1    1    2    0    0  0.30156803929E+03 -0.41008921477E+01 -0.81971909710E+03  0.88234035257E+03  0.12500000000E+03 0.  0.
         21    1    1    2  503  501  0.75682332057E+02  0.13950476367E+02 -0.24507738192E+03  0.25687614585E+03  0.00000000000E+00 0.  1.
         21    1    1    2  504  502 -0.37725037134E+03 -0.98495842188E+01  0.21193244832E+03  0.43281661202E+03  0.00000000000E+00 0. -1.
<mgrwt>
<rscale>  4 0.38926497E+03</rscale>
<asrwt>0</asrwt>
<pdfrwt beam="1">  1       21 0.55320699E-01 0.38926497E+03</pdfrwt>
<pdfrwt beam="2">  1       21 0.18653055E+00 0.38926497E+03</pdfrwt>
<totfact> 0.43084016E+02</totfact>
</mgrwt>
</event>
<event>
 5    0  0.1531977E+001  0.2387745E+03  0.7546771E-02  0.1120612E+00
         21   -1    0    0  502  501  0.00000000000E+00  0.00000000000E+00  0.30930340857E+02  0.30930340857E+02  0.00000000000E+00 0.  1.
         21   -1    0    0  504  502 -0.00000000000E+00 -0.00000000000E+00 -0.21226399680E+04  0.21226399680E+04  0.00000000000E+00 0.  1.
         25    1    1    2    0    0 -0.54173351572E+02  0.19609560561E+03 -0.57109261713E+03  0.61899920509E+03  0.12500000000E+03 0.  0.
         21    1    1    2  503  501  0.16349124074E+02 -0.26369819000E+02 -0.17025193388E+03  0.17305600885E+03  0.00000000000E+00 0.  1.
         21    1    1    2  504  503  0.37824227498E+02 -0.16972578661E+03 -0.13503650761E+04  0.13615150949E+04  0.00000000000E+00 0.  1.
<mgrwt>
<rscale>  4 0.23877445E+03</rscale>
<asrwt>0</asrwt>
<pdfrwt beam="1">  1       21 0.47585123E-02 0.23877445E+03</pdfrwt>
<pdfrwt beam="2">  1       21 0.32656011E+00 0.23877445E+03</pdfrwt>
<totfact> 0.66741533E+03</totfact>
</mgrwt>
</event>
<event>
 5    0  0.1531977E+001  0.2479559E+03  0.7546771E-02  0.1114603E+00
         21   -1    0    0  504  501  0.00000000000E+00  0.00000000000E+00  0.37468652517E+03  0.37468652517E+03  0.00000000000E+00 0. -1.
         21   -1    0    0  503  502 -0.00000000000E+00 -0.00000000000E+00 -0.23185715200E+03  0.23185715200E+03  0.00000000000E+00 0. -1.
         25    1    1    2    0    0 -0.19931638673E+03 -0.10594081008E+03  0.52777178518E+01  0.25807621271E+03  0.12500000000E+03 0.  0.
         21    1    1    2  503  501  0.60406634127E+01  0.23429603274E+02 -0.57102409518E+02  0.62017103260E+02  0.00000000000E+00 0. -1.
         21    1    1    2  504  502  0.19327572332E+03  0.82511206811E+02  0.19465406484E+03  0.28645036120E+03  0.00000000000E+00 0. -1.
<mgrwt>
<rscale>  4 0.24795593E+03</rscale>
<asrwt>0</asrwt>
<pdfrwt beam="1">  1       21 0.57644081E-01 0.24795593E+03</pdfrwt>
<pdfrwt beam="2">  1       21 0.35670331E-01 0.24795593E+03</pdfrwt>
<totfact> 0.20760286E+04</totfact>
</mgrwt>
</event>
<event>
 5    0  0.1531977E+001  0.2590711E+03  0.7546771E-02  0.1107703E+00
         21   -1    0    0  503  501  0.00000000000E+00  0.00000000000E+00  0.20953455560E+03  0.20953455560E+03  0.00000000000E+00 0.  1.
         21   -1    0    0  504  502 -0.00000000000E+00 -0.00000000000E+00 -0.76541531836E+03  0.76541531836E+03  0.00000000000E+00 0. -1.
         25    1    1    2    0    0  0.24737744308E+03  0.24559210498E+02  0.60350456415E+02  0.28472079614E+03  0.12500000000E+03 0.  0.
         21    1    1    2  503  502 -0.22359129478E+03 -0.19817778987E+02 -0.62527379568E+03  0.66434413599E+03  0.00000000000E+00 0. -1.
         21    1    1    2  504  501 -0.23786148295E+02 -0.47414315111E+01  0.90425765091E+01  0.25884941828E+02  0.00000000000E+00 0.  1.
<mgrwt>
<rscale>  4 0.25907114E+03</rscale>
<asrwt>0</asrwt>
<pdfrwt beam="1">  1       21 0.32236085E-01 0.25907114E+03</pdfrwt>
<pdfrwt beam="2">  1       21 0.11775620E+00 0.25907114E+03</pdfrwt>
<totfact> 0.48851795E+03</totfact>
</mgrwt>
</event>
<event>
 5    0  0.1531977E+001  0.2910694E+03  0.7546771E-02  0.1089792E+00
         21   -1    0    0  502  501  0.00000000000E+00  0.00000000000E+00  0.37972564456E+03  0.37972564456E+03  0.00000000000E+00 0. -1.
         21   -1    0    0  504  502 -0.00000000000E+00 -0.00000000000E+00 -0.15592638237E+04  0.15592638237E+04  0.00000000000E+00 0.  1.
         25    1    1    2    0    0  0.12386367459E+03 -0.23276398421E+03  0.30468093938E+03  0.42187291576E+03  0.12500000000E+03 0.  0.
         21    1    1    2  503  501 -0.24688513521E+02  0.10766957592E+02 -0.21879327994E+02  0.34700937583E+02  0.00000000000E+00 0. -1.
         21    1    1    2  504  503 -0.99175161065E+02  0.22199702662E+03 -0.14623397905E+04  0.14824156149E+04  0.00000000000E+00 0.  1.
<mgrwt>
<rscale>  4 0.29106945E+03</rscale>
<asrwt>0</asrwt>
<pdfrwt beam="1">  1       21 0.58419329E-01 0.29106945E+03</pdfrwt>
<pdfrwt beam="2">  1       21 0.23988675E+00 0.29106945E+03</pdfrwt>
<totfact> 0.18696153E+02</totfact>
</mgrwt>
</event>
<event>
 5    0  0.1531977E+001  0.2787295E+03  0.7546771E-02  0.1096385E+00
         21   -1    0    0  503  501  0.00000000000E+00  0.00000000000E+00  0.12379251764E+03  0.12379251764E+03  0.00000000000E+00 0. -1.
         21   -1    0    0  504  502 -0.00000000000E+00 -0.00000000000E+00 -0.72907951740E+03  0.72907951740E+03  0.00000000000E+00 0. -1.
         25    1    1    2    0    0 -0.21073920005E+03 -0.13068746629E+03 -0.34820634405E+03  0.44537948125E+03  0.12500000000E+03 0.  0.
         21    1    1    2  503  502  0.18402339551E+03  0.17365217611E+03 -0.25123045899E+03  0.35656196080E+03  0.00000000000E+00 0. -1.
         21    1    1    2  504  501  0.26715804531E+02 -0.42964709820E+02 -0.58501967202E+01  0.50930593000E+02  0.00000000000E+00 0.  1.
<mgrwt>
<rscale>  4 0.27872947E+03</rscale>
<asrwt>0</asrwt>
<pdfrwt beam="1">  1       21 0.19045003E-01 0.27872947E+03</pdfrwt>
<pdfrwt beam="2">  1       21 0.11216608E+00 0.27872947E+03</pdfrwt>
<totfact> 0.14999852E+04</totfact>
</mgrwt>
</event>
<event>
 5    0  0.1531977E+001  0.2250136E+03  0.7546771E-02  0.1130199E+00
         21   -1    0    0  503  501  0.00000000000E+00  0.00000000000E+00  0.12550190732E+03  0.12550190732E+03  0.00000000000E+00 0. -1.
         21   -1    0    0  504  502 -0.00000000000E+00 -0.00000000000E+00 -0.56229357853E+03  0.56229357853E+03  0.00000000000E+00 0. -1.
         25    1    1    2    0    0 -0.22606516263E+03  0.18762884206E+02 -0.22653906356E+03  0.34409657205E+03  0.12500000000E+03 0.  0.
         21    1    1    2  503  502  0.14555573018E+03 -0.83894949597E+02 -0.13821815216E+03  0.21755250112E+03  0.00000000000E+00 0. -1.
         21    1    1    2  504  501  0.80509432448E+02  0.65132065391E+02 -0.72034455489E+02  0.12614641268E+03  0.00000000000E+00 0. -1.
<mgrwt>
<rscale>  4 0.22501357E+03</rscale>
<asrwt>0</asrwt>
<pdfrwt beam="1">  1       21 0.19307986E-01 0.22501357E+03</pdfrwt>
<pdfrwt beam="2">  1       21 0.86506705E-01 0.22501357E+03</pdfrwt>
<totfact> 0.27870649E+04</totfact>
</mgrwt>
</event>
<event>
 5    0  0.1531977E+001  0.2291137E+03  0.7546771E-02  0.1127265E+00
         21   -1    0    0  502  501  0.00000000000E+00  0.00000000000E+00  0.40535875573E+03  0.40535875573E+03  0.00000000000E+00 0.  1.
         21   -1    0    0  504  502 -0.00000000000E+00 -0.00000000000E+00 -0.20973456524E+03  0.20973456524E+03  0.00000000000E+00 0.  1.
         25    1    1    2    0    0 -0.20389262408E+03 -0.85151999809E+02  0.22851677121E+03  0.34156694797E+03  0.12500000000E+03 0.  0.
         21    1    1    2  503  501  0.34997540553E+02  0.70060948381E+01  0.56689762657E+02  0.66989867889E+02  0.00000000000E+00 0.  1.
         21    1    1    2  504  503  0.16889508352E+03  0.78145904971E+02 -0.89582343373E+02  0.20653650512E+03  0.00000000000E+00 0.  1.
<mgrwt>
<rscale>  4 0.22911367E+03</rscale>
<asrwt>0</asrwt>
<pdfrwt beam="1">  1       21 0.62362885E-01 0.22911367E+03</pdfrwt>
<pdfrwt beam="2">  1       21 0.32266856E-01 0.22911367E+03</pdfrwt>
<totfact> 0.21583040E+04</totfact>
</mgrwt>
</event>
<event>
 5    0  0.1531977E+001  0.2279458E+03  0.7546771E-02  0.1128094E+00
         21   -1    0    0  503  501  0.00000000000E+00  0.00000000000E+00  0.44947561166E+03  0.44947561166E+03  0.00000000000E+00 0.  1.
         21   -1    0    0  504  502 -0.00000000000E+00 -0.00000000000E+00 -0.34192220749E+03  0.34192220749E+03  0.00000000000E+00 0. -1.
         25    1    1    2    0    0 -0.15489584716E+03  0.14444707795E+03 -0.24215426616E+03  0.34513963901E+03  0.12500000000E+03 0.  0.
         21    1    1    2  503  502  0.24017513404E+02 -0.81030458512E+01 -0.19171875514E+02  0.31781458634E+02  0.00000000000E+00 0. -1.
         21    1    1    2  504  501  0.13087833375E+03 -0.13634403210E+03  0.36887954584E+03  0.41447672151E+03  0.00000000000E+00 0.  1.
<mgrwt>
<rscale>  4 0.22794582E+03</rscale>
<asrwt>0</asrwt>
<pdfrwt beam="1">  1       21 0.69150094E-01 0.22794582E+03</pdfrwt>
<pdfrwt beam="2">  1       21 0.52603417E-01 0.22794582E+03</pdfrwt>
<totfact> 0.63603532E+03</totfact>
</mgrwt>
</event>
<event>
 5    0  0.1531977E+001  0.4533675E+03  0.7546771E-02  0.1026723E+00
         21   -1    0    0  504  501  0.00000000000E+00  0.00000000000E+00  0.53161560145E+03  0.53161560145E+03  0.00000000000E+00 0.  1.
         21   -1    0    0  503  502 -0.00000000000E+00 -0.00000000000E+00 -0.11964158028E+04  0.11964158028E+04  0.00000000000E+00 0. -1.
         25    1    1    2    0    0 -0.11790742749E+03  0.38355269583E+03 -0.90918496536E+03  0.10016272426E+04  0.12500000000E+03 0.  0.
         21    1    1    2  503  501  0.23791457277E+02  0.45810665686E+02 -0.13577513261E+03  0.14525679731E+03  0.00000000000E+00 0.  1.
         21    1    1    2  504  502  0.94115970208E+02 -0.42936336152E+03  0.38015989661E+03  0.58114736432E+03  0.00000000000E+00 0.  1.
<mgrwt>
<rscale>  4 0.45336745E+03</rscale>
<asrwt>0</asrwt>
<pdfrwt beam="1">  1       21 0.81787017E-01 0.45336745E+03</pdfrwt>
<pdfrwt beam="2">  1       21 0.18406397E+00 0.45336745E+03</pdfrwt>
<totfact> 0.18058931E+02</totfact>
</mgrwt>
</event>
<event>
 5    0  0.1531977E+001  0.4759802E+03  0.7546771E-02  0.1020246E+00
         21   -1    0    0  502  501  0.00000000000E+00  0.00000000000E+00  0.69642423350E+03  0.69642423350E+03  0.00000000000E+00 0. -1.
         21   -1    0    0  504  502 -0.00000000000E+00 -0.00000000000E+00 -0.81135050718E+03  0.81135050718E+03  0.00000000000E+00 0. -1.
         25    1    1    2    0    0  0.31883635770E+03  0.48926627621E+03 -0.16554089066E+02  0.59744217285E+03  0.12500000000E+03 0.  0.
         21    1    1    2  503  501 -0.63061068937E+02 -0.15575312268E+03  0.29187921251E+03  0.33679253010E+03  0.00000000000E+00 0. -1.
         21    1    1    2  504  503 -0.25577528876E+03 -0.33351315354E+03 -0.39025139712E+03  0.57354003773E+03  0.00000000000E+00 0. -1.
<mgrwt>
<rscale>  4 0.47598025E+03</rscale>
<asrwt>0</asrwt>
<pdfrwt beam="1">  1       21 0.10714219E+00 0.47598025E+03</pdfrwt>
<pdfrwt beam="2">  1       21 0.12482315E+00 0.47598025E+03</pdfrwt>
<totfact> 0.27123845E+02</totfact>
</mgrwt>
</event>
<event>
 5    0  0.1531977E+001  0.3127841E+03  0.7546771E-02  0.1079019E+00
         21   -1    0    0  503  501  0.00000000000E+00  0.00000000000E+00  0.97042217729E+03  0.97042217729E+03  0.00000000000E+00 0. -1.
         21   -1    0    0  501  502 -0.00000000000E+00 -0.00000000000E+00 -0.27414785976E+03  0.27414785976E+03  0.00000000000E+00 0. -1.
         25    1    1    2    0    0  0.25061631551E+03 -0.56068179050E+02 -0.47646114869E+02  0.28956403534E+03  0.12500000000E+03 0.  0.
         21    1    1    2  503  504 -0.96863813853E+02 -0.21178412357E+03  0.12740050984E+03  0.26545433381E+03  0.00000000000E+00 0.  1.
         21    1    1    2  504  502 -0.15375250166E+03  0.26785230262E+03  0.61651992256E+03  0.68955166790E+03  0.00000000000E+00 0. -1.
<mgrwt>
<rscale>  4 0.31278407E+03</rscale>
<asrwt>0</asrwt>
<pdfrwt beam="1">  1       21 0.14929572E+00 0.31278407E+03</pdfrwt>
<pdfrwt beam="2">  1       21 0.42176594E-01 0.31278407E+03</pdfrwt>
<totfact> 0.14907743E+03</totfact>
</mgrwt>
</event>
<event>
 5    0  0.1531977E+001  0.2630022E+03  0.7546771E-02  0.1105353E+00
         21   -1    0    0  502  501  0.00000000000E+00  0.00000000000E+00  0.21644416911E+04  0.21644416911E+04  0.00000000000E+00 0. -1.
         21   -1    0    0  504  502 -0.00000000000E+00 -0.00000000000E+00 -0.11197616127E+03  0.11197616127E+03  0.00000000000E+00 0.  1.
         25    1    1    2    0    0  0.63354496330E+02  0.19792843505E+03  0.72357265299E+02  0.25308107683E+03  0.12500000000E+03 0.  0.
         21    1    1    2  503  501 -0.89898880973E+02 -0.21521944563E+03  0.19778737120E+04  0.19915786801E+04  0.00000000000E+00 0. -1.
         21    1    1    2  504  503  0.26544384643E+02  0.17291010573E+02  0.22345526123E+01  0.31758095473E+02  0.00000000000E+00 0. -1.
<mgrwt>
<rscale>  4 0.26300222E+03</rscale>
<asrwt>0</asrwt>
<pdfrwt beam="1">  1       21 0.33299100E+00 0.26300222E+03</pdfrwt>
<pdfrwt beam="2">  1       21 0.17227103E-01 0.26300222E+03</pdfrwt>
<totfact> 0.61281980E+02</totfact>
</mgrwt>
</event>
<event>
 5    0  0.1531977E+001  0.2688194E+03  0.7546771E-02  0.1101957E+00
         21   -1    0    0  502  501  0.00000000000E+00  0.00000000000E+00  0.12525348717E+03  0.12525348717E+03  0.00000000000E+00 0.  1.
         21   -1    0    0  504  502 -0.00000000000E+00 -0.00000000000E+00 -0.62448940873E+03  0.62448940873E+03  0.00000000000E+00 0.  1.
         25    1    1    2    0    0  0.86932968159E+02 -0.22154351856E+03 -0.13926540898E+03  0.30275192106E+03  0.12500000000E+03 0.  0.
         21    1    1    2  503  501 -0.95936092446E+02  0.12301051269E+03 -0.15772023515E+03  0.22183550807E+03  0.00000000000E+00 0.  1.
         21    1    1    2  504  503  0.90031242875E+01  0.98533005871E+02 -0.20225027743E+03  0.22515546677E+03  0.00000000000E+00 0.  1.
<mgrwt>
<rscale>  4 0.26881940E+03</rscale>
<asrwt>0</asrwt>
<pdfrwt beam="1">  1       21 0.19269767E-01 0.26881940E+03</pdfrwt>
<pdfrwt beam="2">  1       21 0.96075296E-01 0.26881940E+03</pdfrwt>
<totfact> 0.21434415E+04</totfact>
</mgrwt>
</event>
<event>
 5    0  0.1531977E+001  0.2001227E+03  0.7546771E-02  0.1149636E+00
         21   -1    0    0  504  501  0.00000000000E+00  0.00000000000E+00  0.12436664573E+04  0.12436664573E+04  0.00000000000E+00 0. -1.
         21   -1    0    0  503  502 -0.00000000000E+00 -0.00000000000E+00 -0.10242383344E+03  0.10242383344E+03  0.00000000000E+00 0.  1.
         25    1    1    2    0    0 -0.18297333586E+03  0.18110481326E+03  0.80009078350E+03  0.84973434487E+03  0.12500000000E+03 0.  0.
         21    1    1    2  503  501  0.85014673374E+02 -0.11972976824E+03  0.11810657776E+02  0.14731667838E+03  0.00000000000E+00 0.  1.
         21    1    1    2  504  502  0.97958662481E+02 -0.61375045019E+02  0.32934118261E+03  0.34903926751E+03  0.00000000000E+00 0. -1.
<mgrwt>
<rscale>  4 0.20012272E+03</rscale>
<asrwt>0</asrwt>
<pdfrwt beam="1">  1       21 0.19133329E+00 0.20012272E+03</pdfrwt>
<pdfrwt beam="2">  1       21 0.15757514E-01 0.20012272E+03</pdfrwt>
<totfact> 0.54441689E+03</totfact>
</mgrwt>
</event>
<event>
 5    0  0.1531977E+001  0.2859398E+03  0.7546771E-02  0.1092488E+00
         21   -1    0    0  502  501  0.00000000000E+00  0.00000000000E+00  0.66893790267E+03  0.66893790267E+03  0.00000000000E+00 0.  1.
         21   -1    0    0  504  502 -0.00000000000E+00 -0.00000000000E+00 -0.17718213252E+03  0.17718213252E+03  0.00000000000E+00 0.  1.
         25    1    1    2    0    0 -0.21313589563E+03  0.22868073880E+03  0.25525374945E+03  0.42249410281E+03  0.12500000000E+03 0.  0.
         21    1    1    2  503  501  0.14494048863E+03 -0.17586043420E+03  0.24776649716E+03  0.33663463084E+03  0.00000000000E+00 0.  1.
         21    1    1    2  504  503  0.68195406996E+02 -0.52820304603E+02 -0.11264476467E+02  0.86991301541E+02  0.00000000000E+00 0.  1.
<mgrwt>
<rscale>  4 0.28593977E+03</rscale>
<asrwt>0</asrwt>
<pdfrwt beam="1">  1       21 0.10291352E+00 0.28593977E+03</pdfrwt>
<pdfrwt beam="2">  1       21 0.27258790E-01 0.28593977E+03</pdfrwt>
<totfact> 0.93000418E+03</totfact>
</mgrwt>
</event>
<event>
 5    0  0.1531977E+001  0.2628083E+03  0.7546771E-02  0.1105468E+00
         21   -1    0    0  502  501  0.00000000000E+00  0.00000000000E+00  0.16028825893E+03  0.16028825893E+03  0.00000000000E+00 0.  1.
         21   -1    0    0  504  502 -0.00000000000E+00 -0.00000000000E+00 -0.10076434289E+04  0.10076434289E+04  0.00000000000E+00 0. -1.
         25    1    1    2    0    0  0.27836926591E+03 -0.33617428567E+01 -0.79223824990E+03  0.84898009053E+03  0.12500000000E+03 0.  0.
         21    1    1    2  503  501 -0.22458352305E+03  0.17872011536E+02  0.19157847257E+02  0.22610659153E+03  0.00000000000E+00 0.  1.
         21    1    1    2  504  503 -0.53785742858E+02 -0.14510268679E+02 -0.74274767294E+02  0.92845005727E+02  0.00000000000E+00 0. -1.
<mgrwt>
<rscale>  4 0.26280827E+03</rscale>
<asrwt>0</asrwt>
<pdfrwt beam="1">  1       21 0.24659732E-01 0.26280827E+03</pdfrwt>
<pdfrwt beam="2">  1       21 0.15502207E+00 0.26280827E+03</pdfrwt>
<totfact> 0.40373464E+03</totfact>
</mgrwt>
</event>
<event>
 5    0  0.1531977E+001  0.2256772E+03  0.7546771E-02  0.1129720E+00
         21   -1    0    0  504  501  0.00000000000E+00  0.00000000000E+00  0.31843264341E+03  0.31843264341E+03  0.00000000000E+00 0.  1.
         21   -1    0    0  501  502 -0.00000000000E+00 -0.00000000000E+00 -0.22180834867E+03  0.22180834867E+03  0.00000000000E+00 0.  1.
         25    1    1    2    0    0  0.16172049085E+03  0.13206726807E+03  0.77611120214E+02  0.25542859362E+03  0.12500000000E+03 0.  0.
         21    1    1    2  503  502  0.19270508018E+02 -0.95017340176E+02  0.24453338136E+02  0.99988065085E+02  0.00000000000E+00 0.  1.
         21    1    1    2  504  503 -0.18099099887E+03 -0.37049927895E+02 -0.54401636073E+01  0.18482433338E+03  0.00000000000E+00 0.  1.
<mgrwt>
<rscale>  4 0.22567715E+03</rscale>
<asrwt>0</asrwt>
<pdfrwt beam="1">  1       21 0.48989638E-01 0.22567715E+03</pdfrwt>
<pdfrwt beam="2">  1       21 0.34124361E-01 0.22567715E+03</pdfrwt>
<totfact> 0.32339602E+04</totfact>
</mgrwt>
</event>
<event>
 5    0  0.1531977E+001  0.2455306E+03  0.7546771E-02  0.1116162E+00
         21   -1    0    0  504  501  0.00000000000E+00  0.00000000000E+00  0.47280549232E+03  0.47280549232E+03  0.00000000000E+00 0. -1.
         21   -1    0    0  503  502 -0.00000000000E+00 -0.00000000000E+00 -0.60127628741E+03  0.60127628741E+03  0.00000000000E+00 0. -1.
         25    1    1    2    0    0  0.11774923392E+03 -0.22153013119E+03 -0.37682671512E+03  0.46964226209E+03  0.12500000000E+03 0.  0.
         21    1    1    2  503  501 -0.32996392752E+02  0.30535282536E+02 -0.14892257994E+03  0.15556059986E+03  0.00000000000E+00 0. -1.
         21    1    1    2  504  502 -0.84752841170E+02  0.19099484866E+03  0.39727849996E+03  0.44887891778E+03  0.00000000000E+00 0. -1.
<mgrwt>
<rscale>  4 0.24553065E+03</rscale>
<asrwt>0</asrwt>
<pdfrwt beam="1">  1       21 0.72739306E-01 0.24553065E+03</pdfrwt>
<pdfrwt beam="2">  1       21 0.92504045E-01 0.24553065E+03</pdfrwt>
<totfact> 0.16042177E+03</totfact>
</mgrwt>
</event>
<event>
 5    0  0.1531977E+001  0.2409467E+03  0.7546771E-02  0.1119164E+00
         21   -1    0    0  504  501  0.00000000000E+00  0.00000000000E+00  0.28467381184E+04  0.28467381184E+04  0.00000000000E+00 0.  1.
         21   -1    0    0  503  502 -0.00000000000E+00 -0.00000000000E+00 -0.60366857773E+02  0.60366857773E+02  0.00000000000E+00 0.  1.
         25    1    1    2    0    0  0.80322678544E+02  0.21183511433E+03  0.22117612321E+04  0.22268449870E+04  0.12500000000E+03 0.  0.
         21    1    1    2  503  501 -0.52373450254E+02 -0.19740553494E+03  0.14734368731E+03  0.25183741919E+03  0.00000000000E+00 0.  1.
         21    1    1    2  504  502 -0.27949228290E+02 -0.14429579389E+02  0.42726634121E+03  0.42842256996E+03  0.00000000000E+00 0. -1.
<mgrwt>
<rscale>  4 0.24094667E+03</rscale>
<asrwt>0</asrwt>
<pdfrwt beam="1">  1       21 0.43795961E+00 0.24094667E+03</pdfrwt>
<pdfrwt beam="2">  1       21 0.92872111E-02 0.24094667E+03</pdfrwt>
<totfact> 0.42917569E+02</totfact>
</mgrwt>
</event>
<event>
 5    0  0.1531977E+001  0.2682011E+03  0.7546771E-02  0.1102314E+00
         21   -1    0    0  503  501  0.00000000000E+00  0.00000000000E+00  0.41884662358E+03  0.41884662358E+03  0.00000000000E+00 0. -1.
         21   -1    0    0  504  502 -0.00000000000E+00 -0.00000000000E+00 -0.42832592307E+03  0.42832592307E+03  0.00000000000E+00 0.  1.
         25    1    1    2    0    0 -0.95844723438E+02  0.27100045283E+03  0.49300749127E+02  0.31730587815E+03  0.12500000000E+03 0.  0.
         21    1    1    2  503  502  0.74435118202E+02 -0.21263639901E+03 -0.24542012849E+03  0.33314541040E+03  0.00000000000E+00 0.  1.
         21    1    1    2  504  501  0.21409605237E+02 -0.58364053821E+02  0.18664007986E+03  0.19672125809E+03  0.00000000000E+00 0. -1.
<mgrwt>
<rscale>  4 0.26820114E+03</rscale>
<asrwt>0</asrwt>
<pdfrwt beam="1">  1       21 0.64437943E-01 0.26820114E+03</pdfrwt>
<pdfrwt beam="2">  1       21 0.65896295E-01 0.26820114E+03</pdfrwt>
<totfact> 0.44605879E+03</totfact>
</mgrwt>
</event>
<event>
 5    0  0.1531977E+001  0.2531566E+03  0.7546771E-02  0.1111326E+00
         21   -1    0    0  502  501  0.00000000000E+00  0.00000000000E+00  0.28954275149E+03  0.28954275149E+03  0.00000000000E+00 0. -1.
         21   -1    0    0  504  502 -0.00000000000E+00 -0.00000000000E+00 -0.42707063575E+03  0.42707063575E+03  0.00000000000E+00 0. -1.
         25    1    1    2    0    0 -0.23198475201E+03  0.15789143746E+03  0.60150210126E+02  0.31303303175E+03  0.12500000000E+03 0.  0.
         21    1    1    2  503  501  0.97063053210E+02 -0.15148686657E+03 -0.20929971503E+02  0.18112860279E+03  0.00000000000E+00 0. -1.
         21    1    1    2  504  503  0.13492169880E+03 -0.64045708935E+01 -0.17674812289E+03  0.22245175270E+03  0.00000000000E+00 0. -1.
<mgrwt>
<rscale>  4 0.25315655E+03</rscale>
<asrwt>0</asrwt>
<pdfrwt beam="1">  1       21 0.44545039E-01 0.25315655E+03</pdfrwt>
<pdfrwt beam="2">  1       21 0.65703175E-01 0.25315655E+03</pdfrwt>
<totfact> 0.99217980E+03</totfact>
</mgrwt>
</event>
<event>
 5    0  0.1531977E+001  0.6551880E+03  0.7546771E-02  0.9797093E-01
         21   -1    0    0  504  501  0.00000000000E+00  0.00000000000E+00  0.80421905051E+03  0.80421905051E+03  0.00000000000E+00 0.  1.
         21   -1    0    0  501  502 -0.00000000000E+00 -0.00000000000E+00 -0.57182092893E+03  0.57182092893E+03  0.00000000000E+00 0.  1.
         25    1    1    2    0    0 -0.62415031829E+03  0.11757922475E+03  0.17523294917E+03  0.67061172103E+03  0.12500000000E+03 0.  0.
         21    1    1    2  503  502  0.63694370517E+03 -0.14155701767E+03  0.94455161265E+02  0.65928556051E+03  0.00000000000E+00 0.  1.
         21    1    1    2  504  503 -0.12793386878E+02  0.23977792918E+02 -0.37289988852E+02  0.46142697901E+02  0.00000000000E+00 0.  1.
<mgrwt>
<rscale>  4 0.65518797E+03</rscale>
<asrwt>0</asrwt>
<pdfrwt beam="1">  1       21 0.12372601E+00 0.65518797E+03</pdfrwt>
<pdfrwt beam="2">  1       21 0.87972450E-01 0.65518797E+03</pdfrwt>
<totfact> 0.41860257E+02</totfact>
</mgrwt>
</event>
<event>
 5    0  0.1531977E+001  0.1798666E+03  0.7546771E-02  0.1167932E+00
         21   -1    0    0  502  501  0.00000000000E+00  0.00000000000E+00  0.35236196352E+03  0.35236196352E+03  0.00000000000E+00 0. -1.
         21   -1    0    0  504  502 -0.00000000000E+00 -0.00000000000E+00 -0.36271040569E+03  0.36271040569E+03  0.00000000000E+00 0.  1.
         25    1    1    2    0    0  0.16507901814E+03 -0.11968183705E+03  0.23497884241E+03  0.33528328430E+03  0.12500000000E+03 0.  0.
         21    1    1    2  503  501 -0.88080759047E+02  0.20027596919E+02  0.14088282540E+02  0.91421028531E+02  0.00000000000E+00 0. -1.
         21    1    1    2  504  503 -0.76998259094E+02  0.99654240131E+02 -0.25941556712E+03  0.28836805638E+03  0.00000000000E+00 0.  1.
<mgrwt>
<rscale>  4 0.17986661E+03</rscale>
<asrwt>0</asrwt>
<pdfrwt beam="1">  1       21 0.54209533E-01 0.17986661E+03</pdfrwt>
<pdfrwt beam="2">  1       21 0.55801601E-01 0.17986661E+03</pdfrwt>
<totfact> 0.98157321E+03</totfact>
</mgrwt>
</event>
<event>
 5    0  0.1531977E+001  0.2282259E+03  0.7546771E-02  0.1127895E+00
         21   -1    0    0  503  501  0.00000000000E+00  0.00000000000E+00  0.16849013243E+03  0.16849013243E+03  0.00000000000E+00 0.  1.
         21   -1    0    0  504  502 -0.00000000000E+00 -0.00000000000E+00 -0.45863209090E+03  0.45863209090E+03  0.00000000000E+00 0.  1.
         25    1    1    2    0    0 -0.14978063013E+03  0.17610374163E+03 -0.12316081220E+03  0.29024188299E+03  0.12500000000E+03 0.  0.
         21    1    1    2  503  502  0.26047539017E+02 -0.55434131287E+02 -0.15143246343E+03  0.16334995617E+03  0.00000000000E+00 0.  1.
         21    1    1    2  504  501  0.12373309111E+03 -0.12066961034E+03 -0.15548682832E+02  0.17353038418E+03  0.00000000000E+00 0.  1.
<mgrwt>
<rscale>  4 0.22822588E+03</rscale>
<asrwt>0</asrwt>
<pdfrwt beam="1">  1       21 0.25921559E-01 0.22822588E+03</pdfrwt>
<pdfrwt beam="2">  1       21 0.70558783E-01 0.22822588E+03</pdfrwt>
<totfact> 0.25234025E+04</totfact>
</mgrwt>
</event>
<event>
 5    0  0.1531977E+001  0.2783055E+03  0.7546771E-02  0.1096618E+00
         21   -1    0    0  502  501  0.00000000000E+00  0.00000000000E+00  0.58223694121E+03  0.58223694121E+03  0.00000000000E+00 0. -1.
         21   -1    0    0  504  502 -0.00000000000E+00 -0.00000000000E+00 -0.24481908014E+03  0.24481908014E+03  0.00000000000E+00 0. -1.
         25    1    1    2    0    0  0.14735354122E+03 -0.24145899128E+03  0.28675800726E+03  0.42174715803E+03  0.12500000000E+03 0.  0.
         21    1    1    2  503  501 -0.56643870466E+02  0.18023807546E+02  0.13686609463E+03  0.14921700158E+03  0.00000000000E+00 0. -1.
         21    1    1    2  504  503 -0.90709670756E+02  0.22343518373E+03 -0.86206240826E+02  0.25609186175E+03  0.00000000000E+00 0. -1.
<mgrwt>
<rscale>  4 0.27830547E+03</rscale>
<asrwt>0</asrwt>
<pdfrwt beam="1">  1       21 0.89574913E-01 0.27830547E+03</pdfrwt>
<pdfrwt beam="2">  1       21 0.37664474E-01 0.27830547E+03</pdfrwt>
<totfact> 0.68387681E+03</totfact>
</mgrwt>
</event>
<event>
 5    0  0.1531977E+001  0.2811908E+03  0.7546771E-02  0.1095040E+00
         21   -1    0    0  502  501  0.00000000000E+00  0.00000000000E+00  0.42681279902E+03  0.42681279902E+03  0.00000000000E+00 0.  1.
         21   -1    0    0  504  502 -0.00000000000E+00 -0.00000000000E+00 -0.90127608477E+03  0.90127608477E+03  0.00000000000E+00 0. -1.
         25    1    1    2    0    0  0.14732516180E+03  0.25502457058E+03  0.25923446344E+03  0.41178846746E+03  0.12500000000E+03 0.  0.
         21    1    1    2  503  501  0.72783069763E+02 -0.13300554776E+03 -0.12127668388E+02  0.15210171373E+03  0.00000000000E+00 0.  1.
         21    1    1    2  504  503 -0.22010823156E+03 -0.12201902283E+03 -0.72157008080E+03  0.76419870259E+03  0.00000000000E+00 0. -1.
<mgrwt>
<rscale>  4 0.28119081E+03</rscale>
<asrwt>0</asrwt>
<pdfrwt beam="1">  1       21 0.65663508E-01 0.28119081E+03</pdfrwt>
<pdfrwt beam="2">  1       21 0.13865786E+00 0.28119081E+03</pdfrwt>
<totfact> 0.72226028E+02</totfact>
</mgrwt>
</event>
<event>
 5    0  0.1531977E+001  0.3803831E+03  0.7546771E-02  0.1050792E+00
         21   -1    0    0  502  501  0.00000000000E+00  0.00000000000E+00  0.28138612019E+03  0.28138612019E+03  0.00000000000E+00 0. -1.
         21   -1    0    0  504  502 -0.00000000000E+00 -0.00000000000E+00 -0.72246090993E+03  0.72246090993E+03  0.00000000000E+00 0. -1.
         25    1    1    2    0    0 -0.19508255574E+03  0.30948519005E+03 -0.43623809442E+03  0.58289532632E+03  0.12500000000E+03 0.  0.
         21    1    1    2  503  501  0.27183431885E+02 -0.60578163932E+01  0.61835535162E+02  0.67817914427E+02  0.00000000000E+00 0. -1.
         21    1    1    2  504  503  0.16789912386E+03 -0.30342737366E+03 -0.66672230481E+02  0.35313378937E+03  0.00000000000E+00 0. -1.
<mgrwt>
<rscale>  4 0.38038309E+03</rscale>
<asrwt>0</asrwt>
<pdfrwt beam="1">  1       21 0.43290173E-01 0.38038309E+03</pdfrwt>
<pdfrwt beam="2">  1       21 0.11114783E+00 0.38038309E+03</pdfrwt>
<totfact> 0.29135319E+03</totfact>
</mgrwt>
</event>
<event>
 5    0  0.1531977E+001  0.2454117E+03  0.7546771E-02  0.1116239E+00
         21   -1    0    0  503  501  0.00000000000E+00  0.00000000000E+00  0.10809557392E+04  0.10809557392E+04  0.00000000000E+00 0. -1.
         21   -1    0    0  504  502 -0.00000000000E+00 -0.00000000000E+00 -0.78586596957E+03  0.78586596957E+03  0.00000000000E+00 0.  1.
         25    1    1    2    0    0 -0.19566371973E+03  0.20741580829E+03 -0.50514877202E+03  0.59338511156E+03  0.12500000000E+03 0.  0.
         21    1    1    2  503  502  0.53192725468E+02 -0.53470615688E+02 -0.21963100621E+03  0.23222048073E+03  0.00000000000E+00 0.  1.
         21    1    1    2  504  501  0.14247099426E+03 -0.15394519261E+03  0.10198695478E+04  0.10412161164E+04  0.00000000000E+00 0. -1.
<mgrwt>
<rscale>  4 0.24541169E+03</rscale>
<asrwt>0</asrwt>
<pdfrwt beam="1">  1       21 0.16630088E+00 0.24541169E+03</pdfrwt>
<pdfrwt beam="2">  1       21 0.12090246E+00 0.24541169E+03</pdfrwt>
<totfact> 0.11005043E+02</totfact>
</mgrwt>
</event>
<event>
 5    0  0.1531977E+001  0.2358669E+03  0.7546771E-02  0.1122577E+00
         21   -1    0    0  502  501  0.00000000000E+00  0.00000000000E+00  0.11282095423E+04  0.11282095423E+04  0.00000000000E+00 0.  1.
         21   -1    0    0  504  502 -0.00000000000E+00 -0.00000000000E+00 -0.73789005426E+02  0.73789005426E+02  0.00000000000E+00 0.  1.
         25    1    1    2    0    0 -0.11725562899E+03  0.17927109878E+03  0.22548532791E+03  0.33519493208E+03  0.12500000000E+03 0.  0.
         21    1    1    2  503  501  0.12251522872E+03 -0.15443637167E+03  0.81360956237E+03  0.83715058032E+03  0.00000000000E+00 0.  1.
         21    1    1    2  504  503 -0.52595997318E+01 -0.24834727104E+02  0.15325646571E+02  0.29653035300E+02  0.00000000000E+00 0. -1.
<mgrwt>
<rscale>  4 0.23586687E+03</rscale>
<asrwt>0</asrwt>
<pdfrwt beam="1">  1       21 0.17357069E+00 0.23586687E+03</pdfrwt>
<pdfrwt beam="2">  1       21 0.11352155E-01 0.23586687E+03</pdfrwt>
<totfact> 0.12657713E+04</totfact>
</mgrwt>
</event>
<event>
 5    0  0.1531977E+001  0.3777292E+03  0.7546771E-02  0.1051885E+00
         21   -1    0    0  504  501  0.00000000000E+00  0.00000000000E+00  0.13628117233E+04  0.13628117233E+04  0.00000000000E+00 0.  1.
         21   -1    0    0  501  502 -0.00000000000E+00 -0.00000000000E+00 -0.10636105176E+03  0.10636105176E+03  0.00000000000E+00 0.  1.
         25    1    1    2    0    0 -0.45236565748E+02  0.35232311851E+03  0.72770541470E+03  0.81936444718E+03  0.12500000000E+03 0.  0.
         21    1    1    2  503  502  0.13468471717E+02 -0.93896079922E+02  0.25471923533E+03  0.27180831923E+03  0.00000000000E+00 0.  1.
         21    1    1    2  504  503  0.31768094031E+02 -0.25842703859E+03  0.27402602149E+03  0.37800000863E+03  0.00000000000E+00 0.  1.
<mgrwt>
<rscale>  4 0.37743836E+03</rscale>
<asrwt>0</asrwt>
<pdfrwt beam="1">  1       21 0.20966333E+00 0.37772916E+03</pdfrwt>
<pdfrwt beam="2">  1       21 0.16363240E-01 0.37772916E+03</pdfrwt>
<totfact> 0.34311972E+03</totfact>
</mgrwt>
</event>
<event>
 5    0  0.1531977E+001  0.2387911E+03  0.7546771E-02  0.1120601E+00
         21   -1    0    0  502  501  0.00000000000E+00  0.00000000000E+00  0.10514211449E+04  0.10514211449E+04  0.00000000000E+00 0. -1.
         21   -1    0    0  504  502 -0.00000000000E+00 -0.00000000000E+00 -0.35069996402E+03  0.35069996402E+03  0.00000000000E+00 0.  1.
         25    1    1    2    0    0 -0.14322202367E+03  0.14575910170E+03  0.10010941706E+04  0.10293555276E+04  0.12500000000E+03 0.  0.
         21    1    1    2  503  501  0.15487642022E+02 -0.14715341847E+02 -0.38585096519E+00  0.21367199677E+02  0.00000000000E+00 0. -1.
         21    1    1    2  504  503  0.12773438165E+03 -0.13104375986E+03 -0.29998713871E+03  0.35139838168E+03  0.00000000000E+00 0.  1.
<mgrwt>
<rscale>  4 0.23879112E+03</rscale>
<asrwt>0</asrwt>
<pdfrwt beam="1">  1       21 0.16175710E+00 0.23879112E+03</pdfrwt>
<pdfrwt beam="2">  1       21 0.53953841E-01 0.23879112E+03</pdfrwt>
<totfact> 0.75783651E+02</totfact>
</mgrwt>
</event>
<event>
 5    0  0.1531977E+001  0.2413394E+03  0.7546771E-02  0.1118904E+00
         21   -1    0    0  504  501  0.00000000000E+00  0.00000000000E+00  0.13332712393E+04  0.13332712393E+04  0.00000000000E+00 0. -1.
         21   -1    0    0  501  502 -0.00000000000E+00 -0.00000000000E+00 -0.76727839041E+02  0.76727839041E+02  0.00000000000E+00 0. -1.
         25    1    1    2    0    0  0.20727116344E+03  0.63331794551E+02  0.18422510424E+03  0.31070265597E+03  0.12500000000E+03 0.  0.
         21    1    1    2  503  502 -0.18864557525E+03 -0.80148453939E+02  0.10291698230E+04  0.10493814618E+04  0.00000000000E+00 0. -1.
         21    1    1    2  504  503 -0.18625588187E+02  0.16816659388E+02  0.43148473018E+02  0.49914960604E+02  0.00000000000E+00 0.  1.
<mgrwt>
<rscale>  4 0.24133942E+03</rscale>
<asrwt>0</asrwt>
<pdfrwt beam="1">  1       21 0.20511864E+00 0.24133942E+03</pdfrwt>
<pdfrwt beam="2">  1       21 0.11804284E-01 0.24133942E+03</pdfrwt>
<totfact> 0.72339048E+03</totfact>
</mgrwt>
</event>
<event>
 5    0  0.1531977E+001  0.4169582E+03  0.7546771E-02  0.1038061E+00
         21   -1    0    0  502  501  0.00000000000E+00  0.00000000000E+00  0.30409239817E+03  0.30409239817E+03  0.00000000000E+00 0.  1.
         21   -1    0    0  504  502 -0.00000000000E+00 -0.00000000000E+00 -0.88768008182E+03  0.88768008182E+03  0.00000000000E+00 0.  1.
         25    1    1    2    0    0 -0.20980549998E+03  0.33896449006E+03  0.57525542141E+02  0.42172201904E+03  0.12500000000E+03 0.  0.
         21    1    1    2  503  501  0.26297597229E+02  0.11261911919E+02 -0.25073307020E+02  0.38040307636E+02  0.00000000000E+00 0.  1.
         21    1    1    2  504  503  0.18350790275E+03 -0.35022640198E+03 -0.61603991878E+03  0.73201015331E+03  0.00000000000E+00 0.  1.
<mgrwt>
<rscale>  4 0.41695817E+03</rscale>
<asrwt>0</asrwt>
<pdfrwt beam="1">  1       21 0.46783446E-01 0.41695817E+03</pdfrwt>
<pdfrwt beam="2">  1       21 0.13656617E+00 0.41695817E+03</pdfrwt>
<totfact> 0.14426456E+03</totfact>
</mgrwt>
</event>
<event>
 5    0  0.1531977E+001  0.2466420E+03  0.7546771E-02  0.1115446E+00
         21   -1    0    0  503  501  0.00000000000E+00  0.00000000000E+00  0.90908448797E+03  0.90908448797E+03  0.00000000000E+00 0. -1.
         21   -1    0    0  504  502 -0.00000000000E+00 -0.00000000000E+00 -0.66957885929E+02  0.66957885929E+02  0.00000000000E+00 0. -1.
         25    1    1    2    0    0  0.18597037004E+03 -0.86873216088E+02  0.44231127282E+03  0.50338473981E+03  0.12500000000E+03 0.  0.
         21    1    1    2  503  502  0.22453953037E+02  0.15306342038E+02  0.20750344632E+02  0.34191240339E+02  0.00000000000E+00 0. -1.
         21    1    1    2  504  501 -0.20842432307E+03  0.71566874050E+02  0.37906498459E+03  0.43846639375E+03  0.00000000000E+00 0. -1.
<mgrwt>
<rscale>  4 0.24664199E+03</rscale>
<asrwt>0</asrwt>
<pdfrwt beam="1">  1       21 0.13985914E+00 0.24664199E+03</pdfrwt>
<pdfrwt beam="2">  1       21 0.10301214E-01 0.24664199E+03</pdfrwt>
<totfact> 0.26781656E+04</totfact>
</mgrwt>
</event>
<event>
 5    0  0.1531977E+001  0.4144496E+03  0.7546771E-02  0.1038888E+00
         21   -1    0    0  502  501  0.00000000000E+00  0.00000000000E+00  0.26707324679E+03  0.26707324679E+03  0.00000000000E+00 0.  1.
         21   -1    0    0  504  502 -0.00000000000E+00 -0.00000000000E+00 -0.10943838508E+04  0.10943838508E+04  0.00000000000E+00 0.  1.
         25    1    1    2    0    0 -0.32730906099E+03  0.26900018135E+03 -0.25714833946E+03  0.51111895627E+03  0.12500000000E+03 0.  0.
         21    1    1    2  503  501  0.32464871305E+02 -0.23839211599E+02  0.83385512318E+02  0.92603561180E+02  0.00000000000E+00 0.  1.
         21    1    1    2  504  503  0.29484418969E+03 -0.24516096975E+03 -0.65354777684E+03  0.75773458011E+03  0.00000000000E+00 0.  1.
<mgrwt>
<rscale>  4 0.41444964E+03</rscale>
<asrwt>0</asrwt>
<pdfrwt beam="1">  1       21 0.41088191E-01 0.41444964E+03</pdfrwt>
<pdfrwt beam="2">  1       21 0.16836675E+00 0.41444964E+03</pdfrwt>
<totfact> 0.10698812E+03</totfact>
</mgrwt>
</event>
<event>
 5    0  0.1531977E+001  0.2368559E+03  0.7546771E-02  0.1121905E+00
         21   -1    0    0  503  501  0.00000000000E+00  0.00000000000E+00  0.10375875315E+03  0.10375875315E+03  0.00000000000E+00 0.  1.
         21   -1    0    0  501  502 -0.00000000000E+00 -0.00000000000E+00 -0.13561040609E+04  0.13561040609E+04  0.00000000000E+00 0.  1.
         25    1    1    2    0    0  0.12641160724E+03 -0.22360675039E+03 -0.33020106452E+03  0.43662067779E+03  0.12500000000E+03 0.  0.
         21    1    1    2  503  504 -0.19076752011E+03  0.61702966237E+02 -0.75730011788E+03  0.78339196531E+03  0.00000000000E+00 0.  1.
         21    1    1    2  504  502  0.64355912863E+02  0.16190378416E+03 -0.16484412536E+03  0.23985017096E+03  0.00000000000E+00 0.  1.
<mgrwt>
<rscale>  4 0.23685587E+03</rscale>
<asrwt>0</asrwt>
<pdfrwt beam="1">  1       21 0.15962887E-01 0.23685587E+03</pdfrwt>
<pdfrwt beam="2">  1       21 0.20863137E+00 0.23685587E+03</pdfrwt>
<totfact> 0.39835322E+03</totfact>
</mgrwt>
</event>
<event>
 5    0  0.1531977E+001  0.2350132E+03  0.7546771E-02  0.1123160E+00
         21   -1    0    0  502  501  0.00000000000E+00  0.00000000000E+00  0.56707531345E+03  0.56707531345E+03  0.00000000000E+00 0. -1.
         21   -1    0    0  504  502 -0.00000000000E+00 -0.00000000000E+00 -0.20804185409E+03  0.20804185409E+03  0.00000000000E+00 0.  1.
         25    1    1    2    0    0  0.92625500396E+02 -0.17833658116E+03 -0.88549327767E+02  0.25268439396E+03  0.12500000000E+03 0.  0.
         21    1    1    2  503  501 -0.13087629477E+03  0.15044716692E+03  0.42609315578E+03  0.47044482351E+03  0.00000000000E+00 0. -1.
         21    1    1    2  504  503  0.38250794369E+02  0.27889414237E+02  0.21489631354E+02  0.51987950066E+02  0.00000000000E+00 0.  1.
<mgrwt>
<rscale>  4 0.23501321E+03</rscale>
<asrwt>0</asrwt>
<pdfrwt beam="1">  1       21 0.87242355E-01 0.23501321E+03</pdfrwt>
<pdfrwt beam="2">  1       21 0.32006439E-01 0.23501321E+03</pdfrwt>
<totfact> 0.10309864E+04</totfact>
</mgrwt>
</event>
<event>
 5    0  0.1531977E+001  0.1982482E+03  0.7546771E-02  0.1151225E+00
         21   -1    0    0  504  501  0.00000000000E+00  0.00000000000E+00  0.26837867408E+03  0.26837867408E+03  0.00000000000E+00 0.  1.
         21   -1    0    0  503  502 -0.00000000000E+00 -0.00000000000E+00 -0.10777178841E+04  0.10777178841E+04  0.00000000000E+00 0.  1.
         25    1    1    2    0    0 -0.46764436126E+02  0.23512482883E+03 -0.37008805979E+03  0.45832386979E+03  0.12500000000E+03 0.  0.
         21    1    1    2  503  501  0.48007582166E+02 -0.13116261580E+03 -0.64355395565E+03  0.65853629631E+03  0.00000000000E+00 0.  1.
         21    1    1    2  504  502 -0.12431460402E+01 -0.10396221304E+03  0.20430280542E+03  0.22923639208E+03  0.00000000000E+00 0.  1.
<mgrwt>
<rscale>  4 0.19824824E+03</rscale>
<asrwt>0</asrwt>
<pdfrwt beam="1">  1       21 0.41289026E-01 0.19824824E+03</pdfrwt>
<pdfrwt beam="2">  1       21 0.16580275E+00 0.19824824E+03</pdfrwt>
<totfact> 0.12833666E+03</totfact>
</mgrwt>
</event>
<event>
 5    0  0.1531977E+001  0.2150194E+03  0.7546771E-02  0.1137652E+00
         21   -1    0    0  504  501  0.00000000000E+00  0.00000000000E+00  0.15674864819E+03  0.15674864819E+03  0.00000000000E+00 0. -1.
         21   -1    0    0  503  502 -0.00000000000E+00 -0.00000000000E+00 -0.65790098200E+03  0.65790098200E+03  0.00000000000E+00 0.  1.
         25    1    1    2    0    0 -0.63616970513E+02  0.19448602068E+03 -0.49370006269E+03  0.54885032849E+03  0.12500000000E+03 0.  0.
         21    1    1    2  503  501 -0.17578966922E+02 -0.43047215285E+02 -0.69061127796E+02  0.83255763731E+02  0.00000000000E+00 0. -1.
         21    1    1    2  504  502  0.81195937435E+02 -0.15143880539E+03  0.61608856684E+02  0.18254353798E+03  0.00000000000E+00 0. -1.
<mgrwt>
<rscale>  4 0.21501936E+03</rscale>
<asrwt>0</asrwt>
<pdfrwt beam="1">  1       21 0.24115176E-01 0.21501936E+03</pdfrwt>
<pdfrwt beam="2">  1       21 0.10121554E+00 0.21501936E+03</pdfrwt>
<totfact> 0.12751052E+04</totfact>
</mgrwt>
</event>
<event>
 5    0  0.1531977E+001  0.2874962E+03  0.7546771E-02  0.1091664E+00
         21   -1    0    0  502  501  0.00000000000E+00  0.00000000000E+00  0.37599061678E+03  0.37599061678E+03  0.00000000000E+00 0.  1.
         21   -1    0    0  504  502 -0.00000000000E+00 -0.00000000000E+00 -0.75071161669E+03  0.75071161669E+03  0.00000000000E+00 0. -1.
         25    1    1    2    0    0 -0.58605960185E+02  0.24144636755E+03 -0.56164027661E+03  0.62673423975E+03  0.12500000000E+03 0.  0.
         21    1    1    2  503  501  0.11524085454E+03 -0.23335478035E+03  0.28529214215E+03  0.38616902315E+03  0.00000000000E+00 0.  1.
         21    1    1    2  504  503 -0.56634894360E+02 -0.80915872037E+01 -0.98372865454E+02  0.11379897056E+03  0.00000000000E+00 0. -1.
<mgrwt>
<rscale>  4 0.28749623E+03</rscale>
<asrwt>0</asrwt>
<pdfrwt beam="1">  1       21 0.57844711E-01 0.28749623E+03</pdfrwt>
<pdfrwt beam="2">  1       21 0.11549409E+00 0.28749623E+03</pdfrwt>
<totfact> 0.15082185E+03</totfact>
</mgrwt>
</event>
<event>
 5    0  0.1531977E+001  0.2567361E+03  0.7546771E-02  0.1109120E+00
         21   -1    0    0  503  501  0.00000000000E+00  0.00000000000E+00  0.14934550616E+03  0.14934550616E+03  0.00000000000E+00 0. -1.
         21   -1    0    0  501  502 -0.00000000000E+00 -0.00000000000E+00 -0.47807251483E+03  0.47807251483E+03  0.00000000000E+00 0. -1.
         25    1    1    2    0    0 -0.21892949196E+03  0.75717988284E+02 -0.21691123539E+03  0.34108476987E+03  0.12500000000E+03 0.  0.
         21    1    1    2  503  504  0.19574850555E+03 -0.95075891745E+02 -0.12758906334E+03  0.25226151450E+03  0.00000000000E+00 0. -1.
         21    1    1    2  504  502  0.23180986411E+02  0.19357903461E+02  0.15773290059E+02  0.34071736626E+02  0.00000000000E+00 0.  1.
<mgrwt>
<rscale>  4 0.25673609E+03</rscale>
<asrwt>0</asrwt>
<pdfrwt beam="1">  1       21 0.22976232E-01 0.25673609E+03</pdfrwt>
<pdfrwt beam="2">  1       21 0.73549618E-01 0.25673609E+03</pdfrwt>
<totfact> 0.28592265E+04</totfact>
</mgrwt>
</event>
<event>
 5    0  0.1531977E+001  0.3525577E+03  0.7546771E-02  0.1061570E+00
         21   -1    0    0  502  501  0.00000000000E+00  0.00000000000E+00  0.39160065447E+03  0.39160065447E+03  0.00000000000E+00 0. -1.
         21   -1    0    0  504  502 -0.00000000000E+00 -0.00000000000E+00 -0.31054609511E+03  0.31054609511E+03  0.00000000000E+00 0. -1.
         25    1    1    2    0    0 -0.24611264460E+03 -0.21931827452E+03  0.42650891336E+02  0.35512819925E+03  0.12500000000E+03 0.  0.
         21    1    1    2  503  501  0.21066297820E+03  0.20775921840E+03  0.62789883400E+02  0.30246545699E+03  0.00000000000E+00 0. -1.
         21    1    1    2  504  503  0.35449666402E+02  0.11559056114E+02 -0.24386215377E+02  0.44553093346E+02  0.00000000000E+00 0. -1.
<mgrwt>
<rscale>  4 0.35255771E+03</rscale>
<asrwt>0</asrwt>
<pdfrwt beam="1">  1       21 0.60246254E-01 0.35255771E+03</pdfrwt>
<pdfrwt beam="2">  1       21 0.47776322E-01 0.35255771E+03</pdfrwt>
<totfact> 0.99107504E+03</totfact>
</mgrwt>
</event>
<event>
 5    0  0.1531977E+001  0.2903125E+03  0.7546771E-02  0.1090186E+00
         21   -1    0    0  502  501  0.00000000000E+00  0.00000000000E+00  0.12017186641E+03  0.12017186641E+03  0.00000000000E+00 0.  1.
         21   -1    0    0  504  502 -0.00000000000E+00 -0.00000000000E+00 -0.13882993444E+04  0.13882993444E+04  0.00000000000E+00 0.  1.
         25    1    1    2    0    0 -0.23862115498E+03  0.24719465783E+03 -0.37174653444E+03  0.52140746095E+03  0.12500000000E+03 0.  0.
         21    1    1    2  503  501  0.75573069757E+02 -0.66847716260E+02 -0.63014158699E+02  0.11895667379E+03  0.00000000000E+00 0.  1.
         21    1    1    2  504  503  0.16304808522E+03 -0.18034694158E+03 -0.83336678483E+03  0.86810707605E+03  0.00000000000E+00 0.  1.
<mgrwt>
<rscale>  4 0.29031248E+03</rscale>
<asrwt>0</asrwt>
<pdfrwt beam="1">  1       21 0.18487979E-01 0.29031248E+03</pdfrwt>
<pdfrwt beam="2">  1       21 0.21358452E+00 0.29031248E+03</pdfrwt>
<totfact> 0.27123419E+03</totfact>
</mgrwt>
</event>
<event>
 5    0  0.1531977E+001  0.2553312E+03  0.7546771E-02  0.1109981E+00
         21   -1    0    0  504  501  0.00000000000E+00  0.00000000000E+00  0.66076172428E+03  0.66076172428E+03  0.00000000000E+00 0.  1.
         21   -1    0    0  503  502 -0.00000000000E+00 -0.00000000000E+00 -0.21861193580E+03  0.21861193580E+03  0.00000000000E+00 0. -1.
         25    1    1    2    0    0  0.45239385751E+02 -0.19647643792E+03  0.50857748248E+03  0.56118236641E+03  0.12500000000E+03 0.  0.
         21    1    1    2  503  501 -0.64310272547E+02  0.21595150369E+03 -0.12204518410E+03  0.25625356595E+03  0.00000000000E+00 0. -1.
         21    1    1    2  504  502  0.19070886796E+02 -0.19475065765E+02  0.55617490104E+02  0.61937727720E+02  0.00000000000E+00 0. -1.
<mgrwt>
<rscale>  4 0.25533123E+03</rscale>
<asrwt>0</asrwt>
<pdfrwt beam="1">  1       21 0.10165565E+00 0.25533123E+03</pdfrwt>
<pdfrwt beam="2">  1       21 0.33632606E-01 0.25533123E+03</pdfrwt>
<totfact> 0.64428419E+03</totfact>
</mgrwt>
</event>
<event>
 5    0  0.1531977E+001  0.2806705E+03  0.7546771E-02  0.1095323E+00
         21   -1    0    0  502  501  0.00000000000E+00  0.00000000000E+00  0.32955055348E+03  0.32955055348E+03  0.00000000000E+00 0. -1.
         21   -1    0    0  504  502 -0.00000000000E+00 -0.00000000000E+00 -0.31331284787E+03  0.31331284787E+03  0.00000000000E+00 0. -1.
         25    1    1    2    0    0  0.21051606427E+03 -0.17299571447E+03 -0.85073324183E+02  0.31161996250E+03  0.12500000000E+03 0.  0.
         21    1    1    2  503  501 -0.35734386045E+02  0.24980431781E+02  0.92243680175E+02  0.10202874521E+03  0.00000000000E+00 0. -1.
         21    1    1    2  504  503 -0.17478167822E+03  0.14801528268E+03  0.90673496201E+01  0.22921469364E+03  0.00000000000E+00 0. -1.
<mgrwt>
<rscale>  4 0.28067051E+03</rscale>
<asrwt>0</asrwt>
<pdfrwt beam="1">  1       21 0.50700085E-01 0.28067051E+03</pdfrwt>
<pdfrwt beam="2">  1       21 0.48201977E-01 0.28067051E+03</pdfrwt>
<totfact> 0.14507002E+04</totfact>
</mgrwt>
</event>
<event>
 5    0  0.1531977E+001  0.2327701E+03  0.7546771E-02  0.1124705E+00
         21   -1    0    0  504  501  0.00000000000E+00  0.00000000000E+00  0.79685773918E+03  0.79685773918E+03  0.00000000000E+00 0.  1.
         21   -1    0    0  503  502 -0.00000000000E+00 -0.00000000000E+00 -0.96752948434E+02  0.96752948434E+02  0.00000000000E+00 0.  1.
         25    1    1    2    0    0  0.10197432244E+03 -0.19557407117E+03  0.15484921805E+03  0.29707113640E+03  0.12500000000E+03 0.  0.
         21    1    1    2  503  501 -0.71915477453E+02  0.14797959980E+03  0.27480658298E+03  0.32029432699E+03  0.00000000000E+00 0.  1.
         21    1    1    2  504  502 -0.30058844989E+02  0.47594471368E+02  0.27044898972E+03  0.27624522422E+03  0.00000000000E+00 0. -1.
<mgrwt>
<rscale>  4 0.23277011E+03</rscale>
<asrwt>0</asrwt>
<pdfrwt beam="1">  1       21 0.12259349E+00 0.23277011E+03</pdfrwt>
<pdfrwt beam="2">  1       21 0.14885070E-01 0.23277011E+03</pdfrwt>
<totfact> 0.19440359E+04</totfact>
</mgrwt>
</event>
<event>
 5    0  0.1531977E+001  0.2256038E+03  0.7546771E-02  0.1129773E+00
         21   -1    0    0  504  501  0.00000000000E+00  0.00000000000E+00  0.59658607132E+03  0.59658607132E+03  0.00000000000E+00 0. -1.
         21   -1    0    0  503  502 -0.00000000000E+00 -0.00000000000E+00 -0.28430580256E+03  0.28430580256E+03  0.00000000000E+00 0. -1.
         25    1    1    2    0    0  0.10044612863E+03 -0.23117430151E+03  0.31507930845E+03  0.42241088178E+03  0.12500000000E+03 0.  0.
         21    1    1    2  503  501 -0.79444532439E+02  0.16311037499E+03 -0.18726592640E+03  0.26073924782E+03  0.00000000000E+00 0. -1.
         21    1    1    2  504  502 -0.21001596187E+02  0.68063926518E+02  0.18446688672E+03  0.19774174428E+03  0.00000000000E+00 0. -1.
<mgrwt>
<rscale>  4 0.22560379E+03</rscale>
<asrwt>0</asrwt>
<pdfrwt beam="1">  1       21 0.91782472E-01 0.22560379E+03</pdfrwt>
<pdfrwt beam="2">  1       21 0.43739354E-01 0.22560379E+03</pdfrwt>
<totfact> 0.49187805E+03</totfact>
</mgrwt>
</event>
<event>
 5    0  0.1531977E+001  0.2960649E+03  0.7546771E-02  0.1087224E+00
         21   -1    0    0  503  501  0.00000000000E+00  0.00000000000E+00  0.12413140504E+03  0.12413140504E+03  0.00000000000E+00 0.  1.
         21   -1    0    0  504  502 -0.00000000000E+00 -0.00000000000E+00 -0.78812836655E+03  0.78812836655E+03  0.00000000000E+00 0. -1.
         25    1    1    2    0    0  0.20365380660E+03  0.18249176993E+03 -0.38085502604E+03  0.48523568490E+03  0.12500000000E+03 0.  0.
         21    1    1    2  503  502  0.19313085903E+02 -0.36587898242E+02 -0.86416297908E+02  0.95809426097E+02  0.00000000000E+00 0.  1.
         21    1    1    2  504  501 -0.22296689250E+03 -0.14590387169E+03 -0.19672563756E+03  0.33121466060E+03  0.00000000000E+00 0.  1.
<mgrwt>
<rscale>  4 0.29606493E+03</rscale>
<asrwt>0</asrwt>
<pdfrwt beam="1">  1       21 0.19097139E-01 0.29606493E+03</pdfrwt>
<pdfrwt beam="2">  1       21 0.12125052E+00 0.29606493E+03</pdfrwt>
<totfact> 0.12200223E+04</totfact>
</mgrwt>
</event>
<event>
 5    0  0.1531977E+001  0.2097849E+03  0.7546771E-02  0.1141736E+00
         21   -1    0    0  502  501  0.00000000000E+00  0.00000000000E+00  0.44385875767E+03  0.44385875767E+03  0.00000000000E+00 0.  1.
         21   -1    0    0  504  502 -0.00000000000E+00 -0.00000000000E+00 -0.45446481028E+03  0.45446481028E+03  0.00000000000E+00 0.  1.
         25    1    1    2    0    0  0.18287063970E+03  0.19186914005E+03  0.17666734268E+03  0.34218677318E+03  0.12500000000E+03 0.  0.
         21    1    1    2  503  501 -0.62428748465E+02 -0.84005788460E+02  0.14953952536E+03  0.18252778083E+03  0.00000000000E+00 0.  1.
         21    1    1    2  504  503 -0.12044189123E+03 -0.10786335159E+03 -0.33681292066E+03  0.37360901395E+03  0.00000000000E+00 0.  1.
<mgrwt>
<rscale>  4 0.20978495E+03</rscale>
<asrwt>0</asrwt>
<pdfrwt beam="1">  1       21 0.68285963E-01 0.20978495E+03</pdfrwt>
<pdfrwt beam="2">  1       21 0.69917663E-01 0.20978495E+03</pdfrwt>
<totfact> 0.35849913E+03</totfact>
</mgrwt>
</event>
<event>
 5    0  0.1531977E+001  0.1853062E+03  0.7546771E-02  0.1162764E+00
         21   -1    0    0  504  501  0.00000000000E+00  0.00000000000E+00  0.19730123323E+04  0.19730123323E+04  0.00000000000E+00 0. -1.
         21   -1    0    0  503  502 -0.00000000000E+00 -0.00000000000E+00 -0.90932723685E+03  0.90932723685E+03  0.00000000000E+00 0.  1.
         25    1    1    2    0    0 -0.21587747198E+03 -0.44467305394E+02 -0.66596192332E+03  0.71253821475E+03  0.12500000000E+03 0.  0.
         21    1    1    2  503  501  0.80035892849E+02  0.58262973752E+02 -0.20641699657E+03  0.22892857997E+03  0.00000000000E+00 0.  1.
         21    1    1    2  504  502  0.13584157913E+03 -0.13795668358E+02  0.19360640154E+04  0.19408727745E+04  0.00000000000E+00 0. -1.
<mgrwt>
<rscale>  4 0.18530616E+03</rscale>
<asrwt>0</asrwt>
<pdfrwt beam="1">  1       21 0.30354036E+00 0.18530616E+03</pdfrwt>
<pdfrwt beam="2">  1       21 0.13989650E+00 0.18530616E+03</pdfrwt>
<totfact> 0.11854382E+01</totfact>
</mgrwt>
</event>
<event>
 5    0  0.1531977E+001  0.2251493E+03  0.7546771E-02  0.1130101E+00
         21   -1    0    0  502  501  0.00000000000E+00  0.00000000000E+00  0.17811746294E+03  0.17811746294E+03  0.00000000000E+00 0. -1.
         21   -1    0    0  504  502 -0.00000000000E+00 -0.00000000000E+00 -0.40932257705E+03  0.40932257705E+03  0.00000000000E+00 0.  1.
         25    1    1    2    0    0  0.13807992189E+03 -0.16530329940E+03 -0.16364558831E+03  0.29798678527E+03  0.12500000000E+03 0.  0.
         21    1    1    2  503  501 -0.99110414953E+02  0.14839652544E+03  0.31921297756E+02  0.18128257601E+03  0.00000000000E+00 0. -1.
         21    1    1    2  504  503 -0.38969506942E+02  0.16906773963E+02 -0.99480823560E+02  0.10817067871E+03  0.00000000000E+00 0.  1.
<mgrwt>
<rscale>  4 0.22514927E+03</rscale>
<asrwt>0</asrwt>
<pdfrwt beam="1">  1       21 0.27402687E-01 0.22514927E+03</pdfrwt>
<pdfrwt beam="2">  1       21 0.62972704E-01 0.22514927E+03</pdfrwt>
<totfact> 0.29143494E+04</totfact>
</mgrwt>
</event>
<event>
 5    0  0.1531977E+001  0.2528478E+03  0.7546771E-02  0.1111518E+00
         21   -1    0    0  503  501  0.00000000000E+00  0.00000000000E+00  0.45862663899E+03  0.45862663899E+03  0.00000000000E+00 0.  1.
         21   -1    0    0  501  502 -0.00000000000E+00 -0.00000000000E+00 -0.14594909825E+03  0.14594909825E+03  0.00000000000E+00 0.  1.
         25    1    1    2    0    0  0.22384360945E+03 -0.51240414205E+02  0.19932820099E+03  0.32876781054E+03  0.12500000000E+03 0.  0.
         21    1    1    2  503  504 -0.21407258504E+03  0.16228036058E+02  0.91307644407E+02  0.23329703545E+03  0.00000000000E+00 0.  1.
         21    1    1    2  504  502 -0.97710244078E+01  0.35012378147E+02  0.22041695344E+02  0.42510891253E+02  0.00000000000E+00 0.  1.
<mgrwt>
<rscale>  4 0.25284784E+03</rscale>
<asrwt>0</asrwt>
<pdfrwt beam="1">  1       21 0.70557944E-01 0.25284784E+03</pdfrwt>
<pdfrwt beam="2">  1       21 0.22453708E-01 0.25284784E+03</pdfrwt>
<totfact> 0.32829498E+04</totfact>
</mgrwt>
</event>
<event>
 5    0  0.1531977E+001  0.2077975E+03  0.7546771E-02  0.1143322E+00
         21   -1    0    0  502  501  0.00000000000E+00  0.00000000000E+00  0.40937791134E+03  0.40937791134E+03  0.00000000000E+00 0. -1.
         21   -1    0    0  504  502 -0.00000000000E+00 -0.00000000000E+00 -0.19944487100E+03  0.19944487100E+03  0.00000000000E+00 0.  1.
         25    1    1    2    0    0  0.15713861490E+03 -0.13831984319E+03 -0.34668406639E+02  0.24627590570E+03  0.12500000000E+03 0.  0.
         21    1    1    2  503  501 -0.12997539529E+03  0.92030611837E+02  0.26158654318E+03  0.30625276565E+03  0.00000000000E+00 0. -1.
         21    1    1    2  504  503 -0.27163219609E+02  0.46289231349E+02 -0.16985096204E+02  0.56294110984E+02  0.00000000000E+00 0. -1.
<mgrwt>
<rscale>  4 0.20779753E+03</rscale>
<asrwt>0</asrwt>
<pdfrwt beam="1">  1       21 0.62981217E-01 0.20779753E+03</pdfrwt>
<pdfrwt beam="2">  1       21 0.30683826E-01 0.20779753E+03</pdfrwt>
<totfact> 0.23593350E+04</totfact>
</mgrwt>
</event>
<event>
 5    0  0.1531977E+001  0.2742107E+03  0.7546771E-02  0.1098894E+00
         21   -1    0    0  504  501  0.00000000000E+00  0.00000000000E+00  0.65257494930E+03  0.65257494930E+03  0.00000000000E+00 0.  1.
         21   -1    0    0  503  502 -0.00000000000E+00 -0.00000000000E+00 -0.28476120863E+04  0.28476120863E+04  0.00000000000E+00 0.  1.
         25    1    1    2    0    0  0.20073445964E+03 -0.48231361707E+01 -0.26020501760E+04  0.26127777755E+04  0.12500000000E+03 0.  0.
         21    1    1    2  503  501  0.38076739077E+02  0.57258680662E+02 -0.21146082797E+03  0.22236024001E+03  0.00000000000E+00 0.  1.
         21    1    1    2  504  502 -0.23881119871E+03 -0.52435544491E+02  0.61847386697E+03  0.66504902006E+03  0.00000000000E+00 0.  1.
<mgrwt>
<rscale>  4 0.27421069E+03</rscale>
<asrwt>0</asrwt>
<pdfrwt beam="1">  1       21 0.10039614E+00 0.27421069E+03</pdfrwt>
<pdfrwt beam="2">  1       21 0.43809417E+00 0.27421069E+03</pdfrwt>
<totfact> 0.34706945E+00</totfact>
</mgrwt>
</event>
<event>
 5    0  0.1531977E+001  0.3405946E+03  0.7546771E-02  0.1066543E+00
         21   -1    0    0  504  501  0.00000000000E+00  0.00000000000E+00  0.85825303012E+03  0.85825303012E+03  0.00000000000E+00 0.  1.
         21   -1    0    0  501  502 -0.00000000000E+00 -0.00000000000E+00 -0.23718770601E+03  0.23718770601E+03  0.00000000000E+00 0.  1.
         25    1    1    2    0    0  0.28841788032E+03 -0.37906698359E+02  0.46330151961E+03  0.56115513856E+03  0.12500000000E+03 0.  0.
         21    1    1    2  503  502  0.10911227711E+03  0.26860122465E+02  0.43692157322E+02  0.12056516830E+03  0.00000000000E+00 0. -1.
         21    1    1    2  504  503 -0.39753015743E+03  0.11046575895E+02  0.11407164718E+03  0.41372042927E+03  0.00000000000E+00 0.  1.
<mgrwt>
<rscale>  4 0.34059459E+03</rscale>
<asrwt>0</asrwt>
<pdfrwt beam="1">  1       21 0.13203893E+00 0.34059459E+03</pdfrwt>
<pdfrwt beam="2">  1       21 0.36490417E-01 0.34059459E+03</pdfrwt>
<totfact> 0.27248399E+03</totfact>
</mgrwt>
</event>
<event>
 5    0  0.1531977E+001  0.5588049E+03  0.7546771E-02  0.9994762E-01
         21   -1    0    0  502  501  0.00000000000E+00  0.00000000000E+00  0.50944456183E+03  0.50944456183E+03  0.00000000000E+00 0.  1.
         21   -1    0    0  504  502 -0.00000000000E+00 -0.00000000000E+00 -0.82695286503E+03  0.82695286503E+03  0.00000000000E+00 0. -1.
         25    1    1    2    0    0 -0.50383935546E+03 -0.20815281842E+03  0.16965385148E+03  0.58445626119E+03  0.12500000000E+03 0.  0.
         21    1    1    2  503  501  0.51144733462E+03  0.18443004842E+03 -0.44332591931E+03  0.70152027026E+03  0.00000000000E+00 0.  1.
         21    1    1    2  504  503 -0.76079791575E+01  0.23722769999E+02 -0.43836235364E+02  0.50420895412E+02  0.00000000000E+00 0.  1.
<mgrwt>
<rscale>  4 0.55880493E+03</rscale>
<asrwt>0</asrwt>
<pdfrwt beam="1">  1       21 0.78376087E-01 0.55880493E+03</pdfrwt>
<pdfrwt beam="2">  1       21 0.12722352E+00 0.55880493E+03</pdfrwt>
<totfact> 0.52705389E+02</totfact>
</mgrwt>
</event>
<event>
 5    0  0.1531977E+001  0.2527571E+03  0.7546771E-02  0.1111575E+00
         21   -1    0    0  502  501  0.00000000000E+00  0.00000000000E+00  0.17898706038E+04  0.17898706038E+04  0.00000000000E+00 0.  1.
         21   -1    0    0  504  502 -0.00000000000E+00 -0.00000000000E+00 -0.35076536549E+02  0.35076536549E+02  0.00000000000E+00 0.  1.
         25    1    1    2    0    0  0.18932035046E+03  0.11144041455E+03  0.11841587767E+04  0.12108336671E+04  0.12500000000E+03 0.  0.
         21    1    1    2  503  501 -0.34840678656E+02 -0.37567028722E+02  0.18902787706E+03  0.19584864779E+03  0.00000000000E+00 0.  1.
         21    1    1    2  504  503 -0.15447967180E+03 -0.73873385824E+02  0.38160741350E+03  0.41826482541E+03  0.00000000000E+00 0.  1.
<mgrwt>
<rscale>  4 0.25275712E+03</rscale>
<asrwt>0</asrwt>
<pdfrwt beam="1">  1       21 0.27536464E+00 0.25275712E+03</pdfrwt>
<pdfrwt beam="2">  1       21 0.53963916E-02 0.25275712E+03</pdfrwt>
<totfact> 0.10600079E+04</totfact>
</mgrwt>
</event>
<event>
 5    0  0.1531977E+001  0.2212572E+03  0.7546771E-02  0.1132949E+00
         21   -1    0    0  503  501  0.00000000000E+00  0.00000000000E+00  0.60074510031E+03  0.60074510031E+03  0.00000000000E+00 0.  1.
         21   -1    0    0  504  502 -0.00000000000E+00 -0.00000000000E+00 -0.52060211398E+03  0.52060211398E+03  0.00000000000E+00 0. -1.
         25    1    1    2    0    0 -0.22850427527E+03 -0.54150418221E+02  0.35319039588E+03  0.44217069934E+03  0.12500000000E+03 0.  0.
         21    1    1    2  503  502  0.17792354027E+03  0.29319782733E+02 -0.45461226221E+03  0.48906926380E+03  0.00000000000E+00 0. -1.
         21    1    1    2  504  501  0.50580735003E+02  0.24830635488E+02  0.18156485267E+03  0.19010725114E+03  0.00000000000E+00 0.  1.
<mgrwt>
<rscale>  4 0.22125721E+03</rscale>
<asrwt>0</asrwt>
<pdfrwt beam="1">  1       21 0.92422323E-01 0.22125721E+03</pdfrwt>
<pdfrwt beam="2">  1       21 0.80092633E-01 0.22125721E+03</pdfrwt>
<totfact> 0.13197013E+03</totfact>
</mgrwt>
</event>
<event>
 5    0  0.1531977E+001  0.2643565E+03  0.7546771E-02  0.1104554E+00
         21   -1    0    0  503  501  0.00000000000E+00  0.00000000000E+00  0.26986342238E+03  0.26986342238E+03  0.00000000000E+00 0. -1.
         21   -1    0    0  504  502 -0.00000000000E+00 -0.00000000000E+00 -0.34321629119E+03  0.34321629119E+03  0.00000000000E+00 0. -1.
         25    1    1    2    0    0 -0.25119747559E+03  0.26732566500E+02  0.52486770158E+02  0.28669611595E+03  0.12500000000E+03 0.  0.
         21    1    1    2  503  502  0.37786707063E+02 -0.43289444903E+02 -0.93723060272E+02  0.10993554156E+03  0.00000000000E+00 0.  1.
         21    1    1    2  504  501  0.21341076853E+03  0.16556878403E+02 -0.32116578703E+02  0.21644805607E+03  0.00000000000E+00 0. -1.
<mgrwt>
<rscale>  4 0.26435655E+03</rscale>
<asrwt>0</asrwt>
<pdfrwt beam="1">  1       21 0.41517450E-01 0.26435655E+03</pdfrwt>
<pdfrwt beam="2">  1       21 0.52802506E-01 0.26435655E+03</pdfrwt>
<totfact> 0.18268844E+04</totfact>
</mgrwt>
</event>
<event>
 5    0  0.1531977E+001  0.3029794E+03  0.7546771E-02  0.1083761E+00
         21   -1    0    0  502  501  0.00000000000E+00  0.00000000000E+00  0.31861826515E+03  0.31861826515E+03  0.00000000000E+00 0. -1.
         21   -1    0    0  504  502 -0.00000000000E+00 -0.00000000000E+00 -0.46901694179E+03  0.46901694179E+03  0.00000000000E+00 0. -1.
         25    1    1    2    0    0 -0.23738449224E+03  0.64185688376E+02 -0.78971066703E+02  0.28693662911E+03  0.12500000000E+03 0.  0.
         21    1    1    2  503  501  0.26589232195E+03 -0.12713838433E+03  0.10369406669E+03  0.31243456133E+03  0.00000000000E+00 0. -1.
         21    1    1    2  504  503 -0.28507829715E+02  0.62952695955E+02 -0.17512167663E+03  0.18826401650E+03  0.00000000000E+00 0. -1.
<mgrwt>
<rscale>  4 0.30297939E+03</rscale>
<asrwt>0</asrwt>
<pdfrwt beam="1">  1       21 0.49018195E-01 0.30297939E+03</pdfrwt>
<pdfrwt beam="2">  1       21 0.72156452E-01 0.30297939E+03</pdfrwt>
<totfact> 0.64366811E+03</totfact>
</mgrwt>
</event>
<event>
 5    0  0.1531977E+001  0.2178393E+03  0.7546771E-02  0.1135504E+00
         21   -1    0    0  504  501  0.00000000000E+00  0.00000000000E+00  0.24219697741E+04  0.24219697741E+04  0.00000000000E+00 0.  1.
         21   -1    0    0  501  502 -0.00000000000E+00 -0.00000000000E+00 -0.29614466079E+02  0.29614466079E+02  0.00000000000E+00 0.  1.
         25    1    1    2    0    0 -0.11841399485E+02 -0.19970884994E+03  0.80277249214E+03  0.83671531457E+03  0.12500000000E+03 0.  0.
         21    1    1    2  503  502  0.65785357122E+02  0.40953842094E+02  0.96711315092E+03  0.97021274836E+03  0.00000000000E+00 0.  1.
         21    1    1    2  504  503 -0.53943957637E+02  0.15875500785E+03  0.62246966493E+03  0.64465617723E+03  0.00000000000E+00 0.  1.
<mgrwt>
<rscale>  4 0.21783926E+03</rscale>
<asrwt>0</asrwt>
<pdfrwt beam="1">  1       21 0.37261058E+00 0.21783926E+03</pdfrwt>
<pdfrwt beam="2">  1       21 0.45560736E-02 0.21783926E+03</pdfrwt>
<totfact> 0.39085382E+03</totfact>
</mgrwt>
</event>
<event>
 5    0  0.1531977E+001  0.2483491E+03  0.7546771E-02  0.1114353E+00
         21   -1    0    0  503  501  0.00000000000E+00  0.00000000000E+00  0.52145504464E+03  0.52145504464E+03  0.00000000000E+00 0.  1.
         21   -1    0    0  504  502 -0.00000000000E+00 -0.00000000000E+00 -0.40458812474E+03  0.40458812474E+03  0.00000000000E+00 0. -1.
         25    1    1    2    0    0 -0.23628298946E+03  0.17133628763E+03 -0.11829392801E+03  0.33882772609E+03  0.12500000000E+03 0.  0.
         21    1    1    2  503  502  0.11501775899E+03 -0.38196874519E+01 -0.12624427484E+03  0.17082532548E+03  0.00000000000E+00 0. -1.
         21    1    1    2  504  501  0.12126523047E+03 -0.16751660018E+03  0.36140512275E+03  0.41639011780E+03  0.00000000000E+00 0.  1.
<mgrwt>
<rscale>  4 0.24834910E+03</rscale>
<asrwt>0</asrwt>
<pdfrwt beam="1">  1       21 0.80223853E-01 0.24834910E+03</pdfrwt>
<pdfrwt beam="2">  1       21 0.62244327E-01 0.24834910E+03</pdfrwt>
<totfact> 0.31363924E+03</totfact>
</mgrwt>
</event>
<event>
 5    0  0.1531977E+001  0.2158338E+03  0.7546771E-02  0.1137028E+00
         21   -1    0    0  503  501  0.00000000000E+00  0.00000000000E+00  0.26205689559E+03  0.26205689559E+03  0.00000000000E+00 0.  1.
         21   -1    0    0  504  502 -0.00000000000E+00 -0.00000000000E+00 -0.68459461283E+03  0.68459461283E+03  0.00000000000E+00 0. -1.
         25    1    1    2    0    0 -0.12978348463E+03 -0.15697537718E+03  0.17085890428E+03  0.29377336009E+03  0.12500000000E+03 0.  0.
         21    1    1    2  503  502  0.99703292702E+02  0.14320115687E+03 -0.59469809430E+03  0.61976861914E+03  0.00000000000E+00 0. -1.
         21    1    1    2  504  501  0.30080191927E+02  0.13774220319E+02  0.13014727714E+01  0.33109529189E+02  0.00000000000E+00 0.  1.
<mgrwt>
<rscale>  4 0.21583380E+03</rscale>
<asrwt>0</asrwt>
<pdfrwt beam="1">  1       21 0.40316446E-01 0.21583380E+03</pdfrwt>
<pdfrwt beam="2">  1       21 0.10532225E+00 0.21583380E+03</pdfrwt>
<totfact> 0.42210924E+03</totfact>
</mgrwt>
</event>
<event>
 5    0  0.1531977E+001  0.4114088E+03  0.7546771E-02  0.1041723E+00
         21   -1    0    0  503  501  0.00000000000E+00  0.00000000000E+00  0.15133443903E+04  0.15133443903E+04  0.00000000000E+00 0. -1.
         21   -1    0    0  504  502 -0.00000000000E+00 -0.00000000000E+00 -0.11135081012E+03  0.11135081012E+03  0.00000000000E+00 0. -1.
         25    1    1    2    0    0 -0.31615593765E+03 -0.19147606203E+03  0.85885261335E+03  0.94332946032E+03  0.12500000000E+03 0.  0.
         21    1    1    2  503  502  0.71737337809E+02  0.11399154044E+03  0.94188747000E+02  0.16435278212E+03  0.00000000000E+00 0.  1.
         21    1    1    2  504  501  0.24441859984E+03  0.77484521590E+02  0.44895221984E+03  0.51701295799E+03  0.00000000000E+00 0. -1.
<mgrwt>
<rscale>  4 0.40599641E+03</rscale>
<asrwt>0</asrwt>
<pdfrwt beam="1">  1       21 0.23282220E+00 0.41140875E+03</pdfrwt>
<pdfrwt beam="2">  1       21 0.17130895E-01 0.41140875E+03</pdfrwt>
<totfact> 0.22075173E+03</totfact>
</mgrwt>
</event>
<event>
 5    0  0.1531977E+001  0.2521953E+03  0.7546771E-02  0.1111925E+00
         21   -1    0    0  502  501  0.00000000000E+00  0.00000000000E+00  0.18130588962E+03  0.18130588962E+03  0.00000000000E+00 0.  1.
         21   -1    0    0  504  502 -0.00000000000E+00 -0.00000000000E+00 -0.33949122355E+03  0.33949122355E+03  0.00000000000E+00 0.  1.
         25    1    1    2    0    0 -0.65176973302E+02  0.20911583356E+03 -0.11984763967E+03  0.27922379273E+03  0.12500000000E+03 0.  0.
         21    1    1    2  503  501  0.56096140477E+02 -0.87698596104E+02  0.20883001872E+02  0.10617871963E+03  0.00000000000E+00 0.  1.
         21    1    1    2  504  503  0.90808328246E+01 -0.12141723746E+03 -0.59220696133E+02  0.13539460080E+03  0.00000000000E+00 0.  1.
<mgrwt>
<rscale>  4 0.25219530E+03</rscale>
<asrwt>0</asrwt>
<pdfrwt beam="1">  1       21 0.27893214E-01 0.25219530E+03</pdfrwt>
<pdfrwt beam="2">  1       21 0.52229419E-01 0.25219530E+03</pdfrwt>
<totfact> 0.41528222E+04</totfact>
</mgrwt>
</event>
<event>
 5    0  0.1531977E+001  0.3633641E+03  0.7546771E-02  0.1057260E+00
         21   -1    0    0  502  501  0.00000000000E+00  0.00000000000E+00  0.12305931702E+03  0.12305931702E+03  0.00000000000E+00 0. -1.
         21   -1    0    0  504  502 -0.00000000000E+00 -0.00000000000E+00 -0.12984359730E+04  0.12984359730E+04  0.00000000000E+00 0. -1.
         25    1    1    2    0    0  0.34894947995E+01 -0.34116904214E+03 -0.88749906397E+03  0.95900369157E+03  0.12500000000E+03 0.  0.
         21    1    1    2  503  501 -0.39121976303E+02  0.37352398461E+02 -0.26984088941E+02  0.60447264261E+02  0.00000000000E+00 0.  1.
         21    1    1    2  504  503  0.35632481504E+02  0.30381664368E+03 -0.26089350307E+03  0.40204433419E+03  0.00000000000E+00 0. -1.
<mgrwt>
<rscale>  4 0.36336413E+03</rscale>
<asrwt>0</asrwt>
<pdfrwt beam="1">  1       21 0.18932203E-01 0.36336413E+03</pdfrwt>
<pdfrwt beam="2">  1       21 0.19975937E+00 0.36336413E+03</pdfrwt>
<totfact> 0.30531370E+03</totfact>
</mgrwt>
</event>
<event>
 5    0  0.1531977E+001  0.2912807E+03  0.7546771E-02  0.1089682E+00
         21   -1    0    0  502  501  0.00000000000E+00  0.00000000000E+00  0.36341672989E+03  0.36341672989E+03  0.00000000000E+00 0.  1.
         21   -1    0    0  504  502 -0.00000000000E+00 -0.00000000000E+00 -0.60758991197E+03  0.60758991197E+03  0.00000000000E+00 0.  1.
         25    1    1    2    0    0  0.99442567978E+02  0.26375894734E+03 -0.25266381843E+03  0.39864973570E+03  0.12500000000E+03 0.  0.
         21    1    1    2  503  501 -0.88499656566E+02 -0.24420081778E+03  0.23167444783E+03  0.34805068366E+03  0.00000000000E+00 0.  1.
         21    1    1    2  504  503 -0.10942911413E+02 -0.19558129567E+02 -0.22318381148E+03  0.22430622250E+03  0.00000000000E+00 0. -1.
<mgrwt>
<rscale>  4 0.29128068E+03</rscale>
<asrwt>0</asrwt>
<pdfrwt beam="1">  1       21 0.55910266E-01 0.29128068E+03</pdfrwt>
<pdfrwt beam="2">  1       21 0.93475371E-01 0.29128068E+03</pdfrwt>
<totfact> 0.27011546E+03</totfact>
</mgrwt>
</event>
<event>
 5    0  0.1531977E+001  0.3048884E+03  0.7546771E-02  0.1082822E+00
         21   -1    0    0  502  501  0.00000000000E+00  0.00000000000E+00  0.71761828188E+03  0.71761828188E+03  0.00000000000E+00 0. -1.
         21   -1    0    0  504  502 -0.00000000000E+00 -0.00000000000E+00 -0.38656665047E+03  0.38656665047E+03  0.00000000000E+00 0. -1.
         25    1    1    2    0    0  0.20123581850E+03  0.18649662727E+03  0.48885208248E+03  0.57435024608E+03  0.12500000000E+03 0.  0.
         21    1    1    2  503  501  0.22115509229E+02 -0.19910841978E+02  0.12757022776E+03  0.13099503955E+03  0.00000000000E+00 0.  1.
         21    1    1    2  504  503 -0.22335132773E+03 -0.16658578529E+03 -0.28537067883E+03  0.39883964672E+03  0.00000000000E+00 0. -1.
<mgrwt>
<rscale>  4 0.30488837E+03</rscale>
<asrwt>0</asrwt>
<pdfrwt beam="1">  1       21 0.11040281E+00 0.30488837E+03</pdfrwt>
<pdfrwt beam="2">  1       21 0.59471792E-01 0.30488837E+03</pdfrwt>
<totfact> 0.15702640E+03</totfact>
</mgrwt>
</event>
<event>
 5    0  0.1531977E+001  0.2716655E+03  0.7546771E-02  0.1100330E+00
         21   -1    0    0  502  501  0.00000000000E+00  0.00000000000E+00  0.11752729053E+03  0.11752729053E+03  0.00000000000E+00 0.  1.
         21   -1    0    0  504  502 -0.00000000000E+00 -0.00000000000E+00 -0.12260759872E+04  0.12260759872E+04  0.00000000000E+00 0. -1.
         25    1    1    2    0    0 -0.20615951175E+03 -0.86962333532E+02 -0.93068945858E+03  0.96533520605E+03  0.12500000000E+03 0.  0.
         21    1    1    2  503  501  0.22135049211E+03  0.10261006107E+03 -0.50619689934E+02  0.24917306837E+03  0.00000000000E+00 0.  1.
         21    1    1    2  504  503 -0.15190980362E+02 -0.15647727536E+02 -0.12723954812E+03  0.12909500326E+03  0.00000000000E+00 0.  1.
<mgrwt>
<rscale>  4 0.27166549E+03</rscale>
<asrwt>0</asrwt>
<pdfrwt beam="1">  1       21 0.18081122E-01 0.27166549E+03</pdfrwt>
<pdfrwt beam="2">  1       21 0.18862707E+00 0.27166549E+03</pdfrwt>
<totfact> 0.41652333E+03</totfact>
</mgrwt>
</event>
<event>
 5    0  0.1531977E+001  0.2017362E+03  0.7546771E-02  0.1148282E+00
         21   -1    0    0  504  501  0.00000000000E+00  0.00000000000E+00  0.52701502007E+03  0.52701502007E+03  0.00000000000E+00 0. -1.
         21   -1    0    0  503  502 -0.00000000000E+00 -0.00000000000E+00 -0.19905881855E+04  0.19905881855E+04  0.00000000000E+00 0. -1.
         25    1    1    2    0    0  0.19517270803E+03 -0.16355842717E+03 -0.43973638339E+02  0.28705822741E+03  0.12500000000E+03 0.  0.
         21    1    1    2  503  501 -0.96370078205E+02  0.50132398534E+02 -0.18094357797E+04  0.18126936559E+04  0.00000000000E+00 0. -1.
         21    1    1    2  504  502 -0.98802629820E+02  0.11342602864E+03  0.38983625262E+03  0.41785132223E+03  0.00000000000E+00 0. -1.
<mgrwt>
<rscale>  4 0.20173622E+03</rscale>
<asrwt>0</asrwt>
<pdfrwt beam="1">  1       21 0.81079234E-01 0.20173622E+03</pdfrwt>
<pdfrwt beam="2">  1       21 0.30624434E+00 0.20173622E+03</pdfrwt>
<totfact> 0.41270924E+01</totfact>
</mgrwt>
</event>
<event>
 5    0  0.1531977E+001  0.2831702E+03  0.7546771E-02  0.1093970E+00
         21   -1    0    0  504  501  0.00000000000E+00  0.00000000000E+00  0.70187864466E+02  0.70187864466E+02  0.00000000000E+00 0. -1.
         21   -1    0    0  501  502 -0.00000000000E+00 -0.00000000000E+00 -0.12646409389E+04  0.12646409389E+04  0.00000000000E+00 0. -1.
         25    1    1    2    0    0 -0.18244139720E+03 -0.20122595000E+03 -0.71313802205E+03  0.77328363804E+03  0.12500000000E+03 0.  0.
         21    1    1    2  503  502  0.17822931524E+03  0.16813724883E+03 -0.35815371398E+03  0.43394689317E+03  0.00000000000E+00 0. -1.
         21    1    1    2  504  503  0.42120819612E+01  0.33088701171E+02 -0.12316133838E+03  0.12759827213E+03  0.00000000000E+00 0. -1.
<mgrwt>
<rscale>  4 0.28317021E+03</rscale>
<asrwt>0</asrwt>
<pdfrwt beam="1">  1       21 0.10798134E-01 0.28317021E+03</pdfrwt>
<pdfrwt beam="2">  1       21 0.19456013E+00 0.28317021E+03</pdfrwt>
<totfact> 0.96776206E+03</totfact>
</mgrwt>
</event>
<event>
 5    0  0.1531977E+001  0.2644986E+03  0.7546771E-02  0.1104470E+00
         21   -1    0    0  502  501  0.00000000000E+00  0.00000000000E+00  0.11833081875E+03  0.11833081875E+03  0.00000000000E+00 0. -1.
         21   -1    0    0  504  502 -0.00000000000E+00 -0.00000000000E+00 -0.13712529966E+04  0.13712529966E+04  0.00000000000E+00 0.  1.
         25    1    1    2    0    0 -0.49474116313E+02 -0.20778222382E+03 -0.96978425183E+03  0.10008634451E+04  0.12500000000E+03 0.  0.
         21    1    1    2  503  501  0.38371646514E+02  0.23271839535E+03 -0.34243318281E+02  0.23833346311E+03  0.00000000000E+00 0. -1.
         21    1    1    2  504  503  0.11102469799E+02 -0.24936171528E+02 -0.24889460775E+03  0.25038690711E+03  0.00000000000E+00 0.  1.
<mgrwt>
<rscale>  4 0.26449855E+03</rscale>
<asrwt>0</asrwt>
<pdfrwt beam="1">  1       21 0.18204741E-01 0.26449855E+03</pdfrwt>
<pdfrwt beam="2">  1       21 0.21096200E+00 0.26449855E+03</pdfrwt>
<totfact> 0.29549378E+03</totfact>
</mgrwt>
</event>
<event>
 5    0  0.1531977E+001  0.2719921E+03  0.7546771E-02  0.1100145E+00
         21   -1    0    0  502  501  0.00000000000E+00  0.00000000000E+00  0.67495557137E+03  0.67495557137E+03  0.00000000000E+00 0. -1.
         21   -1    0    0  504  502 -0.00000000000E+00 -0.00000000000E+00 -0.45751506188E+03  0.45751506188E+03  0.00000000000E+00 0. -1.
         25    1    1    2    0    0 -0.18148369478E+03  0.23753683474E+03  0.47553190213E+03  0.57542651075E+03  0.12500000000E+03 0.  0.
         21    1    1    2  503  501  0.73025898257E+02 -0.25741871191E+02  0.10038765185E+03  0.12677975545E+03  0.00000000000E+00 0. -1.
         21    1    1    2  504  503  0.10845779652E+03 -0.21179496355E+03 -0.35847904449E+03  0.43026436704E+03  0.00000000000E+00 0. -1.
<mgrwt>
<rscale>  4 0.27199206E+03</rscale>
<asrwt>0</asrwt>
<pdfrwt beam="1">  1       21 0.10383932E+00 0.27199206E+03</pdfrwt>
<pdfrwt beam="2">  1       21 0.70386933E-01 0.27199206E+03</pdfrwt>
<totfact> 0.12861005E+03</totfact>
</mgrwt>
</event>
<event>
 5    0  0.1531977E+001  0.1940518E+03  0.7546771E-02  0.1154857E+00
         21   -1    0    0  503  501  0.00000000000E+00  0.00000000000E+00  0.17369664807E+04  0.17369664807E+04  0.00000000000E+00 0. -1.
         21   -1    0    0  504  502 -0.00000000000E+00 -0.00000000000E+00 -0.70990675101E+03  0.70990675101E+03  0.00000000000E+00 0. -1.
         25    1    1    2    0    0 -0.17668926715E+03  0.11344793185E+03  0.15705068017E+03  0.29048140475E+03  0.12500000000E+03 0.  0.
         21    1    1    2  503  502  0.12109176252E+03 -0.81823900789E+02 -0.63420124780E+03  0.65082224025E+03  0.00000000000E+00 0. -1.
         21    1    1    2  504  501  0.55597504630E+02 -0.31624031061E+02  0.15042102973E+04  0.15055695867E+04  0.00000000000E+00 0. -1.
<mgrwt>
<rscale>  4 0.19405179E+03</rscale>
<asrwt>0</asrwt>
<pdfrwt beam="1">  1       21 0.26722561E+00 0.19405179E+03</pdfrwt>
<pdfrwt beam="2">  1       21 0.10921642E+00 0.19405179E+03</pdfrwt>
<totfact> 0.34968989E+01</totfact>
</mgrwt>
</event>
<event>
 5    0  0.1531977E+001  0.2196898E+03  0.7546771E-02  0.1134114E+00
         21   -1    0    0  502  501  0.00000000000E+00  0.00000000000E+00  0.73072602774E+03  0.73072602774E+03  0.00000000000E+00 0. -1.
         21   -1    0    0  504  502 -0.00000000000E+00 -0.00000000000E+00 -0.37427533992E+03  0.37427533992E+03  0.00000000000E+00 0. -1.
         25    1    1    2    0    0  0.20304704038E+03 -0.25252806140E+02 -0.27277839589E+03  0.36317882384E+03  0.12500000000E+03 0.  0.
         21    1    1    2  503  501 -0.17864598307E+03  0.20070881610E+02  0.67018003285E+03  0.69387210925E+03  0.00000000000E+00 0. -1.
         21    1    1    2  504  503 -0.24401057306E+02  0.51819245301E+01 -0.40950949149E+02  0.47950434572E+02  0.00000000000E+00 0.  1.
<mgrwt>
<rscale>  4 0.21968985E+03</rscale>
<asrwt>0</asrwt>
<pdfrwt beam="1">  1       21 0.11241939E+00 0.21968985E+03</pdfrwt>
<pdfrwt beam="2">  1       21 0.57580822E-01 0.21968985E+03</pdfrwt>
<totfact> 0.17109480E+03</totfact>
</mgrwt>
</event>
<event>
 5    0  0.1531977E+001  0.2453297E+03  0.7546771E-02  0.1116292E+00
         21   -1    0    0  503  501  0.00000000000E+00  0.00000000000E+00  0.35392719651E+02  0.35392719651E+02  0.00000000000E+00 0.  1.
         21   -1    0    0  504  502 -0.00000000000E+00 -0.00000000000E+00 -0.16972975294E+04  0.16972975294E+04  0.00000000000E+00 0. -1.
         25    1    1    2    0    0 -0.61918878150E+02  0.20425680063E+03 -0.98764682040E+03  0.10181483340E+04  0.12500000000E+03 0.  0.
         21    1    1    2  503  502  0.25115962201E+02  0.27547013173E+01 -0.95087931243E+02  0.98387573426E+02  0.00000000000E+00 0. -1.
         21    1    1    2  504  501  0.36802915950E+02 -0.20701150195E+03 -0.57917005811E+03  0.61615434168E+03  0.00000000000E+00 0.  1.
<mgrwt>
<rscale>  4 0.24532971E+03</rscale>
<asrwt>0</asrwt>
<pdfrwt beam="1">  1       21 0.54450349E-02 0.24532971E+03</pdfrwt>
<pdfrwt beam="2">  1       21 0.26112264E+00 0.24532971E+03</pdfrwt>
<totfact> 0.12731121E+04</totfact>
</mgrwt>
</event>
<event>
 5    0  0.1531977E+001  0.2421165E+03  0.7546771E-02  0.1118391E+00
         21   -1    0    0  502  501  0.00000000000E+00  0.00000000000E+00  0.78469259429E+03  0.78469259429E+03  0.00000000000E+00 0.  1.
         21   -1    0    0  504  502 -0.00000000000E+00 -0.00000000000E+00 -0.85667966103E+02  0.85667966103E+02  0.00000000000E+00 0.  1.
         25    1    1    2    0    0  0.21527622761E+03 -0.59805120362E+02  0.44905827450E+03  0.51691279776E+03  0.12500000000E+03 0.  0.
         21    1    1    2  503  501 -0.33759060814E+02 -0.26702486925E+02  0.76996412041E+02  0.88210795611E+02  0.00000000000E+00 0. -1.
         21    1    1    2  504  503 -0.18151716680E+03  0.86507607287E+02  0.17296994165E+03  0.26523696702E+03  0.00000000000E+00 0.  1.
<mgrwt>
<rscale>  4 0.24211650E+03</rscale>
<asrwt>0</asrwt>
<pdfrwt beam="1">  1       21 0.12072193E+00 0.24211650E+03</pdfrwt>
<pdfrwt beam="2">  1       21 0.13179688E-01 0.24211650E+03</pdfrwt>
<totfact> 0.25088859E+04</totfact>
</mgrwt>
</event>
<event>
 5    0  0.1531977E+001  0.2513703E+03  0.7546771E-02  0.1112442E+00
         21   -1    0    0  504  501  0.00000000000E+00  0.00000000000E+00  0.60457595859E+03  0.60457595859E+03  0.00000000000E+00 0.  1.
         21   -1    0    0  501  502 -0.00000000000E+00 -0.00000000000E+00 -0.11713408451E+03  0.11713408451E+03  0.00000000000E+00 0.  1.
         25    1    1    2    0    0 -0.12766743483E+03  0.19165811626E+03  0.17475312613E+03  0.31495311164E+03  0.12500000000E+03 0.  0.
         21    1    1    2  503  502 -0.62230878792E+01 -0.33984128018E+02  0.11705051245E+03  0.12204290330E+03  0.00000000000E+00 0. -1.
         21    1    1    2  504  503  0.13389052271E+03 -0.15767398824E+03  0.19563823551E+03  0.28471402816E+03  0.00000000000E+00 0.  1.
<mgrwt>
<rscale>  4 0.25137026E+03</rscale>
<asrwt>0</asrwt>
<pdfrwt beam="1">  1       21 0.93011684E-01 0.25137026E+03</pdfrwt>
<pdfrwt beam="2">  1       21 0.18020629E-01 0.25137026E+03</pdfrwt>
<totfact> 0.26434600E+04</totfact>
</mgrwt>
</event>
<event>
 5    0  0.1531977E+001  0.2940094E+03  0.7546771E-02  0.1088274E+00
         21   -1    0    0  503  501  0.00000000000E+00  0.00000000000E+00  0.15977579832E+04  0.15977579832E+04  0.00000000000E+00 0. -1.
         21   -1    0    0  504  502 -0.00000000000E+00 -0.00000000000E+00 -0.70974571784E+02  0.70974571784E+02  0.00000000000E+00 0. -1.
         25    1    1    2    0    0 -0.55983867844E+02 -0.24080529939E+03  0.35876783991E+03  0.45327778308E+03  0.12500000000E+03 0.  0.
         21    1    1    2  503  502 -0.39569281813E+02 -0.15209833802E+02  0.55319375489E+02  0.69694335580E+02  0.00000000000E+00 0.  1.
         21    1    1    2  504  501  0.95553149657E+02  0.25601513320E+03  0.11126961960E+04  0.11457604364E+04  0.00000000000E+00 0. -1.
<mgrwt>
<rscale>  4 0.29400944E+03</rscale>
<asrwt>0</asrwt>
<pdfrwt beam="1">  1       21 0.24580889E+00 0.29400944E+03</pdfrwt>
<pdfrwt beam="2">  1       21 0.10919166E-01 0.29400944E+03</pdfrwt>
<totfact> 0.44871897E+03</totfact>
</mgrwt>
</event>
<event>
 5    0  0.1531977E+001  0.3162461E+03  0.7546771E-02  0.1077390E+00
         21   -1    0    0  504  501  0.00000000000E+00  0.00000000000E+00  0.68863146050E+02  0.68863146050E+02  0.00000000000E+00 0.  1.
         21   -1    0    0  501  502 -0.00000000000E+00 -0.00000000000E+00 -0.19928993227E+04  0.19928993227E+04  0.00000000000E+00 0.  1.
         25    1    1    2    0    0  0.50955422395E+02 -0.26024935981E+03 -0.83683161722E+03  0.88670081760E+03  0.12500000000E+03 0.  0.
         21    1    1    2  503  502  0.10402397370E+03 -0.26440718723E+02 -0.16378523245E+03  0.19582058390E+03  0.00000000000E+00 0. -1.
         21    1    1    2  504  503 -0.15497939610E+03  0.28669007853E+03 -0.92341932698E+03  0.97924106725E+03  0.00000000000E+00 0.  1.
<mgrwt>
<rscale>  4 0.31624614E+03</rscale>
<asrwt>0</asrwt>
<pdfrwt beam="1">  1       21 0.10594330E-01 0.31624614E+03</pdfrwt>
<pdfrwt beam="2">  1       21 0.30659991E+00 0.31624614E+03</pdfrwt>
<totfact> 0.20295802E+03</totfact>
</mgrwt>
</event>
<event>
 5    0  0.1531977E+001  0.3397262E+03  0.7546771E-02  0.1066913E+00
         21   -1    0    0  504  501  0.00000000000E+00  0.00000000000E+00  0.12463398895E+04  0.12463398895E+04  0.00000000000E+00 0. -1.
         21   -1    0    0  503  502 -0.00000000000E+00 -0.00000000000E+00 -0.17627259857E+03  0.17627259857E+03  0.00000000000E+00 0. -1.
         25    1    1    2    0    0  0.13529197211E+03 -0.34857820624E+03  0.69566946388E+03  0.79961971372E+03  0.12500000000E+03 0.  0.
         21    1    1    2  503  501 -0.20098979027E+02  0.10220512656E+03 -0.52635076776E+02  0.11670607594E+03  0.00000000000E+00 0. -1.
         21    1    1    2  504  502 -0.11519299309E+03  0.24637307968E+03  0.42703290377E+03  0.50628669838E+03  0.00000000000E+00 0. -1.
<mgrwt>
<rscale>  4 0.33972622E+03</rscale>
<asrwt>0</asrwt>
<pdfrwt beam="1">  1       21 0.19174459E+00 0.33972622E+03</pdfrwt>
<pdfrwt beam="2">  1       21 0.27118862E-01 0.33972622E+03</pdfrwt>
<totfact> 0.17563107E+03</totfact>
</mgrwt>
</event>
<event>
 5    0  0.1531977E+001  0.3665468E+03  0.7546771E-02  0.1056021E+00
         21   -1    0    0  502  501  0.00000000000E+00  0.00000000000E+00  0.27482203602E+03  0.27482203602E+03  0.00000000000E+00 0.  1.
         21   -1    0    0  504  502 -0.00000000000E+00 -0.00000000000E+00 -0.73147566827E+03  0.73147566827E+03  0.00000000000E+00 0.  1.
         25    1    1    2    0    0 -0.33935404789E+03 -0.63333210957E+02  0.33559685482E+02  0.36867806813E+03  0.12500000000E+03 0.  0.
         21    1    1    2  503  501 -0.52544565987E+01  0.45656531557E+02 -0.11270017975E+02  0.47319567761E+02  0.00000000000E+00 0.  1.
         21    1    1    2  504  503  0.34460850449E+03  0.17676679400E+02 -0.47894329976E+03  0.59030006840E+03  0.00000000000E+00 0.  1.
<mgrwt>
<rscale>  4 0.36654679E+03</rscale>
<asrwt>0</asrwt>
<pdfrwt beam="1">  1       21 0.42280313E-01 0.36654679E+03</pdfrwt>
<pdfrwt beam="2">  1       21 0.11253472E+00 0.36654679E+03</pdfrwt>
<totfact> 0.29852875E+03</totfact>
</mgrwt>
</event>
<event>
 5    0  0.1531977E+001  0.2689730E+03  0.7546771E-02  0.1101869E+00
         21   -1    0    0  502  501  0.00000000000E+00  0.00000000000E+00  0.76100538240E+03  0.76100538240E+03  0.00000000000E+00 0.  1.
         21   -1    0    0  504  502 -0.00000000000E+00 -0.00000000000E+00 -0.16004707794E+03  0.16004707794E+03  0.00000000000E+00 0.  1.
         25    1    1    2    0    0 -0.20405164028E+03  0.98781600553E+02  0.60038427697E+02  0.26575268448E+03  0.12500000000E+03 0.  0.
         21    1    1    2  503  501  0.20536954920E+03 -0.12634202264E+03  0.56774010746E+03  0.61682070980E+03  0.00000000000E+00 0.  1.
         21    1    1    2  504  503 -0.13179089225E+01  0.27560422089E+02 -0.26820230701E+02  0.38479066056E+02  0.00000000000E+00 0.  1.
<mgrwt>
<rscale>  4 0.26897297E+03</rscale>
<asrwt>0</asrwt>
<pdfrwt beam="1">  1       21 0.11707775E+00 0.26897297E+03</pdfrwt>
<pdfrwt beam="2">  1       21 0.24622628E-01 0.26897297E+03</pdfrwt>
<totfact> 0.83310615E+03</totfact>
</mgrwt>
</event>
<event>
 5    0  0.1531977E+001  0.2416433E+03  0.7546771E-02  0.1118703E+00
         21   -1    0    0  503  501  0.00000000000E+00  0.00000000000E+00  0.70256825070E+03  0.70256825070E+03  0.00000000000E+00 0. -1.
         21   -1    0    0  501  502 -0.00000000000E+00 -0.00000000000E+00 -0.74286144668E+02  0.74286144668E+02  0.00000000000E+00 0. -1.
         25    1    1    2    0    0 -0.64656944824E+02  0.19643309087E+03  0.36046974259E+03  0.43396994715E+03  0.12500000000E+03 0.  0.
         21    1    1    2  503  504  0.32986604994E+02 -0.34758311730E+02  0.44642386537E+02  0.65491976754E+02  0.00000000000E+00 0. -1.
         21    1    1    2  504  502  0.31670339829E+02 -0.16167477914E+03  0.22316997690E+03  0.27739247147E+03  0.00000000000E+00 0. -1.
<mgrwt>
<rscale>  4 0.24164329E+03</rscale>
<asrwt>0</asrwt>
<pdfrwt beam="1">  1       21 0.10808742E+00 0.24164329E+03</pdfrwt>
<pdfrwt beam="2">  1       21 0.11428638E-01 0.24164329E+03</pdfrwt>
<totfact> 0.42569679E+04</totfact>
</mgrwt>
</event>
<event>
 5    0  0.1531977E+001  0.2514672E+03  0.7546771E-02  0.1112381E+00
         21   -1    0    0  502  501  0.00000000000E+00  0.00000000000E+00  0.15273357732E+04  0.15273357732E+04  0.00000000000E+00 0. -1.
         21   -1    0    0  504  502 -0.00000000000E+00 -0.00000000000E+00 -0.10212862967E+03  0.10212862967E+03  0.00000000000E+00 0.  1.
         25    1    1    2    0    0 -0.12558726336E+03 -0.20232722287E+03  0.12849241356E+04  0.13127694010E+04  0.12500000000E+03 0.  0.
         21    1    1    2  503  501 -0.24703837027E+01  0.28153278363E+02  0.90559332787E+02  0.94866762530E+02  0.00000000000E+00 0.  1.
         21    1    1    2  504  503  0.12805764707E+03  0.17417394451E+03  0.49723675140E+02  0.22182823939E+03  0.00000000000E+00 0.  1.
<mgrwt>
<rscale>  4 0.25146723E+03</rscale>
<asrwt>0</asrwt>
<pdfrwt beam="1">  1       21 0.23497472E+00 0.25146723E+03</pdfrwt>
<pdfrwt beam="2">  1       21 0.15712098E-01 0.25146723E+03</pdfrwt>
<totfact> 0.27826834E+03</totfact>
</mgrwt>
</event>
<event>
 5    0  0.1531977E+001  0.2008848E+03  0.7546771E-02  0.1148995E+00
         21   -1    0    0  504  501  0.00000000000E+00  0.00000000000E+00  0.83175461570E+03  0.83175461570E+03  0.00000000000E+00 0.  1.
         21   -1    0    0  503  502 -0.00000000000E+00 -0.00000000000E+00 -0.12114212175E+03  0.12114212175E+03  0.00000000000E+00 0.  1.
         25    1    1    2    0    0 -0.26641314148E+02  0.21181074009E+03  0.76988821403E+02  0.25908652581E+03  0.12500000000E+03 0.  0.
         21    1    1    2  503  501  0.70454814493E+02 -0.65732399604E+02  0.10019847433E+03  0.13901209840E+03  0.00000000000E+00 0.  1.
         21    1    1    2  504  502 -0.43813500344E+02 -0.14607834048E+03  0.53342519821E+03  0.55479811324E+03  0.00000000000E+00 0.  1.
<mgrwt>
<rscale>  4 0.20088476E+03</rscale>
<asrwt>0</asrwt>
<pdfrwt beam="1">  1       21 0.12796225E+00 0.20088476E+03</pdfrwt>
<pdfrwt beam="2">  1       21 0.18637250E-01 0.20088476E+03</pdfrwt>
<totfact> 0.11771500E+04</totfact>
</mgrwt>
</event>
<event>
 5    0  0.1531977E+001  0.3070913E+03  0.7546771E-02  0.1081748E+00
         21   -1    0    0  502  501  0.00000000000E+00  0.00000000000E+00  0.45750094796E+03  0.45750094796E+03  0.00000000000E+00 0.  1.
         21   -1    0    0  504  502 -0.00000000000E+00 -0.00000000000E+00 -0.10160243297E+04  0.10160243297E+04  0.00000000000E+00 0.  1.
         25    1    1    2    0    0  0.18287632167E+03 -0.17211450268E+03  0.26933868960E+03  0.38889006258E+03  0.12500000000E+03 0.  0.
         21    1    1    2  503  501  0.32791460455E+02 -0.10175785257E+02  0.10473692509E+03  0.11022091436E+03  0.00000000000E+00 0. -1.
         21    1    1    2  504  503 -0.21566778212E+03  0.18229028794E+03 -0.93259899642E+03  0.97441430072E+03  0.00000000000E+00 0.  1.
<mgrwt>
<rscale>  4 0.30709133E+03</rscale>
<asrwt>0</asrwt>
<pdfrwt beam="1">  1       21 0.70384761E-01 0.30709133E+03</pdfrwt>
<pdfrwt beam="2">  1       21 0.15631144E+00 0.30709133E+03</pdfrwt>
<totfact> 0.44171183E+02</totfact>
</mgrwt>
</event>
<event>
 5    0  0.1531977E+001  0.2607774E+03  0.7546771E-02  0.1106677E+00
         21   -1    0    0  503  501  0.00000000000E+00  0.00000000000E+00  0.15471429153E+03  0.15471429153E+03  0.00000000000E+00 0. -1.
         21   -1    0    0  504  502 -0.00000000000E+00 -0.00000000000E+00 -0.87439279612E+03  0.87439279612E+03  0.00000000000E+00 0. -1.
         25    1    1    2    0    0 -0.83942733257E+01  0.24597857066E+03 -0.27947081289E+02  0.27745623151E+03  0.12500000000E+03 0.  0.
         21    1    1    2  503  502  0.16217223059E+01 -0.22638523936E+03 -0.69474633153E+03  0.73070197191E+03  0.00000000000E+00 0. -1.
         21    1    1    2  504  501  0.67725510198E+01 -0.19593331305E+02  0.30149082322E+01  0.20948884232E+02  0.00000000000E+00 0. -1.
<mgrwt>
<rscale>  4 0.26077744E+03</rscale>
<asrwt>0</asrwt>
<pdfrwt beam="1">  1       21 0.23802199E-01 0.26077744E+03</pdfrwt>
<pdfrwt beam="2">  1       21 0.13452197E+00 0.26077744E+03</pdfrwt>
<totfact> 0.62860456E+03</totfact>
</mgrwt>
</event>
<event>
 5    0  0.1531977E+001  0.2741108E+03  0.7546771E-02  0.1098950E+00
         21   -1    0    0  504  501  0.00000000000E+00  0.00000000000E+00  0.12977313988E+04  0.12977313988E+04  0.00000000000E+00 0. -1.
         21   -1    0    0  503  502 -0.00000000000E+00 -0.00000000000E+00 -0.90341329407E+02  0.90341329407E+02  0.00000000000E+00 0. -1.
         25    1    1    2    0    0 -0.24227993169E+03  0.68670750114E+02  0.38130082006E+03  0.47374101849E+03  0.12500000000E+03 0.  0.
         21    1    1    2  503  501  0.22360642655E+03 -0.82394452427E+02  0.27970204935E+03  0.36745328437E+03  0.00000000000E+00 0. -1.
         21    1    1    2  504  502  0.18673505136E+02  0.13723702313E+02  0.54638720001E+03  0.54687842537E+03  0.00000000000E+00 0.  1.
<mgrwt>
<rscale>  4 0.27411084E+03</rscale>
<asrwt>0</asrwt>
<pdfrwt beam="1">  1       21 0.19965097E+00 0.27411084E+03</pdfrwt>
<pdfrwt beam="2">  1       21 0.13898667E-01 0.27411084E+03</pdfrwt>
<totfact> 0.57089570E+03</totfact>
</mgrwt>
</event>
<event>
 5    0  0.1531977E+001  0.1926143E+03  0.7546771E-02  0.1156124E+00
         21   -1    0    0  502  501  0.00000000000E+00  0.00000000000E+00  0.91909383596E+02  0.91909383596E+02  0.00000000000E+00 0. -1.
         21   -1    0    0  504  502 -0.00000000000E+00 -0.00000000000E+00 -0.11962490750E+04  0.11962490750E+04  0.00000000000E+00 0. -1.
         25    1    1    2    0    0  0.47076079956E+02 -0.21006444350E+03 -0.67372172217E+03  0.71824034045E+03  0.12500000000E+03 0.  0.
         21    1    1    2  503  501 -0.79684585151E+02  0.11559398046E+03 -0.13558140950E+02  0.14105114184E+03  0.00000000000E+00 0. -1.
         21    1    1    2  504  503  0.32608505195E+02  0.94470463041E+02 -0.41705982830E+03  0.42886697633E+03  0.00000000000E+00 0. -1.
<mgrwt>
<rscale>  4 0.19261430E+03</rscale>
<asrwt>0</asrwt>
<pdfrwt beam="1">  1       21 0.14139905E-01 0.19261430E+03</pdfrwt>
<pdfrwt beam="2">  1       21 0.18403832E+00 0.19261430E+03</pdfrwt>
<totfact> 0.74627344E+03</totfact>
</mgrwt>
</event>
<event>
 5    0  0.1531977E+001  0.2929438E+03  0.7546771E-02  0.1088822E+00
         21   -1    0    0  504  501  0.00000000000E+00  0.00000000000E+00  0.51288168159E+03  0.51288168159E+03  0.00000000000E+00 0.  1.
         21   -1    0    0  503  502 -0.00000000000E+00 -0.00000000000E+00 -0.91364148717E+03  0.91364148717E+03  0.00000000000E+00 0.  1.
         25    1    1    2    0    0  0.25217199323E+03 -0.32127395158E+02 -0.78355001645E+03  0.83318576078E+03  0.12500000000E+03 0.  0.
         21    1    1    2  503  501  0.12652296086E+02  0.53217735874E+02 -0.57338559564E+02  0.79245936304E+02  0.00000000000E+00 0. -1.
         21    1    1    2  504  502 -0.26482428932E+03 -0.21090340716E+02  0.44012877043E+03  0.51409147167E+03  0.00000000000E+00 0.  1.
<mgrwt>
<rscale>  4 0.29294380E+03</rscale>
<asrwt>0</asrwt>
<pdfrwt beam="1">  1       21 0.78904874E-01 0.29294380E+03</pdfrwt>
<pdfrwt beam="2">  1       21 0.14056023E+00 0.29294380E+03</pdfrwt>
<totfact> 0.45791318E+02</totfact>
</mgrwt>
</event>
<event>
 5    0  0.1531977E+001  0.2538312E+03  0.7546771E-02  0.1110907E+00
         21   -1    0    0  504  501  0.00000000000E+00  0.00000000000E+00  0.13588002258E+03  0.13588002258E+03  0.00000000000E+00 0. -1.
         21   -1    0    0  503  502 -0.00000000000E+00 -0.00000000000E+00 -0.11208243403E+04  0.11208243403E+04  0.00000000000E+00 0. -1.
         25    1    1    2    0    0 -0.14228055596E+03  0.19456310480E+03 -0.79987980280E+02  0.28305765375E+03  0.12500000000E+03 0.  0.
         21    1    1    2  503  501  0.14818578298E+03 -0.16062149481E+03 -0.91256310468E+03  0.93836544635E+03  0.00000000000E+00 0. -1.
         21    1    1    2  504  502 -0.59052270204E+01 -0.33941609991E+02  0.76067672490E+01  0.35281262774E+02  0.00000000000E+00 0. -1.
<mgrwt>
<rscale>  4 0.25383124E+03</rscale>
<asrwt>0</asrwt>
<pdfrwt beam="1">  1       21 0.20904619E-01 0.25383124E+03</pdfrwt>
<pdfrwt beam="2">  1       21 0.17243451E+00 0.25383124E+03</pdfrwt>
<totfact> 0.41517079E+03</totfact>
</mgrwt>
</event>
<event>
 5    0  0.1531977E+001  0.2667705E+03  0.7546771E-02  0.1103142E+00
         21   -1    0    0  502  501  0.00000000000E+00  0.00000000000E+00  0.34456373129E+03  0.34456373129E+03  0.00000000000E+00 0. -1.
         21   -1    0    0  504  502 -0.00000000000E+00 -0.00000000000E+00 -0.34928792065E+03  0.34928792065E+03  0.00000000000E+00 0. -1.
         25    1    1    2    0    0 -0.18255153440E+03  0.11347573594E+03  0.10517390442E+03  0.26997843530E+03  0.12500000000E+03 0.  0.
         21    1    1    2  503  501 -0.43602186713E+02 -0.25164487906E+02  0.94127290726E+02  0.10674431599E+03  0.00000000000E+00 0.  1.
         21    1    1    2  504  503  0.22615372111E+03 -0.88311248032E+02 -0.20402538450E+03  0.31712890064E+03  0.00000000000E+00 0. -1.
<mgrwt>
<rscale>  4 0.26677050E+03</rscale>
<asrwt>0</asrwt>
<pdfrwt beam="1">  1       21 0.53009805E-01 0.26677050E+03</pdfrwt>
<pdfrwt beam="2">  1       21 0.53736603E-01 0.26677050E+03</pdfrwt>
<totfact> 0.10568691E+04</totfact>
</mgrwt>
</event>
<event>
 5    0  0.1531977E+001  0.2982137E+03  0.7546771E-02  0.1086137E+00
         21   -1    0    0  503  501  0.00000000000E+00  0.00000000000E+00  0.95289324047E+03  0.95289324047E+03  0.00000000000E+00 0. -1.
         21   -1    0    0  501  502 -0.00000000000E+00 -0.00000000000E+00 -0.22642487402E+03  0.22642487402E+03  0.00000000000E+00 0. -1.
         25    1    1    2    0    0  0.13294100588E+03 -0.23477696043E+03 -0.42560165445E+02  0.30038292208E+03  0.12500000000E+03 0.  0.
         21    1    1    2  503  504 -0.23413775776E+03  0.17981311941E+03  0.64687762128E+03  0.71105829890E+03  0.00000000000E+00 0. -1.
         21    1    1    2  504  502  0.10119675189E+03  0.54963841021E+02  0.12215091061E+03  0.16787689351E+03  0.00000000000E+00 0.  1.
<mgrwt>
<rscale>  4 0.29821367E+03</rscale>
<asrwt>0</asrwt>
<pdfrwt beam="1">  1       21 0.14659896E+00 0.29821367E+03</pdfrwt>
<pdfrwt beam="2">  1       21 0.34834596E-01 0.29821367E+03</pdfrwt>
<totfact> 0.23283561E+03</totfact>
</mgrwt>
</event>
<event>
 5    0  0.1531977E+001  0.2505441E+03  0.7546771E-02  0.1112961E+00
         21   -1    0    0  503  501  0.00000000000E+00  0.00000000000E+00  0.13829130941E+03  0.13829130941E+03  0.00000000000E+00 0.  1.
         21   -1    0    0  501  502 -0.00000000000E+00 -0.00000000000E+00 -0.50352214791E+03  0.50352214791E+03  0.00000000000E+00 0.  1.
         25    1    1    2    0    0 -0.21292106648E+03 -0.33646410352E+02 -0.93897648968E+02  0.26628787048E+03  0.12500000000E+03 0.  0.
         21    1    1    2  503  504  0.20958948635E+03  0.61358214681E+02 -0.27043102615E+03  0.34759965938E+03  0.00000000000E+00 0.  1.
         21    1    1    2  504  502  0.33315801300E+01 -0.27711804329E+02 -0.90216338290E+00  0.27925927453E+02  0.00000000000E+00 0.  1.
<mgrwt>
<rscale>  4 0.25054410E+03</rscale>
<asrwt>0</asrwt>
<pdfrwt beam="1">  1       21 0.21275586E-01 0.25054410E+03</pdfrwt>
<pdfrwt beam="2">  1       21 0.77464944E-01 0.25054410E+03</pdfrwt>
<totfact> 0.29519785E+04</totfact>
</mgrwt>
</event>
<event>
 5    0  0.1531977E+001  0.2326090E+03  0.7546771E-02  0.1124817E+00
         21   -1    0    0  504  501  0.00000000000E+00  0.00000000000E+00  0.53644914270E+03  0.53644914270E+03  0.00000000000E+00 0. -1.
         21   -1    0    0  503  502 -0.00000000000E+00 -0.00000000000E+00 -0.14141004108E+03  0.14141004108E+03  0.00000000000E+00 0. -1.
         25    1    1    2    0    0  0.15162235655E+03  0.18217230702E+03  0.18997699243E+03  0.32846970348E+03  0.12500000000E+03 0.  0.
         21    1    1    2  503  501 -0.12310360815E+03 -0.12799436176E+03  0.52785999395E+02  0.18526580017E+03  0.00000000000E+00 0. -1.
         21    1    1    2  504  502 -0.28518748403E+02 -0.54177945263E+02  0.15227610979E+03  0.16412368012E+03  0.00000000000E+00 0. -1.
<mgrwt>
<rscale>  4 0.23260904E+03</rscale>
<asrwt>0</asrwt>
<pdfrwt beam="1">  1       21 0.82530637E-01 0.23260904E+03</pdfrwt>
<pdfrwt beam="2">  1       21 0.21755391E-01 0.23260904E+03</pdfrwt>
<totfact> 0.24713829E+04</totfact>
</mgrwt>
</event>
<event>
 5    0  0.1531977E+001  0.5570949E+03  0.7546771E-02  0.9998650E-01
         21   -1    0    0  504  501  0.00000000000E+00  0.00000000000E+00  0.21273332333E+04  0.21273332333E+04  0.00000000000E+00 0.  1.
         21   -1    0    0  503  502 -0.00000000000E+00 -0.00000000000E+00 -0.30472483255E+03  0.30472483255E+03  0.00000000000E+00 0.  1.
         25    1    1    2    0    0 -0.54797432876E+03 -0.23348641503E+01  0.71483292542E+02  0.56658289569E+03  0.12500000000E+03 0.  0.
         21    1    1    2  503  501  0.33162391408E+02 -0.92683693316E+02  0.13786746935E+03  0.16940321814E+03  0.00000000000E+00 0.  1.
         21    1    1    2  504  502  0.51481193735E+03  0.95018557466E+02  0.16132576389E+04  0.16960719521E+04  0.00000000000E+00 0.  1.
<mgrwt>
<rscale>  4 0.55709486E+03</rscale>
<asrwt>0</asrwt>
<pdfrwt beam="1">  1       21 0.32728203E+00 0.55709486E+03</pdfrwt>
<pdfrwt beam="2">  1       21 0.46880745E-01 0.55709486E+03</pdfrwt>
<totfact> 0.73991785E+01</totfact>
</mgrwt>
</event>
<event>
 5    0  0.1531977E+001  0.1867745E+03  0.7546771E-02  0.1161403E+00
         21   -1    0    0  502  501  0.00000000000E+00  0.00000000000E+00  0.11237429817E+04  0.11237429817E+04  0.00000000000E+00 0.  1.
         21   -1    0    0  504  502 -0.00000000000E+00 -0.00000000000E+00 -0.36332440394E+03  0.36332440394E+03  0.00000000000E+00 0. -1.
         25    1    1    2    0    0 -0.19190958577E+03  0.93837837934E+02  0.15683863914E+03  0.29301567819E+03  0.12500000000E+03 0.  0.
         21    1    1    2  503  501  0.59401567838E+02 -0.72417589308E+02  0.88094721586E+03  0.88591243960E+03  0.00000000000E+00 0.  1.
         21    1    1    2  504  503  0.13250801793E+03 -0.21420248626E+02 -0.27736727728E+03  0.30813926782E+03  0.00000000000E+00 0. -1.
<mgrwt>
<rscale>  4 0.18677445E+03</rscale>
<asrwt>0</asrwt>
<pdfrwt beam="1">  1       21 0.17288353E+00 0.18677445E+03</pdfrwt>
<pdfrwt beam="2">  1       21 0.55896063E-01 0.18677445E+03</pdfrwt>
<totfact> 0.61822544E+02</totfact>
</mgrwt>
</event>
<event>
 5    0  0.1531977E+001  0.3566553E+03  0.7546771E-02  0.1059916E+00
         21   -1    0    0  502  501  0.00000000000E+00  0.00000000000E+00  0.54621480317E+03  0.54621480317E+03  0.00000000000E+00 0.  1.
         21   -1    0    0  504  502 -0.00000000000E+00 -0.00000000000E+00 -0.81688484262E+03  0.81688484262E+03  0.00000000000E+00 0.  1.
         25    1    1    2    0    0 -0.20644665913E+03  0.26259816601E+03 -0.71757437509E+03  0.80132141095E+03  0.12500000000E+03 0.  0.
         21    1    1    2  503  501  0.19444172029E+03 -0.24566499703E+03  0.43950069870E+03  0.53974043531E+03  0.00000000000E+00 0.  1.
         21    1    1    2  504  503  0.12004938840E+02 -0.16933168977E+02  0.74036369463E+01  0.22037799531E+02  0.00000000000E+00 0.  1.
<mgrwt>
<rscale>  4 0.35665532E+03</rscale>
<asrwt>0</asrwt>
<pdfrwt beam="1">  1       21 0.84033046E-01 0.35665532E+03</pdfrwt>
<pdfrwt beam="2">  1       21 0.12567459E+00 0.35665532E+03</pdfrwt>
<totfact> 0.50736902E+02</totfact>
</mgrwt>
</event>
<event>
 5    0  0.1531977E+001  0.2451921E+03  0.7546771E-02  0.1116382E+00
         21   -1    0    0  504  501  0.00000000000E+00  0.00000000000E+00  0.78568979942E+03  0.78568979942E+03  0.00000000000E+00 0.  1.
         21   -1    0    0  503  502 -0.00000000000E+00 -0.00000000000E+00 -0.24382259597E+03  0.24382259597E+03  0.00000000000E+00 0. -1.
         25    1    1    2    0    0  0.19911807199E+03  0.69614509323E+02  0.70658447599E+03  0.74791764802E+03  0.12500000000E+03 0.  0.
         21    1    1    2  503  501 -0.15391139654E+03 -0.73716761362E+02 -0.16327215293E+03  0.23617932766E+03  0.00000000000E+00 0. -1.
         21    1    1    2  504  502 -0.45206675454E+02  0.41022520394E+01 -0.14451196111E+01  0.45415419717E+02  0.00000000000E+00 0. -1.
<mgrwt>
<rscale>  4 0.24519214E+03</rscale>
<asrwt>0</asrwt>
<pdfrwt beam="1">  1       21 0.12087535E+00 0.24519214E+03</pdfrwt>
<pdfrwt beam="2">  1       21 0.37511169E-01 0.24519214E+03</pdfrwt>
<totfact> 0.34125689E+03</totfact>
</mgrwt>
</event>
<event>
 5    0  0.1531977E+001  0.2976560E+03  0.7546771E-02  0.1086418E+00
         21   -1    0    0  502  501  0.00000000000E+00  0.00000000000E+00  0.72392957808E+03  0.72392957808E+03  0.00000000000E+00 0. -1.
         21   -1    0    0  504  502 -0.00000000000E+00 -0.00000000000E+00 -0.31518071399E+03  0.31518071399E+03  0.00000000000E+00 0. -1.
         25    1    1    2    0    0 -0.30040083183E+03  0.22526020042E+03  0.34163018540E+03  0.52279919782E+03  0.12500000000E+03 0.  0.
         21    1    1    2  503  501  0.17809528406E+03 -0.12375320401E+03  0.21051735041E+03  0.30224218854E+03  0.00000000000E+00 0. -1.
         21    1    1    2  504  503  0.12230554777E+03 -0.10150699640E+03 -0.14339867173E+03  0.21406890570E+03  0.00000000000E+00 0. -1.
<mgrwt>
<rscale>  4 0.29765597E+03</rscale>
<asrwt>0</asrwt>
<pdfrwt beam="1">  1       21 0.11137378E+00 0.29765597E+03</pdfrwt>
<pdfrwt beam="2">  1       21 0.48489341E-01 0.29765597E+03</pdfrwt>
<totfact> 0.23850516E+03</totfact>
</mgrwt>
</event>
<event>
 5    0  0.1531977E+001  0.2287469E+03  0.7546771E-02  0.1127525E+00
         21   -1    0    0  504  501  0.00000000000E+00  0.00000000000E+00  0.60210680079E+03  0.60210680079E+03  0.00000000000E+00 0.  1.
         21   -1    0    0  503  502 -0.00000000000E+00 -0.00000000000E+00 -0.11216077312E+03  0.11216077312E+03  0.00000000000E+00 0.  1.
         25    1    1    2    0    0  0.14647374875E+02  0.22052734742E+03  0.25295437924E+03  0.35841006477E+03  0.12500000000E+03 0.  0.
         21    1    1    2  503  501 -0.56664514562E+02 -0.16972248107E+03  0.10283728974E+03  0.20637852590E+03  0.00000000000E+00 0.  1.
         21    1    1    2  504  502  0.42017139687E+02 -0.50804866354E+02  0.13415435869E+03  0.14947898323E+03  0.00000000000E+00 0. -1.
<mgrwt>
<rscale>  4 0.22874694E+03</rscale>
<asrwt>0</asrwt>
<pdfrwt beam="1">  1       21 0.92631814E-01 0.22874694E+03</pdfrwt>
<pdfrwt beam="2">  1       21 0.17255504E-01 0.22874694E+03</pdfrwt>
<totfact> 0.29243479E+04</totfact>
</mgrwt>
</event>
<event>
 5    0  0.1531977E+001  0.1751382E+03  0.7546771E-02  0.1172593E+00
         21   -1    0    0  503  501  0.00000000000E+00  0.00000000000E+00  0.19935727689E+03  0.19935727689E+03  0.00000000000E+00 0. -1.
         21   -1    0    0  504  502 -0.00000000000E+00 -0.00000000000E+00 -0.11169245017E+04  0.11169245017E+04  0.00000000000E+00 0.  1.
         25    1    1    2    0    0 -0.78512003875E+02 -0.18490130695E+03  0.18141889496E+02  0.23729044696E+03  0.12500000000E+03 0.  0.
         21    1    1    2  503  502  0.99473556771E+01  0.12025701848E+03 -0.97092330555E+03  0.97839295053E+03  0.00000000000E+00 0.  1.
         21    1    1    2  504  501  0.68564648198E+02  0.64644288470E+02  0.35214191247E+02  0.10059838110E+03  0.00000000000E+00 0. -1.
<mgrwt>
<rscale>  4 0.17513816E+03</rscale>
<asrwt>0</asrwt>
<pdfrwt beam="1">  1       21 0.30670350E-01 0.17513816E+03</pdfrwt>
<pdfrwt beam="2">  1       21 0.17183454E+00 0.17513816E+03</pdfrwt>
<totfact> 0.21524529E+03</totfact>
</mgrwt>
</event>
<event>
 5    0  0.1531977E+001  0.2897114E+03  0.7546771E-02  0.1090500E+00
         21   -1    0    0  503  501  0.00000000000E+00  0.00000000000E+00  0.74675240694E+03  0.74675240694E+03  0.00000000000E+00 0. -1.
         21   -1    0    0  504  502 -0.00000000000E+00 -0.00000000000E+00 -0.19522730627E+03  0.19522730627E+03  0.00000000000E+00 0. -1.
         25    1    1    2    0    0 -0.22639826342E+03 -0.48901314745E+02  0.34817764867E+03  0.43646327142E+03  0.12500000000E+03 0.  0.
         21    1    1    2  503  502  0.26698309416E+03  0.44837041924E+02 -0.26557515755E+02  0.27202138617E+03  0.00000000000E+00 0. -1.
         21    1    1    2  504  501 -0.40584830733E+02  0.40642728212E+01  0.22990496775E+03  0.23349505561E+03  0.00000000000E+00 0. -1.
<mgrwt>
<rscale>  4 0.28971137E+03</rscale>
<asrwt>0</asrwt>
<pdfrwt beam="1">  1       21 0.11488498E+00 0.28971137E+03</pdfrwt>
<pdfrwt beam="2">  1       21 0.30034970E-01 0.28971137E+03</pdfrwt>
<totfact> 0.58663621E+03</totfact>
</mgrwt>
</event>
<event>
 5    0  0.1531977E+001  0.2393314E+03  0.7546771E-02  0.1120239E+00
         21   -1    0    0  502  501  0.00000000000E+00  0.00000000000E+00  0.70738152145E+03  0.70738152145E+03  0.00000000000E+00 0. -1.
         21   -1    0    0  504  502 -0.00000000000E+00 -0.00000000000E+00 -0.26149588670E+03  0.26149588670E+03  0.00000000000E+00 0. -1.
         25    1    1    2    0    0  0.26188723178E+03 -0.37513323981E+02  0.42595088434E+03  0.51677009155E+03  0.12500000000E+03 0.  0.
         21    1    1    2  503  501 -0.12386135683E+03  0.12104233632E+03  0.16199794278E+03  0.23714176427E+03  0.00000000000E+00 0. -1.
         21    1    1    2  504  503 -0.13802587496E+03 -0.83529012339E+02 -0.14206319238E+03  0.21496555233E+03  0.00000000000E+00 0. -1.
<mgrwt>
<rscale>  4 0.23933142E+03</rscale>
<asrwt>0</asrwt>
<pdfrwt beam="1">  1       21 0.10882793E+00 0.23933142E+03</pdfrwt>
<pdfrwt beam="2">  1       21 0.40230137E-01 0.23933142E+03</pdfrwt>
<totfact> 0.38503639E+03</totfact>
</mgrwt>
</event>
<event>
 5    0  0.1531977E+001  0.2215049E+03  0.7546771E-02  0.1132766E+00
         21   -1    0    0  504  501  0.00000000000E+00  0.00000000000E+00  0.15929484474E+04  0.15929484474E+04  0.00000000000E+00 0.  1.
         21   -1    0    0  503  502 -0.00000000000E+00 -0.00000000000E+00 -0.35416766022E+03  0.35416766022E+03  0.00000000000E+00 0. -1.
         25    1    1    2    0    0  0.11841522028E+03  0.18860265912E+03  0.95880711215E+03  0.99223445099E+03  0.12500000000E+03 0.  0.
         21    1    1    2  503  501 -0.82610481821E+01 -0.73094599836E+02 -0.32293299679E+03  0.33120505107E+03  0.00000000000E+00 0. -1.
         21    1    1    2  504  502 -0.11015417210E+03 -0.11550805928E+03  0.60290667179E+03  0.62367660552E+03  0.00000000000E+00 0.  1.
<mgrwt>
<rscale>  4 0.22150489E+03</rscale>
<asrwt>0</asrwt>
<pdfrwt beam="1">  1       21 0.24506899E+00 0.22150489E+03</pdfrwt>
<pdfrwt beam="2">  1       21 0.54487333E-01 0.22150489E+03</pdfrwt>
<totfact> 0.21763975E+02</totfact>
</mgrwt>
</event>
<event>
 5    0  0.1531977E+001  0.2438000E+03  0.7546771E-02  0.1117287E+00
         21   -1    0    0  502  501  0.00000000000E+00  0.00000000000E+00  0.11934363811E+03  0.11934363811E+03  0.00000000000E+00 0.  1.
         21   -1    0    0  504  502 -0.00000000000E+00 -0.00000000000E+00 -0.25652847794E+04  0.25652847794E+04  0.00000000000E+00 0.  1.
         25    1    1    2    0    0  0.26375535063E+03 -0.19443710772E+03 -0.31911285587E+03  0.47416314558E+03  0.12500000000E+03 0.  0.
         21    1    1    2  503  501 -0.84472868024E+02  0.10146003981E+03 -0.81417673923E+02  0.15510848699E+03  0.00000000000E+00 0.  1.
         21    1    1    2  504  503 -0.17928248261E+03  0.92977067916E+02 -0.20454106115E+04  0.20553567850E+04  0.00000000000E+00 0.  1.
<mgrwt>
<rscale>  4 0.24380003E+03</rscale>
<asrwt>0</asrwt>
<pdfrwt beam="1">  1       21 0.18360559E-01 0.24380003E+03</pdfrwt>
<pdfrwt beam="2">  1       21 0.39465922E+00 0.24380003E+03</pdfrwt>
<totfact> 0.23546295E+02</totfact>
</mgrwt>
</event>
<event>
 5    0  0.1531977E+001  0.2707053E+03  0.7546771E-02  0.1100877E+00
         21   -1    0    0  502  501  0.00000000000E+00  0.00000000000E+00  0.36102854747E+03  0.36102854747E+03  0.00000000000E+00 0. -1.
         21   -1    0    0  504  502 -0.00000000000E+00 -0.00000000000E+00 -0.25022302045E+03  0.25022302045E+03  0.00000000000E+00 0. -1.
         25    1    1    2    0    0 -0.23378525182E+00 -0.25845186751E+03  0.10528148295E+03  0.30578851046E+03  0.12500000000E+03 0.  0.
         21    1    1    2  503  501 -0.59959970067E+00  0.22483511865E+03  0.67673359488E+02  0.23479964584E+03  0.00000000000E+00 0. -1.
         21    1    1    2  504  503  0.83338495249E+00  0.33616748859E+02 -0.62149315428E+02  0.70663411625E+02  0.00000000000E+00 0.  1.
<mgrwt>
<rscale>  4 0.27070532E+03</rscale>
<asrwt>0</asrwt>
<pdfrwt beam="1">  1       21 0.55542854E-01 0.27070532E+03</pdfrwt>
<pdfrwt beam="2">  1       21 0.38495849E-01 0.27070532E+03</pdfrwt>
<totfact> 0.19077410E+04</totfact>
</mgrwt>
</event>
<event>
 5    0  0.1531977E+001  0.2404086E+03  0.7546771E-02  0.1119521E+00
         21   -1    0    0  503  501  0.00000000000E+00  0.00000000000E+00  0.15929503028E+04  0.15929503028E+04  0.00000000000E+00 0.  1.
         21   -1    0    0  504  502 -0.00000000000E+00 -0.00000000000E+00 -0.42558964778E+02  0.42558964778E+02  0.00000000000E+00 0.  1.
         25    1    1    2    0    0  0.10209686988E+03 -0.17817828982E+03  0.12161565839E+04  0.12396907317E+04  0.12500000000E+03 0.  0.
         21    1    1    2  503  502 -0.99398580968E+02  0.13672022252E+03  0.28541207919E+03  0.33171154953E+03  0.00000000000E+00 0.  1.
         21    1    1    2  504  501 -0.26982889083E+01  0.41458067298E+02  0.48822674977E+02  0.64106986351E+02  0.00000000000E+00 0.  1.
<mgrwt>
<rscale>  4 0.24040856E+03</rscale>
<asrwt>0</asrwt>
<pdfrwt beam="1">  1       21 0.24506923E+00 0.24040856E+03</pdfrwt>
<pdfrwt beam="2">  1       21 0.65475343E-02 0.24040856E+03</pdfrwt>
<totfact> 0.11589705E+04</totfact>
</mgrwt>
</event>
<event>
 5    0  0.1531977E+001  0.3710896E+03  0.7546771E-02  0.1054277E+00
         21   -1    0    0  503  501  0.00000000000E+00  0.00000000000E+00  0.15355655065E+04  0.15355655065E+04  0.00000000000E+00 0.  1.
         21   -1    0    0  504  502 -0.00000000000E+00 -0.00000000000E+00 -0.17337589708E+03  0.17337589708E+03  0.00000000000E+00 0. -1.
         25    1    1    2    0    0 -0.30958526507E+03 -0.54684019682E+02  0.93562173662E+03  0.99491025344E+03  0.12500000000E+03 0.  0.
         21    1    1    2  503  502  0.35691467904E+03 -0.64245187092E+02  0.12028721721E+03  0.38207924152E+03  0.00000000000E+00 0. -1.
         21    1    1    2  504  501 -0.47329413966E+02  0.11892920677E+03  0.30628065563E+03  0.33195190866E+03  0.00000000000E+00 0. -1.
<mgrwt>
<rscale>  4 0.37108955E+03</rscale>
<asrwt>0</asrwt>
<pdfrwt beam="1">  1       21 0.23624084E+00 0.37108955E+03</pdfrwt>
<pdfrwt beam="2">  1       21 0.26673216E-01 0.37108955E+03</pdfrwt>
<totfact> 0.92249920E+02</totfact>
</mgrwt>
</event>
<event>
 5    0  0.1531977E+001  0.2522905E+03  0.7546771E-02  0.1111866E+00
         21   -1    0    0  502  501  0.00000000000E+00  0.00000000000E+00  0.21285361179E+03  0.21285361179E+03  0.00000000000E+00 0.  1.
         21   -1    0    0  504  502 -0.00000000000E+00 -0.00000000000E+00 -0.39336163804E+03  0.39336163804E+03  0.00000000000E+00 0.  1.
         25    1    1    2    0    0 -0.16498854272E+03 -0.11749242160E+03  0.37481141381E+02  0.24094714010E+03  0.12500000000E+03 0.  0.
         21    1    1    2  503  501 -0.20775270620E+02 -0.83613556826E+01  0.25647561789E+02  0.34048811490E+02  0.00000000000E+00 0. -1.
         21    1    1    2  504  503  0.18576381334E+03  0.12585377729E+03 -0.24363672942E+03  0.33121929824E+03  0.00000000000E+00 0.  1.
<mgrwt>
<rscale>  4 0.25229050E+03</rscale>
<asrwt>0</asrwt>
<pdfrwt beam="1">  1       21 0.32746709E-01 0.25229050E+03</pdfrwt>
<pdfrwt beam="2">  1       21 0.60517175E-01 0.25229050E+03</pdfrwt>
<totfact> 0.22119080E+04</totfact>
</mgrwt>
</event>
<event>
 5    0  0.1531977E+001  0.3186800E+03  0.7546771E-02  0.1076258E+00
         21   -1    0    0  503  501  0.00000000000E+00  0.00000000000E+00  0.70752906842E+03  0.70752906842E+03  0.00000000000E+00 0.  1.
         21   -1    0    0  501  502 -0.00000000000E+00 -0.00000000000E+00 -0.38131533163E+03  0.38131533163E+03  0.00000000000E+00 0. -1.
         25    1    1    2    0    0  0.17097240240E+03 -0.24359882522E+03 -0.26503769364E+03  0.41766245831E+03  0.12500000000E+03 0.  0.
         21    1    1    2  503  504 -0.39989740981E+02  0.19527280469E+02  0.32548468602E+02  0.55135259812E+02  0.00000000000E+00 0.  1.
         21    1    1    2  504  502 -0.13098266142E+03  0.22407154475E+03  0.55870296183E+03  0.61604668193E+03  0.00000000000E+00 0.  1.
<mgrwt>
<rscale>  4 0.31867998E+03</rscale>
<asrwt>0</asrwt>
<pdfrwt beam="1">  1       21 0.10885063E+00 0.31867998E+03</pdfrwt>
<pdfrwt beam="2">  1       21 0.58663897E-01 0.31867998E+03</pdfrwt>
<totfact> 0.16612836E+03</totfact>
</mgrwt>
</event>
<event>
 5    0  0.1531977E+001  0.2030223E+03  0.7546771E-02  0.1147214E+00
         21   -1    0    0  503  501  0.00000000000E+00  0.00000000000E+00  0.55656027379E+03  0.55656027379E+03  0.00000000000E+00 0.  1.
         21   -1    0    0  504  502 -0.00000000000E+00 -0.00000000000E+00 -0.12345513574E+03  0.12345513574E+03  0.00000000000E+00 0.  1.
         25    1    1    2    0    0 -0.17787765980E+03  0.99995214026E+02  0.34814698321E+03  0.42245807674E+03  0.12500000000E+03 0.  0.
         21    1    1    2  503  502  0.11239601800E+03 -0.10229982672E+03  0.21938184381E+01  0.15199648762E+03  0.00000000000E+00 0.  1.
         21    1    1    2  504  501  0.65481641804E+02  0.23046126988E+01  0.82764336402E+02  0.10556084517E+03  0.00000000000E+00 0. -1.
<mgrwt>
<rscale>  4 0.20302231E+03</rscale>
<asrwt>0</asrwt>
<pdfrwt beam="1">  1       21 0.85624656E-01 0.20302231E+03</pdfrwt>
<pdfrwt beam="2">  1       21 0.18993098E-01 0.20302231E+03</pdfrwt>
<totfact> 0.29773177E+04</totfact>
</mgrwt>
</event>
<event>
 5    0  0.1531977E+001  0.2290221E+03  0.7546771E-02  0.1127330E+00
         21   -1    0    0  504  501  0.00000000000E+00  0.00000000000E+00  0.12526219321E+03  0.12526219321E+03  0.00000000000E+00 0.  1.
         21   -1    0    0  503  502 -0.00000000000E+00 -0.00000000000E+00 -0.52871384144E+03  0.52871384144E+03  0.00000000000E+00 0.  1.
         25    1    1    2    0    0  0.25552210121E+02  0.20220303515E+03 -0.27296010368E+03  0.36286526572E+03  0.12500000000E+03 0.  0.
         21    1    1    2  503  501  0.12643988593E+01 -0.18193738702E+03 -0.16305227761E+03  0.24431303022E+03  0.00000000000E+00 0.  1.
         21    1    1    2  504  502 -0.26816608980E+02 -0.20265648136E+02  0.32560733061E+02  0.46797738718E+02  0.00000000000E+00 0.  1.
<mgrwt>
<rscale>  4 0.22902213E+03</rscale>
<asrwt>0</asrwt>
<pdfrwt beam="1">  1       21 0.19271107E-01 0.22902213E+03</pdfrwt>
<pdfrwt beam="2">  1       21 0.81340589E-01 0.22902213E+03</pdfrwt>
<totfact> 0.32145480E+04</totfact>
</mgrwt>
</event>
<event>
 5    0  0.1531977E+001  0.3292728E+03  0.7546771E-02  0.1071459E+00
         21   -1    0    0  502  501  0.00000000000E+00  0.00000000000E+00  0.11935497834E+03  0.11935497834E+03  0.00000000000E+00 0.  1.
         21   -1    0    0  504  502 -0.00000000000E+00 -0.00000000000E+00 -0.11958549998E+04  0.11958549998E+04  0.00000000000E+00 0.  1.
         25    1    1    2    0    0  0.13176357283E+02  0.31380054155E+03 -0.59963562986E+03  0.68835476672E+03  0.12500000000E+03 0.  0.
         21    1    1    2  503  501  0.55500927033E+02 -0.29733816964E+03 -0.26026805242E+03  0.39903608752E+03  0.00000000000E+00 0.  1.
         21    1    1    2  504  503 -0.68677284317E+02 -0.16462371910E+02 -0.21659633923E+03  0.22781912395E+03  0.00000000000E+00 0. -1.
<mgrwt>
<rscale>  4 0.32927282E+03</rscale>
<asrwt>0</asrwt>
<pdfrwt beam="1">  1       21 0.18362305E-01 0.32927282E+03</pdfrwt>
<pdfrwt beam="2">  1       21 0.18397769E+00 0.32927282E+03</pdfrwt>
<totfact> 0.42051633E+03</totfact>
</mgrwt>
</event>
<event>
 5    0  0.1531977E+001  0.3990770E+03  0.7546771E-02  0.1044100E+00
         21   -1    0    0  502  501  0.00000000000E+00  0.00000000000E+00  0.43947673956E+03  0.43947673956E+03  0.00000000000E+00 0.  1.
         21   -1    0    0  504  502 -0.00000000000E+00 -0.00000000000E+00 -0.41923354087E+03  0.41923354087E+03  0.00000000000E+00 0.  1.
         25    1    1    2    0    0 -0.33956308688E+03  0.35850893901E+02 -0.68170947595E+02  0.36994682680E+03  0.12500000000E+03 0.  0.
         21    1    1    2  503  501  0.40147601030E+03 -0.60226281394E+02  0.10670404026E+03  0.41975700593E+03  0.00000000000E+00 0.  1.
         21    1    1    2  504  503 -0.61912923418E+02  0.24375387494E+02 -0.18289893977E+02  0.69006447694E+02  0.00000000000E+00 0.  1.
<mgrwt>
<rscale>  4 0.39907697E+03</rscale>
<asrwt>0</asrwt>
<pdfrwt beam="1">  1       21 0.67611806E-01 0.39907697E+03</pdfrwt>
<pdfrwt beam="2">  1       21 0.64497468E-01 0.39907697E+03</pdfrwt>
<totfact> 0.39533966E+03</totfact>
</mgrwt>
</event>
<event>
 5    0  0.1531977E+001  0.3686823E+03  0.7546771E-02  0.1055198E+00
         21   -1    0    0  502  501  0.00000000000E+00  0.00000000000E+00  0.87784517417E+03  0.87784517417E+03  0.00000000000E+00 0. -1.
         21   -1    0    0  504  502 -0.00000000000E+00 -0.00000000000E+00 -0.22907257313E+03  0.22907257313E+03  0.00000000000E+00 0. -1.
         25    1    1    2    0    0 -0.36547926968E+03  0.49905688497E+01  0.16656352302E+03  0.42067613379E+03  0.12500000000E+03 0.  0.
         21    1    1    2  503  501  0.36231753419E+02  0.15358648038E+02  0.31306593742E+03  0.31552956945E+03  0.00000000000E+00 0. -1.
         21    1    1    2  504  503  0.32924751626E+03 -0.20349216888E+02  0.16914314060E+03  0.37071204405E+03  0.00000000000E+00 0. -1.
<mgrwt>
<rscale>  4 0.36868225E+03</rscale>
<asrwt>0</asrwt>
<pdfrwt beam="1">  1       21 0.13505310E+00 0.36868225E+03</pdfrwt>
<pdfrwt beam="2">  1       21 0.35241935E-01 0.36868225E+03</pdfrwt>
<totfact> 0.27202754E+03</totfact>
</mgrwt>
</event>
<event>
 5    0  0.1531977E+001  0.2385167E+03  0.7546771E-02  0.1120785E+00
         21   -1    0    0  503  501  0.00000000000E+00  0.00000000000E+00  0.30515065782E+03  0.30515065782E+03  0.00000000000E+00 0.  1.
         21   -1    0    0  504  502 -0.00000000000E+00 -0.00000000000E+00 -0.61405271441E+03  0.61405271441E+03  0.00000000000E+00 0.  1.
         25    1    1    2    0    0 -0.12821268035E+03 -0.17550833492E+03  0.18321760119E+03  0.31054042638E+03  0.12500000000E+03 0.  0.
         21    1    1    2  503  502  0.45316532286E+02  0.22085330892E+02 -0.41488944907E+03  0.41794091076E+03  0.00000000000E+00 0.  1.
         21    1    1    2  504  501  0.82896148064E+02  0.15342300403E+03 -0.77230208709E+02  0.19072203508E+03  0.00000000000E+00 0.  1.
<mgrwt>
<rscale>  4 0.23851665E+03</rscale>
<asrwt>0</asrwt>
<pdfrwt beam="1">  1       21 0.46946256E-01 0.23851665E+03</pdfrwt>
<pdfrwt beam="2">  1       21 0.94469647E-01 0.23851665E+03</pdfrwt>
<totfact> 0.39369154E+03</totfact>
</mgrwt>
</event>
<event>
 5    0  0.1531977E+001  0.3666370E+03  0.7546771E-02  0.1055986E+00
         21   -1    0    0  504  501  0.00000000000E+00  0.00000000000E+00  0.11724747800E+04  0.11724747800E+04  0.00000000000E+00 0. -1.
         21   -1    0    0  501  502 -0.00000000000E+00 -0.00000000000E+00 -0.13948234457E+03  0.13948234457E+03  0.00000000000E+00 0. -1.
         25    1    1    2    0    0  0.34229625478E+03  0.40384878054E+02  0.22635871752E+03  0.43088389783E+03  0.12500000000E+03 0.  0.
         21    1    1    2  503  502 -0.28854213875E+03 -0.35471589110E+02  0.74166732239E+03  0.79660857174E+03  0.00000000000E+00 0. -1.
         21    1    1    2  504  503 -0.53754116028E+02 -0.49132889438E+01  0.64966395524E+02  0.84464655008E+02  0.00000000000E+00 0. -1.
<mgrwt>
<rscale>  4 0.36663697E+03</rscale>
<asrwt>0</asrwt>
<pdfrwt beam="1">  1       21 0.18038073E+00 0.36663697E+03</pdfrwt>
<pdfrwt beam="2">  1       21 0.21458823E-01 0.36663697E+03</pdfrwt>
<totfact> 0.32538605E+03</totfact>
</mgrwt>
</event>
<event>
 5    0  0.1531977E+001  0.2630906E+03  0.7546771E-02  0.1105300E+00
         21   -1    0    0  502  501  0.00000000000E+00  0.00000000000E+00  0.36369373679E+03  0.36369373679E+03  0.00000000000E+00 0.  1.
         21   -1    0    0  504  502 -0.00000000000E+00 -0.00000000000E+00 -0.21721365425E+03  0.21721365425E+03  0.00000000000E+00 0.  1.
         25    1    1    2    0    0 -0.19012803833E+03 -0.15874155326E+03 -0.14402934526E+01  0.27744301422E+03  0.12500000000E+03 0.  0.
         21    1    1    2  503  501  0.17097489737E+03  0.14596866402E+03  0.16143606550E+03  0.27676862114E+03  0.00000000000E+00 0.  1.
         21    1    1    2  504  503  0.19153140964E+02  0.12772889240E+02 -0.13515689514E+02  0.26695755681E+02  0.00000000000E+00 0.  1.
<mgrwt>
<rscale>  4 0.26309061E+03</rscale>
<asrwt>0</asrwt>
<pdfrwt beam="1">  1       21 0.55952882E-01 0.26309061E+03</pdfrwt>
<pdfrwt beam="2">  1       21 0.33417485E-01 0.26309061E+03</pdfrwt>
<totfact> 0.25029119E+04</totfact>
</mgrwt>
</event>
<event>
 5    0  0.1531977E+001  0.2744935E+03  0.7546771E-02  0.1098735E+00
         21   -1    0    0  502  501  0.00000000000E+00  0.00000000000E+00  0.59629396875E+02  0.59629396875E+02  0.00000000000E+00 0. -1.
         21   -1    0    0  504  502 -0.00000000000E+00 -0.00000000000E+00 -0.13341079455E+04  0.13341079455E+04  0.00000000000E+00 0. -1.
         25    1    1    2    0    0 -0.12405425169E+03 -0.21055219528E+03 -0.41840788168E+03  0.50041167028E+03  0.12500000000E+03 0.  0.
         21    1    1    2  503  501  0.62088695716E+02  0.11217388303E+03 -0.57569425372E+03  0.58979815186E+03  0.00000000000E+00 0. -1.
         21    1    1    2  504  503  0.61965555973E+02  0.98378312250E+02 -0.28037641324E+03  0.30352752025E+03  0.00000000000E+00 0. -1.
<mgrwt>
<rscale>  4 0.27449351E+03</rscale>
<asrwt>0</asrwt>
<pdfrwt beam="1">  1       21 0.91737548E-02 0.27449351E+03</pdfrwt>
<pdfrwt beam="2">  1       21 0.20524734E+00 0.27449351E+03</pdfrwt>
<totfact> 0.11072574E+04</totfact>
</mgrwt>
</event>
<event>
 5    0  0.1531977E+001  0.6712679E+03  0.7546771E-02  0.9767670E-01
         21   -1    0    0  502  501  0.00000000000E+00  0.00000000000E+00  0.22546346478E+03  0.22546346478E+03  0.00000000000E+00 0.  1.
         21   -1    0    0  504  502 -0.00000000000E+00 -0.00000000000E+00 -0.23547005879E+04  0.23547005879E+04  0.00000000000E+00 0.  1.
         25    1    1    2    0    0 -0.51108418989E+03  0.35443984792E+03 -0.64964802088E+03  0.90802103830E+03  0.12500000000E+03 0.  0.
         21    1    1    2  503  501 -0.42866373592E+02  0.42726044695E+02 -0.24454337340E+02  0.65276760757E+02  0.00000000000E+00 0. -1.
         21    1    1    2  504  503  0.55395056348E+03 -0.39716589262E+03 -0.14551347649E+04  0.16068662537E+04  0.00000000000E+00 0.  1.
<mgrwt>
<rscale>  4 0.67126790E+03</rscale>
<asrwt>0</asrwt>
<pdfrwt beam="1">  1       21 0.34686687E-01 0.67126790E+03</pdfrwt>
<pdfrwt beam="2">  1       21 0.36226162E+00 0.67126790E+03</pdfrwt>
<totfact> 0.79457546E+01</totfact>
</mgrwt>
</event>
<event>
 5    0  0.1531977E+001  0.2738571E+03  0.7546771E-02  0.1099092E+00
         21   -1    0    0  504  501  0.00000000000E+00  0.00000000000E+00  0.18163019383E+04  0.18163019383E+04  0.00000000000E+00 0. -1.
         21   -1    0    0  503  502 -0.00000000000E+00 -0.00000000000E+00 -0.10005804793E+03  0.10005804793E+03  0.00000000000E+00 0. -1.
         25    1    1    2    0    0 -0.15020654098E+03 -0.19845607201E+03  0.11319610438E+04  0.11657219318E+04  0.12500000000E+03 0.  0.
         21    1    1    2  503  501 -0.18981239241E+02  0.27812429856E+03  0.29246157620E+03  0.40403859524E+03  0.00000000000E+00 0. -1.
         21    1    1    2  504  502  0.16918778022E+03 -0.79668226544E+02  0.29182127031E+03  0.34659945918E+03  0.00000000000E+00 0. -1.
<mgrwt>
<rscale>  4 0.27385710E+03</rscale>
<asrwt>0</asrwt>
<pdfrwt beam="1">  1       21 0.27943104E+00 0.27385710E+03</pdfrwt>
<pdfrwt beam="2">  1       21 0.15393547E-01 0.27385710E+03</pdfrwt>
<totfact> 0.15410211E+03</totfact>
</mgrwt>
</event>
<event>
 5    0  0.1531977E+001  0.2333346E+03  0.7546771E-02  0.1124314E+00
         21   -1    0    0  504  501  0.00000000000E+00  0.00000000000E+00  0.21992617996E+04  0.21992617996E+04  0.00000000000E+00 0. -1.
         21   -1    0    0  503  502 -0.00000000000E+00 -0.00000000000E+00 -0.28082783388E+02  0.28082783388E+02  0.00000000000E+00 0. -1.
         25    1    1    2    0    0  0.20735207042E+03 -0.44221903312E+02  0.15120233543E+04  0.15319236541E+04  0.12500000000E+03 0.  0.
         21    1    1    2  503  501 -0.18680594575E+03  0.43653386826E+02  0.51057700272E+03  0.54542731437E+03  0.00000000000E+00 0. -1.
         21    1    1    2  504  502 -0.20546124674E+02  0.56851648542E+00  0.14857865921E+03  0.14999361460E+03  0.00000000000E+00 0. -1.
<mgrwt>
<rscale>  4 0.23333459E+03</rscale>
<asrwt>0</asrwt>
<pdfrwt beam="1">  1       21 0.33834784E+00 0.23333459E+03</pdfrwt>
<pdfrwt beam="2">  1       21 0.43204299E-02 0.23333459E+03</pdfrwt>
<totfact> 0.67347828E+03</totfact>
</mgrwt>
</event>
<event>
 5    0  0.1531977E+001  0.3115531E+03  0.7546771E-02  0.1079604E+00
         21   -1    0    0  502  501  0.00000000000E+00  0.00000000000E+00  0.26579861190E+03  0.26579861190E+03  0.00000000000E+00 0. -1.
         21   -1    0    0  504  502 -0.00000000000E+00 -0.00000000000E+00 -0.86590627037E+03  0.86590627037E+03  0.00000000000E+00 0.  1.
         25    1    1    2    0    0  0.26367408076E+03  0.10057906371E+03 -0.71052132891E+03  0.77466491321E+03  0.12500000000E+03 0.  0.
         21    1    1    2  503  501 -0.28717076675E+03 -0.11025449536E+03  0.11956916421E+03  0.33003013204E+03  0.00000000000E+00 0. -1.
         21    1    1    2  504  503  0.23496685992E+02  0.96754316418E+01 -0.91554937698E+01  0.27009837027E+02  0.00000000000E+00 0.  1.
<mgrwt>
<rscale>  4 0.31155307E+03</rscale>
<asrwt>0</asrwt>
<pdfrwt beam="1">  1       21 0.40892094E-01 0.31155307E+03</pdfrwt>
<pdfrwt beam="2">  1       21 0.13321635E+00 0.31155307E+03</pdfrwt>
<totfact> 0.21456185E+03</totfact>
</mgrwt>
</event>
<event>
 5    0  0.1531977E+001  0.3276071E+03  0.7546771E-02  0.1072201E+00
         21   -1    0    0  503  501  0.00000000000E+00  0.00000000000E+00  0.28661743108E+04  0.28661743108E+04  0.00000000000E+00 0. -1.
         21   -1    0    0  504  502 -0.00000000000E+00 -0.00000000000E+00 -0.51647906678E+03  0.51647906678E+03  0.00000000000E+00 0.  1.
         25    1    1    2    0    0  0.32882502873E+03  0.51965021488E+02 -0.87490661936E+02  0.36620469536E+03  0.12500000000E+03 0.  0.
         21    1    1    2  503  502 -0.29898038010E+02 -0.11023285676E+02 -0.28038000873E+03  0.28218496558E+03  0.00000000000E+00 0.  1.
         21    1    1    2  504  501 -0.29892699072E+03 -0.40941735812E+02  0.27175659147E+04  0.27342637166E+04  0.00000000000E+00 0. -1.
<mgrwt>
<rscale>  4 0.32760708E+03</rscale>
<asrwt>0</asrwt>
<pdfrwt beam="1">  1       21 0.44094988E+00 0.32760708E+03</pdfrwt>
<pdfrwt beam="2">  1       21 0.79458320E-01 0.32760708E+03</pdfrwt>
<totfact> 0.53347046E+00</totfact>
</mgrwt>
</event>
<event>
 5    0  0.1531977E+001  0.2528742E+03  0.7546771E-02  0.1111502E+00
         21   -1    0    0  502  501  0.00000000000E+00  0.00000000000E+00  0.12630348669E+04  0.12630348669E+04  0.00000000000E+00 0. -1.
         21   -1    0    0  504  502 -0.00000000000E+00 -0.00000000000E+00 -0.12924566319E+04  0.12924566319E+04  0.00000000000E+00 0.  1.
         25    1    1    2    0    0  0.31534818240E+03 -0.25474396979E+03 -0.11613543754E+03  0.43983111093E+03  0.12500000000E+03 0.  0.
         21    1    1    2  503  501 -0.13658114002E+03  0.14888516453E+03  0.10810922166E+04  0.10998097931E+04  0.00000000000E+00 0. -1.
         21    1    1    2  504  503 -0.17876704237E+03  0.10585880527E+03 -0.99437854405E+03  0.10158505948E+04  0.00000000000E+00 0.  1.
<mgrwt>
<rscale>  4 0.25287416E+03</rscale>
<asrwt>0</asrwt>
<pdfrwt beam="1">  1       21 0.19431306E+00 0.25287416E+03</pdfrwt>
<pdfrwt beam="2">  1       21 0.19883948E+00 0.25287416E+03</pdfrwt>
<totfact> 0.18186573E+01</totfact>
</mgrwt>
</event>
<event>
 5    0  0.1531977E+001  0.2381915E+03  0.7546771E-02  0.1121003E+00
         21   -1    0    0  502  501  0.00000000000E+00  0.00000000000E+00  0.30458229864E+03  0.30458229864E+03  0.00000000000E+00 0.  1.
         21   -1    0    0  504  502 -0.00000000000E+00 -0.00000000000E+00 -0.62316720298E+03  0.62316720298E+03  0.00000000000E+00 0.  1.
         25    1    1    2    0    0  0.17792993269E+03 -0.13125471070E+03  0.14925735615E+03  0.29460077799E+03  0.12500000000E+03 0.  0.
         21    1    1    2  503  501 -0.27894018668E+01  0.31930266933E+02  0.60101552146E+02  0.68114016763E+02  0.00000000000E+00 0. -1.
         21    1    1    2  504  503 -0.17514053082E+03  0.99324443767E+02 -0.52794381263E+03  0.56503470686E+03  0.00000000000E+00 0.  1.
<mgrwt>
<rscale>  4 0.23819148E+03</rscale>
<asrwt>0</asrwt>
<pdfrwt beam="1">  1       21 0.46858815E-01 0.23819148E+03</pdfrwt>
<pdfrwt beam="2">  1       21 0.95871877E-01 0.23819148E+03</pdfrwt>
<totfact> 0.38181510E+03</totfact>
</mgrwt>
</event>
<event>
 5    0  0.1531977E+001  0.2842327E+03  0.7546771E-02  0.1093399E+00
         21   -1    0    0  502  501  0.00000000000E+00  0.00000000000E+00  0.14622222846E+03  0.14622222846E+03  0.00000000000E+00 0.  1.
         21   -1    0    0  504  502 -0.00000000000E+00 -0.00000000000E+00 -0.11967091338E+04  0.11967091338E+04  0.00000000000E+00 0.  1.
         25    1    1    2    0    0  0.18575759834E+03 -0.11116030246E+03 -0.29288105326E+02  0.25168490478E+03  0.12500000000E+03 0.  0.
         21    1    1    2  503  501  0.56109727841E+02  0.11759564665E+02 -0.27251434407E+02  0.63476212842E+02  0.00000000000E+00 0. -1.
         21    1    1    2  504  503 -0.24186732618E+03  0.99400737794E+02 -0.99394736566E+03  0.10277702447E+04  0.00000000000E+00 0.  1.
<mgrwt>
<rscale>  4 0.28423268E+03</rscale>
<asrwt>0</asrwt>
<pdfrwt beam="1">  1       21 0.22495728E-01 0.28423268E+03</pdfrwt>
<pdfrwt beam="2">  1       21 0.18410909E+00 0.28423268E+03</pdfrwt>
<totfact> 0.29358426E+03</totfact>
</mgrwt>
</event>
<event>
 5    0  0.1531977E+001  0.2086433E+03  0.7546771E-02  0.1142645E+00
         21   -1    0    0  503  501  0.00000000000E+00  0.00000000000E+00  0.32306111308E+03  0.32306111308E+03  0.00000000000E+00 0. -1.
         21   -1    0    0  501  502 -0.00000000000E+00 -0.00000000000E+00 -0.21583963190E+03  0.21583963190E+03  0.00000000000E+00 0. -1.
         25    1    1    2    0    0  0.70651461002E+01 -0.21902261816E+03  0.41624196110E+02  0.25569199686E+03  0.12500000000E+03 0.  0.
         21    1    1    2  503  504  0.14266297271E+01  0.14760326210E+03 -0.42287311541E+02  0.15354795659E+03  0.00000000000E+00 0. -1.
         21    1    1    2  504  502 -0.84917758272E+01  0.71419356060E+02  0.10788459661E+03  0.12966079154E+03  0.00000000000E+00 0. -1.
<mgrwt>
<rscale>  4 0.20864333E+03</rscale>
<asrwt>0</asrwt>
<pdfrwt beam="1">  1       21 0.49701710E-01 0.20864333E+03</pdfrwt>
<pdfrwt beam="2">  1       21 0.33206097E-01 0.20864333E+03</pdfrwt>
<totfact> 0.33406815E+04</totfact>
</mgrwt>
</event>
<event>
 5    0  0.1531977E+001  0.5357444E+03  0.7546771E-02  0.1004848E+00
         21   -1    0    0  502  501  0.00000000000E+00  0.00000000000E+00  0.56974869491E+03  0.56974869491E+03  0.00000000000E+00 0. -1.
         21   -1    0    0  504  502 -0.00000000000E+00 -0.00000000000E+00 -0.60734880002E+03  0.60734880002E+03  0.00000000000E+00 0.  1.
         25    1    1    2    0    0 -0.45739223926E+03 -0.22316130824E+03 -0.17040600266E+03  0.55106427554E+03  0.12500000000E+03 0.  0.
         21    1    1    2  503  501  0.49058998537E+03  0.19446650022E+03  0.18374477063E+03  0.55880040639E+03  0.00000000000E+00 0. -1.
         21    1    1    2  504  503 -0.33197746105E+02  0.28694808015E+02 -0.50938873075E+02  0.67232812998E+02  0.00000000000E+00 0. -1.
<mgrwt>
<rscale>  4 0.53574439E+03</rscale>
<asrwt>0</asrwt>
<pdfrwt beam="1">  1       21 0.87653645E-01 0.53574439E+03</pdfrwt>
<pdfrwt beam="2">  1       21 0.93438277E-01 0.53574439E+03</pdfrwt>
<totfact> 0.88322846E+02</totfact>
</mgrwt>
</event>
<event>
 5    0  0.1531977E+001  0.1802823E+03  0.7546771E-02  0.1167530E+00
         21   -1    0    0  504  501  0.00000000000E+00  0.00000000000E+00  0.63421446490E+03  0.63421446490E+03  0.00000000000E+00 0.  1.
         21   -1    0    0  503  502 -0.00000000000E+00 -0.00000000000E+00 -0.19627313164E+03  0.19627313164E+03  0.00000000000E+00 0.  1.
         25    1    1    2    0    0 -0.89572588935E+02  0.18471512028E+03  0.40239367235E+03  0.46870949627E+03  0.12500000000E+03 0.  0.
         21    1    1    2  503  501  0.35533348217E+02 -0.12046607621E+03 -0.12713388277E+03  0.17871127134E+03  0.00000000000E+00 0.  1.
         21    1    1    2  504  502  0.54039240718E+02 -0.64249044072E+02  0.16268154369E+03  0.18306682894E+03  0.00000000000E+00 0.  1.
<mgrwt>
<rscale>  4 0.18028228E+03</rscale>
<asrwt>0</asrwt>
<pdfrwt beam="1">  1       21 0.97571455E-01 0.18028228E+03</pdfrwt>
<pdfrwt beam="2">  1       21 0.30195867E-01 0.18028228E+03</pdfrwt>
<totfact> 0.92363866E+03</totfact>
</mgrwt>
</event>
<event>
 5    0  0.1531977E+001  0.2316221E+03  0.7546771E-02  0.1125503E+00
         21   -1    0    0  503  501  0.00000000000E+00  0.00000000000E+00  0.58185072413E+03  0.58185072413E+03  0.00000000000E+00 0.  1.
         21   -1    0    0  504  502 -0.00000000000E+00 -0.00000000000E+00 -0.18431004835E+03  0.18431004835E+03  0.00000000000E+00 0.  1.
         25    1    1    2    0    0  0.15979977138E+03  0.14088307082E+03  0.37106930601E+01  0.24702788470E+03  0.12500000000E+03 0.  0.
         21    1    1    2  503  502 -0.35138658240E+02  0.54769441929E+01 -0.34554305301E+02  0.49585504288E+02  0.00000000000E+00 0. -1.
         21    1    1    2  504  501 -0.12466111314E+03 -0.14636001501E+03  0.42838428802E+03  0.46954738350E+03  0.00000000000E+00 0.  1.
<mgrwt>
<rscale>  4 0.23162212E+03</rscale>
<asrwt>0</asrwt>
<pdfrwt beam="1">  1       21 0.89515495E-01 0.23162212E+03</pdfrwt>
<pdfrwt beam="2">  1       21 0.28355392E-01 0.23162212E+03</pdfrwt>
<totfact> 0.12338554E+04</totfact>
</mgrwt>
</event>
<event>
 5    0  0.1531977E+001  0.2290303E+03  0.7546771E-02  0.1127324E+00
         21   -1    0    0  502  501  0.00000000000E+00  0.00000000000E+00  0.27920191376E+02  0.27920191376E+02  0.00000000000E+00 0. -1.
         21   -1    0    0  504  502 -0.00000000000E+00 -0.00000000000E+00 -0.23765836372E+04  0.23765836372E+04  0.00000000000E+00 0. -1.
         25    1    1    2    0    0  0.11335919757E+03 -0.17612149961E+03 -0.13826798120E+04  0.14040290427E+04  0.12500000000E+03 0.  0.
         21    1    1    2  503  501 -0.17006942004E+02  0.26146938449E+02 -0.18282458947E+02  0.36154484808E+02  0.00000000000E+00 0. -1.
         21    1    1    2  504  503 -0.96352255562E+02  0.14997456116E+03 -0.94770117491E+03  0.96432030108E+03  0.00000000000E+00 0. -1.
<mgrwt>
<rscale>  4 0.22903032E+03</rscale>
<asrwt>0</asrwt>
<pdfrwt beam="1">  1       21 0.42954132E-02 0.22903032E+03</pdfrwt>
<pdfrwt beam="2">  1       21 0.36562833E+00 0.22903032E+03</pdfrwt>
<totfact> 0.46966023E+03</totfact>
</mgrwt>
</event>
<event>
 5    0  0.1531977E+001  0.2389212E+03  0.7546771E-02  0.1120514E+00
         21   -1    0    0  503  501  0.00000000000E+00  0.00000000000E+00  0.11693296237E+04  0.11693296237E+04  0.00000000000E+00 0.  1.
         21   -1    0    0  504  502 -0.00000000000E+00 -0.00000000000E+00 -0.43308839816E+02  0.43308839816E+02  0.00000000000E+00 0.  1.
         25    1    1    2    0    0 -0.20253853295E+03  0.20892669594E+02  0.65249462137E+03  0.69486156311E+03  0.12500000000E+03 0.  0.
         21    1    1    2  503  502  0.18207910359E+03 -0.29407104790E+02  0.39084511386E+03  0.43217760331E+03  0.00000000000E+00 0.  1.
         21    1    1    2  504  501  0.20459429364E+02  0.85144351962E+01  0.82681048664E+02  0.85599297104E+02  0.00000000000E+00 0. -1.
<mgrwt>
<rscale>  4 0.23892124E+03</rscale>
<asrwt>0</asrwt>
<pdfrwt beam="1">  1       21 0.17989684E+00 0.23892124E+03</pdfrwt>
<pdfrwt beam="2">  1       21 0.66628993E-02 0.23892124E+03</pdfrwt>
<totfact> 0.29154563E+04</totfact>
</mgrwt>
</event>
<event>
 5    0  0.1531977E+001  0.5576368E+03  0.7546771E-02  0.9997416E-01
         21   -1    0    0  502  501  0.00000000000E+00  0.00000000000E+00  0.80944561235E+03  0.80944561235E+03  0.00000000000E+00 0. -1.
         21   -1    0    0  504  502 -0.00000000000E+00 -0.00000000000E+00 -0.45727011604E+03  0.45727011604E+03  0.00000000000E+00 0. -1.
         25    1    1    2    0    0 -0.45102981407E+03 -0.32456438907E+03 -0.21540132886E+02  0.56996395778E+03  0.12500000000E+03 0.  0.
         21    1    1    2  503  501  0.39801710961E+03  0.34162227200E+03  0.29963420837E+03  0.60407288889E+03  0.00000000000E+00 0. -1.
         21    1    1    2  504  503  0.53012704467E+02 -0.17057882930E+02  0.74081420824E+02  0.92678881717E+02  0.00000000000E+00 0. -1.
<mgrwt>
<rscale>  4 0.55763679E+03</rscale>
<asrwt>0</asrwt>
<pdfrwt beam="1">  1       21 0.12453009E+00 0.55763679E+03</pdfrwt>
<pdfrwt beam="2">  1       21 0.70349249E-01 0.55763679E+03</pdfrwt>
<totfact> 0.71368422E+02</totfact>
</mgrwt>
</event>
<event>
 5    0  0.1531977E+001  0.2497278E+03  0.7546771E-02  0.1113477E+00
         21   -1    0    0  502  501  0.00000000000E+00  0.00000000000E+00  0.20498336029E+04  0.20498336029E+04  0.00000000000E+00 0. -1.
         21   -1    0    0  504  502 -0.00000000000E+00 -0.00000000000E+00 -0.94985954583E+02  0.94985954583E+02  0.00000000000E+00 0. -1.
         25    1    1    2    0    0  0.24202757558E+03  0.13038605569E+03  0.28181249181E+03  0.41306313247E+03  0.12500000000E+03 0.  0.
         21    1    1    2  503  501 -0.17556209637E+03 -0.11577294738E+03  0.16446174122E+04  0.16580084010E+04  0.00000000000E+00 0. -1.
         21    1    1    2  504  503 -0.66465479215E+02 -0.14613108314E+02  0.28417744259E+02  0.73748024046E+02  0.00000000000E+00 0. -1.
<mgrwt>
<rscale>  4 0.24972782E+03</rscale>
<asrwt>0</asrwt>
<pdfrwt beam="1">  1       21 0.31535898E+00 0.24972782E+03</pdfrwt>
<pdfrwt beam="2">  1       21 0.14613225E-01 0.24972782E+03</pdfrwt>
<totfact> 0.10687834E+03</totfact>
</mgrwt>
</event>
<event>
 5    0  0.1531977E+001  0.2323814E+03  0.7546771E-02  0.1124975E+00
         21   -1    0    0  504  501  0.00000000000E+00  0.00000000000E+00  0.81380110416E+03  0.81380110416E+03  0.00000000000E+00 0. -1.
         21   -1    0    0  503  502 -0.00000000000E+00 -0.00000000000E+00 -0.52697319441E+03  0.52697319441E+03  0.00000000000E+00 0.  1.
         25    1    1    2    0    0 -0.13546455885E+03 -0.19422785930E+03  0.67188987762E+03  0.72328149132E+03  0.12500000000E+03 0.  0.
         21    1    1    2  503  501  0.54105359854E+02  0.18743703939E+03 -0.46436132493E+03  0.50367794650E+03  0.00000000000E+00 0.  1.
         21    1    1    2  504  502  0.81359198997E+02  0.67908199155E+01  0.79299357061E+02  0.11381486075E+03  0.00000000000E+00 0.  1.
<mgrwt>
<rscale>  4 0.23238140E+03</rscale>
<asrwt>0</asrwt>
<pdfrwt beam="1">  1       21 0.12520017E+00 0.23238140E+03</pdfrwt>
<pdfrwt beam="2">  1       21 0.81072799E-01 0.23238140E+03</pdfrwt>
<totfact> 0.60901424E+02</totfact>
</mgrwt>
</event>
<event>
 5    0  0.1531977E+001  0.2179764E+03  0.7546771E-02  0.1135401E+00
         21   -1    0    0  502  501  0.00000000000E+00  0.00000000000E+00  0.68749950136E+03  0.68749950136E+03  0.00000000000E+00 0. -1.
         21   -1    0    0  504  502 -0.00000000000E+00 -0.00000000000E+00 -0.18496015870E+03  0.18496015870E+03  0.00000000000E+00 0. -1.
         25    1    1    2    0    0  0.10763831196E+03 -0.20249962033E+03  0.46124595538E+03  0.53006125475E+03  0.12500000000E+03 0.  0.
         21    1    1    2  503  501 -0.32775556051E+01  0.14168911456E+03  0.13017325348E+03  0.19243602437E+03  0.00000000000E+00 0. -1.
         21    1    1    2  504  503 -0.10436075636E+03  0.60810505770E+02 -0.88879866205E+02  0.14996238094E+03  0.00000000000E+00 0. -1.
<mgrwt>
<rscale>  4 0.21797637E+03</rscale>
<asrwt>0</asrwt>
<pdfrwt beam="1">  1       21 0.10576915E+00 0.21797637E+03</pdfrwt>
<pdfrwt beam="2">  1       21 0.28455409E-01 0.21797637E+03</pdfrwt>
<totfact> 0.83265198E+03</totfact>
</mgrwt>
</event>
<event>
 5    0  0.1531977E+001  0.3507412E+03  0.7546771E-02  0.1062311E+00
         21   -1    0    0  504  501  0.00000000000E+00  0.00000000000E+00  0.27962593956E+03  0.27962593956E+03  0.00000000000E+00 0. -1.
         21   -1    0    0  503  502 -0.00000000000E+00 -0.00000000000E+00 -0.73673850844E+03  0.73673850844E+03  0.00000000000E+00 0. -1.
         25    1    1    2    0    0  0.70063656186E+02  0.33235646048E+03  0.22283356081E+02  0.36261726475E+03  0.12500000000E+03 0.  0.
         21    1    1    2  503  501 -0.48631966759E+01 -0.30953233723E+02 -0.29035527155E+03  0.29204098526E+03  0.00000000000E+00 0. -1.
         21    1    1    2  504  502 -0.65200459510E+02 -0.30140322675E+03 -0.18904065342E+03  0.36170619799E+03  0.00000000000E+00 0. -1.
<mgrwt>
<rscale>  4 0.35074118E+03</rscale>
<asrwt>0</asrwt>
<pdfrwt beam="1">  1       21 0.43019375E-01 0.35074118E+03</pdfrwt>
<pdfrwt beam="2">  1       21 0.11334439E+00 0.35074118E+03</pdfrwt>
<totfact> 0.28501876E+03</totfact>
</mgrwt>
</event>
<event>
 5    0  0.1531977E+001  0.2878331E+03  0.7546771E-02  0.1091486E+00
         21   -1    0    0  502  501  0.00000000000E+00  0.00000000000E+00  0.14260091650E+04  0.14260091650E+04  0.00000000000E+00 0.  1.
         21   -1    0    0  504  502 -0.00000000000E+00 -0.00000000000E+00 -0.54397293716E+02  0.54397293716E+02  0.00000000000E+00 0.  1.
         25    1    1    2    0    0  0.45199083526E+02 -0.25530362927E+03  0.62328830959E+03  0.68653930488E+03  0.12500000000E+03 0.  0.
         21    1    1    2  503  501 -0.50959535313E+02  0.22962154639E+03  0.70472075968E+03  0.74293625428E+03  0.00000000000E+00 0.  1.
         21    1    1    2  504  503  0.57604517875E+01  0.25682082880E+02  0.43602802020E+02  0.50930899558E+02  0.00000000000E+00 0.  1.
<mgrwt>
<rscale>  4 0.28783311E+03</rscale>
<asrwt>0</asrwt>
<pdfrwt beam="1">  1       21 0.21938600E+00 0.28783311E+03</pdfrwt>
<pdfrwt beam="2">  1       21 0.83688155E-02 0.28783311E+03</pdfrwt>
<totfact> 0.10504149E+04</totfact>
</mgrwt>
</event>
<event>
 5    0  0.1531977E+001  0.2868156E+03  0.7546771E-02  0.1092024E+00
         21   -1    0    0  502  501  0.00000000000E+00  0.00000000000E+00  0.51428142696E+03  0.51428142696E+03  0.00000000000E+00 0.  1.
         21   -1    0    0  504  502 -0.00000000000E+00 -0.00000000000E+00 -0.36189298991E+03  0.36189298991E+03  0.00000000000E+00 0.  1.
         25    1    1    2    0    0  0.24676708539E+03  0.12082581557E+03  0.38157755725E+03  0.48653808108E+03  0.12500000000E+03 0.  0.
         21    1    1    2  503  501 -0.19107808659E+03 -0.88471075448E+02 -0.76693642157E+02  0.22409792751E+03  0.00000000000E+00 0.  1.
         21    1    1    2  504  503 -0.55688998795E+02 -0.32354740118E+02 -0.15249547804E+03  0.16553840829E+03  0.00000000000E+00 0.  1.
<mgrwt>
<rscale>  4 0.28681565E+03</rscale>
<asrwt>0</asrwt>
<pdfrwt beam="1">  1       21 0.79120219E-01 0.28681565E+03</pdfrwt>
<pdfrwt beam="2">  1       21 0.55675845E-01 0.28681565E+03</pdfrwt>
<totfact> 0.40223511E+03</totfact>
</mgrwt>
</event>
<event>
 5    0  0.1531977E+001  0.2727606E+03  0.7546771E-02  0.1099710E+00
         21   -1    0    0  502  501  0.00000000000E+00  0.00000000000E+00  0.57829337584E+03  0.57829337584E+03  0.00000000000E+00 0. -1.
         21   -1    0    0  504  502 -0.00000000000E+00 -0.00000000000E+00 -0.54159440290E+03  0.54159440290E+03  0.00000000000E+00 0. -1.
         25    1    1    2    0    0  0.57925048012E+02  0.22016670658E+03  0.33632535256E+03  0.42493344496E+03  0.12500000000E+03 0.  0.
         21    1    1    2  503  501 -0.94945249367E+02 -0.25865735650E+03  0.98991035503E+02  0.29277543196E+03  0.00000000000E+00 0. -1.
         21    1    1    2  504  503  0.37020201356E+02  0.38490649916E+02 -0.39861741512E+03  0.40217890182E+03  0.00000000000E+00 0. -1.
<mgrwt>
<rscale>  4 0.27276055E+03</rscale>
<asrwt>0</asrwt>
<pdfrwt beam="1">  1       21 0.88968212E-01 0.27276055E+03</pdfrwt>
<pdfrwt beam="2">  1       21 0.83322216E-01 0.27276055E+03</pdfrwt>
<totfact> 0.12664966E+03</totfact>
</mgrwt>
</event>
<event>
 5    0  0.1531977E+001  0.2456897E+03  0.7546771E-02  0.1116060E+00
         21   -1    0    0  504  501  0.00000000000E+00  0.00000000000E+00  0.49869511249E+03  0.49869511249E+03  0.00000000000E+00 0.  1.
         21   -1    0    0  503  502 -0.00000000000E+00 -0.00000000000E+00 -0.21461859611E+03  0.21461859611E+03  0.00000000000E+00 0.  1.
         25    1    1    2    0    0  0.42155259761E+02 -0.22072569957E+03  0.30121015385E+03  0.39604224163E+03  0.12500000000E+03 0.  0.
         21    1    1    2  503  501 -0.72499901068E+01  0.30071783884E+02 -0.10133341501E+03  0.10594968400E+03  0.00000000000E+00 0.  1.
         21    1    1    2  504  502 -0.34905269654E+02  0.19065391568E+03  0.84199777542E+02  0.21132178296E+03  0.00000000000E+00 0.  1.
<mgrwt>
<rscale>  4 0.24568973E+03</rscale>
<asrwt>0</asrwt>
<pdfrwt beam="1">  1       21 0.76722325E-01 0.24568973E+03</pdfrwt>
<pdfrwt beam="2">  1       21 0.33018246E-01 0.24568973E+03</pdfrwt>
<totfact> 0.12924162E+04</totfact>
</mgrwt>
</event>
<event>
 5    0  0.1531977E+001  0.2214534E+03  0.7546771E-02  0.1132804E+00
         21   -1    0    0  502  501  0.00000000000E+00  0.00000000000E+00  0.37371025856E+03  0.37371025856E+03  0.00000000000E+00 0.  1.
         21   -1    0    0  504  502 -0.00000000000E+00 -0.00000000000E+00 -0.25508346157E+03  0.25508346157E+03  0.00000000000E+00 0.  1.
         25    1    1    2    0    0 -0.17522435335E+03  0.13154526446E+03  0.53416732189E+02  0.25784894393E+03  0.12500000000E+03 0.  0.
         21    1    1    2  503  501  0.29012302986E+02 -0.18205071509E+03  0.10373498248E+03  0.21153043086E+03  0.00000000000E+00 0.  1.
         21    1    1    2  504  503  0.14621205036E+03  0.50505450630E+02 -0.38524917684E+02  0.15941434533E+03  0.00000000000E+00 0.  1.
<mgrwt>
<rscale>  4 0.22145345E+03</rscale>
<asrwt>0</asrwt>
<pdfrwt beam="1">  1       21 0.57493886E-01 0.22145345E+03</pdfrwt>
<pdfrwt beam="2">  1       21 0.39243609E-01 0.22145345E+03</pdfrwt>
<totfact> 0.17468564E+04</totfact>
</mgrwt>
</event>
<event>
 5    0  0.1531977E+001  0.7126563E+03  0.7546771E-02  0.9695830E-01
         21   -1    0    0  503  501  0.00000000000E+00  0.00000000000E+00  0.17562298856E+04  0.17562298856E+04  0.00000000000E+00 0. -1.
         21   -1    0    0  504  502 -0.00000000000E+00 -0.00000000000E+00 -0.45839793901E+03  0.45839793901E+03  0.00000000000E+00 0.  1.
         25    1    1    2    0    0 -0.65803688195E+03  0.91576511240E+02  0.98265920173E+03  0.11927459504E+04  0.12500000000E+03 0.  0.
         21    1    1    2  503  502  0.70485689815E+03 -0.11438270502E+03  0.11906838003E+02  0.71417674484E+03  0.00000000000E+00 0.  1.
         21    1    1    2  504  501 -0.46820016201E+02  0.22806193784E+02  0.30326590688E+03  0.30770512941E+03  0.00000000000E+00 0. -1.
<mgrwt>
<rscale>  4 0.71265631E+03</rscale>
<asrwt>0</asrwt>
<pdfrwt beam="1">  1       21 0.27018921E+00 0.71265631E+03</pdfrwt>
<pdfrwt beam="2">  1       21 0.70522761E-01 0.71265631E+03</pdfrwt>
<totfact> 0.62900195E+01</totfact>
</mgrwt>
</event>
<event>
 5    0  0.1531977E+001  0.3631976E+03  0.7546771E-02  0.1057325E+00
         21   -1    0    0  502  501  0.00000000000E+00  0.00000000000E+00  0.17040742830E+04  0.17040742830E+04  0.00000000000E+00 0.  1.
         21   -1    0    0  504  502 -0.00000000000E+00 -0.00000000000E+00 -0.20957120431E+03  0.20957120431E+03  0.00000000000E+00 0.  1.
         25    1    1    2    0    0 -0.65777423280E+02 -0.33460543682E+03 -0.13072472945E+02  0.36343274111E+03  0.12500000000E+03 0.  0.
         21    1    1    2  503  501  0.56797601242E+02  0.26473930540E+03  0.93798754591E+03  0.97628556459E+03  0.00000000000E+00 0.  1.
         21    1    1    2  504  503  0.89798220382E+01  0.69866131420E+02  0.56958800568E+03  0.57392718156E+03  0.00000000000E+00 0.  1.
<mgrwt>
<rscale>  4 0.36319756E+03</rscale>
<asrwt>0</asrwt>
<pdfrwt beam="1">  1       21 0.26216527E+00 0.36319756E+03</pdfrwt>
<pdfrwt beam="2">  1       21 0.32241725E-01 0.36319756E+03</pdfrwt>
<totfact> 0.44339622E+02</totfact>
</mgrwt>
</event>
<event>
 5    0  0.1531977E+001  0.3185100E+03  0.7546771E-02  0.1076337E+00
         21   -1    0    0  502  501  0.00000000000E+00  0.00000000000E+00  0.60316492388E+03  0.60316492388E+03  0.00000000000E+00 0. -1.
         21   -1    0    0  504  502 -0.00000000000E+00 -0.00000000000E+00 -0.53915287900E+03  0.53915287900E+03  0.00000000000E+00 0. -1.
         25    1    1    2    0    0  0.16419650260E+03  0.25226898782E+03 -0.38538479746E+03  0.50472425719E+03  0.12500000000E+03 0.  0.
         21    1    1    2  503  501 -0.17472809483E+03 -0.23431954145E+03  0.50207126126E+03  0.58095706039E+03  0.00000000000E+00 0. -1.
         21    1    1    2  504  503  0.10531592229E+02 -0.17949446368E+02 -0.52674418918E+02  0.56636485309E+02  0.00000000000E+00 0. -1.
<mgrwt>
<rscale>  4 0.31850999E+03</rscale>
<asrwt>0</asrwt>
<pdfrwt beam="1">  1       21 0.92794604E-01 0.31850999E+03</pdfrwt>
<pdfrwt beam="2">  1       21 0.82946597E-01 0.31850999E+03</pdfrwt>
<totfact> 0.11259520E+03</totfact>
</mgrwt>
</event>
<event>
 5    0  0.1531977E+001  0.2492318E+03  0.7546771E-02  0.1113791E+00
         21   -1    0    0  502  501  0.00000000000E+00  0.00000000000E+00  0.98022921975E+02  0.98022921975E+02  0.00000000000E+00 0. -1.
         21   -1    0    0  504  502 -0.00000000000E+00 -0.00000000000E+00 -0.64414340761E+03  0.64414340761E+03  0.00000000000E+00 0.  1.
         25    1    1    2    0    0 -0.19558685243E+03 -0.88471052492E+02 -0.30827051232E+03  0.39590030656E+03  0.12500000000E+03 0.  0.
         21    1    1    2  503  501  0.18250514098E+03  0.11781057751E+03 -0.18978348184E+03  0.28845316541E+03  0.00000000000E+00 0. -1.
         21    1    1    2  504  503  0.13081711449E+02 -0.29339525016E+02 -0.48066491477E+02  0.57812857614E+02  0.00000000000E+00 0. -1.
<mgrwt>
<rscale>  4 0.24923185E+03</rscale>
<asrwt>0</asrwt>
<pdfrwt beam="1">  1       21 0.15080449E-01 0.24923185E+03</pdfrwt>
<pdfrwt beam="2">  1       21 0.99098990E-01 0.24923185E+03</pdfrwt>
<totfact> 0.31646395E+04</totfact>
</mgrwt>
</event>
<event>
 5    0  0.1531977E+001  0.2561196E+03  0.7546771E-02  0.1109497E+00
         21   -1    0    0  504  501  0.00000000000E+00  0.00000000000E+00  0.30346388375E+03  0.30346388375E+03  0.00000000000E+00 0. -1.
         21   -1    0    0  503  502 -0.00000000000E+00 -0.00000000000E+00 -0.32951061141E+03  0.32951061141E+03  0.00000000000E+00 0. -1.
         25    1    1    2    0    0  0.22688024207E+03 -0.13046698082E+03  0.10282990510E+03  0.30772596041E+03  0.12500000000E+03 0.  0.
         21    1    1    2  503  501 -0.18161852023E+03  0.11251915451E+03 -0.16047456834E+03  0.26720391858E+03  0.00000000000E+00 0. -1.
         21    1    1    2  504  502 -0.45261721842E+02  0.17947826313E+02  0.31597935580E+02  0.58044616171E+02  0.00000000000E+00 0. -1.
<mgrwt>
<rscale>  4 0.25611962E+03</rscale>
<asrwt>0</asrwt>
<pdfrwt beam="1">  1       21 0.46686751E-01 0.25611962E+03</pdfrwt>
<pdfrwt beam="2">  1       21 0.50693940E-01 0.25611962E+03</pdfrwt>
<totfact> 0.15691821E+04</totfact>
</mgrwt>
</event>
<event>
 5    0  0.1531977E+001  0.3044405E+03  0.7546771E-02  0.1083042E+00
         21   -1    0    0  503  501  0.00000000000E+00  0.00000000000E+00  0.13494710020E+04  0.13494710020E+04  0.00000000000E+00 0. -1.
         21   -1    0    0  504  502 -0.00000000000E+00 -0.00000000000E+00 -0.82450775298E+03  0.82450775298E+03  0.00000000000E+00 0. -1.
         25    1    1    2    0    0 -0.17569364572E+02  0.37678325552E+03 -0.63749568603E+03  0.75119907742E+03  0.12500000000E+03 0.  0.
         21    1    1    2  503  502  0.10314842041E+02 -0.10142438829E+03 -0.92675146870E+02  0.13777512603E+03  0.00000000000E+00 0. -1.
         21    1    1    2  504  501  0.72545225310E+01 -0.27535886723E+03  0.12551340819E+04  0.12850045515E+04  0.00000000000E+00 0. -1.
<mgrwt>
<rscale>  4 0.30444055E+03</rscale>
<asrwt>0</asrwt>
<pdfrwt beam="1">  1       21 0.20761092E+00 0.30444055E+03</pdfrwt>
<pdfrwt beam="2">  1       21 0.12684735E+00 0.30444055E+03</pdfrwt>
<totfact> 0.48134016E+01</totfact>
</mgrwt>
</event>
<event>
 5    0  0.1531977E+001  0.3238399E+03  0.7546771E-02  0.1073895E+00
         21   -1    0    0  502  501  0.00000000000E+00  0.00000000000E+00  0.29944915976E+03  0.29944915976E+03  0.00000000000E+00 0.  1.
         21   -1    0    0  504  502 -0.00000000000E+00 -0.00000000000E+00 -0.38032773477E+03  0.38032773477E+03  0.00000000000E+00 0.  1.
         25    1    1    2    0    0  0.27699992235E+03  0.48582169670E+02 -0.13285596558E+03  0.33520872867E+03  0.12500000000E+03 0.  0.
         21    1    1    2  503  501  0.24987764387E+02  0.13041940861E+02 -0.10517640923E+02  0.30084902544E+02  0.00000000000E+00 0.  1.
         21    1    1    2  504  503 -0.30198768673E+03 -0.61624110531E+02  0.62495031492E+02  0.31448326330E+03  0.00000000000E+00 0.  1.
<mgrwt>
<rscale>  4 0.32383995E+03</rscale>
<asrwt>0</asrwt>
<pdfrwt beam="1">  1       21 0.46069102E-01 0.32383995E+03</pdfrwt>
<pdfrwt beam="2">  1       21 0.58511959E-01 0.32383995E+03</pdfrwt>
<totfact> 0.11525999E+04</totfact>
</mgrwt>
</event>
<event>
 5    0  0.1531977E+001  0.3117995E+03  0.7546771E-02  0.1079487E+00
         21   -1    0    0  502  501  0.00000000000E+00  0.00000000000E+00  0.13813799820E+04  0.13813799820E+04  0.00000000000E+00 0. -1.
         21   -1    0    0  504  502 -0.00000000000E+00 -0.00000000000E+00 -0.11624647346E+03  0.11624647346E+03  0.00000000000E+00 0. -1.
         25    1    1    2    0    0 -0.20007676752E+03 -0.15585547801E+03  0.72279403095E+03  0.77613004973E+03  0.12500000000E+03 0.  0.
         21    1    1    2  503  501 -0.43960718445E+02 -0.12362530230E+02  0.38159234696E+03  0.38431510011E+03  0.00000000000E+00 0.  1.
         21    1    1    2  504  503  0.24403748596E+03  0.16821800824E+03  0.16074713065E+03  0.33718130562E+03  0.00000000000E+00 0. -1.
<mgrwt>
<rscale>  4 0.31179947E+03</rscale>
<asrwt>0</asrwt>
<pdfrwt beam="1">  1       21 0.21251999E+00 0.31179947E+03</pdfrwt>
<pdfrwt beam="2">  1       21 0.17884074E-01 0.31179947E+03</pdfrwt>
<totfact> 0.28908460E+03</totfact>
</mgrwt>
</event>
<event>
 5    0  0.1531977E+001  0.3268279E+03  0.7546771E-02  0.1072549E+00
         21   -1    0    0  503  501  0.00000000000E+00  0.00000000000E+00  0.48980963276E+03  0.48980963276E+03  0.00000000000E+00 0. -1.
         21   -1    0    0  501  502 -0.00000000000E+00 -0.00000000000E+00 -0.24404399854E+03  0.24404399854E+03  0.00000000000E+00 0. -1.
         25    1    1    2    0    0  0.31162387173E+03 -0.22840953474E+02  0.65512482937E+02  0.34285278475E+03  0.12500000000E+03 0.  0.
         21    1    1    2  503  504 -0.28762197162E+03  0.49761119400E+02  0.10981941995E+03  0.31186996098E+03  0.00000000000E+00 0. -1.
         21    1    1    2  504  502 -0.24001900113E+02 -0.26920165926E+02  0.70433731327E+02  0.79130885570E+02  0.00000000000E+00 0.  1.
<mgrwt>
<rscale>  4 0.32682793E+03</rscale>
<asrwt>0</asrwt>
<pdfrwt beam="1">  1       21 0.75355328E-01 0.32682793E+03</pdfrwt>
<pdfrwt beam="2">  1       21 0.37545231E-01 0.32682793E+03</pdfrwt>
<totfact> 0.10014057E+04</totfact>
</mgrwt>
</event>
<event>
 5    0  0.1531977E+001  0.2181022E+03  0.7546771E-02  0.1135306E+00
         21   -1    0    0  502  501  0.00000000000E+00  0.00000000000E+00  0.16774720729E+04  0.16774720729E+04  0.00000000000E+00 0. -1.
         21   -1    0    0  504  502 -0.00000000000E+00 -0.00000000000E+00 -0.85069150249E+02  0.85069150249E+02  0.00000000000E+00 0. -1.
         25    1    1    2    0    0  0.11942022061E+03  0.18095975775E+03  0.29724473470E+03  0.38857052812E+03  0.12500000000E+03 0.  0.
         21    1    1    2  503  501 -0.10455965242E+03 -0.13906717479E+03  0.13141611014E+04  0.13256288321E+04  0.00000000000E+00 0. -1.
         21    1    1    2  504  503 -0.14860568191E+02 -0.41892582965E+02 -0.19002913441E+02  0.48341862952E+02  0.00000000000E+00 0. -1.
<mgrwt>
<rscale>  4 0.21810218E+03</rscale>
<asrwt>0</asrwt>
<pdfrwt beam="1">  1       21 0.25807260E+00 0.21810218E+03</pdfrwt>
<pdfrwt beam="2">  1       21 0.13087563E-01 0.21810218E+03</pdfrwt>
<totfact> 0.29143742E+03</totfact>
</mgrwt>
</event>
<event>
 5    0  0.1531977E+001  0.2478421E+03  0.7546771E-02  0.1114676E+00
         21   -1    0    0  502  501  0.00000000000E+00  0.00000000000E+00  0.21916804676E+03  0.21916804676E+03  0.00000000000E+00 0.  1.
         21   -1    0    0  504  502 -0.00000000000E+00 -0.00000000000E+00 -0.66469315233E+03  0.66469315233E+03  0.00000000000E+00 0.  1.
         25    1    1    2    0    0 -0.22003415259E+03 -0.37243303859E+02 -0.48354990270E+03  0.54703528258E+03  0.12500000000E+03 0.  0.
         21    1    1    2  503  501  0.24667975555E+02  0.23448333610E+02  0.11983427905E+03  0.12457362402E+03  0.00000000000E+00 0.  1.
         21    1    1    2  504  503  0.19536617703E+03  0.13794970249E+02 -0.81809481909E+02  0.21225229248E+03  0.00000000000E+00 0.  1.
<mgrwt>
<rscale>  4 0.24784211E+03</rscale>
<asrwt>0</asrwt>
<pdfrwt beam="1">  1       21 0.33718161E-01 0.24784211E+03</pdfrwt>
<pdfrwt beam="2">  1       21 0.10226048E+00 0.24784211E+03</pdfrwt>
<totfact> 0.63479149E+03</totfact>
</mgrwt>
</event>
<event>
 5    0  0.1531977E+001  0.2385016E+03  0.7546771E-02  0.1120795E+00
         21   -1    0    0  502  501  0.00000000000E+00  0.00000000000E+00  0.11601637835E+03  0.11601637835E+03  0.00000000000E+00 0.  1.
         21   -1    0    0  504  502 -0.00000000000E+00 -0.00000000000E+00 -0.10477828988E+04  0.10477828988E+04  0.00000000000E+00 0.  1.
         25    1    1    2    0    0 -0.33783817377E+02 -0.21932935346E+03 -0.65112991144E+03  0.69917227718E+03  0.12500000000E+03 0.  0.
         21    1    1    2  503  501  0.19653032296E+02  0.19914982419E+03 -0.18096664511E+02  0.20093377869E+03  0.00000000000E+00 0.  1.
         21    1    1    2  504  503  0.14130785080E+02  0.20179529268E+02 -0.26253994445E+03  0.26369322123E+03  0.00000000000E+00 0. -1.
<mgrwt>
<rscale>  4 0.23850162E+03</rscale>
<asrwt>0</asrwt>
<pdfrwt beam="1">  1       21 0.17848674E-01 0.23850162E+03</pdfrwt>
<pdfrwt beam="2">  1       21 0.16119736E+00 0.23850162E+03</pdfrwt>
<totfact> 0.67940283E+03</totfact>
</mgrwt>
</event>
<event>
 5    0  0.1531977E+001  0.7419103E+03  0.7546771E-02  0.9648128E-01
         21   -1    0    0  502  501  0.00000000000E+00  0.00000000000E+00  0.18591185481E+04  0.18591185481E+04  0.00000000000E+00 0.  1.
         21   -1    0    0  504  502 -0.00000000000E+00 -0.00000000000E+00 -0.84479555162E+03  0.84479555162E+03  0.00000000000E+00 0. -1.
         25    1    1    2    0    0  0.26925116497E+03  0.69100903298E+03  0.89736440523E+03  0.11708448015E+04  0.12500000000E+03 0.  0.
         21    1    1    2  503  501  0.42218613785E+02 -0.31121442047E+02  0.63564396924E+03  0.63780421066E+03  0.00000000000E+00 0. -1.
         21    1    1    2  504  503 -0.31146977876E+03 -0.65988759093E+03 -0.51868537794E+03  0.89526508758E+03  0.00000000000E+00 0. -1.
<mgrwt>
<rscale>  4 0.74191035E+03</rscale>
<asrwt>0</asrwt>
<pdfrwt beam="1">  1       21 0.28601824E+00 0.74191035E+03</pdfrwt>
<pdfrwt beam="2">  1       21 0.12996855E+00 0.74191035E+03</pdfrwt>
<totfact> 0.11174632E+01</totfact>
</mgrwt>
</event>
<event>
 5    0  0.1531977E+001  0.2709494E+03  0.7546771E-02  0.1100737E+00
         21   -1    0    0  503  501  0.00000000000E+00  0.00000000000E+00  0.25252323386E+03  0.25252323386E+03  0.00000000000E+00 0. -1.
         21   -1    0    0  504  502 -0.00000000000E+00 -0.00000000000E+00 -0.38125000463E+03  0.38125000463E+03  0.00000000000E+00 0. -1.
         25    1    1    2    0    0  0.22012704255E+03 -0.71889393485E+02 -0.17453938381E+03  0.31577364719E+03  0.12500000000E+03 0.  0.
         21    1    1    2  503  502  0.45252656120E+01 -0.22199518303E+02 -0.51076495040E+02  0.55875799657E+02  0.00000000000E+00 0.  1.
         21    1    1    2  504  501 -0.22465230817E+03  0.94088911788E+02  0.96889108070E+02  0.26212379165E+03  0.00000000000E+00 0. -1.
<mgrwt>
<rscale>  4 0.27094936E+03</rscale>
<asrwt>0</asrwt>
<pdfrwt beam="1">  1       21 0.38849728E-01 0.27094936E+03</pdfrwt>
<pdfrwt beam="2">  1       21 0.58653847E-01 0.27094936E+03</pdfrwt>
<totfact> 0.16657090E+04</totfact>
</mgrwt>
</event>
<event>
 5    0  0.1531977E+001  0.3187747E+03  0.7546771E-02  0.1076215E+00
         21   -1    0    0  502  501  0.00000000000E+00  0.00000000000E+00  0.29225094186E+03  0.29225094186E+03  0.00000000000E+00 0. -1.
         21   -1    0    0  504  502 -0.00000000000E+00 -0.00000000000E+00 -0.43711045605E+03  0.43711045605E+03  0.00000000000E+00 0. -1.
         25    1    1    2    0    0  0.28627603012E+03  0.12527400051E+03 -0.43986237642E+02  0.33942205251E+03  0.12500000000E+03 0.  0.
         21    1    1    2  503  501 -0.27155524253E+02 -0.12754571915E+02  0.58386479932E+02  0.65643603200E+02  0.00000000000E+00 0. -1.
         21    1    1    2  504  503 -0.25912050587E+03 -0.11251942859E+03 -0.15925975648E+03  0.32429574220E+03  0.00000000000E+00 0. -1.
<mgrwt>
<rscale>  4 0.31877468E+03</rscale>
<asrwt>0</asrwt>
<pdfrwt beam="1">  1       21 0.44961683E-01 0.31877468E+03</pdfrwt>
<pdfrwt beam="2">  1       21 0.67247762E-01 0.31877468E+03</pdfrwt>
<totfact> 0.89572654E+03</totfact>
</mgrwt>
</event>
<event>
 5    0  0.1531977E+001  0.4666506E+03  0.7546771E-02  0.1022870E+00
         21   -1    0    0  502  501  0.00000000000E+00  0.00000000000E+00  0.81235306237E+03  0.81235306237E+03  0.00000000000E+00 0. -1.
         21   -1    0    0  504  502 -0.00000000000E+00 -0.00000000000E+00 -0.33113957993E+03  0.33113957993E+03  0.00000000000E+00 0.  1.
         25    1    1    2    0    0  0.17165697581E+03  0.44210480203E+03  0.33694790910E+03  0.59504761723E+03  0.12500000000E+03 0.  0.
         21    1    1    2  503  501 -0.10802440350E+02 -0.35898137390E+02  0.10299357067E+03  0.10960403544E+03  0.00000000000E+00 0.  1.
         21    1    1    2  504  503 -0.16085453546E+03 -0.40620666464E+03  0.41272002673E+02  0.43884098963E+03  0.00000000000E+00 0.  1.
<mgrwt>
<rscale>  4 0.46665061E+03</rscale>
<asrwt>0</asrwt>
<pdfrwt beam="1">  1       21 0.12497739E+00 0.46665061E+03</pdfrwt>
<pdfrwt beam="2">  1       21 0.50944551E-01 0.46665061E+03</pdfrwt>
<totfact> 0.14855425E+03</totfact>
</mgrwt>
</event>
<event>
 5    0  0.1531977E+001  0.2372495E+03  0.7546771E-02  0.1121639E+00
         21   -1    0    0  503  501  0.00000000000E+00  0.00000000000E+00  0.40763008769E+03  0.40763008769E+03  0.00000000000E+00 0.  1.
         21   -1    0    0  504  502 -0.00000000000E+00 -0.00000000000E+00 -0.44061066896E+03  0.44061066896E+03  0.00000000000E+00 0.  1.
         25    1    1    2    0    0  0.13858630217E+03 -0.21150239119E+03 -0.29856793180E+03  0.41073986236E+03  0.12500000000E+03 0.  0.
         21    1    1    2  503  502 -0.76116069688E+02  0.11878026845E+03 -0.86580995087E+01  0.14134132773E+03  0.00000000000E+00 0. -1.
         21    1    1    2  504  501 -0.62470232487E+02  0.92722122736E+02  0.27424545004E+03  0.29615956655E+03  0.00000000000E+00 0.  1.
<mgrwt>
<rscale>  4 0.23724952E+03</rscale>
<asrwt>0</asrwt>
<pdfrwt beam="1">  1       21 0.62712321E-01 0.23724952E+03</pdfrwt>
<pdfrwt beam="2">  1       21 0.67786257E-01 0.23724952E+03</pdfrwt>
<totfact> 0.45332957E+03</totfact>
</mgrwt>
</event>
<event>
 5    0  0.1531977E+001  0.3045523E+03  0.7546771E-02  0.1082987E+00
         21   -1    0    0  504  501  0.00000000000E+00  0.00000000000E+00  0.53520409148E+03  0.53520409148E+03  0.00000000000E+00 0. -1.
         21   -1    0    0  501  502 -0.00000000000E+00 -0.00000000000E+00 -0.22136363482E+03  0.22136363482E+03  0.00000000000E+00 0. -1.
         25    1    1    2    0    0 -0.13610648559E+03  0.24207879359E+03 -0.29906074226E+02  0.30601714168E+03  0.12500000000E+03 0.  0.
         21    1    1    2  503  502  0.17601464402E+02 -0.37643237688E+02  0.11248754453E+03  0.11991777419E+03  0.00000000000E+00 0. -1.
         21    1    1    2  504  503  0.11850502119E+03 -0.20443555590E+03  0.23125898636E+03  0.33063281044E+03  0.00000000000E+00 0. -1.
<mgrwt>
<rscale>  4 0.30455232E+03</rscale>
<asrwt>0</asrwt>
<pdfrwt beam="1">  1       21 0.82339090E-01 0.30455232E+03</pdfrwt>
<pdfrwt beam="2">  1       21 0.34055944E-01 0.30455232E+03</pdfrwt>
<totfact> 0.10050889E+04</totfact>
</mgrwt>
</event>
<event>
 5    0  0.1531977E+001  0.1987636E+03  0.7546771E-02  0.1150786E+00
         21   -1    0    0  502  501  0.00000000000E+00  0.00000000000E+00  0.16491896614E+03  0.16491896614E+03  0.00000000000E+00 0. -1.
         21   -1    0    0  504  502 -0.00000000000E+00 -0.00000000000E+00 -0.97005477319E+03  0.97005477319E+03  0.00000000000E+00 0. -1.
         25    1    1    2    0    0  0.19962669429E+03 -0.57651498952E+02  0.29483098386E+02  0.24427190894E+03  0.12500000000E+03 0.  0.
         21    1    1    2  503  501 -0.47902488752E+02  0.71344400344E+02 -0.69377653927E+02  0.11044424274E+03  0.00000000000E+00 0. -1.
         21    1    1    2  504  503 -0.15172420554E+03 -0.13692901392E+02 -0.76524125150E+03  0.78025758766E+03  0.00000000000E+00 0. -1.
<mgrwt>
<rscale>  4 0.19876362E+03</rscale>
<asrwt>0</asrwt>
<pdfrwt beam="1">  1       21 0.25372148E-01 0.19876362E+03</pdfrwt>
<pdfrwt beam="2">  1       21 0.14923920E+00 0.19876362E+03</pdfrwt>
<totfact> 0.44373658E+03</totfact>
</mgrwt>
</event>
<event>
 5    0  0.1531977E+001  0.3050093E+03  0.7546771E-02  0.1082763E+00
         21   -1    0    0  504  501  0.00000000000E+00  0.00000000000E+00  0.15075561449E+03  0.15075561449E+03  0.00000000000E+00 0. -1.
         21   -1    0    0  503  502 -0.00000000000E+00 -0.00000000000E+00 -0.14341539794E+04  0.14341539794E+04  0.00000000000E+00 0. -1.
         25    1    1    2    0    0  0.14634622652E+03 -0.16065794670E+03 -0.31819090632E+02  0.25271653762E+03  0.12500000000E+03 0.  0.
         21    1    1    2  503  501 -0.19711195228E+03  0.20916422912E+03 -0.12231150345E+04  0.12564287422E+04  0.00000000000E+00 0. -1.
         21    1    1    2  504  502  0.50765725761E+02 -0.48506282414E+02 -0.28464239737E+02  0.75764314090E+02  0.00000000000E+00 0.  1.
<mgrwt>
<rscale>  4 0.30500926E+03</rscale>
<asrwt>0</asrwt>
<pdfrwt beam="1">  1       21 0.23193171E-01 0.30500926E+03</pdfrwt>
<pdfrwt beam="2">  1       21 0.22063908E+00 0.30500926E+03</pdfrwt>
<totfact> 0.15777885E+03</totfact>
</mgrwt>
</event>
<event>
 5    0  0.1531977E+001  0.3787382E+03  0.7546771E-02  0.1051401E+00
         21   -1    0    0  504  501  0.00000000000E+00  0.00000000000E+00  0.68081650789E+03  0.68081650789E+03  0.00000000000E+00 0.  1.
         21   -1    0    0  503  502 -0.00000000000E+00 -0.00000000000E+00 -0.28511612399E+03  0.28511612399E+03  0.00000000000E+00 0.  1.
         25    1    1    2    0    0 -0.36438285548E+03 -0.10417278921E+03  0.39990133255E+03  0.56495390180E+03  0.12500000000E+03 0.  0.
         21    1    1    2  503  501  0.33756922533E+03  0.94724173788E+02 -0.42615876801E+02  0.35318800085E+03  0.00000000000E+00 0.  1.
         21    1    1    2  504  502  0.26813630144E+02  0.94486154253E+01  0.38414928150E+02  0.47790729223E+02  0.00000000000E+00 0. -1.
<mgrwt>
<rscale>  4 0.37873816E+03</rscale>
<asrwt>0</asrwt>
<pdfrwt beam="1">  1       21 0.10474100E+00 0.37873816E+03</pdfrwt>
<pdfrwt beam="2">  1       21 0.43864019E-01 0.37873816E+03</pdfrwt>
<totfact> 0.32833187E+03</totfact>
</mgrwt>
</event>
<event>
 5    0  0.1531977E+001  0.2509125E+03  0.7546771E-02  0.1112730E+00
         21   -1    0    0  504  501  0.00000000000E+00  0.00000000000E+00  0.43675263576E+02  0.43675263576E+02  0.00000000000E+00 0. -1.
         21   -1    0    0  503  502 -0.00000000000E+00 -0.00000000000E+00 -0.27294029471E+04  0.27294029471E+04  0.00000000000E+00 0. -1.
         25    1    1    2    0    0 -0.19590021229E+03 -0.10950717236E+03 -0.43411703763E+03  0.50443167658E+03  0.12500000000E+03 0.  0.
         21    1    1    2  503  501  0.17870674528E+03  0.12247791841E+03 -0.22190909563E+04  0.22296415886E+04  0.00000000000E+00 0. -1.
         21    1    1    2  504  502  0.17193467012E+02 -0.12970746050E+02 -0.32519689540E+02  0.39004945439E+02  0.00000000000E+00 0. -1.
<mgrwt>
<rscale>  4 0.25091247E+03</rscale>
<asrwt>0</asrwt>
<pdfrwt beam="1">  1       21 0.67192724E-02 0.25091247E+03</pdfrwt>
<pdfrwt beam="2">  1       21 0.41990808E+00 0.25091247E+03</pdfrwt>
<totfact> 0.97846055E+02</totfact>
</mgrwt>
</event>
<event>
 5    0  0.1531977E+001  0.2470116E+03  0.7546771E-02  0.1115208E+00
         21   -1    0    0  503  501  0.00000000000E+00  0.00000000000E+00  0.14349874402E+04  0.14349874402E+04  0.00000000000E+00 0. -1.
         21   -1    0    0  501  502 -0.00000000000E+00 -0.00000000000E+00 -0.41393119133E+02  0.41393119133E+02  0.00000000000E+00 0. -1.
         25    1    1    2    0    0 -0.18760957515E+03 -0.10095723647E+03  0.61307900111E+03  0.66096942281E+03  0.12500000000E+03 0.  0.
         21    1    1    2  503  504  0.10004451347E+03  0.66017179411E+02  0.25833144066E+03  0.28478466582E+03  0.00000000000E+00 0. -1.
         21    1    1    2  504  502  0.87565061683E+02  0.34940057055E+02  0.52218387928E+03  0.53062647069E+03  0.00000000000E+00 0. -1.
<mgrwt>
<rscale>  4 0.24701157E+03</rscale>
<asrwt>0</asrwt>
<pdfrwt beam="1">  1       21 0.22076726E+00 0.24701157E+03</pdfrwt>
<pdfrwt beam="2">  1       21 0.63681733E-02 0.24701157E+03</pdfrwt>
<totfact> 0.17013704E+04</totfact>
</mgrwt>
</event>
<event>
 5    0  0.1531977E+001  0.2301774E+03  0.7546771E-02  0.1126515E+00
         21   -1    0    0  503  501  0.00000000000E+00  0.00000000000E+00  0.91679492449E+03  0.91679492449E+03  0.00000000000E+00 0.  1.
         21   -1    0    0  504  502 -0.00000000000E+00 -0.00000000000E+00 -0.27290403367E+03  0.27290403367E+03  0.00000000000E+00 0. -1.
         25    1    1    2    0    0 -0.17437883860E+03  0.10203897650E+03 -0.15534895908E+03  0.28386305002E+03  0.12500000000E+03 0.  0.
         21    1    1    2  503  502 -0.16633535248E+01 -0.23180206906E+02 -0.39157084720E+02  0.45534229113E+02  0.00000000000E+00 0. -1.
         21    1    1    2  504  501  0.17604219213E+03 -0.78858769593E+02  0.83839693463E+03  0.86030167903E+03  0.00000000000E+00 0.  1.
<mgrwt>
<rscale>  4 0.23017738E+03</rscale>
<asrwt>0</asrwt>
<pdfrwt beam="1">  1       21 0.14104537E+00 0.23017738E+03</pdfrwt>
<pdfrwt beam="2">  1       21 0.41985236E-01 0.23017738E+03</pdfrwt>
<totfact> 0.18531089E+03</totfact>
</mgrwt>
</event>
<event>
 5    0  0.1531977E+001  0.2467446E+03  0.7546771E-02  0.1115380E+00
         21   -1    0    0  504  501  0.00000000000E+00  0.00000000000E+00  0.75579308353E+03  0.75579308353E+03  0.00000000000E+00 0.  1.
         21   -1    0    0  503  502 -0.00000000000E+00 -0.00000000000E+00 -0.20864339228E+03  0.20864339228E+03  0.00000000000E+00 0.  1.
         25    1    1    2    0    0 -0.23786371276E+03 -0.59356980174E+02  0.13283420850E+03  0.30556885295E+03  0.12500000000E+03 0.  0.
         21    1    1    2  503  501  0.33392468697E+02  0.37185872711E+02 -0.96239905940E+02  0.10844337504E+03  0.00000000000E+00 0.  1.
         21    1    1    2  504  502  0.20447124407E+03  0.22171107463E+02  0.51055538870E+03  0.55042424782E+03  0.00000000000E+00 0.  1.
<mgrwt>
<rscale>  4 0.24674459E+03</rscale>
<asrwt>0</asrwt>
<pdfrwt beam="1">  1       21 0.11627586E+00 0.24674459E+03</pdfrwt>
<pdfrwt beam="2">  1       21 0.32098984E-01 0.24674459E+03</pdfrwt>
<totfact> 0.51221959E+03</totfact>
</mgrwt>
</event>
<event>
 5    0  0.1531977E+001  0.2683123E+03  0.7546771E-02  0.1102249E+00
         21   -1    0    0  504  501  0.00000000000E+00  0.00000000000E+00  0.53767415935E+03  0.53767415935E+03  0.00000000000E+00 0.  1.
         21   -1    0    0  503  502 -0.00000000000E+00 -0.00000000000E+00 -0.36223941095E+03  0.36223941095E+03  0.00000000000E+00 0.  1.
         25    1    1    2    0    0 -0.11940342787E+02 -0.24380062488E+03  0.27545165755E+03  0.38869002061E+03  0.12500000000E+03 0.  0.
         21    1    1    2  503  501  0.88212840283E+02  0.22117742237E+03 -0.24762617415E+03  0.34353992414E+03  0.00000000000E+00 0.  1.
         21    1    1    2  504  502 -0.76272497495E+02  0.22623202502E+02  0.14760926499E+03  0.16768362555E+03  0.00000000000E+00 0.  1.
<mgrwt>
<rscale>  4 0.26831235E+03</rscale>
<asrwt>0</asrwt>
<pdfrwt beam="1">  1       21 0.82719101E-01 0.26831235E+03</pdfrwt>
<pdfrwt beam="2">  1       21 0.55729140E-01 0.26831235E+03</pdfrwt>
<totfact> 0.36647809E+03</totfact>
</mgrwt>
</event>
<event>
 5    0  0.1531977E+001  0.1900289E+03  0.7546771E-02  0.1158435E+00
         21   -1    0    0  503  501  0.00000000000E+00  0.00000000000E+00  0.35327551283E+03  0.35327551283E+03  0.00000000000E+00 0. -1.
         21   -1    0    0  504  502 -0.00000000000E+00 -0.00000000000E+00 -0.79957597125E+03  0.79957597125E+03  0.00000000000E+00 0.  1.
         25    1    1    2    0    0 -0.21055719579E+03  0.60560728248E+02  0.26189222384E+03  0.36361307927E+03  0.12500000000E+03 0.  0.
         21    1    1    2  503  502  0.13403510889E+03 -0.45061421445E+02 -0.69599574545E+03  0.71021547421E+03  0.00000000000E+00 0.  1.
         21    1    1    2  504  501  0.76522086899E+02 -0.15499306803E+02 -0.12196936805E+02  0.79022930610E+02  0.00000000000E+00 0. -1.
<mgrwt>
<rscale>  4 0.19002887E+03</rscale>
<asrwt>0</asrwt>
<pdfrwt beam="1">  1       21 0.54350079E-01 0.19002887E+03</pdfrwt>
<pdfrwt beam="2">  1       21 0.12301169E+00 0.19002887E+03</pdfrwt>
<totfact> 0.15922230E+03</totfact>
</mgrwt>
</event>
<event>
 5    0  0.1531977E+001  0.4050218E+03  0.7546771E-02  0.1042055E+00
         21   -1    0    0  504  501  0.00000000000E+00  0.00000000000E+00  0.62976244349E+03  0.62976244349E+03  0.00000000000E+00 0.  1.
         21   -1    0    0  503  502 -0.00000000000E+00 -0.00000000000E+00 -0.51547049009E+03  0.51547049009E+03  0.00000000000E+00 0.  1.
         25    1    1    2    0    0 -0.49412079690E+02 -0.38777010811E+03  0.33042900841E+03  0.52689234191E+03  0.12500000000E+03 0.  0.
         21    1    1    2  503  501  0.72839458567E+02  0.37724828778E+03 -0.32700712652E+03  0.50453495236E+03  0.00000000000E+00 0.  1.
         21    1    1    2  504  502 -0.23427378876E+02  0.10521820329E+02  0.11087007151E+03  0.11380563932E+03  0.00000000000E+00 0. -1.
<mgrwt>
<rscale>  4 0.40502181E+03</rscale>
<asrwt>0</asrwt>
<pdfrwt beam="1">  1       21 0.96886529E-01 0.40502181E+03</pdfrwt>
<pdfrwt beam="2">  1       21 0.79303153E-01 0.40502181E+03</pdfrwt>
<totfact> 0.10770526E+03</totfact>
</mgrwt>
</event>
<event>
 5    0  0.1531977E+001  0.2599045E+03  0.7546771E-02  0.1107201E+00
         21   -1    0    0  503  501  0.00000000000E+00  0.00000000000E+00  0.51275046316E+03  0.51275046316E+03  0.00000000000E+00 0. -1.
         21   -1    0    0  504  502 -0.00000000000E+00 -0.00000000000E+00 -0.25096539849E+03  0.25096539849E+03  0.00000000000E+00 0.  1.
         25    1    1    2    0    0  0.16696727898E+03  0.15247242495E+03 -0.13167609296E+03  0.28998190646E+03  0.12500000000E+03 0.  0.
         21    1    1    2  503  502  0.14483830183E+02 -0.14018536408E+02  0.15642520276E+01  0.20217506874E+02  0.00000000000E+00 0.  1.
         21    1    1    2  504  501 -0.18145110916E+03 -0.13845388854E+03  0.39189690560E+03  0.45351644831E+03  0.00000000000E+00 0. -1.
<mgrwt>
<rscale>  4 0.25990451E+03</rscale>
<asrwt>0</asrwt>
<pdfrwt beam="1">  1       21 0.78884686E-01 0.25990451E+03</pdfrwt>
<pdfrwt beam="2">  1       21 0.38610061E-01 0.25990451E+03</pdfrwt>
<totfact> 0.88033556E+03</totfact>
</mgrwt>
</event>
<event>
 5    0  0.1531977E+001  0.1761105E+03  0.7546771E-02  0.1171621E+00
         21   -1    0    0  504  501  0.00000000000E+00  0.00000000000E+00  0.68861376998E+03  0.68861376998E+03  0.00000000000E+00 0.  1.
         21   -1    0    0  503  502 -0.00000000000E+00 -0.00000000000E+00 -0.14080562391E+03  0.14080562391E+03  0.00000000000E+00 0.  1.
         25    1    1    2    0    0  0.10813969659E+02  0.20209497505E+03  0.38329533069E+03  0.45110933421E+03  0.12500000000E+03 0.  0.
         21    1    1    2  503  501  0.56559347574E+01 -0.11744419757E+03 -0.64138790638E+02  0.13393622963E+03  0.00000000000E+00 0.  1.
         21    1    1    2  504  502 -0.16469904417E+02 -0.84650777473E+02  0.22865160602E+03  0.24437383005E+03  0.00000000000E+00 0.  1.
<mgrwt>
<rscale>  4 0.17611052E+03</rscale>
<asrwt>0</asrwt>
<pdfrwt beam="1">  1       21 0.10594058E+00 0.17611052E+03</pdfrwt>
<pdfrwt beam="2">  1       21 0.21662404E-01 0.17611052E+03</pdfrwt>
<totfact> 0.14371445E+04</totfact>
</mgrwt>
</event>
<event>
 5    0  0.1531977E+001  0.3191837E+03  0.7546771E-02  0.1076026E+00
         21   -1    0    0  502  501  0.00000000000E+00  0.00000000000E+00  0.33139222266E+03  0.33139222266E+03  0.00000000000E+00 0.  1.
         21   -1    0    0  504  502 -0.00000000000E+00 -0.00000000000E+00 -0.47561577842E+03  0.47561577842E+03  0.00000000000E+00 0.  1.
         25    1    1    2    0    0  0.14508559619E+03  0.25094150922E+03  0.64734345022E+02  0.32223750045E+03  0.12500000000E+03 0.  0.
         21    1    1    2  503  501  0.91225387364E+02 -0.64325235121E+02  0.10580331197E+02  0.11212381808E+03  0.00000000000E+00 0.  1.
         21    1    1    2  504  503 -0.23631098355E+03 -0.18661627410E+03 -0.21953823198E+03  0.37264668254E+03  0.00000000000E+00 0.  1.
<mgrwt>
<rscale>  4 0.31918371E+03</rscale>
<asrwt>0</asrwt>
<pdfrwt beam="1">  1       21 0.50983419E-01 0.31918371E+03</pdfrwt>
<pdfrwt beam="2">  1       21 0.73171658E-01 0.31918371E+03</pdfrwt>
<totfact> 0.56973877E+03</totfact>
</mgrwt>
</event>
<event>
 5    0  0.1531977E+001  0.2708231E+03  0.7546771E-02  0.1100809E+00
         21   -1    0    0  502  501  0.00000000000E+00  0.00000000000E+00  0.14555396590E+03  0.14555396590E+03  0.00000000000E+00 0. -1.
         21   -1    0    0  504  502 -0.00000000000E+00 -0.00000000000E+00 -0.71761800770E+03  0.71761800770E+03  0.00000000000E+00 0.  1.
         25    1    1    2    0    0  0.16244093094E+03  0.16065336786E+03 -0.41472247222E+03  0.48971041404E+03  0.12500000000E+03 0.  0.
         21    1    1    2  503  501 -0.14111274347E+03 -0.20014257803E+03 -0.40392465213E+02  0.24819631173E+03  0.00000000000E+00 0. -1.
         21    1    1    2  504  503 -0.21328187467E+02  0.39489210169E+02 -0.11694910437E+03  0.12526524783E+03  0.00000000000E+00 0. -1.
<mgrwt>
<rscale>  4 0.27082306E+03</rscale>
<asrwt>0</asrwt>
<pdfrwt beam="1">  1       21 0.22392918E-01 0.27082306E+03</pdfrwt>
<pdfrwt beam="2">  1       21 0.11040277E+00 0.27082306E+03</pdfrwt>
<totfact> 0.11529002E+04</totfact>
</mgrwt>
</event>
<event>
 5    0  0.1531977E+001  0.2417391E+03  0.7546771E-02  0.1118640E+00
         21   -1    0    0  504  501  0.00000000000E+00  0.00000000000E+00  0.58707864663E+03  0.58707864663E+03  0.00000000000E+00 0. -1.
         21   -1    0    0  503  502 -0.00000000000E+00 -0.00000000000E+00 -0.17855506092E+03  0.17855506092E+03  0.00000000000E+00 0.  1.
         25    1    1    2    0    0  0.14713509252E+03  0.22419919257E+03  0.23215597687E+03  0.37607899569E+03  0.12500000000E+03 0.  0.
         21    1    1    2  503  501 -0.11776928303E+03 -0.14757233101E+03 -0.67134312503E+01  0.18892397166E+03  0.00000000000E+00 0.  1.
         21    1    1    2  504  502 -0.29365809486E+02 -0.76626861556E+02  0.18308104008E+03  0.20063074021E+03  0.00000000000E+00 0. -1.
<mgrwt>
<rscale>  4 0.24173915E+03</rscale>
<asrwt>0</asrwt>
<pdfrwt beam="1">  1       21 0.90319791E-01 0.24173915E+03</pdfrwt>
<pdfrwt beam="2">  1       21 0.27470010E-01 0.24173915E+03</pdfrwt>
<totfact> 0.12779411E+04</totfact>
</mgrwt>
</event>
<event>
 5    0  0.1531977E+001  0.2455008E+03  0.7546771E-02  0.1116182E+00
         21   -1    0    0  504  501  0.00000000000E+00  0.00000000000E+00  0.25793253799E+03  0.25793253799E+03  0.00000000000E+00 0.  1.
         21   -1    0    0  503  502 -0.00000000000E+00 -0.00000000000E+00 -0.15458613594E+04  0.15458613594E+04  0.00000000000E+00 0.  1.
         25    1    1    2    0    0 -0.19737692881E+03  0.55365249042E+02  0.18332445539E+03  0.30208578049E+03  0.12500000000E+03 0.  0.
         21    1    1    2  503  501  0.20806454523E+03 -0.38071012927E+02 -0.14653512110E+04  0.14805385603E+04  0.00000000000E+00 0.  1.
         21    1    1    2  504  502 -0.10687616416E+02 -0.17294236115E+02 -0.59020658717E+01  0.21169556656E+02  0.00000000000E+00 0. -1.
<mgrwt>
<rscale>  4 0.24550083E+03</rscale>
<asrwt>0</asrwt>
<pdfrwt beam="1">  1       21 0.39681930E-01 0.24550083E+03</pdfrwt>
<pdfrwt beam="2">  1       21 0.23782482E+00 0.24550083E+03</pdfrwt>
<totfact> 0.45177309E+02</totfact>
</mgrwt>
</event>
<event>
 5    0  0.1531977E+001  0.2909390E+03  0.7546771E-02  0.1089860E+00
         21   -1    0    0  502  501  0.00000000000E+00  0.00000000000E+00  0.23693051802E+03  0.23693051802E+03  0.00000000000E+00 0. -1.
         21   -1    0    0  504  502 -0.00000000000E+00 -0.00000000000E+00 -0.93818608250E+03  0.93818608250E+03  0.00000000000E+00 0. -1.
         25    1    1    2    0    0  0.10803285710E+03 -0.19851548087E+03 -0.20676285517E+03  0.33084040357E+03  0.12500000000E+03 0.  0.
         21    1    1    2  503  501  0.99986641246E+02  0.32612200319E+01  0.12626647221E+03  0.16109371803E+03  0.00000000000E+00 0. -1.
         21    1    1    2  504  503 -0.20801949835E+03  0.19525426083E+03 -0.62075918152E+03  0.68318247892E+03  0.00000000000E+00 0. -1.
<mgrwt>
<rscale>  4 0.29093899E+03</rscale>
<asrwt>0</asrwt>
<pdfrwt beam="1">  1       21 0.36450849E-01 0.29093899E+03</pdfrwt>
<pdfrwt beam="2">  1       21 0.14433632E+00 0.29093899E+03</pdfrwt>
<totfact> 0.22249030E+03</totfact>
</mgrwt>
</event>
<event>
 5    0  0.1531977E+001  0.2861996E+03  0.7546771E-02  0.1092350E+00
         21   -1    0    0  502  501  0.00000000000E+00  0.00000000000E+00  0.16363690372E+04  0.16363690372E+04  0.00000000000E+00 0. -1.
         21   -1    0    0  504  502 -0.00000000000E+00 -0.00000000000E+00 -0.11293953033E+03  0.11293953033E+03  0.00000000000E+00 0.  1.
         25    1    1    2    0    0  0.20344268157E+03 -0.22618439206E+03  0.12981213083E+04  0.13391386168E+04  0.12500000000E+03 0.  0.
         21    1    1    2  503  501 -0.58444443770E+02  0.21128458840E+02  0.12526704357E+03  0.13983560700E+03  0.00000000000E+00 0. -1.
         21    1    1    2  504  503 -0.14499823780E+03  0.20505593322E+03  0.10004115500E+03  0.27033434374E+03  0.00000000000E+00 0.  1.
<mgrwt>
<rscale>  4 0.28619957E+03</rscale>
<asrwt>0</asrwt>
<pdfrwt beam="1">  1       21 0.25174906E+00 0.28619957E+03</pdfrwt>
<pdfrwt beam="2">  1       21 0.17375314E-01 0.28619957E+03</pdfrwt>
<totfact> 0.17794155E+03</totfact>
</mgrwt>
</event>
<event>
 5    0  0.1531977E+001  0.2640506E+03  0.7546771E-02  0.1104734E+00
         21   -1    0    0  502  501  0.00000000000E+00  0.00000000000E+00  0.16417087299E+03  0.16417087299E+03  0.00000000000E+00 0. -1.
         21   -1    0    0  504  502 -0.00000000000E+00 -0.00000000000E+00 -0.15836180477E+04  0.15836180477E+04  0.00000000000E+00 0.  1.
         25    1    1    2    0    0 -0.20542912059E+03 -0.16419134370E+03 -0.28379551104E+03  0.40660154085E+03  0.12500000000E+03 0.  0.
         21    1    1    2  503  501  0.29424555381E+02  0.20186028670E+02  0.88850165043E+02  0.95747752146E+02  0.00000000000E+00 0. -1.
         21    1    1    2  504  503  0.17600456521E+03  0.14400531503E+03 -0.12245018287E+04  0.12454396277E+04  0.00000000000E+00 0.  1.
<mgrwt>
<rscale>  4 0.26405057E+03</rscale>
<asrwt>0</asrwt>
<pdfrwt beam="1">  1       21 0.25257057E-01 0.26405057E+03</pdfrwt>
<pdfrwt beam="2">  1       21 0.24363355E+00 0.26405057E+03</pdfrwt>
<totfact> 0.99944354E+02</totfact>
</mgrwt>
</event>
<event>
 5    0  0.1531977E+001  0.3292081E+03  0.7546771E-02  0.1071488E+00
         21   -1    0    0  504  501  0.00000000000E+00  0.00000000000E+00  0.26404067051E+04  0.26404067051E+04  0.00000000000E+00 0.  1.
         21   -1    0    0  503  502 -0.00000000000E+00 -0.00000000000E+00 -0.41973264106E+02  0.41973264106E+02  0.00000000000E+00 0.  1.
         25    1    1    2    0    0  0.75439951630E+02 -0.28235514477E+03  0.12807286012E+04  0.13195856789E+04  0.12500000000E+03 0.  0.
         21    1    1    2  503  501 -0.97304206703E+02  0.30229858958E+03  0.12240267870E+04  0.12645529334E+04  0.00000000000E+00 0.  1.
         21    1    1    2  504  502  0.21864255073E+02 -0.19943444818E+02  0.93678052839E+02  0.98241356998E+02  0.00000000000E+00 0. -1.
<mgrwt>
<rscale>  4 0.32920806E+03</rscale>
<asrwt>0</asrwt>
<pdfrwt beam="1">  1       21 0.40621629E+00 0.32920806E+03</pdfrwt>
<pdfrwt beam="2">  1       21 0.64574273E-02 0.32920806E+03</pdfrwt>
<totfact> 0.11859818E+03</totfact>
</mgrwt>
</event>
<event>
 5    0  0.1531977E+001  0.3212189E+03  0.7546771E-02  0.1075090E+00
         21   -1    0    0  504  501  0.00000000000E+00  0.00000000000E+00  0.42026841181E+03  0.42026841181E+03  0.00000000000E+00 0. -1.
         21   -1    0    0  501  502 -0.00000000000E+00 -0.00000000000E+00 -0.27530496090E+03  0.27530496090E+03  0.00000000000E+00 0. -1.
         25    1    1    2    0    0 -0.23193636819E+03 -0.18374471911E+03 -0.60871626103E+02  0.32693570554E+03  0.12500000000E+03 0.  0.
         21    1    1    2  503  502  0.85773292980E+01  0.29010586410E+02  0.40563247496E+02  0.50601993529E+02  0.00000000000E+00 0.  1.
         21    1    1    2  504  503  0.22335903889E+03  0.15473413270E+03  0.16527182951E+03  0.31803567364E+03  0.00000000000E+00 0. -1.
<mgrwt>
<rscale>  4 0.32121893E+03</rscale>
<asrwt>0</asrwt>
<pdfrwt beam="1">  1       21 0.64656679E-01 0.32121893E+03</pdfrwt>
<pdfrwt beam="2">  1       21 0.42354609E-01 0.32121893E+03</pdfrwt>
<totfact> 0.11044251E+04</totfact>
</mgrwt>
</event>
<event>
 5    0  0.1531977E+001  0.2095033E+03  0.7546771E-02  0.1141960E+00
         21   -1    0    0  504  501  0.00000000000E+00  0.00000000000E+00  0.34252447814E+03  0.34252447814E+03  0.00000000000E+00 0.  1.
         21   -1    0    0  503  502 -0.00000000000E+00 -0.00000000000E+00 -0.29583677516E+03  0.29583677516E+03  0.00000000000E+00 0. -1.
         25    1    1    2    0    0  0.50667905390E+02  0.20208661133E+03  0.23191544376E+03  0.33588094345E+03  0.12500000000E+03 0.  0.
         21    1    1    2  503  501 -0.51458464252E+02 -0.15566601831E+03 -0.19527842952E+03  0.25497754379E+03  0.00000000000E+00 0. -1.
         21    1    1    2  504  502  0.79055886199E+00 -0.46420593026E+02  0.10050688735E+02  0.47502766069E+02  0.00000000000E+00 0. -1.
<mgrwt>
<rscale>  4 0.20950326E+03</rscale>
<asrwt>0</asrwt>
<pdfrwt beam="1">  1       21 0.52696074E-01 0.20950326E+03</pdfrwt>
<pdfrwt beam="2">  1       21 0.45513350E-01 0.20950326E+03</pdfrwt>
<totfact> 0.15638013E+04</totfact>
</mgrwt>
</event>
<event>
 5    0  0.1531977E+001  0.3087047E+03  0.7546771E-02  0.1080968E+00
         21   -1    0    0  503  501  0.00000000000E+00  0.00000000000E+00  0.64991718462E+03  0.64991718462E+03  0.00000000000E+00 0. -1.
         21   -1    0    0  504  502 -0.00000000000E+00 -0.00000000000E+00 -0.31719858647E+03  0.31719858647E+03  0.00000000000E+00 0.  1.
         25    1    1    2    0    0 -0.28491931028E+03  0.58904565522E+02  0.37225244373E+03  0.48871836785E+03  0.12500000000E+03 0.  0.
         21    1    1    2  503  502  0.27932565704E+03 -0.29942350828E+02 -0.18080435204E+03  0.33408020111E+03  0.00000000000E+00 0.  1.
         21    1    1    2  504  501  0.55936532439E+01 -0.28962214694E+02  0.14127050646E+03  0.14431720214E+03  0.00000000000E+00 0.  1.
<mgrwt>
<rscale>  4 0.30870470E+03</rscale>
<asrwt>0</asrwt>
<pdfrwt beam="1">  1       21 0.99987259E-01 0.30870470E+03</pdfrwt>
<pdfrwt beam="2">  1       21 0.48799783E-01 0.30870470E+03</pdfrwt>
<totfact> 0.30414388E+03</totfact>
</mgrwt>
</event>
<event>
 5    0  0.1531977E+001  0.3334676E+03  0.7546771E-02  0.1069613E+00
         21   -1    0    0  502  501  0.00000000000E+00  0.00000000000E+00  0.64800245907E+02  0.64800245907E+02  0.00000000000E+00 0.  1.
         21   -1    0    0  504  502 -0.00000000000E+00 -0.00000000000E+00 -0.24622070046E+04  0.24622070046E+04  0.00000000000E+00 0.  1.
         25    1    1    2    0    0 -0.31105352661E+03 -0.10605748166E+03 -0.12787564280E+04  0.13262147217E+04  0.12500000000E+03 0.  0.
         21    1    1    2  503  501  0.28964053443E+03  0.81743796331E+02 -0.51659638022E+03  0.59786746649E+03  0.00000000000E+00 0.  1.
         21    1    1    2  504  503  0.21412992175E+02  0.24313685329E+02 -0.60205395046E+03  0.60292506234E+03  0.00000000000E+00 0. -1.
<mgrwt>
<rscale>  4 0.33346761E+03</rscale>
<asrwt>0</asrwt>
<pdfrwt beam="1">  1       21 0.99692699E-02 0.33346761E+03</pdfrwt>
<pdfrwt beam="2">  1       21 0.37880103E+00 0.33346761E+03</pdfrwt>
<totfact> 0.81811003E+02</totfact>
</mgrwt>
</event>
<event>
 5    0  0.1531977E+001  0.2511948E+03  0.7546771E-02  0.1112552E+00
         21   -1    0    0  504  501  0.00000000000E+00  0.00000000000E+00  0.19324597403E+03  0.19324597403E+03  0.00000000000E+00 0.  1.
         21   -1    0    0  503  502 -0.00000000000E+00 -0.00000000000E+00 -0.31157731192E+03  0.31157731192E+03  0.00000000000E+00 0.  1.
         25    1    1    2    0    0 -0.28993569810E+02 -0.21594724838E+03 -0.11230240731E+03  0.27515572293E+03  0.12500000000E+03 0.  0.
         21    1    1    2  503  501  0.26175591418E+02  0.18821419840E+02 -0.42070344603E+01  0.32513175326E+02  0.00000000000E+00 0.  1.
         21    1    1    2  504  502  0.28179783925E+01  0.19712582854E+03 -0.18218961256E+01  0.19715438769E+03  0.00000000000E+00 0.  1.
<mgrwt>
<rscale>  4 0.25119483E+03</rscale>
<asrwt>0</asrwt>
<pdfrwt beam="1">  1       21 0.29730150E-01 0.25119483E+03</pdfrwt>
<pdfrwt beam="2">  1       21 0.47934971E-01 0.25119483E+03</pdfrwt>
<totfact> 0.43920216E+04</totfact>
</mgrwt>
</event>
<event>
 5    0  0.1531977E+001  0.3005248E+03  0.7546771E-02  0.1084979E+00
         21   -1    0    0  502  501  0.00000000000E+00  0.00000000000E+00  0.25669850493E+03  0.25669850493E+03  0.00000000000E+00 0. -1.
         21   -1    0    0  504  502 -0.00000000000E+00 -0.00000000000E+00 -0.47581985080E+03  0.47581985080E+03  0.00000000000E+00 0. -1.
         25    1    1    2    0    0  0.29069375444E+03  0.86623541857E+02 -0.12252961088E+03  0.35020708504E+03  0.12500000000E+03 0.  0.
         21    1    1    2  503  501 -0.35979982392E+02 -0.62590298106E+02  0.49649558014E+02  0.87619536412E+02  0.00000000000E+00 0. -1.
         21    1    1    2  504  503 -0.25471377204E+03 -0.24033243751E+02 -0.14624129300E+03  0.29469173428E+03  0.00000000000E+00 0. -1.
<mgrwt>
<rscale>  4 0.30052484E+03</rscale>
<asrwt>0</asrwt>
<pdfrwt beam="1">  1       21 0.39492077E-01 0.30052484E+03</pdfrwt>
<pdfrwt beam="2">  1       21 0.73203054E-01 0.30052484E+03</pdfrwt>
<totfact> 0.97580049E+03</totfact>
</mgrwt>
</event>
<event>
 5    0  0.1531977E+001  0.2326011E+03  0.7546771E-02  0.1124822E+00
         21   -1    0    0  502  501  0.00000000000E+00  0.00000000000E+00  0.35962937915E+03  0.35962937915E+03  0.00000000000E+00 0. -1.
         21   -1    0    0  504  502 -0.00000000000E+00 -0.00000000000E+00 -0.36522983976E+03  0.36522983976E+03  0.00000000000E+00 0. -1.
         25    1    1    2    0    0 -0.23501031306E+03  0.10310174733E+03 -0.46615032048E+02  0.28923654465E+03  0.12500000000E+03 0.  0.
         21    1    1    2  503  501  0.16434856788E+03 -0.80640783274E+02  0.19331005384E+03  0.26623704589E+03  0.00000000000E+00 0. -1.
         21    1    1    2  504  503  0.70661745185E+02 -0.22460964058E+02 -0.15229548239E+03  0.16938562836E+03  0.00000000000E+00 0. -1.
<mgrwt>
<rscale>  4 0.23260106E+03</rscale>
<asrwt>0</asrwt>
<pdfrwt beam="1">  1       21 0.55327597E-01 0.23260106E+03</pdfrwt>
<pdfrwt beam="2">  1       21 0.56189206E-01 0.23260106E+03</pdfrwt>
<totfact> 0.89423468E+03</totfact>
</mgrwt>
</event>
<event>
 5    0  0.1531977E+001  0.2725461E+03  0.7546771E-02  0.1099831E+00
         21   -1    0    0  503  501  0.00000000000E+00  0.00000000000E+00  0.94488083838E+02  0.94488083838E+02  0.00000000000E+00 0. -1.
         21   -1    0    0  504  502 -0.00000000000E+00 -0.00000000000E+00 -0.14996594848E+04  0.14996594848E+04  0.00000000000E+00 0. -1.
         25    1    1    2    0    0 -0.88556974314E+02  0.22419557453E+03 -0.91736106298E+03  0.95670387958E+03  0.12500000000E+03 0.  0.
         21    1    1    2  503  502  0.12911894961E+03  0.42246904166E+02 -0.11866733411E+03  0.18038414632E+03  0.00000000000E+00 0. -1.
         21    1    1    2  504  501 -0.40561975292E+02 -0.26644247869E+03 -0.36914300385E+03  0.45705954271E+03  0.00000000000E+00 0. -1.
<mgrwt>
<rscale>  4 0.27254610E+03</rscale>
<asrwt>0</asrwt>
<pdfrwt beam="1">  1       21 0.14536629E-01 0.27254610E+03</pdfrwt>
<pdfrwt beam="2">  1       21 0.23071683E+00 0.27254610E+03</pdfrwt>
<totfact> 0.33514337E+03</totfact>
</mgrwt>
</event>
<event>
 5    0  0.1531977E+001  0.2287947E+03  0.7546771E-02  0.1127491E+00
         21   -1    0    0  502  501  0.00000000000E+00  0.00000000000E+00  0.26252270464E+03  0.26252270464E+03  0.00000000000E+00 0. -1.
         21   -1    0    0  504  502 -0.00000000000E+00 -0.00000000000E+00 -0.52194291161E+03  0.52194291161E+03  0.00000000000E+00 0. -1.
         25    1    1    2    0    0 -0.52511566649E+02  0.20210216691E+03  0.15503744798E+03  0.28855564590E+03  0.12500000000E+03 0.  0.
         21    1    1    2  503  501 -0.28323123901E+01 -0.20247427446E+02  0.15598732175E+02  0.25715768647E+02  0.00000000000E+00 0. -1.
         21    1    1    2  504  503  0.55343879039E+02 -0.18185473947E+03 -0.43005638712E+03  0.47019420171E+03  0.00000000000E+00 0. -1.
<mgrwt>
<rscale>  4 0.22879467E+03</rscale>
<asrwt>0</asrwt>
<pdfrwt beam="1">  1       21 0.40388108E-01 0.22879467E+03</pdfrwt>
<pdfrwt beam="2">  1       21 0.80298910E-01 0.22879467E+03</pdfrwt>
<totfact> 0.78584393E+03</totfact>
</mgrwt>
</event>
<event>
 5    0  0.1531977E+001  0.2107908E+03  0.7546771E-02  0.1140941E+00
         21   -1    0    0  502  501  0.00000000000E+00  0.00000000000E+00  0.20941234693E+03  0.20941234693E+03  0.00000000000E+00 0. -1.
         21   -1    0    0  504  502 -0.00000000000E+00 -0.00000000000E+00 -0.44190640995E+03  0.44190640995E+03  0.00000000000E+00 0.  1.
         25    1    1    2    0    0  0.11499844982E+03  0.16478375517E+03  0.40716891318E+02  0.24012745504E+03  0.12500000000E+03 0.  0.
         21    1    1    2  503  501 -0.28188300891E+02 -0.24184635364E+02  0.41527462037E+02  0.55713615912E+02  0.00000000000E+00 0.  1.
         21    1    1    2  504  503 -0.86810148927E+02 -0.14059911980E+03 -0.31473841638E+03  0.35547768592E+03  0.00000000000E+00 0.  1.
<mgrwt>
<rscale>  4 0.21079085E+03</rscale>
<asrwt>0</asrwt>
<pdfrwt beam="1">  1       21 0.32217284E-01 0.21079085E+03</pdfrwt>
<pdfrwt beam="2">  1       21 0.67985602E-01 0.21079085E+03</pdfrwt>
<totfact> 0.18111031E+04</totfact>
</mgrwt>
</event>
<event>
 5    0  0.1531977E+001  0.4400542E+03  0.7546771E-02  0.1030730E+00
         21   -1    0    0  502  501  0.00000000000E+00  0.00000000000E+00  0.19552628555E+03  0.19552628555E+03  0.00000000000E+00 0. -1.
         21   -1    0    0  504  502 -0.00000000000E+00 -0.00000000000E+00 -0.13840783135E+04  0.13840783135E+04  0.00000000000E+00 0. -1.
         25    1    1    2    0    0 -0.40472250654E+03 -0.14789810173E+02 -0.17642316385E+03  0.45909604499E+03  0.12500000000E+03 0.  0.
         21    1    1    2  503  501 -0.21747585955E+02 -0.89773869658E+01 -0.17944972179E+01  0.23595999489E+02  0.00000000000E+00 0.  1.
         21    1    1    2  504  503  0.42647009249E+03  0.23767197139E+02 -0.10103343668E+04  0.10969125545E+04  0.00000000000E+00 0. -1.
<mgrwt>
<rscale>  4 0.44005423E+03</rscale>
<asrwt>0</asrwt>
<pdfrwt beam="1">  1       21 0.30080968E-01 0.44005423E+03</pdfrwt>
<pdfrwt beam="2">  1       21 0.21293512E+00 0.44005423E+03</pdfrwt>
<totfact> 0.98455107E+02</totfact>
</mgrwt>
</event>
<event>
 5    0  0.1531977E+001  0.6383263E+03  0.7546771E-02  0.9828934E-01
         21   -1    0    0  502  501  0.00000000000E+00  0.00000000000E+00  0.21395949338E+03  0.21395949338E+03  0.00000000000E+00 0. -1.
         21   -1    0    0  504  502 -0.00000000000E+00 -0.00000000000E+00 -0.37189929268E+04  0.37189929268E+04  0.00000000000E+00 0.  1.
         25    1    1    2    0    0  0.22592999184E+03  0.61402822192E+03 -0.48229891021E+03  0.82238206286E+03  0.12500000000E+03 0.  0.
         21    1    1    2  503  501  0.11266295318E+01 -0.36330391183E+02 -0.14779194278E+02  0.39237624815E+02  0.00000000000E+00 0.  1.
         21    1    1    2  504  503 -0.22705662138E+03 -0.57769783073E+03 -0.30079553289E+04  0.30713327325E+04  0.00000000000E+00 0.  1.
<mgrwt>
<rscale>  4 0.63832633E+03</rscale>
<asrwt>0</asrwt>
<pdfrwt beam="1">  1       21 0.32916848E-01 0.63832633E+03</pdfrwt>
<pdfrwt beam="2">  1       21 0.57215271E+00 0.63832633E+03</pdfrwt>
<totfact> 0.31316763E+00</totfact>
</mgrwt>
</event>
<event>
 5    0  0.1531977E+001  0.2298259E+03  0.7546771E-02  0.1126762E+00
         21   -1    0    0  502  501  0.00000000000E+00  0.00000000000E+00  0.22830425952E+03  0.22830425952E+03  0.00000000000E+00 0. -1.
         21   -1    0    0  504  502 -0.00000000000E+00 -0.00000000000E+00 -0.46994063903E+03  0.46994063903E+03  0.00000000000E+00 0. -1.
         25    1    1    2    0    0 -0.17244772814E+03 -0.12263449912E+03  0.94646939904E+02  0.26336378367E+03  0.12500000000E+03 0.  0.
         21    1    1    2  503  501  0.25673758148E+02  0.13198094471E+01  0.18876949306E+02  0.31893933114E+02  0.00000000000E+00 0. -1.
         21    1    1    2  504  503  0.14677397000E+03  0.12131468967E+03 -0.35516026872E+03  0.40298718177E+03  0.00000000000E+00 0. -1.
<mgrwt>
<rscale>  4 0.22982585E+03</rscale>
<asrwt>0</asrwt>
<pdfrwt beam="1">  1       21 0.35123732E-01 0.22982585E+03</pdfrwt>
<pdfrwt beam="2">  1       21 0.72298560E-01 0.22982585E+03</pdfrwt>
<totfact> 0.13172332E+04</totfact>
</mgrwt>
</event>
<event>
 5    0  0.1531977E+001  0.2681735E+03  0.7546771E-02  0.1102330E+00
         21   -1    0    0  504  501  0.00000000000E+00  0.00000000000E+00  0.10690034794E+03  0.10690034794E+03  0.00000000000E+00 0.  1.
         21   -1    0    0  503  502 -0.00000000000E+00 -0.00000000000E+00 -0.96523123773E+03  0.96523123773E+03  0.00000000000E+00 0.  1.
         25    1    1    2    0    0  0.12216028105E+03  0.21420733246E+03 -0.52271983705E+03  0.59132811839E+03  0.12500000000E+03 0.  0.
         21    1    1    2  503  501  0.77016628349E+01 -0.19282840386E+02 -0.21749663116E+03  0.21848553295E+03  0.00000000000E+00 0.  1.
         21    1    1    2  504  502 -0.12986194389E+03 -0.19492449208E+03 -0.11811442158E+03  0.26231793433E+03  0.00000000000E+00 0.  1.
<mgrwt>
<rscale>  4 0.26817353E+03</rscale>
<asrwt>0</asrwt>
<pdfrwt beam="1">  1       21 0.16446208E-01 0.26817353E+03</pdfrwt>
<pdfrwt beam="2">  1       21 0.14849710E+00 0.26817353E+03</pdfrwt>
<totfact> 0.96813868E+03</totfact>
</mgrwt>
</event>
<event>
 5    0  0.1531977E+001  0.2400213E+03  0.7546771E-02  0.1119779E+00
         21   -1    0    0  502  501  0.00000000000E+00  0.00000000000E+00  0.13405482418E+03  0.13405482418E+03  0.00000000000E+00 0.  1.
         21   -1    0    0  504  502 -0.00000000000E+00 -0.00000000000E+00 -0.22441967996E+04  0.22441967996E+04  0.00000000000E+00 0.  1.
         25    1    1    2    0    0  0.22372893305E+03  0.10584062527E+02 -0.16803262665E+04  0.16997905812E+04  0.12500000000E+03 0.  0.
         21    1    1    2  503  501 -0.20038630507E+03  0.39567417320E+02  0.37681795530E+02  0.20770211719E+03  0.00000000000E+00 0.  1.
         21    1    1    2  504  503 -0.23342627978E+02 -0.50151479847E+02 -0.46749750445E+03  0.47075892544E+03  0.00000000000E+00 0.  1.
<mgrwt>
<rscale>  4 0.24002131E+03</rscale>
<asrwt>0</asrwt>
<pdfrwt beam="1">  1       21 0.20623820E-01 0.24002131E+03</pdfrwt>
<pdfrwt beam="2">  1       21 0.34526103E+00 0.24002131E+03</pdfrwt>
<totfact> 0.38016070E+02</totfact>
</mgrwt>
</event>
<event>
 5    0  0.1531977E+001  0.3617917E+03  0.7546771E-02  0.1057877E+00
         21   -1    0    0  503  501  0.00000000000E+00  0.00000000000E+00  0.11497026717E+03  0.11497026717E+03  0.00000000000E+00 0.  1.
         21   -1    0    0  504  502 -0.00000000000E+00 -0.00000000000E+00 -0.18209720461E+04  0.18209720461E+04  0.00000000000E+00 0.  1.
         25    1    1    2    0    0 -0.19468878955E+01 -0.34177066381E+03 -0.14027047274E+04  0.14491433778E+04  0.12500000000E+03 0.  0.
         21    1    1    2  503  502  0.24560334115E+02  0.33586122767E+01 -0.72324418540E+02  0.76454638875E+02  0.00000000000E+00 0.  1.
         21    1    1    2  504  501 -0.22613446220E+02  0.33841205154E+03 -0.23097263294E+03  0.41034429659E+03  0.00000000000E+00 0.  1.
<mgrwt>
<rscale>  4 0.36179166E+03</rscale>
<asrwt>0</asrwt>
<pdfrwt beam="1">  1       21 0.17687735E-01 0.36179166E+03</pdfrwt>
<pdfrwt beam="2">  1       21 0.28014952E+00 0.36179166E+03</pdfrwt>
<totfact> 0.11034557E+03</totfact>
</mgrwt>
</event>
<event>
 5    0  0.1531977E+001  0.2379862E+03  0.7546771E-02  0.1121142E+00
         21   -1    0    0  502  501  0.00000000000E+00  0.00000000000E+00  0.47467254623E+03  0.47467254623E+03  0.00000000000E+00 0.  1.
         21   -1    0    0  504  502 -0.00000000000E+00 -0.00000000000E+00 -0.27482165533E+03  0.27482165533E+03  0.00000000000E+00 0. -1.
         25    1    1    2    0    0 -0.14463267773E+03  0.16318106203E+03  0.23832527055E+03  0.34636773096E+03  0.12500000000E+03 0.  0.
         21    1    1    2  503  501 -0.13939569591E+02 -0.40369521179E+02  0.13272531011E+03  0.13942746424E+03  0.00000000000E+00 0.  1.
         21    1    1    2  504  503  0.15857224732E+03 -0.12281154085E+03 -0.17119968976E+03  0.26369900637E+03  0.00000000000E+00 0. -1.
<mgrwt>
<rscale>  4 0.23798617E+03</rscale>
<asrwt>0</asrwt>
<pdfrwt beam="1">  1       21 0.73026546E-01 0.23798617E+03</pdfrwt>
<pdfrwt beam="2">  1       21 0.42280255E-01 0.23798617E+03</pdfrwt>
<totfact> 0.88153661E+03</totfact>
</mgrwt>
</event>
<event>
 5    0  0.1531977E+001  0.2689405E+03  0.7546771E-02  0.1101888E+00
         21   -1    0    0  502  501  0.00000000000E+00  0.00000000000E+00  0.27280369110E+03  0.27280369110E+03  0.00000000000E+00 0.  1.
         21   -1    0    0  504  502 -0.00000000000E+00 -0.00000000000E+00 -0.24857067556E+03  0.24857067556E+03  0.00000000000E+00 0.  1.
         25    1    1    2    0    0  0.23661878935E+03  0.26749726221E+02  0.47924681662E+02  0.27317718506E+03  0.12500000000E+03 0.  0.
         21    1    1    2  503  501 -0.20863156927E+03 -0.27586835643E+02  0.16180349606E+01  0.21045375557E+03  0.00000000000E+00 0.  1.
         21    1    1    2  504  503 -0.27987220082E+02  0.83710942275E+00 -0.25309701080E+02  0.37743426035E+02  0.00000000000E+00 0. -1.
<mgrwt>
<rscale>  4 0.26894051E+03</rscale>
<asrwt>0</asrwt>
<pdfrwt beam="1">  1       21 0.41969799E-01 0.26894051E+03</pdfrwt>
<pdfrwt beam="2">  1       21 0.38241642E-01 0.26894051E+03</pdfrwt>
<totfact> 0.34776623E+04</totfact>
</mgrwt>
</event>
<event>
 5    0  0.1531977E+001  0.2559890E+03  0.7546771E-02  0.1109577E+00
         21   -1    0    0  502  501  0.00000000000E+00  0.00000000000E+00  0.97225625555E+03  0.97225625555E+03  0.00000000000E+00 0. -1.
         21   -1    0    0  504  502 -0.00000000000E+00 -0.00000000000E+00 -0.99191917780E+02  0.99191917780E+02  0.00000000000E+00 0. -1.
         25    1    1    2    0    0 -0.24049023234E+03  0.15907140404E+01  0.16409718136E+03  0.31684533633E+03  0.12500000000E+03 0.  0.
         21    1    1    2  503  501  0.21936055353E+03 -0.10784137451E+02  0.69191903045E+03  0.72593890567E+03  0.00000000000E+00 0. -1.
         21    1    1    2  504  503  0.21129678809E+02  0.91934234111E+01  0.17048125956E+02  0.28663931328E+02  0.00000000000E+00 0. -1.
<mgrwt>
<rscale>  4 0.25598904E+03</rscale>
<asrwt>0</asrwt>
<pdfrwt beam="1">  1       21 0.14957788E+00 0.25598904E+03</pdfrwt>
<pdfrwt beam="2">  1       21 0.15260296E-01 0.25598904E+03</pdfrwt>
<totfact> 0.10976353E+04</totfact>
</mgrwt>
</event>
<event>
 5    0  0.1531977E+001  0.3521992E+03  0.7546771E-02  0.1061716E+00
         21   -1    0    0  502  501  0.00000000000E+00  0.00000000000E+00  0.40681363433E+03  0.40681363433E+03  0.00000000000E+00 0.  1.
         21   -1    0    0  504  502 -0.00000000000E+00 -0.00000000000E+00 -0.93543252526E+03  0.93543252526E+03  0.00000000000E+00 0. -1.
         25    1    1    2    0    0  0.12040401123E+03 -0.37090038799E+03 -0.70066825661E+03  0.81155728668E+03  0.12500000000E+03 0.  0.
         21    1    1    2  503  501 -0.16474057544E+03  0.27863046975E+03  0.24417943210E+03  0.40546022115E+03  0.00000000000E+00 0.  1.
         21    1    1    2  504  503  0.44336564211E+02  0.92269918246E+02 -0.72130066423E+02  0.12522865176E+03  0.00000000000E+00 0.  1.
<mgrwt>
<rscale>  4 0.35219916E+03</rscale>
<asrwt>0</asrwt>
<pdfrwt beam="1">  1       21 0.62586714E-01 0.35219916E+03</pdfrwt>
<pdfrwt beam="2">  1       21 0.14391269E+00 0.35219916E+03</pdfrwt>
<totfact> 0.69467901E+02</totfact>
</mgrwt>
</event>
<event>
 5    0  0.1531977E+001  0.2435158E+03  0.7546771E-02  0.1117473E+00
         21   -1    0    0  502  501  0.00000000000E+00  0.00000000000E+00  0.18117750229E+03  0.18117750229E+03  0.00000000000E+00 0. -1.
         21   -1    0    0  504  502 -0.00000000000E+00 -0.00000000000E+00 -0.10897365620E+04  0.10897365620E+04  0.00000000000E+00 0. -1.
         25    1    1    2    0    0 -0.10932419599E+03 -0.19499285258E+03 -0.52766140719E+03  0.58653691532E+03  0.12500000000E+03 0.  0.
         21    1    1    2  503  501 -0.65224852994E+02  0.80336602121E+02  0.10992701023E+03  0.15097085370E+03  0.00000000000E+00 0. -1.
         21    1    1    2  504  503  0.17454904899E+03  0.11465625046E+03 -0.49082466272E+03  0.53340629524E+03  0.00000000000E+00 0. -1.
<mgrwt>
<rscale>  4 0.24351580E+03</rscale>
<asrwt>0</asrwt>
<pdfrwt beam="1">  1       21 0.27873462E-01 0.24351580E+03</pdfrwt>
<pdfrwt beam="2">  1       21 0.16765178E+00 0.24351580E+03</pdfrwt>
<totfact> 0.26077459E+03</totfact>
</mgrwt>
</event>
<event>
 5    0  0.1531977E+001  0.2176548E+03  0.7546771E-02  0.1135644E+00
         21   -1    0    0  504  501  0.00000000000E+00  0.00000000000E+00  0.67456630789E+03  0.67456630789E+03  0.00000000000E+00 0. -1.
         21   -1    0    0  503  502 -0.00000000000E+00 -0.00000000000E+00 -0.11327125342E+03  0.11327125342E+03  0.00000000000E+00 0. -1.
         25    1    1    2    0    0 -0.10228480919E+03  0.18758818065E+03  0.27544584767E+03  0.37033352901E+03  0.12500000000E+03 0.  0.
         21    1    1    2  503  501  0.85880190751E+02 -0.14236220867E+03  0.45480955476E+02  0.17236856712E+03  0.00000000000E+00 0. -1.
         21    1    1    2  504  502  0.16404618438E+02 -0.45225971976E+02  0.24036825132E+03  0.24513546518E+03  0.00000000000E+00 0.  1.
<mgrwt>
<rscale>  4 0.21765483E+03</rscale>
<asrwt>0</asrwt>
<pdfrwt beam="1">  1       21 0.10377943E+00 0.21765483E+03</pdfrwt>
<pdfrwt beam="2">  1       21 0.17426347E-01 0.21765483E+03</pdfrwt>
<totfact> 0.22064121E+04</totfact>
</mgrwt>
</event>
<event>
 5    0  0.1531977E+001  0.4469987E+03  0.7546771E-02  0.1028621E+00
         21   -1    0    0  502  501  0.00000000000E+00  0.00000000000E+00  0.22895780880E+04  0.22895780880E+04  0.00000000000E+00 0. -1.
         21   -1    0    0  504  502 -0.00000000000E+00 -0.00000000000E+00 -0.15413213035E+03  0.15413213035E+03  0.00000000000E+00 0. -1.
         25    1    1    2    0    0 -0.41259339277E+03  0.11810827615E+03  0.25702838941E+03  0.51562725453E+03  0.12500000000E+03 0.  0.
         21    1    1    2  503  501  0.38558461846E+03 -0.10918444275E+03  0.18127734406E+04  0.18565409469E+04  0.00000000000E+00 0. -1.
         21    1    1    2  504  503  0.27008774310E+02 -0.89238334033E+01  0.65644127685E+02  0.71542016968E+02  0.00000000000E+00 0.  1.
<mgrwt>
<rscale>  4 0.44699874E+03</rscale>
<asrwt>0</asrwt>
<pdfrwt beam="1">  1       21 0.35224276E+00 0.44699874E+03</pdfrwt>
<pdfrwt beam="2">  1       21 0.23712637E-01 0.44699874E+03</pdfrwt>
<totfact> 0.21991194E+02</totfact>
</mgrwt>
</event>
<event>
 5    0  0.1531977E+001  0.2394911E+03  0.7546771E-02  0.1120132E+00
         21   -1    0    0  502  501  0.00000000000E+00  0.00000000000E+00  0.91931799028E+02  0.91931799028E+02  0.00000000000E+00 0. -1.
         21   -1    0    0  504  502 -0.00000000000E+00 -0.00000000000E+00 -0.66742515998E+03  0.66742515998E+03  0.00000000000E+00 0. -1.
         25    1    1    2    0    0 -0.19161550611E+03  0.70812918886E+02 -0.46614025345E+03  0.52406364838E+03  0.12500000000E+03 0.  0.
         21    1    1    2  503  501  0.29159386966E+02 -0.12646666396E+02 -0.15298544987E+01  0.31820566839E+02  0.00000000000E+00 0.  1.
         21    1    1    2  504  503  0.16245611915E+03 -0.58166252490E+02 -0.10782325300E+03  0.20347274378E+03  0.00000000000E+00 0. -1.
<mgrwt>
<rscale>  4 0.23949107E+03</rscale>
<asrwt>0</asrwt>
<pdfrwt beam="1">  1       21 0.14143354E-01 0.23949107E+03</pdfrwt>
<pdfrwt beam="2">  1       21 0.10268079E+00 0.23949107E+03</pdfrwt>
<totfact> 0.32826946E+04</totfact>
</mgrwt>
</event>
<event>
 5    0  0.1531977E+001  0.2384035E+03  0.7546771E-02  0.1120861E+00
         21   -1    0    0  502  501  0.00000000000E+00  0.00000000000E+00  0.14540933230E+03  0.14540933230E+03  0.00000000000E+00 0.  1.
         21   -1    0    0  504  502 -0.00000000000E+00 -0.00000000000E+00 -0.48657739885E+03  0.48657739885E+03  0.00000000000E+00 0.  1.
         25    1    1    2    0    0 -0.16585328158E+03 -0.15551997845E+03 -0.12801101991E+03  0.28931919384E+03  0.12500000000E+03 0.  0.
         21    1    1    2  503  501  0.26066099559E+02  0.23091968585E+02  0.20093799975E+02  0.40204991690E+02  0.00000000000E+00 0.  1.
         21    1    1    2  504  503  0.13978718203E+03  0.13242800986E+03 -0.23325084662E+03  0.30246254562E+03  0.00000000000E+00 0.  1.
<mgrwt>
<rscale>  4 0.23840350E+03</rscale>
<asrwt>0</asrwt>
<pdfrwt beam="1">  1       21 0.22370667E-01 0.23840350E+03</pdfrwt>
<pdfrwt beam="2">  1       21 0.74858059E-01 0.23840350E+03</pdfrwt>
<totfact> 0.29157597E+04</totfact>
</mgrwt>
</event>
<event>
 5    0  0.1531977E+001  0.2862138E+03  0.7546771E-02  0.1092343E+00
         21   -1    0    0  504  501  0.00000000000E+00  0.00000000000E+00  0.14987937201E+03  0.14987937201E+03  0.00000000000E+00 0.  1.
         21   -1    0    0  501  502 -0.00000000000E+00 -0.00000000000E+00 -0.10890849388E+04  0.10890849388E+04  0.00000000000E+00 0.  1.
         25    1    1    2    0    0 -0.84415554958E+02  0.25629951368E+03 -0.55089853115E+02  0.30244886931E+03  0.12500000000E+03 0.  0.
         21    1    1    2  503  502 -0.23534219121E+02 -0.24348234990E+02 -0.31164042745E+02  0.46020577756E+02  0.00000000000E+00 0.  1.
         21    1    1    2  504  503  0.10794977408E+03 -0.23195127869E+03 -0.85295167089E+03  0.89049486370E+03  0.00000000000E+00 0.  1.
<mgrwt>
<rscale>  4 0.28621380E+03</rscale>
<asrwt>0</asrwt>
<pdfrwt beam="1">  1       21 0.23058364E-01 0.28621380E+03</pdfrwt>
<pdfrwt beam="2">  1       21 0.16755153E+00 0.28621380E+03</pdfrwt>
<totfact> 0.36550992E+03</totfact>
</mgrwt>
</event>
<event>
 5    0  0.1531977E+001  0.2681615E+03  0.7546771E-02  0.1102336E+00
         21   -1    0    0  502  501  0.00000000000E+00  0.00000000000E+00  0.31598998286E+03  0.31598998286E+03  0.00000000000E+00 0.  1.
         21   -1    0    0  504  502 -0.00000000000E+00 -0.00000000000E+00 -0.29623908826E+03  0.29623908826E+03  0.00000000000E+00 0. -1.
         25    1    1    2    0    0 -0.13481934376E+03  0.15871817431E+03 -0.11074292587E+03  0.26693952487E+03  0.12500000000E+03 0.  0.
         21    1    1    2  503  501  0.15716724426E+03 -0.19127413740E+03  0.16106879903E+03  0.29534809349E+03  0.00000000000E+00 0.  1.
         21    1    1    2  504  503 -0.22347900503E+02  0.32555963091E+02 -0.30574978559E+02  0.49941452758E+02  0.00000000000E+00 0. -1.
<mgrwt>
<rscale>  4 0.26816151E+03</rscale>
<asrwt>0</asrwt>
<pdfrwt beam="1">  1       21 0.48613843E-01 0.26816151E+03</pdfrwt>
<pdfrwt beam="2">  1       21 0.45575244E-01 0.26816151E+03</pdfrwt>
<totfact> 0.17910653E+04</totfact>
</mgrwt>
</event>
<event>
 5    0  0.1531977E+001  0.2568991E+03  0.7546771E-02  0.1109021E+00
         21   -1    0    0  503  501  0.00000000000E+00  0.00000000000E+00  0.22798030643E+04  0.22798030643E+04  0.00000000000E+00 0.  1.
         21   -1    0    0  504  502 -0.00000000000E+00 -0.00000000000E+00 -0.19249134715E+03  0.19249134715E+03  0.00000000000E+00 0.  1.
         25    1    1    2    0    0 -0.71364913448E+02 -0.21834650034E+03  0.17778788802E+04  0.17970104223E+04  0.12500000000E+03 0.  0.
         21    1    1    2  503  502  0.91867200711E+02  0.20460405054E+03 -0.11368342298E+03  0.25144844546E+03  0.00000000000E+00 0.  1.
         21    1    1    2  504  501 -0.20502287263E+02  0.13742449799E+02  0.42311625989E+03  0.42383554369E+03  0.00000000000E+00 0.  1.
<mgrwt>
<rscale>  4 0.25689906E+03</rscale>
<asrwt>0</asrwt>
<pdfrwt beam="1">  1       21 0.35073891E+00 0.25689906E+03</pdfrwt>
<pdfrwt beam="2">  1       21 0.29614055E-01 0.25689906E+03</pdfrwt>
<totfact> 0.17244157E+02</totfact>
</mgrwt>
</event>
<event>
 5    0  0.1531977E+001  0.2454454E+03  0.7546771E-02  0.1116218E+00
         21   -1    0    0  503  501  0.00000000000E+00  0.00000000000E+00  0.37396682071E+03  0.37396682071E+03  0.00000000000E+00 0. -1.
         21   -1    0    0  504  502 -0.00000000000E+00 -0.00000000000E+00 -0.23044209850E+03  0.23044209850E+03  0.00000000000E+00 0. -1.
         25    1    1    2    0    0 -0.15968320844E+03  0.14596105725E+03  0.22750107127E+03  0.33791285077E+03  0.12500000000E+03 0.  0.
         21    1    1    2  503  502  0.13287389674E+03 -0.16321308568E+03 -0.97397395468E+02  0.23190566275E+03  0.00000000000E+00 0. -1.
         21    1    1    2  504  501  0.26809311700E+02  0.17252028433E+02  0.13421046414E+02  0.34590405689E+02  0.00000000000E+00 0.  1.
<mgrwt>
<rscale>  4 0.24544539E+03</rscale>
<asrwt>0</asrwt>
<pdfrwt beam="1">  1       21 0.57533357E-01 0.24544539E+03</pdfrwt>
<pdfrwt beam="2">  1       21 0.35452631E-01 0.24544539E+03</pdfrwt>
<totfact> 0.21128582E+04</totfact>
</mgrwt>
</event>
<event>
 5    0  0.1531977E+001  0.2078189E+03  0.7546771E-02  0.1143305E+00
         21   -1    0    0  502  501  0.00000000000E+00  0.00000000000E+00  0.17132554078E+04  0.17132554078E+04  0.00000000000E+00 0.  1.
         21   -1    0    0  504  502 -0.00000000000E+00 -0.00000000000E+00 -0.48563632704E+02  0.48563632704E+02  0.00000000000E+00 0.  1.
         25    1    1    2    0    0  0.20263924477E+03 -0.41922845391E+02  0.12187901038E+04  0.12425355149E+04  0.12500000000E+03 0.  0.
         21    1    1    2  503  501 -0.48482210197E+02 -0.75734976911E+00  0.29639676372E+03  0.30033671076E+03  0.00000000000E+00 0. -1.
         21    1    1    2  504  503 -0.15415703457E+03  0.42680195160E+02  0.14950490751E+03  0.21894681486E+03  0.00000000000E+00 0.  1.
<mgrwt>
<rscale>  4 0.20781893E+03</rscale>
<asrwt>0</asrwt>
<pdfrwt beam="1">  1       21 0.26357771E+00 0.20781893E+03</pdfrwt>
<pdfrwt beam="2">  1       21 0.74713294E-02 0.20781893E+03</pdfrwt>
<totfact> 0.73727358E+03</totfact>
</mgrwt>
</event>
<event>
 5    0  0.1531977E+001  0.2181915E+03  0.7546771E-02  0.1135239E+00
         21   -1    0    0  503  501  0.00000000000E+00  0.00000000000E+00  0.42903586416E+03  0.42903586416E+03  0.00000000000E+00 0. -1.
         21   -1    0    0  504  502 -0.00000000000E+00 -0.00000000000E+00 -0.19215925765E+03  0.19215925765E+03  0.00000000000E+00 0. -1.
         25    1    1    2    0    0  0.29383008960E+02 -0.20355513059E+03 -0.55566275692E+02  0.24700336718E+03  0.12500000000E+03 0.  0.
         21    1    1    2  503  502 -0.22577569087E+02  0.13814695481E+03  0.10337426696E+03  0.17401312255E+03  0.00000000000E+00 0. -1.
         21    1    1    2  504  501 -0.68054398725E+01  0.65408175775E+02  0.18906861524E+03  0.20017863208E+03  0.00000000000E+00 0. -1.
<mgrwt>
<rscale>  4 0.21819153E+03</rscale>
<asrwt>0</asrwt>
<pdfrwt beam="1">  1       21 0.66005517E-01 0.21819153E+03</pdfrwt>
<pdfrwt beam="2">  1       21 0.29562963E-01 0.21819153E+03</pdfrwt>
<totfact> 0.22776816E+04</totfact>
</mgrwt>
</event>
<event>
 5    0  0.1531977E+001  0.2100012E+03  0.7546771E-02  0.1141565E+00
         21   -1    0    0  502  501  0.00000000000E+00  0.00000000000E+00  0.32305744276E+03  0.32305744276E+03  0.00000000000E+00 0.  1.
         21   -1    0    0  504  502 -0.00000000000E+00 -0.00000000000E+00 -0.31140059916E+03  0.31140059916E+03  0.00000000000E+00 0.  1.
         25    1    1    2    0    0 -0.21922845339E+03  0.88210096017E+02  0.16753425588E+03  0.31549146218E+03  0.12500000000E+03 0.  0.
         21    1    1    2  503  501  0.62201076830E+02 -0.56059225124E+02  0.14569536280E+02  0.84993423674E+02  0.00000000000E+00 0.  1.
         21    1    1    2  504  503  0.15702737656E+03 -0.32150870893E+02 -0.17044694857E+03  0.23397315607E+03  0.00000000000E+00 0.  1.
<mgrwt>
<rscale>  4 0.21000118E+03</rscale>
<asrwt>0</asrwt>
<pdfrwt beam="1">  1       21 0.49701145E-01 0.21000118E+03</pdfrwt>
<pdfrwt beam="2">  1       21 0.47907784E-01 0.21000118E+03</pdfrwt>
<totfact> 0.15895299E+04</totfact>
</mgrwt>
</event>
<event>
 5    0  0.1531977E+001  0.2303419E+03  0.7546771E-02  0.1126399E+00
         21   -1    0    0  502  501  0.00000000000E+00  0.00000000000E+00  0.16089509556E+04  0.16089509556E+04  0.00000000000E+00 0. -1.
         21   -1    0    0  504  502 -0.00000000000E+00 -0.00000000000E+00 -0.15069726569E+03  0.15069726569E+03  0.00000000000E+00 0. -1.
         25    1    1    2    0    0  0.14656682312E+03 -0.15687241654E+03 -0.16487088832E+02  0.24897311664E+03  0.12500000000E+03 0.  0.
         21    1    1    2  503  501 -0.10748626217E+03  0.15979636555E+03  0.14532982519E+04  0.14660027231E+04  0.00000000000E+00 0. -1.
         21    1    1    2  504  503 -0.39080560944E+02 -0.29239490098E+01  0.21442526845E+02  0.44672381614E+02  0.00000000000E+00 0. -1.
<mgrwt>
<rscale>  4 0.23034193E+03</rscale>
<asrwt>0</asrwt>
<pdfrwt beam="1">  1       21 0.24753090E+00 0.23034193E+03</pdfrwt>
<pdfrwt beam="2">  1       21 0.23184196E-01 0.23034193E+03</pdfrwt>
<totfact> 0.11521250E+03</totfact>
</mgrwt>
</event>
<event>
 5    0  0.1531977E+001  0.3298081E+03  0.7546771E-02  0.1071222E+00
         21   -1    0    0  502  501  0.00000000000E+00  0.00000000000E+00  0.24599792647E+03  0.24599792647E+03  0.00000000000E+00 0. -1.
         21   -1    0    0  504  502 -0.00000000000E+00 -0.00000000000E+00 -0.51068481897E+03  0.51068481897E+03  0.00000000000E+00 0. -1.
         25    1    1    2    0    0  0.13024998524E+03 -0.29496610310E+03 -0.15737967972E+03  0.37995187092E+03  0.12500000000E+03 0.  0.
         21    1    1    2  503  501 -0.81194012048E+02  0.28033436110E+03 -0.13149749814E+03  0.32011156434E+03  0.00000000000E+00 0. -1.
         21    1    1    2  504  503 -0.49055973193E+02  0.14631741993E+02  0.24190285347E+02  0.56619310177E+02  0.00000000000E+00 0. -1.
<mgrwt>
<rscale>  4 0.32980807E+03</rscale>
<asrwt>0</asrwt>
<pdfrwt beam="1">  1       21 0.37845835E-01 0.32980807E+03</pdfrwt>
<pdfrwt beam="2">  1       21 0.78566895E-01 0.32980807E+03</pdfrwt>
<totfact> 0.89496408E+03</totfact>
</mgrwt>
</event>
<event>
 5    0  0.1531977E+001  0.2461400E+03  0.7546771E-02  0.1115769E+00
         21   -1    0    0  502  501  0.00000000000E+00  0.00000000000E+00  0.12379847250E+04  0.12379847250E+04  0.00000000000E+00 0.  1.
         21   -1    0    0  504  502 -0.00000000000E+00 -0.00000000000E+00 -0.18079834898E+03  0.18079834898E+03  0.00000000000E+00 0.  1.
         25    1    1    2    0    0 -0.18465752920E+03  0.12647616338E+03 -0.60290575559E+02  0.26335257070E+03  0.12500000000E+03 0.  0.
         21    1    1    2  503  501  0.16488233634E+03 -0.13222394564E+03  0.11148068387E+04  0.11346645514E+04  0.00000000000E+00 0.  1.
         21    1    1    2  504  503  0.19775192857E+02  0.57477822636E+01  0.26701128681E+01  0.20765951849E+02  0.00000000000E+00 0. -1.
<mgrwt>
<rscale>  4 0.24613998E+03</rscale>
<asrwt>0</asrwt>
<pdfrwt beam="1">  1       21 0.19045918E+00 0.24613998E+03</pdfrwt>
<pdfrwt beam="2">  1       21 0.27815131E-01 0.24613998E+03</pdfrwt>
<totfact> 0.18187311E+03</totfact>
</mgrwt>
</event>
<event>
 5    0  0.1531977E+001  0.2120403E+03  0.7546771E-02  0.1139960E+00
         21   -1    0    0  502  501  0.00000000000E+00  0.00000000000E+00  0.22374258109E+03  0.22374258109E+03  0.00000000000E+00 0.  1.
         21   -1    0    0  504  502 -0.00000000000E+00 -0.00000000000E+00 -0.45041976216E+03  0.45041976216E+03  0.00000000000E+00 0.  1.
         25    1    1    2    0    0  0.58540311703E+02  0.20307582382E+03 -0.35924170833E+02  0.24815782149E+03  0.12500000000E+03 0.  0.
         21    1    1    2  503  501  0.34568592796E+02 -0.67561476887E+02  0.79346468308E+02  0.10979709832E+03  0.00000000000E+00 0.  1.
         21    1    1    2  504  503 -0.93108904499E+02 -0.13551434694E+03 -0.27009947855E+03  0.31620742343E+03  0.00000000000E+00 0.  1.
<mgrwt>
<rscale>  4 0.21204025E+03</rscale>
<asrwt>0</asrwt>
<pdfrwt beam="1">  1       21 0.34421936E-01 0.21204025E+03</pdfrwt>
<pdfrwt beam="2">  1       21 0.69295348E-01 0.21204025E+03</pdfrwt>
<totfact> 0.15223815E+04</totfact>
</mgrwt>
</event>
<event>
 5    0  0.1531977E+001  0.2669514E+03  0.7546771E-02  0.1103037E+00
         21   -1    0    0  502  501  0.00000000000E+00  0.00000000000E+00  0.45890713631E+03  0.45890713631E+03  0.00000000000E+00 0. -1.
         21   -1    0    0  504  502 -0.00000000000E+00 -0.00000000000E+00 -0.26814187729E+03  0.26814187729E+03  0.00000000000E+00 0. -1.
         25    1    1    2    0    0  0.23367681647E+03 -0.32640438339E+02  0.16366464619E+03  0.31317945204E+03  0.12500000000E+03 0.  0.
         21    1    1    2  503  501 -0.12436721731E+02 -0.53372419665E+02  0.14049404143E+03  0.15080405467E+03  0.00000000000E+00 0. -1.
         21    1    1    2  504  503 -0.22124009474E+03  0.86012858004E+02 -0.11339342860E+03  0.26306550688E+03  0.00000000000E+00 0. -1.
<mgrwt>
<rscale>  4 0.26695137E+03</rscale>
<asrwt>0</asrwt>
<pdfrwt beam="1">  1       21 0.70601098E-01 0.26695137E+03</pdfrwt>
<pdfrwt beam="2">  1       21 0.41252597E-01 0.26695137E+03</pdfrwt>
<totfact> 0.98377777E+03</totfact>
</mgrwt>
</event>
<event>
 5    0  0.1531977E+001  0.2347916E+03  0.7546771E-02  0.1123312E+00
         21   -1    0    0  502  501  0.00000000000E+00  0.00000000000E+00  0.91731214039E+03  0.91731214039E+03  0.00000000000E+00 0. -1.
         21   -1    0    0  504  502 -0.00000000000E+00 -0.00000000000E+00 -0.82670930370E+02  0.82670930370E+02  0.00000000000E+00 0. -1.
         25    1    1    2    0    0  0.18251931446E+03 -0.10559830389E+03  0.58963850159E+03  0.63856312491E+03  0.12500000000E+03 0.  0.
         21    1    1    2  503  501 -0.70951310947E+01  0.19154739548E+02  0.13600457338E+03  0.13752995642E+03  0.00000000000E+00 0. -1.
         21    1    1    2  504  503 -0.17542418336E+03  0.86443564341E+02  0.10899813505E+03  0.22388998944E+03  0.00000000000E+00 0. -1.
<mgrwt>
<rscale>  4 0.23479161E+03</rscale>
<asrwt>0</asrwt>
<pdfrwt beam="1">  1       21 0.14112494E+00 0.23479161E+03</pdfrwt>
<pdfrwt beam="2">  1       21 0.12718605E-01 0.23479161E+03</pdfrwt>
<totfact> 0.18043106E+04</totfact>
</mgrwt>
</event>
<event>
 5    0  0.1531977E+001  0.2640467E+03  0.7546771E-02  0.1104736E+00
         21   -1    0    0  502  501  0.00000000000E+00  0.00000000000E+00  0.17045451210E+04  0.17045451210E+04  0.00000000000E+00 0.  1.
         21   -1    0    0  504  502 -0.00000000000E+00 -0.00000000000E+00 -0.78983986030E+02  0.78983986030E+02  0.00000000000E+00 0.  1.
         25    1    1    2    0    0 -0.11094093701E+03 -0.24006547402E+03  0.12177314840E+04  0.12523714667E+04  0.12500000000E+03 0.  0.
         21    1    1    2  503  501  0.40707391734E+02  0.23938936992E+02  0.25012887051E+03  0.25454786644E+03  0.00000000000E+00 0. -1.
         21    1    1    2  504  503  0.70233545275E+02  0.21612653703E+03  0.15770078046E+03  0.27660977395E+03  0.00000000000E+00 0.  1.
<mgrwt>
<rscale>  4 0.26404674E+03</rscale>
<asrwt>0</asrwt>
<pdfrwt beam="1">  1       21 0.26223768E+00 0.26404674E+03</pdfrwt>
<pdfrwt beam="2">  1       21 0.12151384E-01 0.26404674E+03</pdfrwt>
<totfact> 0.30197948E+03</totfact>
</mgrwt>
</event>
<event>
 5    0  0.1531977E+001  0.1979141E+03  0.7546771E-02  0.1151511E+00
         21   -1    0    0  502  501  0.00000000000E+00  0.00000000000E+00  0.46727182121E+03  0.46727182121E+03  0.00000000000E+00 0. -1.
         21   -1    0    0  504  502 -0.00000000000E+00 -0.00000000000E+00 -0.25745879500E+03  0.25745879500E+03  0.00000000000E+00 0. -1.
         25    1    1    2    0    0 -0.22570044778E+03  0.48246364684E+02 -0.77111598959E+02  0.27356827764E+03  0.12500000000E+03 0.  0.
         21    1    1    2  503  501  0.14066264725E+03 -0.41152239063E+02  0.32590887896E+03  0.35734588915E+03  0.00000000000E+00 0. -1.
         21    1    1    2  504  503  0.85037800536E+02 -0.70941256211E+01 -0.38984253792E+02  0.93816449421E+02  0.00000000000E+00 0. -1.
<mgrwt>
<rscale>  4 0.19791411E+03</rscale>
<asrwt>0</asrwt>
<pdfrwt beam="1">  1       21 0.71887972E-01 0.19791411E+03</pdfrwt>
<pdfrwt beam="2">  1       21 0.39609045E-01 0.19791411E+03</pdfrwt>
<totfact> 0.10695772E+04</totfact>
</mgrwt>
</event>
<event>
 5    0  0.1531977E+001  0.2734337E+03  0.7546771E-02  0.1099330E+00
         21   -1    0    0  504  501  0.00000000000E+00  0.00000000000E+00  0.44796307767E+03  0.44796307767E+03  0.00000000000E+00 0. -1.
         21   -1    0    0  503  502 -0.00000000000E+00 -0.00000000000E+00 -0.74807665589E+03  0.74807665589E+03  0.00000000000E+00 0. -1.
         25    1    1    2    0    0  0.15490096001E+03  0.17336178429E+03  0.28905634957E+03  0.39144244646E+03  0.12500000000E+03 0.  0.
         21    1    1    2  503  501 -0.14574502080E+03 -0.19558564977E+03 -0.67381562919E+03  0.71660509321E+03  0.00000000000E+00 0. -1.
         21    1    1    2  504  502 -0.91559392087E+01  0.22223865483E+02  0.84645701397E+02  0.87992193886E+02  0.00000000000E+00 0. -1.
<mgrwt>
<rscale>  4 0.27343367E+03</rscale>
<asrwt>0</asrwt>
<pdfrwt beam="1">  1       21 0.68917397E-01 0.27343367E+03</pdfrwt>
<pdfrwt beam="2">  1       21 0.11508872E+00 0.27343367E+03</pdfrwt>
<totfact> 0.10472450E+03</totfact>
</mgrwt>
</event>
<event>
 5    0  0.1531977E+001  0.2198122E+03  0.7546771E-02  0.1134023E+00
         21   -1    0    0  504  501  0.00000000000E+00  0.00000000000E+00  0.25767381924E+03  0.25767381924E+03  0.00000000000E+00 0. -1.
         21   -1    0    0  503  502 -0.00000000000E+00 -0.00000000000E+00 -0.41261712287E+03  0.41261712287E+03  0.00000000000E+00 0. -1.
         25    1    1    2    0    0 -0.77706637160E+02  0.18556051065E+03 -0.24056228052E+03  0.33758885553E+03  0.12500000000E+03 0.  0.
         21    1    1    2  503  501 -0.74498972277E+01 -0.28999372936E+02 -0.82458713399E+02  0.87726301727E+02  0.00000000000E+00 0. -1.
         21    1    1    2  504  502  0.85156534387E+02 -0.15656113771E+03  0.16807769029E+03  0.24497578485E+03  0.00000000000E+00 0. -1.
<mgrwt>
<rscale>  4 0.21981219E+03</rscale>
<asrwt>0</asrwt>
<pdfrwt beam="1">  1       21 0.39642126E-01 0.21981219E+03</pdfrwt>
<pdfrwt beam="2">  1       21 0.63479557E-01 0.21981219E+03</pdfrwt>
<totfact> 0.13835809E+04</totfact>
</mgrwt>
</event>
<event>
 5    0  0.1531977E+001  0.2413150E+03  0.7546771E-02  0.1118920E+00
         21   -1    0    0  504  501  0.00000000000E+00  0.00000000000E+00  0.89490111483E+03  0.89490111483E+03  0.00000000000E+00 0.  1.
         21   -1    0    0  503  502 -0.00000000000E+00 -0.00000000000E+00 -0.91495551422E+02  0.91495551422E+02  0.00000000000E+00 0.  1.
         25    1    1    2    0    0  0.15539124134E+03  0.13587299544E+03  0.12863687239E+03  0.27345996730E+03  0.12500000000E+03 0.  0.
         21    1    1    2  503  501 -0.82136053143E+02 -0.11033883316E+03  0.29731261740E+03  0.32759087562E+03  0.00000000000E+00 0.  1.
         21    1    1    2  504  502 -0.73255188201E+02 -0.25534162281E+02  0.37745607363E+03  0.38534582333E+03  0.00000000000E+00 0.  1.
<mgrwt>
<rscale>  4 0.24131496E+03</rscale>
<asrwt>0</asrwt>
<pdfrwt beam="1">  1       21 0.13767709E+00 0.24131496E+03</pdfrwt>
<pdfrwt beam="2">  1       21 0.14076239E-01 0.24131496E+03</pdfrwt>
<totfact> 0.15950813E+04</totfact>
</mgrwt>
</event>
<event>
 5    0  0.1531977E+001  0.2271839E+03  0.7546771E-02  0.1128638E+00
         21   -1    0    0  502  501  0.00000000000E+00  0.00000000000E+00  0.85870659807E+02  0.85870659807E+02  0.00000000000E+00 0.  1.
         21   -1    0    0  504  502 -0.00000000000E+00 -0.00000000000E+00 -0.70239084646E+03  0.70239084646E+03  0.00000000000E+00 0.  1.
         25    1    1    2    0    0 -0.20035466019E+03  0.13932196867E+02 -0.41780753912E+03  0.48012939476E+03  0.12500000000E+03 0.  0.
         21    1    1    2  503  501  0.17913730174E+03 -0.51899072657E+02 -0.13198487775E+03  0.22848127839E+03  0.00000000000E+00 0.  1.
         21    1    1    2  504  503  0.21217358443E+02  0.37966875790E+02 -0.66727769786E+02  0.79650833123E+02  0.00000000000E+00 0.  1.
<mgrwt>
<rscale>  4 0.22718387E+03</rscale>
<asrwt>0</asrwt>
<pdfrwt beam="1">  1       21 0.13210871E-01 0.22718387E+03</pdfrwt>
<pdfrwt beam="2">  1       21 0.10806013E+00 0.22718387E+03</pdfrwt>
<totfact> 0.33039925E+04</totfact>
</mgrwt>
</event>
<event>
 5    0  0.1531977E+001  0.2829218E+03  0.7546771E-02  0.1094104E+00
         21   -1    0    0  504  501  0.00000000000E+00  0.00000000000E+00  0.72218133984E+03  0.72218133984E+03  0.00000000000E+00 0.  1.
         21   -1    0    0  503  502 -0.00000000000E+00 -0.00000000000E+00 -0.18095763692E+04  0.18095763692E+04  0.00000000000E+00 0. -1.
         25    1    1    2    0    0  0.68359745813E+01 -0.27741054234E+03 -0.11876509610E+04  0.12260273834E+04  0.12500000000E+03 0.  0.
         21    1    1    2  503  501 -0.10236299176E+03  0.42285370893E+02 -0.57436786516E+03  0.58494844149E+03  0.00000000000E+00 0. -1.
         21    1    1    2  504  502  0.95527017181E+02  0.23512517145E+03  0.67462379685E+03  0.72078188416E+03  0.00000000000E+00 0.  1.
<mgrwt>
<rscale>  4 0.28292177E+03</rscale>
<asrwt>0</asrwt>
<pdfrwt beam="1">  1       21 0.11110482E+00 0.28292177E+03</pdfrwt>
<pdfrwt beam="2">  1       21 0.27839636E+00 0.28292177E+03</pdfrwt>
<totfact> 0.25392148E+01</totfact>
</mgrwt>
</event>
<event>
 5    0  0.1531977E+001  0.2819975E+03  0.7546771E-02  0.1094603E+00
         21   -1    0    0  502  501  0.00000000000E+00  0.00000000000E+00  0.63931852999E+03  0.63931852999E+03  0.00000000000E+00 0.  1.
         21   -1    0    0  504  502 -0.00000000000E+00 -0.00000000000E+00 -0.34428292315E+03  0.34428292315E+03  0.00000000000E+00 0.  1.
         25    1    1    2    0    0  0.24550679325E+03 -0.12333897277E+03  0.43801563480E+03  0.53194810280E+03  0.12500000000E+03 0.  0.
         21    1    1    2  503  501 -0.20071012473E+03  0.81598842401E+02  0.71851763984E+02  0.22826651361E+03  0.00000000000E+00 0.  1.
         21    1    1    2  504  503 -0.44796668521E+02  0.41740130368E+02 -0.21483179195E+03  0.22338683673E+03  0.00000000000E+00 0.  1.
<mgrwt>
<rscale>  4 0.28199748E+03</rscale>
<asrwt>0</asrwt>
<pdfrwt beam="1">  1       21 0.98356697E-01 0.28199748E+03</pdfrwt>
<pdfrwt beam="2">  1       21 0.52966604E-01 0.28199748E+03</pdfrwt>
<totfact> 0.27011381E+03</totfact>
</mgrwt>
</event>
<event>
 5    0  0.1531977E+001  0.2325722E+03  0.7546771E-02  0.1124842E+00
         21   -1    0    0  504  501  0.00000000000E+00  0.00000000000E+00  0.63279439805E+03  0.63279439805E+03  0.00000000000E+00 0.  1.
         21   -1    0    0  503  502 -0.00000000000E+00 -0.00000000000E+00 -0.12734535866E+03  0.12734535866E+03  0.00000000000E+00 0.  1.
         25    1    1    2    0    0  0.12015497350E+03 -0.18399604740E+03  0.24304490725E+03  0.35069586547E+03  0.12500000000E+03 0.  0.
         21    1    1    2  503  501 -0.12967307233E+03  0.13515785588E+03  0.53641687920E+02  0.19483373008E+03  0.00000000000E+00 0.  1.
         21    1    1    2  504  502  0.95180988306E+01  0.48838191513E+02  0.20876244422E+03  0.21461016116E+03  0.00000000000E+00 0.  1.
<mgrwt>
<rscale>  4 0.23257220E+03</rscale>
<asrwt>0</asrwt>
<pdfrwt beam="1">  1       21 0.97352983E-01 0.23257220E+03</pdfrwt>
<pdfrwt beam="2">  1       21 0.19591594E-01 0.23257220E+03</pdfrwt>
<totfact> 0.20499792E+04</totfact>
</mgrwt>
</event>
<event>
 5    0  0.1531977E+001  0.2639182E+03  0.7546771E-02  0.1104812E+00
         21   -1    0    0  504  501  0.00000000000E+00  0.00000000000E+00  0.47295394164E+03  0.47295394164E+03  0.00000000000E+00 0. -1.
         21   -1    0    0  501  502 -0.00000000000E+00 -0.00000000000E+00 -0.16265511403E+03  0.16265511403E+03  0.00000000000E+00 0. -1.
         25    1    1    2    0    0  0.11013927268E+03 -0.20468796950E+03  0.28946053654E+03  0.39171447058E+03  0.12500000000E+03 0.  0.
         21    1    1    2  503  502 -0.66897482461E+02  0.64607839151E+02 -0.11668069931E+02  0.93731477612E+02  0.00000000000E+00 0. -1.
         21    1    1    2  504  503 -0.43241790218E+02  0.14008013035E+03  0.32506361001E+02  0.15016310747E+03  0.00000000000E+00 0. -1.
<mgrwt>
<rscale>  4 0.26391822E+03</rscale>
<asrwt>0</asrwt>
<pdfrwt beam="1">  1       21 0.72762144E-01 0.26391822E+03</pdfrwt>
<pdfrwt beam="2">  1       21 0.25023864E-01 0.26391822E+03</pdfrwt>
<totfact> 0.24794994E+04</totfact>
</mgrwt>
</event>
<event>
 5    0  0.1531977E+001  0.2955608E+03  0.7546771E-02  0.1087481E+00
         21   -1    0    0  503  501  0.00000000000E+00  0.00000000000E+00  0.33524605315E+03  0.33524605315E+03  0.00000000000E+00 0. -1.
         21   -1    0    0  504  502 -0.00000000000E+00 -0.00000000000E+00 -0.30276803778E+03  0.30276803778E+03  0.00000000000E+00 0. -1.
         25    1    1    2    0    0 -0.97994405961E+02  0.25457699911E+03 -0.68916891282E+02  0.30787479594E+03  0.12500000000E+03 0.  0.
         21    1    1    2  503  502 -0.39669612957E+02 -0.30727474992E+02  0.58563977525E+01  0.50518841101E+02  0.00000000000E+00 0. -1.
         21    1    1    2  504  501  0.13766401892E+03 -0.22384952411E+03  0.95538508894E+02  0.27962045389E+03  0.00000000000E+00 0. -1.
<mgrwt>
<rscale>  4 0.29556083E+03</rscale>
<asrwt>0</asrwt>
<pdfrwt beam="1">  1       21 0.51576316E-01 0.29556083E+03</pdfrwt>
<pdfrwt beam="2">  1       21 0.46579698E-01 0.29556083E+03</pdfrwt>
<totfact> 0.14931104E+04</totfact>
</mgrwt>
</event>
<event>
 5    0  0.1531977E+001  0.1752769E+03  0.7546771E-02  0.1172454E+00
         21   -1    0    0  502  501  0.00000000000E+00  0.00000000000E+00  0.80871899895E+03  0.80871899895E+03  0.00000000000E+00 0.  1.
         21   -1    0    0  504  502 -0.00000000000E+00 -0.00000000000E+00 -0.31098403347E+03  0.31098403347E+03  0.00000000000E+00 0. -1.
         25    1    1    2    0    0  0.55067685745E+02  0.20054949023E+03 -0.82469794956E+02  0.25627878399E+03  0.12500000000E+03 0.  0.
         21    1    1    2  503  501 -0.58191140885E+02 -0.10546346772E+03  0.70009006929E+03  0.71037656001E+03  0.00000000000E+00 0.  1.
         21    1    1    2  504  503  0.31234551399E+01 -0.95086022514E+02 -0.11988530885E+03  0.15304768841E+03  0.00000000000E+00 0. -1.
<mgrwt>
<rscale>  4 0.17527687E+03</rscale>
<asrwt>0</asrwt>
<pdfrwt beam="1">  1       21 0.12441831E+00 0.17527687E+03</pdfrwt>
<pdfrwt beam="2">  1       21 0.47843698E-01 0.17527687E+03</pdfrwt>
<totfact> 0.20493762E+03</totfact>
</mgrwt>
</event>
<event>
 5    0  0.1531977E+001  0.2141253E+03  0.7546771E-02  0.1138340E+00
         21   -1    0    0  502  501  0.00000000000E+00  0.00000000000E+00  0.53100885375E+03  0.53100885375E+03  0.00000000000E+00 0. -1.
         21   -1    0    0  504  502 -0.00000000000E+00 -0.00000000000E+00 -0.10984943657E+03  0.10984943657E+03  0.00000000000E+00 0. -1.
         25    1    1    2    0    0 -0.28430753295E+02 -0.20313643201E+03  0.14177089697E+03  0.27892060693E+03  0.12500000000E+03 0.  0.
         21    1    1    2  503  501  0.31212160581E+02  0.16061882418E+03  0.27379818384E+03  0.31896402794E+03  0.00000000000E+00 0. -1.
         21    1    1    2  504  503 -0.27814072862E+01  0.42517607830E+02  0.55903363686E+01  0.42973655450E+02  0.00000000000E+00 0. -1.
<mgrwt>
<rscale>  4 0.21412527E+03</rscale>
<asrwt>0</asrwt>
<pdfrwt beam="1">  1       21 0.81693669E-01 0.21412527E+03</pdfrwt>
<pdfrwt beam="2">  1       21 0.16899914E-01 0.21412527E+03</pdfrwt>
<totfact> 0.40910616E+04</totfact>
</mgrwt>
</event>
<event>
 5    0  0.1531977E+001  0.3075161E+03  0.7546771E-02  0.1081543E+00
         21   -1    0    0  502  501  0.00000000000E+00  0.00000000000E+00  0.11046546717E+03  0.11046546717E+03  0.00000000000E+00 0. -1.
         21   -1    0    0  504  502 -0.00000000000E+00 -0.00000000000E+00 -0.10626457354E+04  0.10626457354E+04  0.00000000000E+00 0. -1.
         25    1    1    2    0    0 -0.17458296157E+03 -0.18551810255E+03 -0.49178247145E+03  0.56777740010E+03  0.12500000000E+03 0.  0.
         21    1    1    2  503  501  0.21813122842E+03  0.20123632416E+03 -0.24448499681E+03  0.38451294470E+03  0.00000000000E+00 0. -1.
         21    1    1    2  504  503 -0.43548266853E+02 -0.15718221609E+02 -0.21591279993E+03  0.22082085773E+03  0.00000000000E+00 0. -1.
<mgrwt>
<rscale>  4 0.30751610E+03</rscale>
<asrwt>0</asrwt>
<pdfrwt beam="1">  1       21 0.16994687E-01 0.30751610E+03</pdfrwt>
<pdfrwt beam="2">  1       21 0.16348396E+00 0.30751610E+03</pdfrwt>
<totfact> 0.68718759E+03</totfact>
</mgrwt>
</event>
<event>
 5    0  0.1531977E+001  0.2598086E+03  0.7546771E-02  0.1107258E+00
         21   -1    0    0  503  501  0.00000000000E+00  0.00000000000E+00  0.48967168402E+03  0.48967168402E+03  0.00000000000E+00 0.  1.
         21   -1    0    0  504  502 -0.00000000000E+00 -0.00000000000E+00 -0.12883745220E+03  0.12883745220E+03  0.00000000000E+00 0.  1.
         25    1    1    2    0    0 -0.18707408951E+03 -0.12991849114E+03  0.24764909027E+03  0.35892979984E+03  0.12500000000E+03 0.  0.
         21    1    1    2  503  502  0.22173988983E+02  0.40451061849E+01 -0.14045647659E+01  0.22583655010E+02  0.00000000000E+00 0.  1.
         21    1    1    2  504  501  0.16490010053E+03  0.12587338495E+03  0.11458970632E+03  0.23699568137E+03  0.00000000000E+00 0.  1.
<mgrwt>
<rscale>  4 0.25980864E+03</rscale>
<asrwt>0</asrwt>
<pdfrwt beam="1">  1       21 0.75334105E-01 0.25980864E+03</pdfrwt>
<pdfrwt beam="2">  1       21 0.19821147E-01 0.25980864E+03</pdfrwt>
<totfact> 0.35783651E+04</totfact>
</mgrwt>
</event>
<event>
 5    0  0.1531977E+001  0.4094948E+03  0.7546771E-02  0.1040541E+00
         21   -1    0    0  503  501  0.00000000000E+00  0.00000000000E+00  0.78571007706E+03  0.78571007706E+03  0.00000000000E+00 0. -1.
         21   -1    0    0  504  502 -0.00000000000E+00 -0.00000000000E+00 -0.49763633608E+03  0.49763633608E+03  0.00000000000E+00 0.  1.
         25    1    1    2    0    0  0.18988008048E+03 -0.37453631783E+03  0.57993775763E+03  0.72683196205E+03  0.12500000000E+03 0.  0.
         21    1    1    2  503  502 -0.15451112951E+03  0.35362807240E+03 -0.32436893003E+03  0.50412469241E+03  0.00000000000E+00 0.  1.
         21    1    1    2  504  501 -0.35368950970E+02  0.20908245435E+02  0.32504913386E+02  0.52389758676E+02  0.00000000000E+00 0.  1.
<mgrwt>
<rscale>  4 0.40949482E+03</rscale>
<asrwt>0</asrwt>
<pdfrwt beam="1">  1       21 0.12087847E+00 0.40949482E+03</pdfrwt>
<pdfrwt beam="2">  1       21 0.76559436E-01 0.40949482E+03</pdfrwt>
<totfact> 0.67493536E+02</totfact>
</mgrwt>
</event>
<event>
 5    0  0.1531977E+001  0.3447594E+03  0.7546771E-02  0.1064787E+00
         21   -1    0    0  503  501  0.00000000000E+00  0.00000000000E+00  0.13308886975E+03  0.13308886975E+03  0.00000000000E+00 0. -1.
         21   -1    0    0  504  502 -0.00000000000E+00 -0.00000000000E+00 -0.88792425214E+03  0.88792425214E+03  0.00000000000E+00 0. -1.
         25    1    1    2    0    0 -0.10812211567E+03 -0.30400705547E+03 -0.40433361345E+03  0.53218544948E+03  0.12500000000E+03 0.  0.
         21    1    1    2  503  502  0.12618725734E+03  0.29433268274E+03 -0.32975903027E+03  0.45966941391E+03  0.00000000000E+00 0. -1.
         21    1    1    2  504  501 -0.18065141666E+02  0.96743727342E+01 -0.20742738668E+02  0.29158258498E+02  0.00000000000E+00 0. -1.
<mgrwt>
<rscale>  4 0.34475941E+03</rscale>
<asrwt>0</asrwt>
<pdfrwt beam="1">  1       21 0.20475210E-01 0.34475941E+03</pdfrwt>
<pdfrwt beam="2">  1       21 0.13660374E+00 0.34475941E+03</pdfrwt>
<totfact> 0.77104179E+03</totfact>
</mgrwt>
</event>
<event>
 5    0  0.1531977E+001  0.3922571E+03  0.7546771E-02  0.1046494E+00
         21   -1    0    0  504  501  0.00000000000E+00  0.00000000000E+00  0.52052209891E+03  0.52052209891E+03  0.00000000000E+00 0.  1.
         21   -1    0    0  503  502 -0.00000000000E+00 -0.00000000000E+00 -0.13685571861E+04  0.13685571861E+04  0.00000000000E+00 0.  1.
         25    1    1    2    0    0  0.35965530204E+03  0.98846188666E+02  0.37129600964E+03  0.54093274265E+03  0.12500000000E+03 0.  0.
         21    1    1    2  503  501 -0.36638688541E+03 -0.63417659560E+02 -0.12479123730E+04  0.13021314988E+04  0.00000000000E+00 0.  1.
         21    1    1    2  504  502  0.67315833712E+01 -0.35428529106E+02  0.28581276182E+02  0.46015043600E+02  0.00000000000E+00 0. -1.
<mgrwt>
<rscale>  4 0.39225707E+03</rscale>
<asrwt>0</asrwt>
<pdfrwt beam="1">  1       21 0.80080322E-01 0.39225707E+03</pdfrwt>
<pdfrwt beam="2">  1       21 0.21054726E+00 0.39225707E+03</pdfrwt>
<totfact> 0.13063294E+02</totfact>
</mgrwt>
</event>
<event>
 5    0  0.1531977E+001  0.3238013E+03  0.7546771E-02  0.1073913E+00
         21   -1    0    0  502  501  0.00000000000E+00  0.00000000000E+00  0.36556305231E+03  0.36556305231E+03  0.00000000000E+00 0.  1.
         21   -1    0    0  504  502 -0.00000000000E+00 -0.00000000000E+00 -0.20771895213E+04  0.20771895213E+04  0.00000000000E+00 0. -1.
         25    1    1    2    0    0  0.10349365143E+03  0.29826922273E+03  0.57844319086E+02  0.34445091140E+03  0.12500000000E+03 0.  0.
         21    1    1    2  503  501  0.51228968692E+02 -0.43458297052E+02  0.14550333491E+03  0.16026306900E+03  0.00000000000E+00 0.  1.
         21    1    1    2  504  503 -0.15472262012E+03 -0.25481092568E+03 -0.19149741229E+04  0.19380385932E+04  0.00000000000E+00 0. -1.
<mgrwt>
<rscale>  4 0.32380131E+03</rscale>
<asrwt>0</asrwt>
<pdfrwt beam="1">  1       21 0.56240470E-01 0.32380131E+03</pdfrwt>
<pdfrwt beam="2">  1       21 0.31956762E+00 0.32380131E+03</pdfrwt>
<totfact> 0.66029300E+01</totfact>
</mgrwt>
</event>
<event>
 5    0  0.1531977E+001  0.2566054E+03  0.7546771E-02  0.1109200E+00
         21   -1    0    0  504  501  0.00000000000E+00  0.00000000000E+00  0.79462538969E+03  0.79462538969E+03  0.00000000000E+00 0.  1.
         21   -1    0    0  503  502 -0.00000000000E+00 -0.00000000000E+00 -0.10419107345E+03  0.10419107345E+03  0.00000000000E+00 0.  1.
         25    1    1    2    0    0 -0.23659509287E+03  0.52985444067E+02  0.41474703017E+03  0.49641191997E+03  0.12500000000E+03 0.  0.
         21    1    1    2  503  501  0.21102212838E+03 -0.48464762811E+02  0.12605932187E+03  0.25053966658E+03  0.00000000000E+00 0.  1.
         21    1    1    2  504  502  0.25572964491E+02 -0.45206812564E+01  0.14962796420E+03  0.15186487659E+03  0.00000000000E+00 0.  1.
<mgrwt>
<rscale>  4 0.25660541E+03</rscale>
<asrwt>0</asrwt>
<pdfrwt beam="1">  1       21 0.12225006E+00 0.25660541E+03</pdfrwt>
<pdfrwt beam="2">  1       21 0.16029396E-01 0.25660541E+03</pdfrwt>
<totfact> 0.16874452E+04</totfact>
</mgrwt>
</event>
<event>
 5    0  0.1531977E+001  0.3767910E+03  0.7546771E-02  0.1052126E+00
         21   -1    0    0  503  501  0.00000000000E+00  0.00000000000E+00  0.11332100517E+04  0.11332100517E+04  0.00000000000E+00 0. -1.
         21   -1    0    0  504  502 -0.00000000000E+00 -0.00000000000E+00 -0.10306081998E+04  0.10306081998E+04  0.00000000000E+00 0. -1.
         25    1    1    2    0    0  0.21268323241E+03 -0.36850877307E+03 -0.52889181387E+03  0.69020607354E+03  0.12500000000E+03 0.  0.
         21    1    1    2  503  502 -0.25414131888E+03  0.18808535770E+03 -0.35182628767E+03  0.47301759845E+03  0.00000000000E+00 0. -1.
         21    1    1    2  504  501  0.41458086471E+02  0.18042341538E+03  0.98331995343E+03  0.10005945795E+04  0.00000000000E+00 0. -1.
<mgrwt>
<rscale>  4 0.37679099E+03</rscale>
<asrwt>0</asrwt>
<pdfrwt beam="1">  1       21 0.17434001E+00 0.37679099E+03</pdfrwt>
<pdfrwt beam="2">  1       21 0.15855511E+00 0.37679099E+03</pdfrwt>
<totfact> 0.42088111E+01</totfact>
</mgrwt>
</event>
<event>
 5    0  0.1531977E+001  0.3072432E+03  0.7546771E-02  0.1081675E+00
         21   -1    0    0  502  501  0.00000000000E+00  0.00000000000E+00  0.37503211495E+03  0.37503211495E+03  0.00000000000E+00 0. -1.
         21   -1    0    0  504  502 -0.00000000000E+00 -0.00000000000E+00 -0.65494896099E+03  0.65494896099E+03  0.00000000000E+00 0.  1.
         25    1    1    2    0    0 -0.20956556352E+02  0.29753760955E+03  0.22116678137E+03  0.39180039757E+03  0.12500000000E+03 0.  0.
         21    1    1    2  503  501 -0.15534137235E+02 -0.21191626318E+02  0.29087625543E+02  0.39198015325E+02  0.00000000000E+00 0.  1.
         21    1    1    2  504  503  0.36490693587E+02 -0.27634598323E+03 -0.53017125295E+03  0.59898266304E+03  0.00000000000E+00 0.  1.
<mgrwt>
<rscale>  4 0.30724324E+03</rscale>
<asrwt>0</asrwt>
<pdfrwt beam="1">  1       21 0.57697249E-01 0.30724324E+03</pdfrwt>
<pdfrwt beam="2">  1       21 0.10076138E+00 0.30724324E+03</pdfrwt>
<totfact> 0.20918119E+03</totfact>
</mgrwt>
</event>
<event>
 5    0  0.1531977E+001  0.2206518E+03  0.7546771E-02  0.1133398E+00
         21   -1    0    0  503  501  0.00000000000E+00  0.00000000000E+00  0.95750973140E+03  0.95750973140E+03  0.00000000000E+00 0.  1.
         21   -1    0    0  504  502 -0.00000000000E+00 -0.00000000000E+00 -0.92502429348E+02  0.92502429348E+02  0.00000000000E+00 0. -1.
         25    1    1    2    0    0 -0.16613930310E+02 -0.21514622506E+03  0.67096627775E+03  0.71581049638E+03  0.12500000000E+03 0.  0.
         21    1    1    2  503  502  0.42068068235E+01  0.17617035106E+03  0.48143107854E+02  0.18267853911E+03  0.00000000000E+00 0. -1.
         21    1    1    2  504  501  0.12407123486E+02  0.38975874000E+02  0.14589791644E+03  0.15152312526E+03  0.00000000000E+00 0.  1.
<mgrwt>
<rscale>  4 0.22065185E+03</rscale>
<asrwt>0</asrwt>
<pdfrwt beam="1">  1       21 0.14730918E+00 0.22065185E+03</pdfrwt>
<pdfrwt beam="2">  1       21 0.14231144E-01 0.22065185E+03</pdfrwt>
<totfact> 0.13269225E+04</totfact>
</mgrwt>
</event>
<event>
 5    0  0.1531977E+001  0.3417938E+03  0.7546771E-02  0.1066034E+00
         21   -1    0    0  502  501  0.00000000000E+00  0.00000000000E+00  0.15587095621E+04  0.15587095621E+04  0.00000000000E+00 0.  1.
         21   -1    0    0  504  502 -0.00000000000E+00 -0.00000000000E+00 -0.19094502857E+03  0.19094502857E+03  0.00000000000E+00 0.  1.
         25    1    1    2    0    0 -0.37990624897E+03 -0.24309192634E+03  0.67605430813E+03  0.82225109923E+03  0.12500000000E+03 0.  0.
         21    1    1    2  503  501  0.16797226376E+03  0.52546490216E+02  0.60414208346E+03  0.62925628486E+03  0.00000000000E+00 0.  1.
         21    1    1    2  504  503  0.21193398521E+03  0.19054543612E+03  0.87568141952E+02  0.29814720659E+03  0.00000000000E+00 0.  1.
<mgrwt>
<rscale>  4 0.34179379E+03</rscale>
<asrwt>0</asrwt>
<pdfrwt beam="1">  1       21 0.23980146E+00 0.34179379E+03</pdfrwt>
<pdfrwt beam="2">  1       21 0.29376159E-01 0.34179379E+03</pdfrwt>
<totfact> 0.73948578E+02</totfact>
</mgrwt>
</event>
<event>
 5    0  0.1531977E+001  0.3209526E+03  0.7546771E-02  0.1075212E+00
         21   -1    0    0  502  501  0.00000000000E+00  0.00000000000E+00  0.65776644708E+03  0.65776644708E+03  0.00000000000E+00 0. -1.
         21   -1    0    0  504  502 -0.00000000000E+00 -0.00000000000E+00 -0.19558580399E+03  0.19558580399E+03  0.00000000000E+00 0. -1.
         25    1    1    2    0    0  0.75041943910E+01  0.31521582993E+03  0.30133220024E+03  0.45369971046E+03  0.12500000000E+03 0.  0.
         21    1    1    2  503  501  0.74095972142E+01 -0.29085626200E+02  0.10308964089E+03  0.10737015340E+03  0.00000000000E+00 0.  1.
         21    1    1    2  504  503 -0.14913791605E+02 -0.28613020373E+03  0.57758801964E+02  0.29228238721E+03  0.00000000000E+00 0. -1.
<mgrwt>
<rscale>  4 0.32095264E+03</rscale>
<asrwt>0</asrwt>
<pdfrwt beam="1">  1       21 0.10119484E+00 0.32095264E+03</pdfrwt>
<pdfrwt beam="2">  1       21 0.30090124E-01 0.32095264E+03</pdfrwt>
<totfact> 0.78514768E+03</totfact>
</mgrwt>
</event>
<event>
 5    0  0.1531977E+001  0.3656746E+03  0.7546771E-02  0.1056359E+00
         21   -1    0    0  503  501  0.00000000000E+00  0.00000000000E+00  0.11223401866E+04  0.11223401866E+04  0.00000000000E+00 0.  1.
         21   -1    0    0  504  502 -0.00000000000E+00 -0.00000000000E+00 -0.15573356919E+03  0.15573356919E+03  0.00000000000E+00 0.  1.
         25    1    1    2    0    0 -0.23700899310E+03 -0.21981662915E+03  0.47692853519E+03  0.58955783511E+03  0.12500000000E+03 0.  0.
         21    1    1    2  503  502  0.32492046699E+03  0.16390461764E+03  0.29804384521E+03  0.47039150420E+03  0.00000000000E+00 0.  1.
         21    1    1    2  504  501 -0.87911473889E+02  0.55912011508E+02  0.19163423703E+03  0.21812441651E+03  0.00000000000E+00 0.  1.
<mgrwt>
<rscale>  4 0.36567458E+03</rscale>
<asrwt>0</asrwt>
<pdfrwt beam="1">  1       21 0.17266772E+00 0.36567458E+03</pdfrwt>
<pdfrwt beam="2">  1       21 0.23959011E-01 0.36567458E+03</pdfrwt>
<totfact> 0.29877690E+03</totfact>
</mgrwt>
</event>
<event>
 5    0  0.1531977E+001  0.2736155E+03  0.7546771E-02  0.1099228E+00
         21   -1    0    0  503  501  0.00000000000E+00  0.00000000000E+00  0.12170066009E+03  0.12170066009E+03  0.00000000000E+00 0. -1.
         21   -1    0    0  504  502 -0.00000000000E+00 -0.00000000000E+00 -0.20731971980E+04  0.20731971980E+04  0.00000000000E+00 0. -1.
         25    1    1    2    0    0 -0.19037499350E+03  0.14847529765E+03 -0.48767599902E+03  0.55833720294E+03  0.12500000000E+03 0.  0.
         21    1    1    2  503  502 -0.48968260442E+02 -0.80701338542E+02 -0.13660104222E+04  0.13692680783E+04  0.00000000000E+00 0. -1.
         21    1    1    2  504  501  0.23934325395E+03 -0.67773959103E+02 -0.97810116692E+02  0.26729257691E+03  0.00000000000E+00 0. -1.
<mgrwt>
<rscale>  4 0.27361549E+03</rscale>
<asrwt>0</asrwt>
<pdfrwt beam="1">  1       21 0.18723181E-01 0.27361549E+03</pdfrwt>
<pdfrwt beam="2">  1       21 0.31895337E+00 0.27361549E+03</pdfrwt>
<totfact> 0.62808079E+02</totfact>
</mgrwt>
</event>
<event>
 5    0  0.1531977E+001  0.3035172E+03  0.7546771E-02  0.1083495E+00
         21   -1    0    0  504  501  0.00000000000E+00  0.00000000000E+00  0.24456344909E+03  0.24456344909E+03  0.00000000000E+00 0.  1.
         21   -1    0    0  501  502 -0.00000000000E+00 -0.00000000000E+00 -0.96022694542E+03  0.96022694542E+03  0.00000000000E+00 0.  1.
         25    1    1    2    0    0  0.19915582483E+03  0.18134697179E+03 -0.36362117847E+02  0.29916044250E+03  0.12500000000E+03 0.  0.
         21    1    1    2  503  502  0.84135244814E+02 -0.13864552706E+03  0.65895435396E+01  0.16231063945E+03  0.00000000000E+00 0.  1.
         21    1    1    2  504  503 -0.28329106964E+03 -0.42701444732E+02 -0.68589092203E+03  0.74331931257E+03  0.00000000000E+00 0.  1.
<mgrwt>
<rscale>  4 0.30351725E+03</rscale>
<asrwt>0</asrwt>
<pdfrwt beam="1">  1       21 0.37625147E-01 0.30351725E+03</pdfrwt>
<pdfrwt beam="2">  1       21 0.14772722E+00 0.30351725E+03</pdfrwt>
<totfact> 0.19470386E+03</totfact>
</mgrwt>
</event>
<event>
 5    0  0.1531977E+001  0.2623230E+03  0.7546771E-02  0.1105755E+00
         21   -1    0    0  502  501  0.00000000000E+00  0.00000000000E+00  0.49186020364E+03  0.49186020364E+03  0.00000000000E+00 0. -1.
         21   -1    0    0  504  502 -0.00000000000E+00 -0.00000000000E+00 -0.57689659836E+03  0.57689659836E+03  0.00000000000E+00 0. -1.
         25    1    1    2    0    0  0.21219491428E+03 -0.90145078413E+01 -0.48100156138E+03  0.54045855072E+03  0.12500000000E+03 0.  0.
         21    1    1    2  503  501 -0.23035438313E+03  0.24904562551E+02  0.42889282660E+03  0.48747557454E+03  0.00000000000E+00 0. -1.
         21    1    1    2  504  503  0.18159468849E+02 -0.15890054710E+02 -0.32927659941E+02  0.40822676746E+02  0.00000000000E+00 0. -1.
<mgrwt>
<rscale>  4 0.26232302E+03</rscale>
<asrwt>0</asrwt>
<pdfrwt beam="1">  1       21 0.75670801E-01 0.26232302E+03</pdfrwt>
<pdfrwt beam="2">  1       21 0.88753323E-01 0.26232302E+03</pdfrwt>
<totfact> 0.15976218E+03</totfact>
</mgrwt>
</event>
<event>
 5    0  0.1531977E+001  0.2559920E+03  0.7546771E-02  0.1109576E+00
         21   -1    0    0  504  501  0.00000000000E+00  0.00000000000E+00  0.22951381264E+03  0.22951381264E+03  0.00000000000E+00 0. -1.
         21   -1    0    0  503  502 -0.00000000000E+00 -0.00000000000E+00 -0.23975617410E+04  0.23975617410E+04  0.00000000000E+00 0. -1.
         25    1    1    2    0    0  0.25984229778E+03 -0.10306185924E+03 -0.75507806696E+03  0.81480528579E+03  0.12500000000E+03 0.  0.
         21    1    1    2  503  501 -0.46819631794E+02  0.51119400687E+02 -0.15514106964E+04  0.15529586021E+04  0.00000000000E+00 0. -1.
         21    1    1    2  504  502 -0.21302266598E+03  0.51942458550E+02  0.13844083494E+03  0.25931166577E+03  0.00000000000E+00 0. -1.
<mgrwt>
<rscale>  4 0.25599199E+03</rscale>
<asrwt>0</asrwt>
<pdfrwt beam="1">  1       21 0.35309818E-01 0.25599199E+03</pdfrwt>
<pdfrwt beam="2">  1       21 0.36885564E+00 0.25599199E+03</pdfrwt>
<totfact> 0.94738213E+01</totfact>
</mgrwt>
</event>
<event>
 5    0  0.1531977E+001  0.2482370E+03  0.7546771E-02  0.1114424E+00
         21   -1    0    0  504  501  0.00000000000E+00  0.00000000000E+00  0.50881137238E+03  0.50881137238E+03  0.00000000000E+00 0. -1.
         21   -1    0    0  503  502 -0.00000000000E+00 -0.00000000000E+00 -0.27946615898E+03  0.27946615898E+03  0.00000000000E+00 0. -1.
         25    1    1    2    0    0  0.14965269289E+03 -0.15362506690E+03 -0.18593592979E+03  0.31015118838E+03  0.12500000000E+03 0.  0.
         21    1    1    2  503  501 -0.74467224093E+02  0.13631054328E+03  0.23120296048E+03  0.27853319480E+03  0.00000000000E+00 0. -1.
         21    1    1    2  504  502 -0.75185468794E+02  0.17314523614E+02  0.18407818271E+03  0.19959314817E+03  0.00000000000E+00 0. -1.
<mgrwt>
<rscale>  4 0.24823696E+03</rscale>
<asrwt>0</asrwt>
<pdfrwt beam="1">  1       21 0.78278673E-01 0.24823696E+03</pdfrwt>
<pdfrwt beam="2">  1       21 0.42994794E-01 0.24823696E+03</pdfrwt>
<totfact> 0.72417450E+03</totfact>
</mgrwt>
</event>
<event>
 5    0  0.1531977E+001  0.2168547E+03  0.7546771E-02  0.1136250E+00
         21   -1    0    0  504  501  0.00000000000E+00  0.00000000000E+00  0.27185684095E+03  0.27185684095E+03  0.00000000000E+00 0.  1.
         21   -1    0    0  503  502 -0.00000000000E+00 -0.00000000000E+00 -0.52855630438E+03  0.52855630438E+03  0.00000000000E+00 0. -1.
         25    1    1    2    0    0 -0.52812229637E+01  0.21224204279E+03 -0.30540648539E+03  0.39239354908E+03  0.12500000000E+03 0.  0.
         21    1    1    2  503  501 -0.45282837661E+02 -0.45312882225E+02 -0.13822770318E+03  0.15235055172E+03  0.00000000000E+00 0.  1.
         21    1    1    2  504  502  0.50564060624E+02 -0.16692916056E+03  0.18693472513E+03  0.25566904453E+03  0.00000000000E+00 0.  1.
<mgrwt>
<rscale>  4 0.21685469E+03</rscale>
<asrwt>0</asrwt>
<pdfrwt beam="1">  1       21 0.41824130E-01 0.21685469E+03</pdfrwt>
<pdfrwt beam="2">  1       21 0.81316354E-01 0.21685469E+03</pdfrwt>
<totfact> 0.71686946E+03</totfact>
</mgrwt>
</event>
<event>
 5    0  0.1531977E+001  0.2240528E+03  0.7546771E-02  0.1130897E+00
         21   -1    0    0  502  501  0.00000000000E+00  0.00000000000E+00  0.20686001693E+03  0.20686001693E+03  0.00000000000E+00 0.  1.
         21   -1    0    0  504  502 -0.00000000000E+00 -0.00000000000E+00 -0.34708532153E+03  0.34708532153E+03  0.00000000000E+00 0.  1.
         25    1    1    2    0    0 -0.84122196183E+02  0.18778480403E+03  0.36935678943E+02  0.24357528794E+03  0.12500000000E+03 0.  0.
         21    1    1    2  503  501 -0.21265552576E+02 -0.39878130168E+02  0.13389332514E+02  0.47135583345E+02  0.00000000000E+00 0. -1.
         21    1    1    2  504  503  0.10538774876E+03 -0.14790667386E+03 -0.19055031606E+03  0.26323446718E+03  0.00000000000E+00 0.  1.
<mgrwt>
<rscale>  4 0.22405280E+03</rscale>
<asrwt>0</asrwt>
<pdfrwt beam="1">  1       21 0.31824618E-01 0.22405280E+03</pdfrwt>
<pdfrwt beam="2">  1       21 0.53397742E-01 0.22405280E+03</pdfrwt>
<totfact> 0.31004111E+04</totfact>
</mgrwt>
</event>
<event>
 5    0  0.1531977E+001  0.3046698E+03  0.7546771E-02  0.1082929E+00
         21   -1    0    0  504  501  0.00000000000E+00  0.00000000000E+00  0.13883221095E+03  0.13883221095E+03  0.00000000000E+00 0. -1.
         21   -1    0    0  503  502 -0.00000000000E+00 -0.00000000000E+00 -0.85076579015E+03  0.85076579015E+03  0.00000000000E+00 0. -1.
         25    1    1    2    0    0  0.62762484904E+02 -0.27925117879E+03 -0.17501326437E+03  0.35801535312E+03  0.12500000000E+03 0.  0.
         21    1    1    2  503  501 -0.38063971336E+02  0.27243284636E+03 -0.53975041057E+03  0.60580444650E+03  0.00000000000E+00 0. -1.
         21    1    1    2  504  502 -0.24698513568E+02  0.68183324322E+01  0.28300957415E+01  0.25778201480E+02  0.00000000000E+00 0. -1.
<mgrwt>
<rscale>  4 0.30466978E+03</rscale>
<asrwt>0</asrwt>
<pdfrwt beam="1">  1       21 0.21358802E-01 0.30466978E+03</pdfrwt>
<pdfrwt beam="2">  1       21 0.13088704E+00 0.30466978E+03</pdfrwt>
<totfact> 0.80961146E+03</totfact>
</mgrwt>
</event>
<event>
 5    0  0.1531977E+001  0.2241762E+03  0.7546771E-02  0.1130807E+00
         21   -1    0    0  502  501  0.00000000000E+00  0.00000000000E+00  0.17564231573E+04  0.17564231573E+04  0.00000000000E+00 0. -1.
         21   -1    0    0  504  502 -0.00000000000E+00 -0.00000000000E+00 -0.57959825006E+02  0.57959825006E+02  0.00000000000E+00 0. -1.
         25    1    1    2    0    0  0.24973407994E+02 -0.21585664401E+03  0.97339773404E+03  0.10051596443E+04  0.12500000000E+03 0.  0.
         21    1    1    2  503  501 -0.94516744129E+02  0.45697755885E+02  0.53348703043E+03  0.54371877975E+03  0.00000000000E+00 0. -1.
         21    1    1    2  504  503  0.69543336135E+02  0.17015888813E+03  0.19157856781E+03  0.26550455826E+03  0.00000000000E+00 0. -1.
<mgrwt>
<rscale>  4 0.22417617E+03</rscale>
<asrwt>0</asrwt>
<pdfrwt beam="1">  1       21 0.27021891E+00 0.22417617E+03</pdfrwt>
<pdfrwt beam="2">  1       21 0.89168975E-02 0.22417617E+03</pdfrwt>
<totfact> 0.48722196E+03</totfact>
</mgrwt>
</event>
<event>
 5    0  0.1531977E+001  0.2503056E+03  0.7546771E-02  0.1113112E+00
         21   -1    0    0  502  501  0.00000000000E+00  0.00000000000E+00  0.23004968316E+03  0.23004968316E+03  0.00000000000E+00 0. -1.
         21   -1    0    0  504  502 -0.00000000000E+00 -0.00000000000E+00 -0.32786830417E+03  0.32786830417E+03  0.00000000000E+00 0. -1.
         25    1    1    2    0    0  0.15856369618E+03 -0.16258038054E+03 -0.12745954755E+03  0.28886980137E+03  0.12500000000E+03 0.  0.
         21    1    1    2  503  501 -0.34024870877E+02 -0.14998918459E+01  0.51667761774E+02  0.61882946928E+02  0.00000000000E+00 0.  1.
         21    1    1    2  504  503 -0.12453882530E+03  0.16408027239E+03 -0.22026835228E+02  0.20716523903E+03  0.00000000000E+00 0. -1.
<mgrwt>
<rscale>  4 0.25030563E+03</rscale>
<asrwt>0</asrwt>
<pdfrwt beam="1">  1       21 0.35392259E-01 0.25030563E+03</pdfrwt>
<pdfrwt beam="2">  1       21 0.50441278E-01 0.25030563E+03</pdfrwt>
<totfact> 0.27965650E+04</totfact>
</mgrwt>
</event>
<event>
 5    0  0.1531977E+001  0.2343879E+03  0.7546771E-02  0.1123589E+00
         21   -1    0    0  504  501  0.00000000000E+00  0.00000000000E+00  0.14009349406E+03  0.14009349406E+03  0.00000000000E+00 0.  1.
         21   -1    0    0  503  502 -0.00000000000E+00 -0.00000000000E+00 -0.71454834216E+03  0.71454834216E+03  0.00000000000E+00 0.  1.
         25    1    1    2    0    0  0.11240250830E+03 -0.18713236274E+03 -0.30341547645E+03  0.39413043070E+03  0.12500000000E+03 0.  0.
         21    1    1    2  503  501 -0.26263887281E+02  0.14715080226E+02 -0.26601060376E+03  0.26770873478E+03  0.00000000000E+00 0.  1.
         21    1    1    2  504  502 -0.86138621015E+02  0.17241728251E+03 -0.50287678876E+01  0.19280267074E+03  0.00000000000E+00 0.  1.
<mgrwt>
<rscale>  4 0.23438790E+03</rscale>
<asrwt>0</asrwt>
<pdfrwt beam="1">  1       21 0.21552845E-01 0.23438790E+03</pdfrwt>
<pdfrwt beam="2">  1       21 0.10993051E+00 0.23438790E+03</pdfrwt>
<totfact> 0.12777213E+04</totfact>
</mgrwt>
</event>
<event>
 5    0  0.1531977E+001  0.2968202E+03  0.7546771E-02  0.1086841E+00
         21   -1    0    0  502  501  0.00000000000E+00  0.00000000000E+00  0.23776380477E+03  0.23776380477E+03  0.00000000000E+00 0. -1.
         21   -1    0    0  504  502 -0.00000000000E+00 -0.00000000000E+00 -0.69749075615E+03  0.69749075615E+03  0.00000000000E+00 0. -1.
         25    1    1    2    0    0  0.46654713315E+02 -0.28546221896E+03 -0.42900817545E+03  0.53229536475E+03  0.12500000000E+03 0.  0.
         21    1    1    2  503  501 -0.29405726221E+02  0.26366796410E+03  0.89172855429E+02  0.27988799577E+03  0.00000000000E+00 0. -1.
         21    1    1    2  504  503 -0.17248987094E+02  0.21794254853E+02 -0.11989163135E+03  0.12307120040E+03  0.00000000000E+00 0. -1.
<mgrwt>
<rscale>  4 0.29682021E+03</rscale>
<asrwt>0</asrwt>
<pdfrwt beam="1">  1       21 0.36579047E-01 0.29682021E+03</pdfrwt>
<pdfrwt beam="2">  1       21 0.10730627E+00 0.29682021E+03</pdfrwt>
<totfact> 0.46666315E+03</totfact>
</mgrwt>
</event>
<event>
 5    0  0.1531977E+001  0.2879051E+03  0.7546771E-02  0.1091448E+00
         21   -1    0    0  502  501  0.00000000000E+00  0.00000000000E+00  0.25035402275E+03  0.25035402275E+03  0.00000000000E+00 0.  1.
         21   -1    0    0  504  502 -0.00000000000E+00 -0.00000000000E+00 -0.51374586840E+03  0.51374586840E+03  0.00000000000E+00 0.  1.
         25    1    1    2    0    0 -0.12527621939E+03 -0.25671773552E+03  0.20689285302E+02  0.31249187734E+03  0.12500000000E+03 0.  0.
         21    1    1    2  503  501  0.72946695152E+02  0.21824525743E+03 -0.90240121920E+02  0.24717502367E+03  0.00000000000E+00 0.  1.
         21    1    1    2  504  503  0.52329524238E+02  0.38472478093E+02 -0.19384100903E+03  0.20443299014E+03  0.00000000000E+00 0.  1.
<mgrwt>
<rscale>  4 0.28790514E+03</rscale>
<asrwt>0</asrwt>
<pdfrwt beam="1">  1       21 0.38516003E-01 0.28790514E+03</pdfrwt>
<pdfrwt beam="2">  1       21 0.79037826E-01 0.28790514E+03</pdfrwt>
<totfact> 0.86820650E+03</totfact>
</mgrwt>
</event>
<event>
 5    0  0.1531977E+001  0.2337229E+03  0.7546771E-02  0.1124047E+00
         21   -1    0    0  502  501  0.00000000000E+00  0.00000000000E+00  0.14810662249E+03  0.14810662249E+03  0.00000000000E+00 0.  1.
         21   -1    0    0  504  502 -0.00000000000E+00 -0.00000000000E+00 -0.57856317676E+03  0.57856317676E+03  0.00000000000E+00 0.  1.
         25    1    1    2    0    0 -0.10410027738E+03 -0.18896403510E+03 -0.73211773044E+02  0.25986388365E+03  0.12500000000E+03 0.  0.
         21    1    1    2  503  501  0.78156597992E+02  0.16312153665E+03 -0.99434632171E+02  0.20640817717E+03  0.00000000000E+00 0.  1.
         21    1    1    2  504  503  0.25943679391E+02  0.25842498450E+02 -0.25781014905E+03  0.26039773843E+03  0.00000000000E+00 0.  1.
<mgrwt>
<rscale>  4 0.23372288E+03</rscale>
<asrwt>0</asrwt>
<pdfrwt beam="1">  1       21 0.22785634E-01 0.23372288E+03</pdfrwt>
<pdfrwt beam="2">  1       21 0.89009721E-01 0.23372288E+03</pdfrwt>
<totfact> 0.19009805E+04</totfact>
</mgrwt>
</event>
<event>
 5    0  0.1531977E+001  0.4015159E+03  0.7546771E-02  0.1043256E+00
         21   -1    0    0  504  501  0.00000000000E+00  0.00000000000E+00  0.18767584440E+04  0.18767584440E+04  0.00000000000E+00 0. -1.
         21   -1    0    0  501  502 -0.00000000000E+00 -0.00000000000E+00 -0.15732248261E+03  0.15732248261E+03  0.00000000000E+00 0. -1.
         25    1    1    2    0    0  0.31733604621E+03  0.21563449584E+03  0.15509628856E+04  0.16025951687E+04  0.12500000000E+03 0.  0.
         21    1    1    2  503  502 -0.29620385173E+03 -0.22446104709E+03  0.14568615830E+03  0.39917908282E+03  0.00000000000E+00 0. -1.
         21    1    1    2  504  503 -0.21132194476E+02  0.88265512483E+01  0.22786917483E+02  0.32306675142E+02  0.00000000000E+00 0. -1.
<mgrwt>
<rscale>  4 0.40151591E+03</rscale>
<asrwt>0</asrwt>
<pdfrwt beam="1">  1       21 0.28873205E+00 0.40151591E+03</pdfrwt>
<pdfrwt beam="2">  1       21 0.24203460E-01 0.40151591E+03</pdfrwt>
<totfact> 0.52603250E+02</totfact>
</mgrwt>
</event>
<event>
 5    0  0.1531977E+001  0.2306217E+03  0.7546771E-02  0.1126203E+00
         21   -1    0    0  503  501  0.00000000000E+00  0.00000000000E+00  0.64968032372E+03  0.64968032372E+03  0.00000000000E+00 0.  1.
         21   -1    0    0  504  502 -0.00000000000E+00 -0.00000000000E+00 -0.11706609569E+04  0.11706609569E+04  0.00000000000E+00 0. -1.
         25    1    1    2    0    0  0.13227254887E+03  0.27549366604E+03  0.40001101758E+03  0.51867774330E+03  0.12500000000E+03 0.  0.
         21    1    1    2  503  502 -0.22495249709E+02 -0.19071412101E+03 -0.10763791561E+04  0.10933755072E+04  0.00000000000E+00 0. -1.
         21    1    1    2  504  501 -0.10977729916E+03 -0.84779545037E+02  0.15538750531E+03  0.20828803008E+03  0.00000000000E+00 0.  1.
<mgrwt>
<rscale>  4 0.23062170E+03</rscale>
<asrwt>0</asrwt>
<pdfrwt beam="1">  1       21 0.99950819E-01 0.23062170E+03</pdfrwt>
<pdfrwt beam="2">  1       21 0.18010168E+00 0.23062170E+03</pdfrwt>
<totfact> 0.14233180E+02</totfact>
</mgrwt>
</event>
<event>
 5    0  0.1531977E+001  0.2619230E+03  0.7546771E-02  0.1105993E+00
         21   -1    0    0  503  501  0.00000000000E+00  0.00000000000E+00  0.31648228128E+03  0.31648228128E+03  0.00000000000E+00 0.  1.
         21   -1    0    0  504  502 -0.00000000000E+00 -0.00000000000E+00 -0.58712486555E+03  0.58712486555E+03  0.00000000000E+00 0.  1.
         25    1    1    2    0    0 -0.26109717540E+03 -0.35438512775E+02  0.18037708145E+03  0.34291181768E+03  0.12500000000E+03 0.  0.
         21    1    1    2  503  502  0.22121164947E+03  0.50579206228E+02 -0.46365060714E+03  0.51620222342E+03  0.00000000000E+00 0.  1.
         21    1    1    2  504  501  0.39885525937E+02 -0.15140693452E+02  0.12630941416E+02  0.44493105742E+02  0.00000000000E+00 0. -1.
<mgrwt>
<rscale>  4 0.26192298E+03</rscale>
<asrwt>0</asrwt>
<pdfrwt beam="1">  1       21 0.48689581E-01 0.26192298E+03</pdfrwt>
<pdfrwt beam="2">  1       21 0.90326903E-01 0.26192298E+03</pdfrwt>
<totfact> 0.39926876E+03</totfact>
</mgrwt>
</event>
<event>
 5    0  0.1531977E+001  0.3432026E+03  0.7546771E-02  0.1065440E+00
         21   -1    0    0  503  501  0.00000000000E+00  0.00000000000E+00  0.82964164510E+03  0.82964164510E+03  0.00000000000E+00 0.  1.
         21   -1    0    0  501  502 -0.00000000000E+00 -0.00000000000E+00 -0.19786396439E+03  0.19786396439E+03  0.00000000000E+00 0.  1.
         25    1    1    2    0    0 -0.15830852682E+03 -0.31395977283E+03  0.49623125174E+03  0.62088870486E+03  0.12500000000E+03 0.  0.
         21    1    1    2  503  504  0.37196363924E+02  0.29472615150E+02  0.79200436745E+02  0.92330459295E+02  0.00000000000E+00 0.  1.
         21    1    1    2  504  502  0.12111216290E+03  0.28448715768E+03  0.56345992225E+02  0.31428644534E+03  0.00000000000E+00 0.  1.
<mgrwt>
<rscale>  4 0.34320258E+03</rscale>
<asrwt>0</asrwt>
<pdfrwt beam="1">  1       21 0.12763717E+00 0.34320258E+03</pdfrwt>
<pdfrwt beam="2">  1       21 0.30440610E-01 0.34320258E+03</pdfrwt>
<totfact> 0.42669162E+03</totfact>
</mgrwt>
</event>
<event>
 5    0  0.1531977E+001  0.2472579E+03  0.7546771E-02  0.1115050E+00
         21   -1    0    0  503  501  0.00000000000E+00  0.00000000000E+00  0.15775196064E+03  0.15775196064E+03  0.00000000000E+00 0. -1.
         21   -1    0    0  504  502 -0.00000000000E+00 -0.00000000000E+00 -0.46277678514E+03  0.46277678514E+03  0.00000000000E+00 0. -1.
         25    1    1    2    0    0 -0.21042662509E+03  0.90463632462E+02 -0.51876548575E+02  0.26604362356E+03  0.12500000000E+03 0.  0.
         21    1    1    2  503  502  0.19520451359E+03 -0.71840411108E+02 -0.25645673681E+03  0.33020585193E+03  0.00000000000E+00 0. -1.
         21    1    1    2  504  501  0.15222111502E+02 -0.18623221353E+02  0.33084608939E+01  0.24279270286E+02  0.00000000000E+00 0.  1.
<mgrwt>
<rscale>  4 0.24725787E+03</rscale>
<asrwt>0</asrwt>
<pdfrwt beam="1">  1       21 0.24269533E-01 0.24725787E+03</pdfrwt>
<pdfrwt beam="2">  1       21 0.71196427E-01 0.24725787E+03</pdfrwt>
<totfact> 0.27810803E+04</totfact>
</mgrwt>
</event>
<event>
 5    0  0.1531977E+001  0.2359339E+03  0.7546771E-02  0.1122532E+00
         21   -1    0    0  502  501  0.00000000000E+00  0.00000000000E+00  0.29332832288E+03  0.29332832288E+03  0.00000000000E+00 0. -1.
         21   -1    0    0  504  502 -0.00000000000E+00 -0.00000000000E+00 -0.68722929780E+03  0.68722929780E+03  0.00000000000E+00 0.  1.
         25    1    1    2    0    0  0.21511766583E+03 -0.13440790494E+02 -0.56459453526E+03  0.61712904181E+03  0.12500000000E+03 0.  0.
         21    1    1    2  503  501 -0.19813789034E+03 -0.21411972622E+02  0.22251247199E+03  0.29871206261E+03  0.00000000000E+00 0. -1.
         21    1    1    2  504  503 -0.16979775492E+02  0.34852763116E+02 -0.51818911654E+02  0.64716516266E+02  0.00000000000E+00 0. -1.
<mgrwt>
<rscale>  4 0.23593388E+03</rscale>
<asrwt>0</asrwt>
<pdfrwt beam="1">  1       21 0.45127435E-01 0.23593388E+03</pdfrwt>
<pdfrwt beam="2">  1       21 0.10572758E+00 0.23593388E+03</pdfrwt>
<totfact> 0.32716056E+03</totfact>
</mgrwt>
</event>
<event>
 5    0  0.1531977E+001  0.2432925E+03  0.7546771E-02  0.1117619E+00
         21   -1    0    0  502  501  0.00000000000E+00  0.00000000000E+00  0.66502724452E+03  0.66502724452E+03  0.00000000000E+00 0. -1.
         21   -1    0    0  504  502 -0.00000000000E+00 -0.00000000000E+00 -0.16020625550E+03  0.16020625550E+03  0.00000000000E+00 0. -1.
         25    1    1    2    0    0  0.20286701502E+03 -0.11567203003E+03  0.97244275992E+02  0.28216394796E+03  0.12500000000E+03 0.  0.
         21    1    1    2  503  501 -0.17764365097E+03  0.97952996282E+02  0.44826105565E+03  0.49202645276E+03  0.00000000000E+00 0. -1.
         21    1    1    2  504  503 -0.25223364052E+02  0.17719033746E+02 -0.40684342618E+02  0.51043099291E+02  0.00000000000E+00 0. -1.
<mgrwt>
<rscale>  4 0.24329248E+03</rscale>
<asrwt>0</asrwt>
<pdfrwt beam="1">  1       21 0.10231188E+00 0.24329248E+03</pdfrwt>
<pdfrwt beam="2">  1       21 0.24647117E-01 0.24329248E+03</pdfrwt>
<totfact> 0.11718311E+04</totfact>
</mgrwt>
</event>
<event>
 5    0  0.1531977E+001  0.5427715E+03  0.7546771E-02  0.1003181E+00
         21   -1    0    0  503  501  0.00000000000E+00  0.00000000000E+00  0.27864530632E+03  0.27864530632E+03  0.00000000000E+00 0. -1.
         21   -1    0    0  504  502 -0.00000000000E+00 -0.00000000000E+00 -0.14327741851E+04  0.14327741851E+04  0.00000000000E+00 0. -1.
         25    1    1    2    0    0  0.10512464680E+03  0.53428079499E+03 -0.59484889233E+03  0.81607436178E+03  0.12500000000E+03 0.  0.
         21    1    1    2  503  502  0.22110737776E+02 -0.31006794665E+02 -0.32257734620E+03  0.32481756468E+03  0.00000000000E+00 0. -1.
         21    1    1    2  504  501 -0.12723538457E+03 -0.50327400032E+03 -0.23670264028E+03  0.57052756498E+03  0.00000000000E+00 0. -1.
<mgrwt>
<rscale>  4 0.54277150E+03</rscale>
<asrwt>0</asrwt>
<pdfrwt beam="1">  1       21 0.42868509E-01 0.54277150E+03</pdfrwt>
<pdfrwt beam="2">  1       21 0.22042679E+00 0.54277150E+03</pdfrwt>
<totfact> 0.40896616E+02</totfact>
</mgrwt>
</event>
<event>
 5    0  0.1531977E+001  0.3176275E+03  0.7546771E-02  0.1076746E+00
         21   -1    0    0  502  501  0.00000000000E+00  0.00000000000E+00  0.45058294500E+03  0.45058294500E+03  0.00000000000E+00 0.  1.
         21   -1    0    0  504  502 -0.00000000000E+00 -0.00000000000E+00 -0.11126607235E+04  0.11126607235E+04  0.00000000000E+00 0.  1.
         25    1    1    2    0    0  0.59051330236E+02 -0.25224418868E+03  0.35073445782E+03  0.45360098128E+03  0.12500000000E+03 0.  0.
         21    1    1    2  503  501  0.15964354051E+02 -0.31697351830E+02  0.16582714459E+02  0.39173576964E+02  0.00000000000E+00 0. -1.
         21    1    1    2  504  503 -0.75015684287E+02  0.28394154051E+03 -0.10293949508E+04  0.10704691102E+04  0.00000000000E+00 0.  1.
<mgrwt>
<rscale>  4 0.31762747E+03</rscale>
<asrwt>0</asrwt>
<pdfrwt beam="1">  1       21 0.69320453E-01 0.31762747E+03</pdfrwt>
<pdfrwt beam="2">  1       21 0.17117857E+00 0.31762747E+03</pdfrwt>
<totfact> 0.35259885E+02</totfact>
</mgrwt>
</event>
<event>
 5    0  0.1531977E+001  0.1836681E+03  0.7546771E-02  0.1164299E+00
         21   -1    0    0  504  501  0.00000000000E+00  0.00000000000E+00  0.20732175303E+04  0.20732175303E+04  0.00000000000E+00 0.  1.
         21   -1    0    0  503  502 -0.00000000000E+00 -0.00000000000E+00 -0.89558163419E+02  0.89558163419E+02  0.00000000000E+00 0.  1.
         25    1    1    2    0    0 -0.22152765949E+03 -0.70540847112E+02  0.60451302144E+03  0.65962982659E+03  0.12500000000E+03 0.  0.
         21    1    1    2  503  501  0.12500234630E+03  0.51311049784E+01  0.62041903686E+01  0.12526135397E+03  0.00000000000E+00 0.  1.
         21    1    1    2  504  502  0.96525313190E+02  0.65409742134E+02  0.13729421551E+04  0.13778845132E+04  0.00000000000E+00 0.  1.
<mgrwt>
<rscale>  4 0.18366814E+03</rscale>
<asrwt>0</asrwt>
<pdfrwt beam="1">  1       21 0.31895651E+00 0.18366814E+03</pdfrwt>
<pdfrwt beam="2">  1       21 0.13778181E-01 0.18366814E+03</pdfrwt>
<totfact> 0.12301688E+03</totfact>
</mgrwt>
</event>
<event>
 5    0  0.1531977E+001  0.3922010E+03  0.7546771E-02  0.1046514E+00
         21   -1    0    0  504  501  0.00000000000E+00  0.00000000000E+00  0.11248990195E+04  0.11248990195E+04  0.00000000000E+00 0. -1.
         21   -1    0    0  501  502 -0.00000000000E+00 -0.00000000000E+00 -0.17210920027E+03  0.17210920027E+03  0.00000000000E+00 0. -1.
         25    1    1    2    0    0 -0.33299465382E+03 -0.11793416742E+03  0.62229410568E+03  0.72640819192E+03  0.12500000000E+03 0.  0.
         21    1    1    2  503  502 -0.60816933815E+00 -0.69513377657E+02  0.10656750225E+03  0.12723644163E+03  0.00000000000E+00 0. -1.
         21    1    1    2  504  503  0.33360282315E+03  0.18744754507E+03  0.22392821130E+03  0.44336358622E+03  0.00000000000E+00 0. -1.
<mgrwt>
<rscale>  4 0.39220104E+03</rscale>
<asrwt>0</asrwt>
<pdfrwt beam="1">  1       21 0.17306138E+00 0.39220104E+03</pdfrwt>
<pdfrwt beam="2">  1       21 0.26478339E-01 0.39220104E+03</pdfrwt>
<totfact> 0.24141686E+03</totfact>
</mgrwt>
</event>
<event>
 5    0  0.1531977E+001  0.2677783E+03  0.7546771E-02  0.1102558E+00
         21   -1    0    0  502  501  0.00000000000E+00  0.00000000000E+00  0.11701430010E+03  0.11701430010E+03  0.00000000000E+00 0. -1.
         21   -1    0    0  504  502 -0.00000000000E+00 -0.00000000000E+00 -0.64633041722E+03  0.64633041722E+03  0.00000000000E+00 0. -1.
         25    1    1    2    0    0  0.56938315913E+02  0.21239932226E+03 -0.30081258386E+03  0.39302500496E+03  0.12500000000E+03 0.  0.
         21    1    1    2  503  501 -0.11067461257E+02  0.31656405240E+02 -0.64573595487E+02  0.72762393621E+02  0.00000000000E+00 0. -1.
         21    1    1    2  504  503 -0.45870854656E+02 -0.24405572750E+03 -0.16392993778E+03  0.29755731874E+03  0.00000000000E+00 0. -1.
<mgrwt>
<rscale>  4 0.26777827E+03</rscale>
<asrwt>0</asrwt>
<pdfrwt beam="1">  1       21 0.18002200E-01 0.26777827E+03</pdfrwt>
<pdfrwt beam="2">  1       21 0.99435448E-01 0.26777827E+03</pdfrwt>
<totfact> 0.22441265E+04</totfact>
</mgrwt>
</event>
<event>
 5    0  0.1531977E+001  0.4252071E+03  0.7546771E-02  0.1035385E+00
         21   -1    0    0  502  501  0.00000000000E+00  0.00000000000E+00  0.76582160123E+02  0.76582160123E+02  0.00000000000E+00 0. -1.
         21   -1    0    0  504  502 -0.00000000000E+00 -0.00000000000E+00 -0.32214296581E+04  0.32214296581E+04  0.00000000000E+00 0.  1.
         25    1    1    2    0    0  0.40993014944E+03  0.11144457340E+03 -0.22801706568E+04  0.23227711563E+04  0.12500000000E+03 0.  0.
         21    1    1    2  503  501 -0.31073839374E+02  0.18823781110E+02 -0.16529109088E+03  0.16923670687E+03  0.00000000000E+00 0. -1.
         21    1    1    2  504  503 -0.37885631007E+03 -0.13026835451E+03 -0.69938575035E+03  0.80600395512E+03  0.00000000000E+00 0. -1.
<mgrwt>
<rscale>  4 0.42520713E+03</rscale>
<asrwt>0</asrwt>
<pdfrwt beam="1">  1       21 0.11781872E-01 0.42520713E+03</pdfrwt>
<pdfrwt beam="2">  1       21 0.49560451E+00 0.42520713E+03</pdfrwt>
<totfact> 0.93998831E+01</totfact>
</mgrwt>
</event>
<event>
 5    0  0.1531977E+001  0.3412378E+03  0.7546771E-02  0.1066270E+00
         21   -1    0    0  502  501  0.00000000000E+00  0.00000000000E+00  0.40194125692E+03  0.40194125692E+03  0.00000000000E+00 0. -1.
         21   -1    0    0  504  502 -0.00000000000E+00 -0.00000000000E+00 -0.78995640374E+03  0.78995640374E+03  0.00000000000E+00 0. -1.
         25    1    1    2    0    0 -0.36400136352E+03 -0.14506630439E+03 -0.13841512960E+03  0.43396425361E+03  0.12500000000E+03 0.  0.
         21    1    1    2  503  501  0.87784746228E+02  0.40695500135E+02  0.19876898883E+03  0.22106875926E+03  0.00000000000E+00 0. -1.
         21    1    1    2  504  503  0.27621661729E+03  0.10437080426E+03 -0.44836900605E+03  0.53686464778E+03  0.00000000000E+00 0. -1.
<mgrwt>
<rscale>  4 0.34123783E+03</rscale>
<asrwt>0</asrwt>
<pdfrwt beam="1">  1       21 0.61837117E-01 0.34123783E+03</pdfrwt>
<pdfrwt beam="2">  1       21 0.12153175E+00 0.34123783E+03</pdfrwt>
<totfact> 0.11120427E+03</totfact>
</mgrwt>
</event>
<event>
 5    0  0.1531977E+001  0.4185418E+03  0.7546771E-02  0.1037542E+00
         21   -1    0    0  503  501  0.00000000000E+00  0.00000000000E+00  0.12402303097E+04  0.12402303097E+04  0.00000000000E+00 0.  1.
         21   -1    0    0  504  502 -0.00000000000E+00 -0.00000000000E+00 -0.16575035838E+04  0.16575035838E+04  0.00000000000E+00 0. -1.
         25    1    1    2    0    0  0.34760352700E+03 -0.17673740952E+02 -0.13874032758E+04  0.14358458910E+04  0.12500000000E+03 0.  0.
         21    1    1    2  503  502  0.52656942748E+02  0.13185110086E+00 -0.20953210248E+03  0.21604738595E+03  0.00000000000E+00 0.  1.
         21    1    1    2  504  501 -0.40026046975E+03  0.17541889851E+02  0.11796621042E+04  0.12458406165E+04  0.00000000000E+00 0.  1.
<mgrwt>
<rscale>  4 0.41854183E+03</rscale>
<asrwt>0</asrwt>
<pdfrwt beam="1">  1       21 0.19080466E+00 0.41854183E+03</pdfrwt>
<pdfrwt beam="2">  1       21 0.25500055E+00 0.41854183E+03</pdfrwt>
<totfact> 0.71716949E+00</totfact>
</mgrwt>
</event>
<event>
 5    0  0.1531977E+001  0.2102987E+03  0.7546771E-02  0.1141330E+00
         21   -1    0    0  503  501  0.00000000000E+00  0.00000000000E+00  0.14480437113E+03  0.14480437113E+03  0.00000000000E+00 0.  1.
         21   -1    0    0  504  502 -0.00000000000E+00 -0.00000000000E+00 -0.17870309424E+04  0.17870309424E+04  0.00000000000E+00 0.  1.
         25    1    1    2    0    0  0.96318437981E+02  0.17890498489E+03 -0.20092089763E+02  0.23940118459E+03  0.12500000000E+03 0.  0.
         21    1    1    2  503  502 -0.57766711081E+02 -0.48918787396E+02 -0.15220037679E+04  0.15238850056E+04  0.00000000000E+00 0.  1.
         21    1    1    2  504  501 -0.38551726899E+02 -0.12998619749E+03 -0.10013071362E+03  0.16854912339E+03  0.00000000000E+00 0.  1.
<mgrwt>
<rscale>  4 0.21029867E+03</rscale>
<asrwt>0</asrwt>
<pdfrwt beam="1">  1       21 0.22277596E-01 0.21029867E+03</pdfrwt>
<pdfrwt beam="2">  1       21 0.27492783E+00 0.21029867E+03</pdfrwt>
<totfact> 0.87767477E+02</totfact>
</mgrwt>
</event>
<event>
 5    0  0.1531977E+001  0.1782267E+03  0.7546771E-02  0.1169530E+00
         21   -1    0    0  504  501  0.00000000000E+00  0.00000000000E+00  0.82703477558E+03  0.82703477558E+03  0.00000000000E+00 0.  1.
         21   -1    0    0  503  502 -0.00000000000E+00 -0.00000000000E+00 -0.24378878615E+03  0.24378878615E+03  0.00000000000E+00 0.  1.
         25    1    1    2    0    0  0.14211880377E+03  0.15463284811E+03  0.65743788521E+03  0.70139763687E+03  0.12500000000E+03 0.  0.
         21    1    1    2  503  501 -0.78273548422E+02 -0.97155411361E+02 -0.18873664088E+03  0.22624641865E+03  0.00000000000E+00 0.  1.
         21    1    1    2  504  502 -0.63845255350E+02 -0.57477436751E+02  0.11454474510E+03  0.14317950621E+03  0.00000000000E+00 0.  1.
<mgrwt>
<rscale>  4 0.17822669E+03</rscale>
<asrwt>0</asrwt>
<pdfrwt beam="1">  1       21 0.12723612E+00 0.17822669E+03</pdfrwt>
<pdfrwt beam="2">  1       21 0.37505967E-01 0.17822669E+03</pdfrwt>
<totfact> 0.31689974E+03</totfact>
</mgrwt>
</event>
<event>
 5    0  0.1531977E+001  0.4147452E+03  0.7546771E-02  0.1038790E+00
         21   -1    0    0  503  501  0.00000000000E+00  0.00000000000E+00  0.17541496459E+04  0.17541496459E+04  0.00000000000E+00 0.  1.
         21   -1    0    0  504  502 -0.00000000000E+00 -0.00000000000E+00 -0.32526917588E+03  0.32526917588E+03  0.00000000000E+00 0. -1.
         25    1    1    2    0    0 -0.24805661660E+03  0.28897998451E+03  0.15252155661E+04  0.15770063537E+04  0.12500000000E+03 0.  0.
         21    1    1    2  503  502  0.24476501859E+03 -0.31223366385E+03 -0.16512206335E+03  0.42972673989E+03  0.00000000000E+00 0. -1.
         21    1    1    2  504  501  0.32915980091E+01  0.23253679347E+02  0.68786967283E+02  0.72685728232E+02  0.00000000000E+00 0.  1.
<mgrwt>
<rscale>  4 0.41474519E+03</rscale>
<asrwt>0</asrwt>
<pdfrwt beam="1">  1       21 0.26986917E+00 0.41474519E+03</pdfrwt>
<pdfrwt beam="2">  1       21 0.50041413E-01 0.41474519E+03</pdfrwt>
<totfact> 0.15582257E+02</totfact>
</mgrwt>
</event>
<event>
 5    0  0.1531977E+001  0.2421724E+03  0.7546771E-02  0.1118354E+00
         21   -1    0    0  503  501  0.00000000000E+00  0.00000000000E+00  0.27587200397E+03  0.27587200397E+03  0.00000000000E+00 0. -1.
         21   -1    0    0  504  502 -0.00000000000E+00 -0.00000000000E+00 -0.30794909487E+03  0.30794909487E+03  0.00000000000E+00 0. -1.
         25    1    1    2    0    0 -0.18222897830E+03 -0.16192082340E+03 -0.32728470824E+02  0.27590198692E+03  0.12500000000E+03 0.  0.
         21    1    1    2  503  502  0.11811234259E+03  0.14830801654E+03 -0.78455755301E+02  0.20518552283E+03  0.00000000000E+00 0. -1.
         21    1    1    2  504  501  0.64116635711E+02  0.13612806860E+02  0.79107135222E+02  0.10273358910E+03  0.00000000000E+00 0. -1.
<mgrwt>
<rscale>  4 0.24217237E+03</rscale>
<asrwt>0</asrwt>
<pdfrwt beam="1">  1       21 0.42441847E-01 0.24217237E+03</pdfrwt>
<pdfrwt beam="2">  1       21 0.47376784E-01 0.24217237E+03</pdfrwt>
<totfact> 0.22159060E+04</totfact>
</mgrwt>
</event>
<event>
 5    0  0.1531977E+001  0.2467562E+03  0.7546771E-02  0.1115372E+00
         21   -1    0    0  503  501  0.00000000000E+00  0.00000000000E+00  0.58150891740E+02  0.58150891740E+02  0.00000000000E+00 0. -1.
         21   -1    0    0  504  502 -0.00000000000E+00 -0.00000000000E+00 -0.19224648738E+04  0.19224648738E+04  0.00000000000E+00 0. -1.
         25    1    1    2    0    0  0.25819125128E+03  0.92681398626E+02 -0.59668055592E+03  0.66850972296E+03  0.12500000000E+03 0.  0.
         21    1    1    2  503  502 -0.11025934523E+03  0.11062107889E+01 -0.87819804590E+03  0.88509330285E+03  0.00000000000E+00 0. -1.
         21    1    1    2  504  501 -0.14793190605E+03 -0.93787609415E+02 -0.38943538023E+03  0.42701273971E+03  0.00000000000E+00 0. -1.
<mgrwt>
<rscale>  4 0.24675623E+03</rscale>
<asrwt>0</asrwt>
<pdfrwt beam="1">  1       21 0.89462921E-02 0.24675623E+03</pdfrwt>
<pdfrwt beam="2">  1       21 0.29576379E+00 0.24675623E+03</pdfrwt>
<totfact> 0.33651610E+03</totfact>
</mgrwt>
</event>
<event>
 5    0  0.1531977E+001  0.3474632E+03  0.7546771E-02  0.1063661E+00
         21   -1    0    0  502  501  0.00000000000E+00  0.00000000000E+00  0.47552089281E+03  0.47552089281E+03  0.00000000000E+00 0. -1.
         21   -1    0    0  504  502 -0.00000000000E+00 -0.00000000000E+00 -0.61079978802E+03  0.61079978802E+03  0.00000000000E+00 0. -1.
         25    1    1    2    0    0 -0.21815290193E+03  0.30976782585E+03 -0.33347340449E+03  0.51997721686E+03  0.12500000000E+03 0.  0.
         21    1    1    2  503  501  0.38256174683E+02 -0.11481246680E+03  0.26626360137E+03  0.29247520040E+03  0.00000000000E+00 0. -1.
         21    1    1    2  504  503  0.17989672724E+03 -0.19495535905E+03 -0.68069092088E+02  0.27386826357E+03  0.00000000000E+00 0. -1.
<mgrwt>
<rscale>  4 0.34746322E+03</rscale>
<asrwt>0</asrwt>
<pdfrwt beam="1">  1       21 0.73157060E-01 0.34746322E+03</pdfrwt>
<pdfrwt beam="2">  1       21 0.93969198E-01 0.34746322E+03</pdfrwt>
<totfact> 0.14321570E+03</totfact>
</mgrwt>
</event>
<event>
 5    0  0.1531977E+001  0.2910519E+03  0.7546771E-02  0.1089801E+00
         21   -1    0    0  502  501  0.00000000000E+00  0.00000000000E+00  0.31645862076E+04  0.31645862076E+04  0.00000000000E+00 0.  1.
         21   -1    0    0  504  502 -0.00000000000E+00 -0.00000000000E+00 -0.52239365153E+03  0.52239365153E+03  0.00000000000E+00 0. -1.
         25    1    1    2    0    0 -0.22585806516E+03 -0.93346281831E+02 -0.40048218278E+03  0.48552690209E+03  0.12500000000E+03 0.  0.
         21    1    1    2  503  501  0.23808829565E+03  0.11190827614E+03  0.31148460420E+04  0.31259359181E+04  0.00000000000E+00 0.  1.
         21    1    1    2  504  503 -0.12230230498E+02 -0.18561994309E+02 -0.72171303150E+02  0.75517038933E+02  0.00000000000E+00 0. -1.
<mgrwt>
<rscale>  4 0.29105193E+03</rscale>
<asrwt>0</asrwt>
<pdfrwt beam="1">  1       21 0.48685940E+00 0.29105193E+03</pdfrwt>
<pdfrwt beam="2">  1       21 0.80368256E-01 0.29105193E+03</pdfrwt>
<totfact> 0.26548579E+00</totfact>
</mgrwt>
</event>
<event>
 5    0  0.1531977E+001  0.2149659E+03  0.7546771E-02  0.1137693E+00
         21   -1    0    0  504  501  0.00000000000E+00  0.00000000000E+00  0.11094801685E+04  0.11094801685E+04  0.00000000000E+00 0. -1.
         21   -1    0    0  503  502 -0.00000000000E+00 -0.00000000000E+00 -0.25589417342E+03  0.25589417342E+03  0.00000000000E+00 0.  1.
         25    1    1    2    0    0 -0.32605002125E+02  0.22988081822E+03  0.14677172593E+03  0.30178670660E+03  0.12500000000E+03 0.  0.
         21    1    1    2  503  501  0.32441677581E+02 -0.60801617142E+02 -0.16327469247E+03  0.17722280974E+03  0.00000000000E+00 0.  1.
         21    1    1    2  504  502  0.16332454416E+00 -0.16907920107E+03  0.87008896165E+03  0.88636482562E+03  0.00000000000E+00 0. -1.
<mgrwt>
<rscale>  4 0.21496589E+03</rscale>
<asrwt>0</asrwt>
<pdfrwt beam="1">  1       21 0.17068925E+00 0.21496589E+03</pdfrwt>
<pdfrwt beam="2">  1       21 0.39368335E-01 0.21496589E+03</pdfrwt>
<totfact> 0.12833661E+03</totfact>
</mgrwt>
</event>
<event>
 5    0  0.1531977E+001  0.2733747E+03  0.7546771E-02  0.1099364E+00
         21   -1    0    0  503  501  0.00000000000E+00  0.00000000000E+00  0.16128319367E+03  0.16128319367E+03  0.00000000000E+00 0.  1.
         21   -1    0    0  501  502 -0.00000000000E+00 -0.00000000000E+00 -0.44231996818E+03  0.44231996818E+03  0.00000000000E+00 0.  1.
         25    1    1    2    0    0  0.21352179689E+03 -0.11626339915E+03 -0.20866038234E+03  0.34390825941E+03  0.12500000000E+03 0.  0.
         21    1    1    2  503  504 -0.16752244285E+03  0.80090567365E+02 -0.76953269246E+02  0.20099769523E+03  0.00000000000E+00 0.  1.
         21    1    1    2  504  502 -0.45999354039E+02  0.36172831783E+02  0.45768770779E+01  0.58697207216E+02  0.00000000000E+00 0.  1.
<mgrwt>
<rscale>  4 0.27337472E+03</rscale>
<asrwt>0</asrwt>
<pdfrwt beam="1">  1       21 0.24812799E-01 0.27337472E+03</pdfrwt>
<pdfrwt beam="2">  1       21 0.68049227E-01 0.27337472E+03</pdfrwt>
<totfact> 0.29136136E+04</totfact>
</mgrwt>
</event>
<event>
 5    0  0.1531977E+001  0.2225453E+03  0.7546771E-02  0.1132000E+00
         21   -1    0    0  504  501  0.00000000000E+00  0.00000000000E+00  0.22201121649E+03  0.22201121649E+03  0.00000000000E+00 0.  1.
         21   -1    0    0  503  502 -0.00000000000E+00 -0.00000000000E+00 -0.62457729273E+03  0.62457729273E+03  0.00000000000E+00 0. -1.
         25    1    1    2    0    0 -0.75854418928E+02 -0.19352577976E+03 -0.49962759120E+03  0.55539071849E+03  0.12500000000E+03 0.  0.
         21    1    1    2  503  501 -0.19370427368E+01  0.28771645480E+02 -0.49555211606E+02  0.57334794980E+02  0.00000000000E+00 0.  1.
         21    1    1    2  504  502  0.77791461665E+02  0.16475413428E+03  0.14661672656E+03  0.23386299575E+03  0.00000000000E+00 0.  1.
<mgrwt>
<rscale>  4 0.22254525E+03</rscale>
<asrwt>0</asrwt>
<pdfrwt beam="1">  1       21 0.34155572E-01 0.22254525E+03</pdfrwt>
<pdfrwt beam="2">  1       21 0.96088812E-01 0.22254525E+03</pdfrwt>
<totfact> 0.72925073E+03</totfact>
</mgrwt>
</event>
<event>
 5    0  0.1531977E+001  0.2301136E+03  0.7546771E-02  0.1126560E+00
         21   -1    0    0  502  501  0.00000000000E+00  0.00000000000E+00  0.29263784228E+03  0.29263784228E+03  0.00000000000E+00 0.  1.
         21   -1    0    0  504  502 -0.00000000000E+00 -0.00000000000E+00 -0.56199254310E+03  0.56199254310E+03  0.00000000000E+00 0.  1.
         25    1    1    2    0    0  0.16158342338E+03 -0.13417133358E+03 -0.88094599025E+02  0.25980147775E+03  0.12500000000E+03 0.  0.
         21    1    1    2  503  501 -0.18404988064E+03  0.55377758401E+02  0.15613540815E+03  0.24762738210E+03  0.00000000000E+00 0.  1.
         21    1    1    2  504  503  0.22466457255E+02  0.78793575177E+02 -0.33739550995E+03  0.34720152553E+03  0.00000000000E+00 0.  1.
<mgrwt>
<rscale>  4 0.23011360E+03</rscale>
<asrwt>0</asrwt>
<pdfrwt beam="1">  1       21 0.45021206E-01 0.23011360E+03</pdfrwt>
<pdfrwt beam="2">  1       21 0.86460392E-01 0.23011360E+03</pdfrwt>
<totfact> 0.53075123E+03</totfact>
</mgrwt>
</event>
<event>
 5    0  0.1531977E+001  0.3832484E+03  0.7546771E-02  0.1049740E+00
         21   -1    0    0  504  501  0.00000000000E+00  0.00000000000E+00  0.23026886950E+03  0.23026886950E+03  0.00000000000E+00 0. -1.
         21   -1    0    0  501  502 -0.00000000000E+00 -0.00000000000E+00 -0.90285185906E+03  0.90285185906E+03  0.00000000000E+00 0. -1.
         25    1    1    2    0    0  0.25734437482E+03 -0.17041974624E+03 -0.47889469170E+03  0.58329593081E+03  0.12500000000E+03 0.  0.
         21    1    1    2  503  502 -0.26847134483E+03  0.28372254895E+03 -0.10216161239E+03  0.40374787036E+03  0.00000000000E+00 0. -1.
         21    1    1    2  504  503  0.11126970008E+02 -0.11330280271E+03 -0.91526685466E+02  0.14607692739E+03  0.00000000000E+00 0.  1.
<mgrwt>
<rscale>  4 0.38324835E+03</rscale>
<asrwt>0</asrwt>
<pdfrwt beam="1">  1       21 0.35425980E-01 0.38324835E+03</pdfrwt>
<pdfrwt beam="2">  1       21 0.13890029E+00 0.38324835E+03</pdfrwt>
<totfact> 0.24839812E+03</totfact>
</mgrwt>
</event>
<event>
 5    0  0.1531977E+001  0.2740496E+03  0.7546771E-02  0.1098984E+00
         21   -1    0    0  502  501  0.00000000000E+00  0.00000000000E+00  0.37670152233E+03  0.37670152233E+03  0.00000000000E+00 0.  1.
         21   -1    0    0  504  502 -0.00000000000E+00 -0.00000000000E+00 -0.29105009122E+03  0.29105009122E+03  0.00000000000E+00 0.  1.
         25    1    1    2    0    0 -0.25590213270E+03  0.32372042158E+02 -0.12071789135E+03  0.31101713767E+03  0.12500000000E+03 0.  0.
         21    1    1    2  503  501  0.23578051786E+03 -0.47837832234E+02  0.22163945151E+03  0.32711612198E+03  0.00000000000E+00 0.  1.
         21    1    1    2  504  503  0.20121614839E+02  0.15465790076E+02 -0.15270129050E+02  0.29618353897E+02  0.00000000000E+00 0. -1.
<mgrwt>
<rscale>  4 0.27404965E+03</rscale>
<asrwt>0</asrwt>
<pdfrwt beam="1">  1       21 0.57954081E-01 0.27404965E+03</pdfrwt>
<pdfrwt beam="2">  1       21 0.44776937E-01 0.27404965E+03</pdfrwt>
<totfact> 0.12759453E+04</totfact>
</mgrwt>
</event>
<event>
 5    0  0.1531977E+001  0.2463390E+03  0.7546771E-02  0.1115641E+00
         21   -1    0    0  502  501  0.00000000000E+00  0.00000000000E+00  0.47372093331E+03  0.47372093331E+03  0.00000000000E+00 0.  1.
         21   -1    0    0  504  502 -0.00000000000E+00 -0.00000000000E+00 -0.14462433107E+03  0.14462433107E+03  0.00000000000E+00 0.  1.
         25    1    1    2    0    0 -0.22489197574E+03  0.39331719257E+02  0.89151002724E+02  0.27512958071E+03  0.12500000000E+03 0.  0.
         21    1    1    2  503  501  0.20457419572E+03 -0.22837900141E+02  0.24110113080E+03  0.31702038816E+03  0.00000000000E+00 0.  1.
         21    1    1    2  504  503  0.20317780021E+02 -0.16493819116E+02 -0.11555312839E+01  0.26195295504E+02  0.00000000000E+00 0.  1.
<mgrwt>
<rscale>  4 0.24633897E+03</rscale>
<asrwt>0</asrwt>
<pdfrwt beam="1">  1       21 0.72880143E-01 0.24633897E+03</pdfrwt>
<pdfrwt beam="2">  1       21 0.22249897E-01 0.24633897E+03</pdfrwt>
<totfact> 0.31165778E+04</totfact>
</mgrwt>
</event>
<event>
 5    0  0.1531977E+001  0.2547921E+03  0.7546771E-02  0.1110313E+00
         21   -1    0    0  502  501  0.00000000000E+00  0.00000000000E+00  0.73544427570E+02  0.73544427570E+02  0.00000000000E+00 0.  1.
         21   -1    0    0  504  502 -0.00000000000E+00 -0.00000000000E+00 -0.81864623419E+03  0.81864623419E+03  0.00000000000E+00 0.  1.
         25    1    1    2    0    0  0.23605510345E+02  0.22076417032E+03 -0.35841629004E+03  0.43975137974E+03  0.12500000000E+03 0.  0.
         21    1    1    2  503  501  0.18057956816E+02 -0.15846524513E+03 -0.24963055704E+03  0.29623088753E+03  0.00000000000E+00 0.  1.
         21    1    1    2  504  503 -0.41663467162E+02 -0.62298925195E+02 -0.13705495954E+03  0.15620839450E+03  0.00000000000E+00 0.  1.
<mgrwt>
<rscale>  4 0.25479215E+03</rscale>
<asrwt>0</asrwt>
<pdfrwt beam="1">  1       21 0.11314527E-01 0.25479215E+03</pdfrwt>
<pdfrwt beam="2">  1       21 0.12594557E+00 0.25479215E+03</pdfrwt>
<totfact> 0.29506295E+04</totfact>
</mgrwt>
</event>
<event>
 5    0  0.1531977E+001  0.2620547E+03  0.7546771E-02  0.1105915E+00
         21   -1    0    0  502  501  0.00000000000E+00  0.00000000000E+00  0.15843233332E+03  0.15843233332E+03  0.00000000000E+00 0. -1.
         21   -1    0    0  504  502 -0.00000000000E+00 -0.00000000000E+00 -0.47459836353E+03  0.47459836353E+03  0.00000000000E+00 0. -1.
         25    1    1    2    0    0 -0.23264288295E+03 -0.46989404614E+02 -0.59774604828E+02  0.27482488700E+03  0.12500000000E+03 0.  0.
         21    1    1    2  503  501  0.21868745326E+03  0.25526782713E+02 -0.20520027347E+03  0.30097005014E+03  0.00000000000E+00 0. -1.
         21    1    1    2  504  503  0.13955429688E+02  0.21462621901E+02 -0.51191151899E+02  0.57235759709E+02  0.00000000000E+00 0. -1.
<mgrwt>
<rscale>  4 0.26205475E+03</rscale>
<asrwt>0</asrwt>
<pdfrwt beam="1">  1       21 0.24374205E-01 0.26205475E+03</pdfrwt>
<pdfrwt beam="2">  1       21 0.73015133E-01 0.26205475E+03</pdfrwt>
<totfact> 0.25899270E+04</totfact>
</mgrwt>
</event>
<event>
 5    0  0.1531977E+001  0.2140554E+03  0.7546771E-02  0.1138394E+00
         21   -1    0    0  504  501  0.00000000000E+00  0.00000000000E+00  0.24090430665E+03  0.24090430665E+03  0.00000000000E+00 0. -1.
         21   -1    0    0  503  502 -0.00000000000E+00 -0.00000000000E+00 -0.41666878678E+03  0.41666878678E+03  0.00000000000E+00 0.  1.
         25    1    1    2    0    0  0.34730290338E+02 -0.19976968975E+03  0.10684289103E+03  0.26106421695E+03  0.12500000000E+03 0.  0.
         21    1    1    2  503  501 -0.23215889902E+02  0.16874315921E+03 -0.30989105479E+03  0.35361801024E+03  0.00000000000E+00 0.  1.
         21    1    1    2  504  502 -0.11514400435E+02  0.31026530536E+02  0.27283683625E+02  0.42890866238E+02  0.00000000000E+00 0.  1.
<mgrwt>
<rscale>  4 0.21405536E+03</rscale>
<asrwt>0</asrwt>
<pdfrwt beam="1">  1       21 0.37062201E-01 0.21405536E+03</pdfrwt>
<pdfrwt beam="2">  1       21 0.64102890E-01 0.21405536E+03</pdfrwt>
<totfact> 0.15563606E+04</totfact>
</mgrwt>
</event>
<event>
 5    0  0.1531977E+001  0.2525476E+03  0.7546771E-02  0.1111705E+00
         21   -1    0    0  502  501  0.00000000000E+00  0.00000000000E+00  0.17061071787E+04  0.17061071787E+04  0.00000000000E+00 0.  1.
         21   -1    0    0  504  502 -0.00000000000E+00 -0.00000000000E+00 -0.25754430327E+03  0.25754430327E+03  0.00000000000E+00 0. -1.
         25    1    1    2    0    0  0.18888427973E+03 -0.13672203092E+03  0.13255633101E+04  0.13517075401E+04  0.12500000000E+03 0.  0.
         21    1    1    2  503  501  0.27034557304E+02  0.95950740100E+02  0.30860815499E+03  0.32430911973E+03  0.00000000000E+00 0. -1.
         21    1    1    2  504  503 -0.21591883703E+03  0.40771290820E+02 -0.18560858968E+03  0.28763482213E+03  0.00000000000E+00 0. -1.
<mgrwt>
<rscale>  4 0.25254759E+03</rscale>
<asrwt>0</asrwt>
<pdfrwt beam="1">  1       21 0.26247802E+00 0.25254759E+03</pdfrwt>
<pdfrwt beam="2">  1       21 0.39622202E-01 0.25254759E+03</pdfrwt>
<totfact> 0.32061555E+02</totfact>
</mgrwt>
</event>
<event>
 5    0  0.1531977E+001  0.3681315E+03  0.7546771E-02  0.1055410E+00
         21   -1    0    0  502  501  0.00000000000E+00  0.00000000000E+00  0.59832326181E+03  0.59832326181E+03  0.00000000000E+00 0. -1.
         21   -1    0    0  504  502 -0.00000000000E+00 -0.00000000000E+00 -0.28225238762E+03  0.28225238762E+03  0.00000000000E+00 0. -1.
         25    1    1    2    0    0 -0.82029949470E+02  0.33976884350E+03  0.29647798830E+03  0.47507470694E+03  0.12500000000E+03 0.  0.
         21    1    1    2  503  501 -0.23793997371E+02 -0.11179275677E+02  0.52511979053E+02  0.58725109277E+02  0.00000000000E+00 0.  1.
         21    1    1    2  504  503  0.10582394684E+03 -0.32858956783E+03 -0.32919093166E+02  0.34677583322E+03  0.00000000000E+00 0. -1.
<mgrwt>
<rscale>  4 0.36813150E+03</rscale>
<asrwt>0</asrwt>
<pdfrwt beam="1">  1       21 0.92049732E-01 0.36813150E+03</pdfrwt>
<pdfrwt beam="2">  1       21 0.43423444E-01 0.36813150E+03</pdfrwt>
<totfact> 0.45959778E+03</totfact>
</mgrwt>
</event>
<event>
 5    0  0.1531977E+001  0.3499098E+03  0.7546771E-02  0.1062652E+00
         21   -1    0    0  504  501  0.00000000000E+00  0.00000000000E+00  0.58243815183E+02  0.58243815183E+02  0.00000000000E+00 0. -1.
         21   -1    0    0  503  502 -0.00000000000E+00 -0.00000000000E+00 -0.30056093355E+04  0.30056093355E+04  0.00000000000E+00 0. -1.
         25    1    1    2    0    0  0.26289110664E+03  0.23173409319E+03 -0.94255944922E+03  0.10133389064E+04  0.12500000000E+03 0.  0.
         21    1    1    2  503  501 -0.12004544971E+03  0.37467487258E+02 -0.59601715926E+03  0.60913970215E+03  0.00000000000E+00 0. -1.
         21    1    1    2  504  502 -0.14284565693E+03 -0.26920158045E+03 -0.14087889118E+04  0.14413745421E+04  0.00000000000E+00 0. -1.
<mgrwt>
<rscale>  4 0.34990984E+03</rscale>
<asrwt>0</asrwt>
<pdfrwt beam="1">  1       21 0.89605886E-02 0.34990984E+03</pdfrwt>
<pdfrwt beam="2">  1       21 0.46240135E+00 0.34990984E+03</pdfrwt>
<totfact> 0.27857678E+02</totfact>
</mgrwt>
</event>
<event>
 5    0  0.1531977E+001  0.2440445E+03  0.7546771E-02  0.1117127E+00
         21   -1    0    0  504  501  0.00000000000E+00  0.00000000000E+00  0.21548659251E+03  0.21548659251E+03  0.00000000000E+00 0. -1.
         21   -1    0    0  503  502 -0.00000000000E+00 -0.00000000000E+00 -0.32122602579E+03  0.32122602579E+03  0.00000000000E+00 0. -1.
         25    1    1    2    0    0  0.11855440612E+03  0.18531889100E+03 -0.37933836943E+02  0.25585584722E+03  0.12500000000E+03 0.  0.
         21    1    1    2  503  501 -0.60841840858E+02 -0.19672395089E+03 -0.79761262125E+02  0.22082549986E+03  0.00000000000E+00 0. -1.
         21    1    1    2  504  502 -0.57712565258E+02  0.11405059883E+02  0.11955665794E+02  0.60031271219E+02  0.00000000000E+00 0. -1.
<mgrwt>
<rscale>  4 0.24404449E+03</rscale>
<asrwt>0</asrwt>
<pdfrwt beam="1">  1       21 0.33151784E-01 0.24404449E+03</pdfrwt>
<pdfrwt beam="2">  1       21 0.49419388E-01 0.24404449E+03</pdfrwt>
<totfact> 0.33345935E+04</totfact>
</mgrwt>
</event>
<event>
 5    0  0.1531977E+001  0.2564776E+03  0.7546771E-02  0.1109278E+00
         21   -1    0    0  504  501  0.00000000000E+00  0.00000000000E+00  0.10997528734E+03  0.10997528734E+03  0.00000000000E+00 0. -1.
         21   -1    0    0  503  502 -0.00000000000E+00 -0.00000000000E+00 -0.17361540854E+04  0.17361540854E+04  0.00000000000E+00 0. -1.
         25    1    1    2    0    0  0.22438997234E+03  0.48008771247E+02 -0.56236585244E+03  0.62010971110E+03  0.12500000000E+03 0.  0.
         21    1    1    2  503  501 -0.10311476439E+01 -0.77447003528E+02 -0.98394846043E+03  0.98699223624E+03  0.00000000000E+00 0. -1.
         21    1    1    2  504  502 -0.22335882469E+03  0.29438232280E+02 -0.79864485154E+02  0.23902742537E+03  0.00000000000E+00 0. -1.
<mgrwt>
<rscale>  4 0.25647758E+03</rscale>
<asrwt>0</asrwt>
<pdfrwt beam="1">  1       21 0.16919276E-01 0.25647758E+03</pdfrwt>
<pdfrwt beam="2">  1       21 0.26710062E+00 0.25647758E+03</pdfrwt>
<totfact> 0.15540699E+03</totfact>
</mgrwt>
</event>
<event>
 5    0  0.1531977E+001  0.3529799E+03  0.7546771E-02  0.1061399E+00
         21   -1    0    0  502  501  0.00000000000E+00  0.00000000000E+00  0.74013519969E+03  0.74013519969E+03  0.00000000000E+00 0.  1.
         21   -1    0    0  504  502 -0.00000000000E+00 -0.00000000000E+00 -0.73440277002E+03  0.73440277002E+03  0.00000000000E+00 0. -1.
         25    1    1    2    0    0  0.35298786772E+03  0.16727341114E+03  0.12534957064E+03  0.42885702010E+03  0.12500000000E+03 0.  0.
         21    1    1    2  503  501 -0.30081296433E+03 -0.78020476363E+02  0.40527244776E+03  0.51070675652E+03  0.00000000000E+00 0.  1.
         21    1    1    2  504  503 -0.52174903383E+02 -0.89252934782E+02 -0.52488958873E+03  0.53497419308E+03  0.00000000000E+00 0. -1.
<mgrwt>
<rscale>  4 0.35297991E+03</rscale>
<asrwt>0</asrwt>
<pdfrwt beam="1">  1       21 0.11386695E+00 0.35297991E+03</pdfrwt>
<pdfrwt beam="2">  1       21 0.11298504E+00 0.35297991E+03</pdfrwt>
<totfact> 0.32044007E+02</totfact>
</mgrwt>
</event>
<event>
 5    0  0.1531977E+001  0.3688980E+03  0.7546771E-02  0.1055115E+00
         21   -1    0    0  502  501  0.00000000000E+00  0.00000000000E+00  0.26342296102E+04  0.26342296102E+04  0.00000000000E+00 0. -1.
         21   -1    0    0  504  502 -0.00000000000E+00 -0.00000000000E+00 -0.80688677487E+02  0.80688677487E+02  0.00000000000E+00 0.  1.
         25    1    1    2    0    0  0.14808253093E+03 -0.25319276746E+03  0.81181270285E+03  0.87218110388E+03  0.12500000000E+03 0.  0.
         21    1    1    2  503  501 -0.25480352788E+03  0.29506572405E+03  0.16513753221E+04  0.16967701888E+04  0.00000000000E+00 0. -1.
         21    1    1    2  504  503  0.10672099695E+03 -0.41872956584E+02  0.90352907846E+02  0.14596699503E+03  0.00000000000E+00 0.  1.
<mgrwt>
<rscale>  4 0.36889798E+03</rscale>
<asrwt>0</asrwt>
<pdfrwt beam="1">  1       21 0.40526603E+00 0.36889798E+03</pdfrwt>
<pdfrwt beam="2">  1       21 0.12413645E-01 0.36889798E+03</pdfrwt>
<totfact> 0.36428257E+02</totfact>
</mgrwt>
</event>
<event>
 5    0  0.1531977E+001  0.2164046E+03  0.7546771E-02  0.1136592E+00
         21   -1    0    0  504  501  0.00000000000E+00  0.00000000000E+00  0.13107805949E+03  0.13107805949E+03  0.00000000000E+00 0.  1.
         21   -1    0    0  503  502 -0.00000000000E+00 -0.00000000000E+00 -0.61031277367E+03  0.61031277367E+03  0.00000000000E+00 0. -1.
         25    1    1    2    0    0  0.13953879101E+03  0.14641035610E+03 -0.88368331122E+02  0.25365533410E+03  0.12500000000E+03 0.  0.
         21    1    1    2  503  501 -0.11687836001E+03 -0.12534766002E+03 -0.41467594912E+03  0.44869670123E+03  0.00000000000E+00 0. -1.
         21    1    1    2  504  502 -0.22660431004E+02 -0.21062696078E+02  0.23809566068E+02  0.39038797826E+02  0.00000000000E+00 0. -1.
<mgrwt>
<rscale>  4 0.21640464E+03</rscale>
<asrwt>0</asrwt>
<pdfrwt beam="1">  1       21 0.20165855E-01 0.21640464E+03</pdfrwt>
<pdfrwt beam="2">  1       21 0.93894274E-01 0.21640464E+03</pdfrwt>
<totfact> 0.21336098E+04</totfact>
</mgrwt>
</event>
<event>
 5    0  0.1531977E+001  0.3338169E+03  0.7546771E-02  0.1069460E+00
         21   -1    0    0  502  501  0.00000000000E+00  0.00000000000E+00  0.15777689488E+04  0.15777689488E+04  0.00000000000E+00 0. -1.
         21   -1    0    0  504  502 -0.00000000000E+00 -0.00000000000E+00 -0.51770431237E+03  0.51770431237E+03  0.00000000000E+00 0. -1.
         25    1    1    2    0    0 -0.26573501699E+03 -0.24159015878E+03 -0.37126689956E+03  0.53145556238E+03  0.12500000000E+03 0.  0.
         21    1    1    2  503  501  0.21916056062E+03  0.21610299423E+03  0.14677250462E+04  0.14996495146E+04  0.00000000000E+00 0. -1.
         21    1    1    2  504  503  0.46574456375E+02  0.25487164549E+02 -0.36393510234E+02  0.64368184148E+02  0.00000000000E+00 0. -1.
<mgrwt>
<rscale>  4 0.33381686E+03</rscale>
<asrwt>0</asrwt>
<pdfrwt beam="1">  1       21 0.24273368E+00 0.33381686E+03</pdfrwt>
<pdfrwt beam="2">  1       21 0.79646818E-01 0.33381686E+03</pdfrwt>
<totfact> 0.86821667E+01</totfact>
</mgrwt>
</event>
<event>
 5    0  0.1531977E+001  0.2978171E+03  0.7546771E-02  0.1086337E+00
         21   -1    0    0  502  501  0.00000000000E+00  0.00000000000E+00  0.35149906029E+03  0.35149906029E+03  0.00000000000E+00 0. -1.
         21   -1    0    0  504  502 -0.00000000000E+00 -0.00000000000E+00 -0.25509981927E+03  0.25509981927E+03  0.00000000000E+00 0. -1.
         25    1    1    2    0    0  0.26738727790E+03  0.39674892894E+02  0.14742344691E+02  0.29818180736E+03  0.12500000000E+03 0.  0.
         21    1    1    2  503  501 -0.87266675714E+02 -0.60313248361E+02  0.69271661656E+02  0.12669539742E+03  0.00000000000E+00 0. -1.
         21    1    1    2  504  503 -0.18012060219E+03  0.20638355467E+02  0.12385234672E+02  0.18172167479E+03  0.00000000000E+00 0. -1.
<mgrwt>
<rscale>  4 0.29781715E+03</rscale>
<asrwt>0</asrwt>
<pdfrwt beam="1">  1       21 0.54076778E-01 0.29781715E+03</pdfrwt>
<pdfrwt beam="2">  1       21 0.39246126E-01 0.29781715E+03</pdfrwt>
<totfact> 0.19200269E+04</totfact>
</mgrwt>
</event>
<event>
 5    0  0.1531977E+001  0.3043386E+03  0.7546771E-02  0.1083092E+00
         21   -1    0    0  502  501  0.00000000000E+00  0.00000000000E+00  0.16648582932E+04  0.16648582932E+04  0.00000000000E+00 0.  1.
         21   -1    0    0  504  502 -0.00000000000E+00 -0.00000000000E+00 -0.17118851993E+03  0.17118851993E+03  0.00000000000E+00 0. -1.
         25    1    1    2    0    0  0.18439931550E+03 -0.22854695465E+03  0.13957339858E+04  0.14317594691E+04  0.12500000000E+03 0.  0.
         21    1    1    2  503  501 -0.38668278112E+01  0.19691657863E+02  0.12527375521E+03  0.12687090877E+03  0.00000000000E+00 0.  1.
         21    1    1    2  504  503 -0.18053248769E+03  0.20885529679E+03 -0.27337967746E+02  0.27741643532E+03  0.00000000000E+00 0. -1.
<mgrwt>
<rscale>  4 0.30433864E+03</rscale>
<asrwt>0</asrwt>
<pdfrwt beam="1">  1       21 0.25613203E+00 0.30433864E+03</pdfrwt>
<pdfrwt beam="2">  1       21 0.26336696E-01 0.30433864E+03</pdfrwt>
<totfact> 0.74963411E+02</totfact>
</mgrwt>
</event>
<event>
 5    0  0.1531977E+001  0.3112434E+03  0.7546771E-02  0.1079751E+00
         21   -1    0    0  503  501  0.00000000000E+00  0.00000000000E+00  0.97832958966E+03  0.97832958966E+03  0.00000000000E+00 0. -1.
         21   -1    0    0  504  502 -0.00000000000E+00 -0.00000000000E+00 -0.26449143806E+03  0.26449143806E+03  0.00000000000E+00 0. -1.
         25    1    1    2    0    0 -0.29546921279E+03  0.61519380362E+02  0.70142953028E+03  0.77376680972E+03  0.12500000000E+03 0.  0.
         21    1    1    2  503  502  0.38421397958E+02 -0.73357105398E+02 -0.14530653263E+03  0.16724669551E+03  0.00000000000E+00 0. -1.
         21    1    1    2  504  501  0.25704781483E+03  0.11837725036E+02  0.15771515396E+03  0.30180752249E+03  0.00000000000E+00 0. -1.
<mgrwt>
<rscale>  4 0.31124342E+03</rscale>
<asrwt>0</asrwt>
<pdfrwt beam="1">  1       21 0.15051224E+00 0.31124342E+03</pdfrwt>
<pdfrwt beam="2">  1       21 0.40690991E-01 0.31124342E+03</pdfrwt>
<totfact> 0.15716706E+03</totfact>
</mgrwt>
</event>
<event>
 5    0  0.1531977E+001  0.3368276E+03  0.7546771E-02  0.1068155E+00
         21   -1    0    0  504  501  0.00000000000E+00  0.00000000000E+00  0.25683294539E+04  0.25683294539E+04  0.00000000000E+00 0. -1.
         21   -1    0    0  503  502 -0.00000000000E+00 -0.00000000000E+00 -0.83824064468E+02  0.83824064468E+02  0.00000000000E+00 0. -1.
         25    1    1    2    0    0  0.26664429397E+03  0.18872490589E+03  0.82365785070E+03  0.89484832493E+03  0.12500000000E+03 0.  0.
         21    1    1    2  503  501 -0.30391245160E+03 -0.74041077447E+02  0.49710341108E+03  0.58733011219E+03  0.00000000000E+00 0. -1.
         21    1    1    2  504  502  0.37268157628E+02 -0.11468382844E+03  0.11637441276E+04  0.11699750812E+04  0.00000000000E+00 0. -1.
<mgrwt>
<rscale>  4 0.33682762E+03</rscale>
<asrwt>0</asrwt>
<pdfrwt beam="1">  1       21 0.39512755E+00 0.33682762E+03</pdfrwt>
<pdfrwt beam="2">  1       21 0.12896012E-01 0.33682762E+03</pdfrwt>
<totfact> 0.40503567E+02</totfact>
</mgrwt>
</event>
<event>
 5    0  0.1531977E+001  0.2695095E+03  0.7546771E-02  0.1101561E+00
         21   -1    0    0  502  501  0.00000000000E+00  0.00000000000E+00  0.42466229181E+03  0.42466229181E+03  0.00000000000E+00 0. -1.
         21   -1    0    0  504  502 -0.00000000000E+00 -0.00000000000E+00 -0.58101497684E+03  0.58101497684E+03  0.00000000000E+00 0. -1.
         25    1    1    2    0    0 -0.55266501631E+02  0.20937498593E+03 -0.29549920252E+03  0.38708790943E+03  0.12500000000E+03 0.  0.
         21    1    1    2  503  501  0.76560781219E+02  0.84423898088E+02  0.27240086952E+03  0.29528152923E+03  0.00000000000E+00 0. -1.
         21    1    1    2  504  503 -0.21294279588E+02 -0.29379888402E+03 -0.13325435203E+03  0.32330782999E+03  0.00000000000E+00 0. -1.
<mgrwt>
<rscale>  4 0.26950952E+03</rscale>
<asrwt>0</asrwt>
<pdfrwt beam="1">  1       21 0.65332660E-01 0.26950952E+03</pdfrwt>
<pdfrwt beam="2">  1       21 0.89386920E-01 0.26950952E+03</pdfrwt>
<totfact> 0.21684065E+03</totfact>
</mgrwt>
</event>
<event>
 5    0  0.1531977E+001  0.2620298E+03  0.7546771E-02  0.1105930E+00
         21   -1    0    0  504  501  0.00000000000E+00  0.00000000000E+00  0.60602870022E+03  0.60602870022E+03  0.00000000000E+00 0. -1.
         21   -1    0    0  503  502 -0.00000000000E+00 -0.00000000000E+00 -0.25647920307E+03  0.25647920307E+03  0.00000000000E+00 0.  1.
         25    1    1    2    0    0  0.21677424651E+03  0.11093147014E+03  0.46892583302E+03  0.54296712781E+03  0.12500000000E+03 0.  0.
         21    1    1    2  503  501 -0.19695118957E+03 -0.11637408275E+03 -0.15645309210E+03  0.27714665475E+03  0.00000000000E+00 0.  1.
         21    1    1    2  504  502 -0.19823056943E+02  0.54426126198E+01  0.37076756240E+02  0.42394120724E+02  0.00000000000E+00 0. -1.
<mgrwt>
<rscale>  4 0.26202977E+03</rscale>
<asrwt>0</asrwt>
<pdfrwt beam="1">  1       21 0.93235185E-01 0.26202977E+03</pdfrwt>
<pdfrwt beam="2">  1       21 0.39458339E-01 0.26202977E+03</pdfrwt>
<totfact> 0.57175580E+03</totfact>
</mgrwt>
</event>
<event>
 5    0  0.1531977E+001  0.3002771E+03  0.7546771E-02  0.1085102E+00
         21   -1    0    0  503  501  0.00000000000E+00  0.00000000000E+00  0.10866179397E+03  0.10866179397E+03  0.00000000000E+00 0.  1.
         21   -1    0    0  504  502 -0.00000000000E+00 -0.00000000000E+00 -0.11175831046E+04  0.11175831046E+04  0.00000000000E+00 0.  1.
         25    1    1    2    0    0 -0.23601703638E+03 -0.97882683468E+02 -0.33711358510E+03  0.44108460690E+03  0.12500000000E+03 0.  0.
         21    1    1    2  503  502  0.27787438841E+03  0.60037928293E+02 -0.67098541706E+03  0.72872502254E+03  0.00000000000E+00 0.  1.
         21    1    1    2  504  501 -0.41857352033E+02  0.37844755175E+02 -0.82230849084E+00  0.56435269156E+02  0.00000000000E+00 0.  1.
<mgrwt>
<rscale>  4 0.30027713E+03</rscale>
<asrwt>0</asrwt>
<pdfrwt beam="1">  1       21 0.16717199E-01 0.30027713E+03</pdfrwt>
<pdfrwt beam="2">  1       21 0.17193586E+00 0.30027713E+03</pdfrwt>
<totfact> 0.61794386E+03</totfact>
</mgrwt>
</event>
<event>
 5    0  0.1531977E+001  0.2783287E+03  0.7546771E-02  0.1096605E+00
         21   -1    0    0  502  501  0.00000000000E+00  0.00000000000E+00  0.65974983147E+03  0.65974983147E+03  0.00000000000E+00 0.  1.
         21   -1    0    0  504  502 -0.00000000000E+00 -0.00000000000E+00 -0.25692900604E+03  0.25692900604E+03  0.00000000000E+00 0.  1.
         25    1    1    2    0    0  0.82147109779E+02 -0.29766066770E+03  0.17207837731E+03  0.37494798130E+03  0.12500000000E+03 0.  0.
         21    1    1    2  503  501 -0.21981846711E+03  0.90623986337E+02  0.79465727880E+02  0.25069437028E+03  0.00000000000E+00 0.  1.
         21    1    1    2  504  503  0.13767135733E+03  0.20703668137E+03  0.15127672023E+03  0.29103648593E+03  0.00000000000E+00 0. -1.
<mgrwt>
<rscale>  4 0.27832871E+03</rscale>
<asrwt>0</asrwt>
<pdfrwt beam="1">  1       21 0.10149997E+00 0.27832871E+03</pdfrwt>
<pdfrwt beam="2">  1       21 0.39527540E-01 0.27832871E+03</pdfrwt>
<totfact> 0.46114755E+03</totfact>
</mgrwt>
</event>
<event>
 5    0  0.1531977E+001  0.2733477E+03  0.7546771E-02  0.1099379E+00
         21   -1    0    0  502  501  0.00000000000E+00  0.00000000000E+00  0.58982617102E+03  0.58982617102E+03  0.00000000000E+00 0. -1.
         21   -1    0    0  504  502 -0.00000000000E+00 -0.00000000000E+00 -0.17933185599E+03  0.17933185599E+03  0.00000000000E+00 0. -1.
         25    1    1    2    0    0 -0.11540026657E+03  0.17951306099E+03  0.68940046542E+02  0.25674869154E+03  0.12500000000E+03 0.  0.
         21    1    1    2  503  501  0.71726657247E+02 -0.24991000424E+03  0.34194435275E+03  0.42956450500E+03  0.00000000000E+00 0. -1.
         21    1    1    2  504  503  0.43673609318E+02  0.70396943249E+02 -0.39008426140E+00  0.82844830469E+02  0.00000000000E+00 0.  1.
<mgrwt>
<rscale>  4 0.27334769E+03</rscale>
<asrwt>0</asrwt>
<pdfrwt beam="1">  1       21 0.90742487E-01 0.27334769E+03</pdfrwt>
<pdfrwt beam="2">  1       21 0.27589517E-01 0.27334769E+03</pdfrwt>
<totfact> 0.12330286E+04</totfact>
</mgrwt>
</event>
<event>
 5    0  0.1531977E+001  0.2111979E+03  0.7546771E-02  0.1140621E+00
         21   -1    0    0  503  501  0.00000000000E+00  0.00000000000E+00  0.36691987270E+03  0.36691987270E+03  0.00000000000E+00 0. -1.
         21   -1    0    0  504  502 -0.00000000000E+00 -0.00000000000E+00 -0.36972561441E+03  0.36972561441E+03  0.00000000000E+00 0. -1.
         25    1    1    2    0    0  0.13535392447E+03  0.14734724703E+03 -0.28405670894E+03  0.36924938723E+03  0.12500000000E+03 0.  0.
         21    1    1    2  503  502 -0.14288198574E+02 -0.30616869371E+02 -0.62117168089E+01  0.34353030933E+02  0.00000000000E+00 0. -1.
         21    1    1    2  504  501 -0.12106572590E+03 -0.11673037766E+03  0.28746268404E+03  0.33304306894E+03  0.00000000000E+00 0. -1.
<mgrwt>
<rscale>  4 0.21119789E+03</rscale>
<asrwt>0</asrwt>
<pdfrwt beam="1">  1       21 0.56449211E-01 0.21119789E+03</pdfrwt>
<pdfrwt beam="2">  1       21 0.56880863E-01 0.21119789E+03</pdfrwt>
<totfact> 0.84630523E+03</totfact>
</mgrwt>
</event>
<event>
 5    0  0.1531977E+001  0.6502079E+03  0.7546771E-02  0.9806389E-01
         21   -1    0    0  502  501  0.00000000000E+00  0.00000000000E+00  0.95355079423E+03  0.95355079423E+03  0.00000000000E+00 0.  1.
         21   -1    0    0  504  502 -0.00000000000E+00 -0.00000000000E+00 -0.13827513074E+04  0.13827513074E+04  0.00000000000E+00 0. -1.
         25    1    1    2    0    0  0.51498450448E+02  0.71044819209E+03  0.56470374788E+03  0.91755329377E+03  0.12500000000E+03 0.  0.
         21    1    1    2  503  501 -0.24257306301E+02 -0.81257177378E+02  0.11535952555E+03  0.14317459942E+03  0.00000000000E+00 0.  1.
         21    1    1    2  504  503 -0.27241144147E+02 -0.62919101472E+03 -0.11092637866E+04  0.12755742084E+04  0.00000000000E+00 0. -1.
<mgrwt>
<rscale>  4 0.65020792E+03</rscale>
<asrwt>0</asrwt>
<pdfrwt beam="1">  1       21 0.14670012E+00 0.65020792E+03</pdfrwt>
<pdfrwt beam="2">  1       21 0.21273097E+00 0.65020792E+03</pdfrwt>
<totfact> 0.24345098E+01</totfact>
</mgrwt>
</event>
<event>
 5    0  0.1531977E+001  0.1953864E+03  0.7546771E-02  0.1153691E+00
         21   -1    0    0  504  501  0.00000000000E+00  0.00000000000E+00  0.10578936127E+04  0.10578936127E+04  0.00000000000E+00 0. -1.
         21   -1    0    0  503  502 -0.00000000000E+00 -0.00000000000E+00 -0.70417485520E+02  0.70417485520E+02  0.00000000000E+00 0. -1.
         25    1    1    2    0    0 -0.20537911126E+03 -0.11757963246E+02  0.21924913452E+03  0.32559793001E+03  0.12500000000E+03 0.  0.
         21    1    1    2  503  501  0.63040777381E+02  0.17113830490E+02  0.99794199341E+02  0.11927239844E+03  0.00000000000E+00 0. -1.
         21    1    1    2  504  502  0.14233833387E+03 -0.53558672447E+01  0.66843279335E+03  0.68344076980E+03  0.00000000000E+00 0. -1.
<mgrwt>
<rscale>  4 0.19538642E+03</rscale>
<asrwt>0</asrwt>
<pdfrwt beam="1">  1       21 0.16275285E+00 0.19538642E+03</pdfrwt>
<pdfrwt beam="2">  1       21 0.10833460E-01 0.19538642E+03</pdfrwt>
<totfact> 0.16891611E+04</totfact>
</mgrwt>
</event>
<event>
 5    0  0.1531977E+001  0.2490402E+03  0.7546771E-02  0.1113913E+00
         21   -1    0    0  504  501  0.00000000000E+00  0.00000000000E+00  0.27712109632E+04  0.27712109632E+04  0.00000000000E+00 0.  1.
         21   -1    0    0  503  502 -0.00000000000E+00 -0.00000000000E+00 -0.39748413262E+03  0.39748413262E+03  0.00000000000E+00 0. -1.
         25    1    1    2    0    0 -0.18042280386E+03  0.18225595912E+03  0.53600904123E+03  0.60720697877E+03  0.12500000000E+03 0.  0.
         21    1    1    2  503  501  0.43881909346E+02 -0.23091689221E+02 -0.35516054772E+03  0.35860544159E+03  0.00000000000E+00 0. -1.
         21    1    1    2  504  502  0.13654089451E+03 -0.15916426990E+03  0.21928783370E+04  0.22028826754E+04  0.00000000000E+00 0.  1.
<mgrwt>
<rscale>  4 0.24904019E+03</rscale>
<asrwt>0</asrwt>
<pdfrwt beam="1">  1       21 0.42634014E+00 0.24904019E+03</pdfrwt>
<pdfrwt beam="2">  1       21 0.61151407E-01 0.24904019E+03</pdfrwt>
<totfact> 0.13313211E+01</totfact>
</mgrwt>
</event>
<event>
 5    0  0.1531977E+001  0.2089314E+03  0.7546771E-02  0.1142415E+00
         21   -1    0    0  502  501  0.00000000000E+00  0.00000000000E+00  0.98638186607E+03  0.98638186607E+03  0.00000000000E+00 0.  1.
         21   -1    0    0  504  502 -0.00000000000E+00 -0.00000000000E+00 -0.56775251796E+02  0.56775251796E+02  0.00000000000E+00 0.  1.
         25    1    1    2    0    0  0.19474337781E+03 -0.61260315995E+02  0.53410811184E+03  0.58529845776E+03  0.12500000000E+03 0.  0.
         21    1    1    2  503  501 -0.48341293797E+02  0.14476674473E+02  0.21474741077E+03  0.22059670265E+03  0.00000000000E+00 0.  1.
         21    1    1    2  504  503 -0.14640208402E+03  0.46783641522E+02  0.18075109167E+03  0.23726195746E+03  0.00000000000E+00 0.  1.
<mgrwt>
<rscale>  4 0.20893140E+03</rscale>
<asrwt>0</asrwt>
<pdfrwt beam="1">  1       21 0.15175104E+00 0.20893140E+03</pdfrwt>
<pdfrwt beam="2">  1       21 0.87346548E-02 0.20893140E+03</pdfrwt>
<totfact> 0.29540027E+04</totfact>
</mgrwt>
</event>
<event>
 5    0  0.1531977E+001  0.2298200E+03  0.7546771E-02  0.1126767E+00
         21   -1    0    0  502  501  0.00000000000E+00  0.00000000000E+00  0.11596612568E+04  0.11596612568E+04  0.00000000000E+00 0.  1.
         21   -1    0    0  504  502 -0.00000000000E+00 -0.00000000000E+00 -0.54326870190E+03  0.54326870190E+03  0.00000000000E+00 0.  1.
         25    1    1    2    0    0  0.11321666170E+03  0.20164894806E+03  0.10635623995E+04  0.10955684772E+04  0.12500000000E+03 0.  0.
         21    1    1    2  503  501 -0.46405816079E+02 -0.21367902491E+02  0.51724934144E+02  0.72701828278E+02  0.00000000000E+00 0.  1.
         21    1    1    2  504  503 -0.66810845624E+02 -0.18028104557E+03 -0.49889477873E+03  0.53465965317E+03  0.00000000000E+00 0.  1.
<mgrwt>
<rscale>  4 0.22981997E+03</rscale>
<asrwt>0</asrwt>
<pdfrwt beam="1">  1       21 0.17840942E+00 0.22981997E+03</pdfrwt>
<pdfrwt beam="2">  1       21 0.83579801E-01 0.22981997E+03</pdfrwt>
<totfact> 0.22217533E+02</totfact>
</mgrwt>
</event>
<event>
 5    0  0.1531977E+001  0.2240432E+03  0.7546771E-02  0.1130904E+00
         21   -1    0    0  502  501  0.00000000000E+00  0.00000000000E+00  0.85648694743E+02  0.85648694743E+02  0.00000000000E+00 0.  1.
         21   -1    0    0  504  502 -0.00000000000E+00 -0.00000000000E+00 -0.62220283234E+03  0.62220283234E+03  0.00000000000E+00 0.  1.
         25    1    1    2    0    0 -0.18566706060E+03 -0.80708156344E+02 -0.32850874894E+03  0.40562182143E+03  0.12500000000E+03 0.  0.
         21    1    1    2  503  501  0.16001077844E+03  0.78120914575E+02 -0.13121382035E+03  0.22118633132E+03  0.00000000000E+00 0.  1.
         21    1    1    2  504  503  0.25656282159E+02  0.25872417690E+01 -0.76831568308E+02  0.81043374330E+02  0.00000000000E+00 0.  1.
<mgrwt>
<rscale>  4 0.22404320E+03</rscale>
<asrwt>0</asrwt>
<pdfrwt beam="1">  1       21 0.13176722E-01 0.22404320E+03</pdfrwt>
<pdfrwt beam="2">  1       21 0.95723513E-01 0.22404320E+03</pdfrwt>
<totfact> 0.44436534E+04</totfact>
</mgrwt>
</event>
<event>
 5    0  0.1531977E+001  0.2539232E+03  0.7546771E-02  0.1110850E+00
         21   -1    0    0  502  501  0.00000000000E+00  0.00000000000E+00  0.21238527485E+04  0.21238527485E+04  0.00000000000E+00 0. -1.
         21   -1    0    0  504  502 -0.00000000000E+00 -0.00000000000E+00 -0.59171375084E+02  0.59171375084E+02  0.00000000000E+00 0. -1.
         25    1    1    2    0    0  0.24482858764E+03 -0.37609750086E+02  0.12316857700E+04  0.12625491542E+04  0.12500000000E+03 0.  0.
         21    1    1    2  503  501 -0.17584783539E+03  0.10774306631E+03  0.78381968720E+03  0.81049634891E+03  0.00000000000E+00 0. -1.
         21    1    1    2  504  503 -0.68980752257E+02 -0.70133316220E+02  0.49175916119E+02  0.10997862043E+03  0.00000000000E+00 0. -1.
<mgrwt>
<rscale>  4 0.25392317E+03</rscale>
<asrwt>0</asrwt>
<pdfrwt beam="1">  1       21 0.32674652E+00 0.25392317E+03</pdfrwt>
<pdfrwt beam="2">  1       21 0.91032901E-02 0.25392317E+03</pdfrwt>
<totfact> 0.21344119E+03</totfact>
</mgrwt>
</event>
<event>
 5    0  0.1531977E+001  0.2363138E+03  0.7546771E-02  0.1122273E+00
         21   -1    0    0  502  501  0.00000000000E+00  0.00000000000E+00  0.31605432163E+02  0.31605432163E+02  0.00000000000E+00 0. -1.
         21   -1    0    0  504  502 -0.00000000000E+00 -0.00000000000E+00 -0.16580622132E+04  0.16580622132E+04  0.00000000000E+00 0. -1.
         25    1    1    2    0    0  0.19870177996E+03 -0.27144268948E+02 -0.78035307089E+03  0.81534969427E+03  0.12500000000E+03 0.  0.
         21    1    1    2  503  501 -0.62180117428E+02 -0.30568938343E+02 -0.33841809737E+03  0.34543832390E+03  0.00000000000E+00 0. -1.
         21    1    1    2  504  503 -0.13652166253E+03  0.57713207291E+02 -0.50768561279E+03  0.52887962720E+03  0.00000000000E+00 0. -1.
<mgrwt>
<rscale>  4 0.23631379E+03</rscale>
<asrwt>0</asrwt>
<pdfrwt beam="1">  1       21 0.48623711E-02 0.23631379E+03</pdfrwt>
<pdfrwt beam="2">  1       21 0.25508666E+00 0.23631379E+03</pdfrwt>
<totfact> 0.16877814E+04</totfact>
</mgrwt>
</event>
<event>
 5    0  0.1531977E+001  0.3265713E+03  0.7546771E-02  0.1072664E+00
         21   -1    0    0  502  501  0.00000000000E+00  0.00000000000E+00  0.24091956547E+03  0.24091956547E+03  0.00000000000E+00 0. -1.
         21   -1    0    0  504  502 -0.00000000000E+00 -0.00000000000E+00 -0.10454771640E+04  0.10454771640E+04  0.00000000000E+00 0. -1.
         25    1    1    2    0    0 -0.28147442825E+03  0.11795501814E+03 -0.59967669651E+02  0.33520495442E+03  0.12500000000E+03 0.  0.
         21    1    1    2  503  501  0.41574645962E+02  0.66651108832E+02  0.55215923991E+02  0.96018851054E+02  0.00000000000E+00 0. -1.
         21    1    1    2  504  503  0.23989978229E+03 -0.18460612697E+03 -0.79980585283E+03  0.85517292396E+03  0.00000000000E+00 0. -1.
<mgrwt>
<rscale>  4 0.32657132E+03</rscale>
<asrwt>0</asrwt>
<pdfrwt beam="1">  1       21 0.37064549E-01 0.32657132E+03</pdfrwt>
<pdfrwt beam="2">  1       21 0.16084264E+00 0.32657132E+03</pdfrwt>
<totfact> 0.15720516E+03</totfact>
</mgrwt>
</event>
<event>
 5    0  0.1531977E+001  0.3185137E+03  0.7546771E-02  0.1076335E+00
         21   -1    0    0  502  501  0.00000000000E+00  0.00000000000E+00  0.17241103724E+04  0.17241103724E+04  0.00000000000E+00 0. -1.
         21   -1    0    0  504  502 -0.00000000000E+00 -0.00000000000E+00 -0.76834910401E+02  0.76834910401E+02  0.00000000000E+00 0. -1.
         25    1    1    2    0    0  0.30486676188E+03  0.37790816637E+02  0.48092099315E+03  0.58419336694E+03  0.12500000000E+03 0.  0.
         21    1    1    2  503  501 -0.38333924634E+02  0.21293653970E+02  0.41548761379E+03  0.41779524493E+03  0.00000000000E+00 0. -1.
         21    1    1    2  504  503 -0.26653283725E+03 -0.59084470607E+02  0.75086685511E+03  0.79895667098E+03  0.00000000000E+00 0. -1.
<mgrwt>
<rscale>  4 0.31851373E+03</rscale>
<asrwt>0</asrwt>
<pdfrwt beam="1">  1       21 0.26524772E+00 0.31851373E+03</pdfrwt>
<pdfrwt beam="2">  1       21 0.11820757E-01 0.31851373E+03</pdfrwt>
<totfact> 0.29248520E+03</totfact>
</mgrwt>
</event>
<event>
 5    0  0.1531977E+001  0.3171545E+03  0.7546771E-02  0.1076966E+00
         21   -1    0    0  502  501  0.00000000000E+00  0.00000000000E+00  0.62741733822E+03  0.62741733822E+03  0.00000000000E+00 0.  1.
         21   -1    0    0  504  502 -0.00000000000E+00 -0.00000000000E+00 -0.18810193324E+04  0.18810193324E+04  0.00000000000E+00 0.  1.
         25    1    1    2    0    0 -0.26717222954E+03 -0.15612605943E+03  0.54703148958E+03  0.64080012271E+03  0.12500000000E+03 0.  0.
         21    1    1    2  503  501  0.20497744440E+02  0.14934683432E+01  0.17100225699E+02  0.26735850347E+02  0.00000000000E+00 0. -1.
         21    1    1    2  504  503  0.24667448510E+03  0.15463259108E+03 -0.18177337094E+04  0.18409006975E+04  0.00000000000E+00 0.  1.
<mgrwt>
<rscale>  4 0.31715452E+03</rscale>
<asrwt>0</asrwt>
<pdfrwt beam="1">  1       21 0.96525745E-01 0.31715452E+03</pdfrwt>
<pdfrwt beam="2">  1       21 0.28938759E+00 0.31715452E+03</pdfrwt>
<totfact> 0.29608419E+01</totfact>
</mgrwt>
</event>
<event>
 5    0  0.1531977E+001  0.2370470E+03  0.7546771E-02  0.1121776E+00
         21   -1    0    0  503  501  0.00000000000E+00  0.00000000000E+00  0.15917078368E+04  0.15917078368E+04  0.00000000000E+00 0.  1.
         21   -1    0    0  504  502 -0.00000000000E+00 -0.00000000000E+00 -0.18021139417E+03  0.18021139417E+03  0.00000000000E+00 0.  1.
         25    1    1    2    0    0  0.21705264481E+03 -0.15202069404E+03  0.13636328449E+04  0.13947550601E+04  0.12500000000E+03 0.  0.
         21    1    1    2  503  502 -0.17008871886E+03  0.10241351053E+03 -0.94030582749E+02  0.21968261177E+03  0.00000000000E+00 0.  1.
         21    1    1    2  504  501 -0.46963925948E+02  0.49607183517E+02  0.14189418044E+03  0.15748155905E+03  0.00000000000E+00 0.  1.
<mgrwt>
<rscale>  4 0.23704703E+03</rscale>
<asrwt>0</asrwt>
<pdfrwt beam="1">  1       21 0.24487812E+00 0.23704703E+03</pdfrwt>
<pdfrwt beam="2">  1       21 0.27724831E-01 0.23704703E+03</pdfrwt>
<totfact> 0.84164696E+02</totfact>
</mgrwt>
</event>
<event>
 5    0  0.1531977E+001  0.2349794E+03  0.7546771E-02  0.1123183E+00
         21   -1    0    0  504  501  0.00000000000E+00  0.00000000000E+00  0.90546683382E+02  0.90546683382E+02  0.00000000000E+00 0.  1.
         21   -1    0    0  503  502 -0.00000000000E+00 -0.00000000000E+00 -0.81506580716E+03  0.81506580716E+03  0.00000000000E+00 0.  1.
         25    1    1    2    0    0  0.36163762556E+02 -0.22074246967E+03 -0.19982290473E+03  0.32494499364E+03  0.12500000000E+03 0.  0.
         21    1    1    2  503  501 -0.16794029827E+02  0.19139759129E+03 -0.50511347289E+03  0.54042085256E+03  0.00000000000E+00 0.  1.
         21    1    1    2  504  502 -0.19369732729E+02  0.29344878378E+02 -0.19582746151E+02  0.40246644330E+02  0.00000000000E+00 0.  1.
<mgrwt>
<rscale>  4 0.23497941E+03</rscale>
<asrwt>0</asrwt>
<pdfrwt beam="1">  1       21 0.13930259E-01 0.23497941E+03</pdfrwt>
<pdfrwt beam="2">  1       21 0.12539474E+00 0.23497941E+03</pdfrwt>
<totfact> 0.20701391E+04</totfact>
</mgrwt>
</event>
<event>
 5    0  0.1531977E+001  0.2081580E+03  0.7546771E-02  0.1143033E+00
         21   -1    0    0  502  501  0.00000000000E+00  0.00000000000E+00  0.82372254673E+02  0.82372254673E+02  0.00000000000E+00 0. -1.
         21   -1    0    0  504  502 -0.00000000000E+00 -0.00000000000E+00 -0.14221134632E+04  0.14221134632E+04  0.00000000000E+00 0. -1.
         25    1    1    2    0    0 -0.19635692763E+03  0.74121941697E+02 -0.26867258823E+03  0.36312541213E+03  0.12500000000E+03 0.  0.
         21    1    1    2  503  501  0.92844327640E+02  0.52739364883E+02 -0.71582586585E+02  0.12855184357E+03  0.00000000000E+00 0. -1.
         21    1    1    2  504  503  0.10351259999E+03 -0.12686130658E+03 -0.99948603371E+03  0.10128084622E+04  0.00000000000E+00 0. -1.
<mgrwt>
<rscale>  4 0.20815802E+03</rscale>
<asrwt>0</asrwt>
<pdfrwt beam="1">  1       21 0.12672654E-01 0.20815802E+03</pdfrwt>
<pdfrwt beam="2">  1       21 0.21878669E+00 0.20815802E+03</pdfrwt>
<totfact> 0.53676243E+03</totfact>
</mgrwt>
</event>
<event>
 5    0  0.1531977E+001  0.4467264E+03  0.7546771E-02  0.1028703E+00
         21   -1    0    0  502  501  0.00000000000E+00  0.00000000000E+00  0.82532554454E+03  0.82532554454E+03  0.00000000000E+00 0. -1.
         21   -1    0    0  504  502 -0.00000000000E+00 -0.00000000000E+00 -0.58426117885E+03  0.58426117885E+03  0.00000000000E+00 0. -1.
         25    1    1    2    0    0 -0.70147347776E+02 -0.35312076422E+03  0.21197644581E+03  0.43608936939E+03  0.12500000000E+03 0.  0.
         21    1    1    2  503  501 -0.63270704752E+02 -0.79562190558E+02  0.38460850790E+03  0.39781531971E+03  0.00000000000E+00 0. -1.
         21    1    1    2  504  503  0.13341805253E+03  0.43268295477E+03 -0.35552058802E+03  0.57568203428E+03  0.00000000000E+00 0. -1.
<mgrwt>
<rscale>  4 0.44672638E+03</rscale>
<asrwt>0</asrwt>
<pdfrwt beam="1">  1       21 0.12697316E+00 0.44672638E+03</pdfrwt>
<pdfrwt beam="2">  1       21 0.89886334E-01 0.44672638E+03</pdfrwt>
<totfact> 0.40251465E+02</totfact>
</mgrwt>
</event>
<event>
 5    0  0.1531977E+001  0.1736808E+03  0.7546771E-02  0.1174063E+00
         21   -1    0    0  502  501  0.00000000000E+00  0.00000000000E+00  0.35327076117E+04  0.35327076117E+04  0.00000000000E+00 0. -1.
         21   -1    0    0  504  502 -0.00000000000E+00 -0.00000000000E+00 -0.73974308606E+03  0.73974308606E+03  0.00000000000E+00 0. -1.
         25    1    1    2    0    0 -0.20815239425E+03  0.17376389869E+01 -0.65347346259E+03  0.69712481302E+03  0.12500000000E+03 0.  0.
         21    1    1    2  503  501  0.11980285139E+03 -0.12453020397E+02  0.34786082988E+04  0.34806929623E+04  0.00000000000E+00 0. -1.
         21    1    1    2  504  503  0.88349542861E+02  0.10715381410E+02 -0.32170310626E+02  0.94632922433E+02  0.00000000000E+00 0. -1.
<mgrwt>
<rscale>  4 0.17368084E+03</rscale>
<asrwt>0</asrwt>
<pdfrwt beam="1">  1       21 0.54349347E+00 0.17368084E+03</pdfrwt>
<pdfrwt beam="2">  1       21 0.11380663E+00 0.17368084E+03</pdfrwt>
<totfact> 0.58104166E-01</totfact>
</mgrwt>
</event>
<event>
 5    0  0.1531977E+001  0.2498891E+03  0.7546771E-02  0.1113375E+00
         21   -1    0    0  502  501  0.00000000000E+00  0.00000000000E+00  0.22753538158E+03  0.22753538158E+03  0.00000000000E+00 0. -1.
         21   -1    0    0  504  502 -0.00000000000E+00 -0.00000000000E+00 -0.44922744013E+03  0.44922744013E+03  0.00000000000E+00 0. -1.
         25    1    1    2    0    0  0.20743467771E+03  0.16050022816E+02  0.74431105541E+02  0.25387346892E+03  0.12500000000E+03 0.  0.
         21    1    1    2  503  501 -0.23621248396E+03 -0.27664307160E+02 -0.16829990114E+03  0.29135289289E+03  0.00000000000E+00 0. -1.
         21    1    1    2  504  503  0.28777806249E+02  0.11614284344E+02 -0.12782326295E+03  0.13153645991E+03  0.00000000000E+00 0.  1.
<mgrwt>
<rscale>  4 0.24988905E+03</rscale>
<asrwt>0</asrwt>
<pdfrwt beam="1">  1       21 0.35005444E-01 0.24988905E+03</pdfrwt>
<pdfrwt beam="2">  1       21 0.69111913E-01 0.24988905E+03</pdfrwt>
<totfact> 0.14499862E+04</totfact>
</mgrwt>
</event>
<event>
 5    0  0.1531977E+001  0.2794930E+03  0.7546771E-02  0.1095966E+00
         21   -1    0    0  504  501  0.00000000000E+00  0.00000000000E+00  0.96347448587E+03  0.96347448587E+03  0.00000000000E+00 0. -1.
         21   -1    0    0  501  502 -0.00000000000E+00 -0.00000000000E+00 -0.11757706303E+03  0.11757706303E+03  0.00000000000E+00 0. -1.
         25    1    1    2    0    0 -0.16289588553E+03 -0.19384629046E+03  0.11957382170E+03  0.30665021227E+03  0.12500000000E+03 0.  0.
         21    1    1    2  503  502  0.17126135269E+03  0.16853981869E+03  0.67635089977E+03  0.71776504584E+03  0.00000000000E+00 0. -1.
         21    1    1    2  504  503 -0.83654671627E+01  0.25306471762E+02  0.49972701360E+02  0.56636290796E+02  0.00000000000E+00 0. -1.
<mgrwt>
<rscale>  4 0.27949295E+03</rscale>
<asrwt>0</asrwt>
<pdfrwt beam="1">  1       21 0.14822684E+00 0.27949295E+03</pdfrwt>
<pdfrwt beam="2">  1       21 0.18088780E-01 0.27949295E+03</pdfrwt>
<totfact> 0.81003769E+03</totfact>
</mgrwt>
</event>
<event>
 5    0  0.1531977E+001  0.2933629E+03  0.7546771E-02  0.1088606E+00
         21   -1    0    0  503  501  0.00000000000E+00  0.00000000000E+00  0.90026463169E+03  0.90026463169E+03  0.00000000000E+00 0. -1.
         21   -1    0    0  504  502 -0.00000000000E+00 -0.00000000000E+00 -0.20784872497E+03  0.20784872497E+03  0.00000000000E+00 0.  1.
         25    1    1    2    0    0  0.10315503638E+02 -0.24083163093E+03  0.70648837290E+03  0.75687324244E+03  0.12500000000E+03 0.  0.
         21    1    1    2  503  502  0.28554641037E+02  0.26768294307E+03 -0.69877721033E+02  0.27812303291E+03  0.00000000000E+00 0.  1.
         21    1    1    2  504  501 -0.38870144675E+02 -0.26851312144E+02  0.55805254849E+02  0.73117081312E+02  0.00000000000E+00 0. -1.
<mgrwt>
<rscale>  4 0.29336288E+03</rscale>
<asrwt>0</asrwt>
<pdfrwt beam="1">  1       21 0.13850225E+00 0.29336288E+03</pdfrwt>
<pdfrwt beam="2">  1       21 0.31976727E-01 0.29336288E+03</pdfrwt>
<totfact> 0.32173096E+03</totfact>
</mgrwt>
</event>
<event>
 5    0  0.1531977E+001  0.4458326E+03  0.7546771E-02  0.1028972E+00
         21   -1    0    0  503  501  0.00000000000E+00  0.00000000000E+00  0.57811662785E+03  0.57811662785E+03  0.00000000000E+00 0.  1.
         21   -1    0    0  504  502 -0.00000000000E+00 -0.00000000000E+00 -0.45945650432E+03  0.45945650432E+03  0.00000000000E+00 0.  1.
         25    1    1    2    0    0 -0.21982964489E+03 -0.40789569243E+03 -0.12372057851E+02  0.48008544707E+03  0.12500000000E+03 0.  0.
         21    1    1    2  503  502  0.42109678443E+02  0.38344706004E+02 -0.78506945421E+02  0.96989081738E+02  0.00000000000E+00 0.  1.
         21    1    1    2  504  501  0.17771996645E+03  0.36955098642E+03  0.20953912680E+03  0.46049860337E+03  0.00000000000E+00 0.  1.
<mgrwt>
<rscale>  4 0.44583260E+03</rscale>
<asrwt>0</asrwt>
<pdfrwt beam="1">  1       21 0.88941020E-01 0.44583260E+03</pdfrwt>
<pdfrwt beam="2">  1       21 0.70685616E-01 0.44583260E+03</pdfrwt>
<totfact> 0.16868211E+03</totfact>
</mgrwt>
</event>
<event>
 5    0  0.1531977E+001  0.3511995E+03  0.7546771E-02  0.1062124E+00
         21   -1    0    0  504  501  0.00000000000E+00  0.00000000000E+00  0.19288274764E+04  0.19288274764E+04  0.00000000000E+00 0.  1.
         21   -1    0    0  503  502 -0.00000000000E+00 -0.00000000000E+00 -0.19789158191E+03  0.19789158191E+03  0.00000000000E+00 0.  1.
         25    1    1    2    0    0 -0.45251143500E+02  0.31195470288E+03 -0.88246520685E+01  0.33921420536E+03  0.12500000000E+03 0.  0.
         21    1    1    2  503  501 -0.21254455846E+02  0.10667139002E+02  0.86077851236E+01  0.25290980853E+02  0.00000000000E+00 0.  1.
         21    1    1    2  504  502  0.66505599346E+02 -0.32262184188E+03  0.17311527615E+04  0.17622138721E+04  0.00000000000E+00 0.  1.
<mgrwt>
<rscale>  4 0.35119947E+03</rscale>
<asrwt>0</asrwt>
<pdfrwt beam="1">  1       21 0.29674268E+00 0.35119947E+03</pdfrwt>
<pdfrwt beam="2">  1       21 0.30444860E-01 0.35119947E+03</pdfrwt>
<totfact> 0.31166021E+02</totfact>
</mgrwt>
</event>
<event>
 5    0  0.1531977E+001  0.2262765E+03  0.7546771E-02  0.1129288E+00
         21   -1    0    0  504  501  0.00000000000E+00  0.00000000000E+00  0.15921882230E+04  0.15921882230E+04  0.00000000000E+00 0.  1.
         21   -1    0    0  503  502 -0.00000000000E+00 -0.00000000000E+00 -0.19068877091E+03  0.19068877091E+03  0.00000000000E+00 0.  1.
         25    1    1    2    0    0  0.17108002469E+03 -0.11739171782E+03 -0.90455398551E+02  0.25856598652E+03  0.12500000000E+03 0.  0.
         21    1    1    2  503  501 -0.19976534899E+02  0.55648509314E+01  0.17923286807E+00  0.20737927497E+02  0.00000000000E+00 0. -1.
         21    1    1    2  504  502 -0.15110348979E+03  0.11182686689E+03  0.14917756178E+04  0.15035730799E+04  0.00000000000E+00 0.  1.
<mgrwt>
<rscale>  4 0.22627650E+03</rscale>
<asrwt>0</asrwt>
<pdfrwt beam="1">  1       21 0.24495203E+00 0.22627650E+03</pdfrwt>
<pdfrwt beam="2">  1       21 0.29336735E-01 0.22627650E+03</pdfrwt>
<totfact> 0.76183513E+02</totfact>
</mgrwt>
</event>
<event>
 5    0  0.1531977E+001  0.2159190E+03  0.7546771E-02  0.1136963E+00
         21   -1    0    0  502  501  0.00000000000E+00  0.00000000000E+00  0.19922361503E+03  0.19922361503E+03  0.00000000000E+00 0. -1.
         21   -1    0    0  504  502 -0.00000000000E+00 -0.00000000000E+00 -0.37399708751E+03  0.37399708751E+03  0.00000000000E+00 0. -1.
         25    1    1    2    0    0  0.50216527670E+02  0.22782192421E+03 -0.12854369242E+03  0.29423291736E+03  0.12500000000E+03 0.  0.
         21    1    1    2  503  501 -0.83332395773E+02 -0.82964942152E+02  0.14463608322E+02  0.11847643554E+03  0.00000000000E+00 0. -1.
         21    1    1    2  504  503  0.33115868103E+02 -0.14485698205E+03 -0.60693388378E+02  0.16051134964E+03  0.00000000000E+00 0. -1.
<mgrwt>
<rscale>  4 0.21591903E+03</rscale>
<asrwt>0</asrwt>
<pdfrwt beam="1">  1       21 0.30649787E-01 0.21591903E+03</pdfrwt>
<pdfrwt beam="2">  1       21 0.57538013E-01 0.21591903E+03</pdfrwt>
<totfact> 0.28600050E+04</totfact>
</mgrwt>
</event>
<event>
 5    0  0.1531977E+001  0.2596725E+03  0.7546771E-02  0.1107340E+00
         21   -1    0    0  504  501  0.00000000000E+00  0.00000000000E+00  0.38222163054E+03  0.38222163054E+03  0.00000000000E+00 0.  1.
         21   -1    0    0  503  502 -0.00000000000E+00 -0.00000000000E+00 -0.21837020075E+03  0.21837020075E+03  0.00000000000E+00 0.  1.
         25    1    1    2    0    0 -0.58449060750E+02 -0.23357278423E+03  0.84836815110E+02  0.28424430237E+03  0.12500000000E+03 0.  0.
         21    1    1    2  503  501  0.55053142759E+02  0.21325542973E+03 -0.14372602204E+02  0.22071542432E+03  0.00000000000E+00 0.  1.
         21    1    1    2  504  502  0.33959179902E+01  0.20317354494E+02  0.93387216883E+02  0.95632104597E+02  0.00000000000E+00 0.  1.
<mgrwt>
<rscale>  4 0.25967245E+03</rscale>
<asrwt>0</asrwt>
<pdfrwt beam="1">  1       21 0.58803328E-01 0.25967245E+03</pdfrwt>
<pdfrwt beam="2">  1       21 0.33595415E-01 0.25967245E+03</pdfrwt>
<totfact> 0.22293913E+04</totfact>
</mgrwt>
</event>
<event>
 5    0  0.1531977E+001  0.1756704E+03  0.7546771E-02  0.1172060E+00
         21   -1    0    0  502  501  0.00000000000E+00  0.00000000000E+00  0.30021372109E+03  0.30021372109E+03  0.00000000000E+00 0.  1.
         21   -1    0    0  504  502 -0.00000000000E+00 -0.00000000000E+00 -0.26226940949E+03  0.26226940949E+03  0.00000000000E+00 0.  1.
         25    1    1    2    0    0  0.21585865186E+03  0.11911079681E+02 -0.82815410282E+02  0.26309736522E+03  0.12500000000E+03 0.  0.
         21    1    1    2  503  501 -0.11335268349E+03  0.54168971472E+01  0.15304469185E+03  0.19052782299E+03  0.00000000000E+00 0.  1.
         21    1    1    2  504  503 -0.10250596837E+03 -0.17327976828E+02 -0.32284969971E+02  0.10885794238E+03  0.00000000000E+00 0.  1.
<mgrwt>
<rscale>  4 0.17567036E+03</rscale>
<asrwt>0</asrwt>
<pdfrwt beam="1">  1       21 0.46186726E-01 0.17567036E+03</pdfrwt>
<pdfrwt beam="2">  1       21 0.40349140E-01 0.17567036E+03</pdfrwt>
<totfact> 0.26838035E+04</totfact>
</mgrwt>
</event>
<event>
 5    0  0.1531977E+001  0.2438976E+03  0.7546771E-02  0.1117223E+00
         21   -1    0    0  504  501  0.00000000000E+00  0.00000000000E+00  0.23426910415E+03  0.23426910415E+03  0.00000000000E+00 0.  1.
         21   -1    0    0  503  502 -0.00000000000E+00 -0.00000000000E+00 -0.38021437260E+03  0.38021437260E+03  0.00000000000E+00 0.  1.
         25    1    1    2    0    0 -0.12181761855E+03 -0.18921204791E+03 -0.17021567497E+03  0.30860833960E+03  0.12500000000E+03 0.  0.
         21    1    1    2  503  501  0.10671175222E+03  0.16211292229E+03 -0.70240783324E+02  0.20640195076E+03  0.00000000000E+00 0.  1.
         21    1    1    2  504  502  0.15105866332E+02  0.27099125616E+02  0.94511189839E+02  0.99473186395E+02  0.00000000000E+00 0.  1.
<mgrwt>
<rscale>  4 0.24389757E+03</rscale>
<asrwt>0</asrwt>
<pdfrwt beam="1">  1       21 0.36041401E-01 0.24389757E+03</pdfrwt>
<pdfrwt beam="2">  1       21 0.58494518E-01 0.24389757E+03</pdfrwt>
<totfact> 0.19743426E+04</totfact>
</mgrwt>
</event>
<event>
 5    0  0.1531977E+001  0.2321919E+03  0.7546771E-02  0.1125106E+00
         21   -1    0    0  502  501  0.00000000000E+00  0.00000000000E+00  0.34528435712E+03  0.34528435712E+03  0.00000000000E+00 0.  1.
         21   -1    0    0  504  502 -0.00000000000E+00 -0.00000000000E+00 -0.26977505915E+03  0.26977505915E+03  0.00000000000E+00 0.  1.
         25    1    1    2    0    0 -0.20041178114E+02  0.21701058519E+03  0.20169459765E+03  0.32218155382E+03  0.12500000000E+03 0.  0.
         21    1    1    2  503  501 -0.64624795594E+02 -0.78618780935E+02 -0.55389882296E+02  0.11586766582E+03  0.00000000000E+00 0.  1.
         21    1    1    2  504  503  0.84665973708E+02 -0.13839180425E+03 -0.70795417381E+02  0.17701019663E+03  0.00000000000E+00 0.  1.
<mgrwt>
<rscale>  4 0.23219192E+03</rscale>
<asrwt>0</asrwt>
<pdfrwt beam="1">  1       21 0.53120670E-01 0.23219192E+03</pdfrwt>
<pdfrwt beam="2">  1       21 0.41503855E-01 0.23219192E+03</pdfrwt>
<totfact> 0.18338245E+04</totfact>
</mgrwt>
</event>
<event>
 5    0  0.1531977E+001  0.2299717E+03  0.7546771E-02  0.1126660E+00
         21   -1    0    0  503  501  0.00000000000E+00  0.00000000000E+00  0.95845617979E+03  0.95845617979E+03  0.00000000000E+00 0.  1.
         21   -1    0    0  504  502 -0.00000000000E+00 -0.00000000000E+00 -0.14362792738E+03  0.14362792738E+03  0.00000000000E+00 0.  1.
         25    1    1    2    0    0 -0.16200697580E+03  0.14919972645E+03  0.60269392437E+03  0.65373678576E+03  0.12500000000E+03 0.  0.
         21    1    1    2  503  502  0.13093508726E+03 -0.13733803448E+03 -0.40089223293E+02  0.19394039965E+03  0.00000000000E+00 0.  1.
         21    1    1    2  504  501  0.31071888535E+02 -0.11861691968E+02  0.25222355133E+03  0.25440692176E+03  0.00000000000E+00 0. -1.
<mgrwt>
<rscale>  4 0.22997173E+03</rscale>
<asrwt>0</asrwt>
<pdfrwt beam="1">  1       21 0.14745479E+00 0.22997173E+03</pdfrwt>
<pdfrwt beam="2">  1       21 0.22096605E-01 0.22997173E+03</pdfrwt>
<totfact> 0.58148841E+03</totfact>
</mgrwt>
</event>
<event>
 5    0  0.1531977E+001  0.3142003E+03  0.7546771E-02  0.1078350E+00
         21   -1    0    0  502  501  0.00000000000E+00  0.00000000000E+00  0.94220282408E+03  0.94220282408E+03  0.00000000000E+00 0.  1.
         21   -1    0    0  504  502 -0.00000000000E+00 -0.00000000000E+00 -0.33246901531E+03  0.33246901531E+03  0.00000000000E+00 0.  1.
         25    1    1    2    0    0  0.29918799076E+03  0.16521344520E+03  0.40760013752E+03  0.54641724753E+03  0.12500000000E+03 0.  0.
         21    1    1    2  503  501 -0.47229502123E+02 -0.43319539836E+02  0.38735682756E+03  0.39262261812E+03  0.00000000000E+00 0.  1.
         21    1    1    2  504  503 -0.25195848864E+03 -0.12189390536E+03 -0.18522315631E+03  0.33563197374E+03  0.00000000000E+00 0.  1.
<mgrwt>
<rscale>  4 0.31420033E+03</rscale>
<asrwt>0</asrwt>
<pdfrwt beam="1">  1       21 0.14495428E+00 0.31420033E+03</pdfrwt>
<pdfrwt beam="2">  1       21 0.51149080E-01 0.31420033E+03</pdfrwt>
<totfact> 0.10772888E+03</totfact>
</mgrwt>
</event>
<event>
 5    0  0.1531977E+001  0.2133748E+03  0.7546771E-02  0.1138921E+00
         21   -1    0    0  504  501  0.00000000000E+00  0.00000000000E+00  0.20249117952E+03  0.20249117952E+03  0.00000000000E+00 0.  1.
         21   -1    0    0  503  502 -0.00000000000E+00 -0.00000000000E+00 -0.30778003005E+03  0.30778003005E+03  0.00000000000E+00 0. -1.
         25    1    1    2    0    0  0.18843757246E+03  0.68405209753E+02 -0.29843080345E+02  0.23812517901E+03  0.12500000000E+03 0.  0.
         21    1    1    2  503  501 -0.14290014683E+03 -0.78143346245E+02 -0.12412698079E+03  0.20477876327E+03  0.00000000000E+00 0. -1.
         21    1    1    2  504  502 -0.45537425623E+02  0.97381364924E+01  0.48681210614E+02  0.67367267286E+02  0.00000000000E+00 0. -1.
<mgrwt>
<rscale>  4 0.21337481E+03</rscale>
<asrwt>0</asrwt>
<pdfrwt beam="1">  1       21 0.31152489E-01 0.21337481E+03</pdfrwt>
<pdfrwt beam="2">  1       21 0.47350773E-01 0.21337481E+03</pdfrwt>
<totfact> 0.41800899E+04</totfact>
</mgrwt>
</event>
<event>
 5    0  0.1531977E+001  0.2511190E+03  0.7546771E-02  0.1112600E+00
         21   -1    0    0  502  501  0.00000000000E+00  0.00000000000E+00  0.88531852011E+03  0.88531852011E+03  0.00000000000E+00 0.  1.
         21   -1    0    0  504  502 -0.00000000000E+00 -0.00000000000E+00 -0.93888662191E+02  0.93888662191E+02  0.00000000000E+00 0. -1.
         25    1    1    2    0    0  0.16994094856E+03 -0.12248133562E+03  0.45621490271E+03  0.51733803362E+03  0.12500000000E+03 0.  0.
         21    1    1    2  503  501  0.20682571021E+02  0.98916941550E+01  0.20240274144E+03  0.20369703998E+03  0.00000000000E+00 0. -1.
         21    1    1    2  504  503 -0.19062351958E+03  0.11258964147E+03  0.13281221378E+03  0.25817210870E+03  0.00000000000E+00 0. -1.
<mgrwt>
<rscale>  4 0.25111904E+03</rscale>
<asrwt>0</asrwt>
<pdfrwt beam="1">  1       21 0.13620284E+00 0.25111904E+03</pdfrwt>
<pdfrwt beam="2">  1       21 0.14444410E-01 0.25111904E+03</pdfrwt>
<totfact> 0.15562093E+04</totfact>
</mgrwt>
</event>
<event>
 5    0  0.1531977E+001  0.6070604E+03  0.7546771E-02  0.9890865E-01
         21   -1    0    0  504  501  0.00000000000E+00  0.00000000000E+00  0.28874633828E+03  0.28874633828E+03  0.00000000000E+00 0.  1.
         21   -1    0    0  503  502 -0.00000000000E+00 -0.00000000000E+00 -0.22770379142E+04  0.22770379142E+04  0.00000000000E+00 0.  1.
         25    1    1    2    0    0  0.11021823002E+03  0.60666204241E+03 -0.11472542393E+04  0.13084357766E+04  0.12500000000E+03 0.  0.
         21    1    1    2  503  501 -0.10802148685E+03 -0.18008360383E+02 -0.61835790999E+03  0.62798045154E+03  0.00000000000E+00 0.  1.
         21    1    1    2  504  502 -0.21967431711E+01 -0.58865368203E+03 -0.22267942667E+03  0.62936802438E+03  0.00000000000E+00 0.  1.
<mgrwt>
<rscale>  4 0.60706039E+03</rscale>
<asrwt>0</asrwt>
<pdfrwt beam="1">  1       21 0.44422515E-01 0.60706039E+03</pdfrwt>
<pdfrwt beam="2">  1       21 0.35031351E+00 0.60706039E+03</pdfrwt>
<totfact> 0.58263568E+01</totfact>
</mgrwt>
</event>
<event>
 5    0  0.1531977E+001  0.2842815E+03  0.7546771E-02  0.1093373E+00
         21   -1    0    0  504  501  0.00000000000E+00  0.00000000000E+00  0.45099669833E+03  0.45099669833E+03  0.00000000000E+00 0. -1.
         21   -1    0    0  501  502 -0.00000000000E+00 -0.00000000000E+00 -0.18281951360E+03  0.18281951360E+03  0.00000000000E+00 0. -1.
         25    1    1    2    0    0 -0.25074816835E+03  0.43910775870E+02  0.19174515311E+03  0.34233609787E+03  0.12500000000E+03 0.  0.
         21    1    1    2  503  502 -0.47272292885E+01 -0.24099211129E+02  0.11616893655E+02  0.27167460168E+02  0.00000000000E+00 0. -1.
         21    1    1    2  504  503  0.25547539763E+03 -0.19811564741E+02  0.64815137969E+02  0.26431265389E+03  0.00000000000E+00 0. -1.
<mgrwt>
<rscale>  4 0.28428154E+03</rscale>
<asrwt>0</asrwt>
<pdfrwt beam="1">  1       21 0.69384107E-01 0.28428154E+03</pdfrwt>
<pdfrwt beam="2">  1       21 0.28126079E-01 0.28428154E+03</pdfrwt>
<totfact> 0.21791558E+04</totfact>
</mgrwt>
</event>
<event>
 5    0  0.1531977E+001  0.2511532E+03  0.7546771E-02  0.1112578E+00
         21   -1    0    0  504  501  0.00000000000E+00  0.00000000000E+00  0.15433884959E+03  0.15433884959E+03  0.00000000000E+00 0. -1.
         21   -1    0    0  503  502 -0.00000000000E+00 -0.00000000000E+00 -0.45874880156E+03  0.45874880156E+03  0.00000000000E+00 0. -1.
         25    1    1    2    0    0 -0.56662062779E+02 -0.22293735924E+03 -0.13344361137E+03  0.29384324548E+03  0.12500000000E+03 0.  0.
         21    1    1    2  503  501  0.73910421063E+01  0.19535568081E+02 -0.93942296484E+02  0.96236276904E+02  0.00000000000E+00 0. -1.
         21    1    1    2  504  502  0.49271020673E+02  0.20340179116E+03 -0.77024044117E+02  0.22300812877E+03  0.00000000000E+00 0. -1.
<mgrwt>
<rscale>  4 0.25115324E+03</rscale>
<asrwt>0</asrwt>
<pdfrwt beam="1">  1       21 0.23744439E-01 0.25115324E+03</pdfrwt>
<pdfrwt beam="2">  1       21 0.70576738E-01 0.25115324E+03</pdfrwt>
<totfact> 0.29516647E+04</totfact>
</mgrwt>
</event>
<event>
 5    0  0.1531977E+001  0.2203486E+03  0.7546771E-02  0.1133623E+00
         21   -1    0    0  502  501  0.00000000000E+00  0.00000000000E+00  0.14370575550E+03  0.14370575550E+03  0.00000000000E+00 0. -1.
         21   -1    0    0  504  502 -0.00000000000E+00 -0.00000000000E+00 -0.57817887959E+03  0.57817887959E+03  0.00000000000E+00 0. -1.
         25    1    1    2    0    0  0.22430975769E+03  0.14981757764E+02 -0.73722308539E+02  0.26758045377E+03  0.12500000000E+03 0.  0.
         21    1    1    2  503  501 -0.53417789531E+02 -0.43152984013E+02 -0.19127944186E+02  0.71284770579E+02  0.00000000000E+00 0.  1.
         21    1    1    2  504  503 -0.17089196816E+03  0.28171226250E+02 -0.34162287136E+03  0.38301941075E+03  0.00000000000E+00 0. -1.
<mgrwt>
<rscale>  4 0.22034862E+03</rscale>
<asrwt>0</asrwt>
<pdfrwt beam="1">  1       21 0.22108578E-01 0.22034862E+03</pdfrwt>
<pdfrwt beam="2">  1       21 0.88950597E-01 0.22034862E+03</pdfrwt>
<totfact> 0.20308117E+04</totfact>
</mgrwt>
</event>
<event>
 5    0  0.1531977E+001  0.1893325E+03  0.7546771E-02  0.1159065E+00
         21   -1    0    0  503  501  0.00000000000E+00  0.00000000000E+00  0.33369175959E+03  0.33369175959E+03  0.00000000000E+00 0.  1.
         21   -1    0    0  504  502 -0.00000000000E+00 -0.00000000000E+00 -0.34162124960E+03  0.34162124960E+03  0.00000000000E+00 0.  1.
         25    1    1    2    0    0  0.22143680263E+03 -0.12749230140E+03  0.98596124274E+02  0.30105604162E+03  0.12500000000E+03 0.  0.
         21    1    1    2  503  502 -0.11458843886E+03  0.62411438833E+02 -0.18513908153E+03  0.22649984002E+03  0.00000000000E+00 0.  1.
         21    1    1    2  504  501 -0.10684836376E+03  0.65080862569E+02  0.78613467239E+02  0.14775712755E+03  0.00000000000E+00 0.  1.
<mgrwt>
<rscale>  4 0.18933250E+03</rscale>
<asrwt>0</asrwt>
<pdfrwt beam="1">  1       21 0.51337194E-01 0.18933250E+03</pdfrwt>
<pdfrwt beam="2">  1       21 0.52557115E-01 0.18933250E+03</pdfrwt>
<totfact> 0.12405574E+04</totfact>
</mgrwt>
</event>
<event>
 5    0  0.1531977E+001  0.2591040E+03  0.7546771E-02  0.1107683E+00
         21   -1    0    0  503  501  0.00000000000E+00  0.00000000000E+00  0.38987043106E+03  0.38987043106E+03  0.00000000000E+00 0.  1.
         21   -1    0    0  504  502 -0.00000000000E+00 -0.00000000000E+00 -0.43698433737E+03  0.43698433737E+03  0.00000000000E+00 0.  1.
         25    1    1    2    0    0  0.24509450128E+03 -0.68042984890E+02 -0.24309959100E+03  0.37339466185E+03  0.12500000000E+03 0.  0.
         21    1    1    2  503  502 -0.25795541882E+02  0.24513988750E+02 -0.86306497725E+02  0.93355006159E+02  0.00000000000E+00 0.  1.
         21    1    1    2  504  501 -0.21929895940E+03  0.43528996139E+02  0.28229218241E+03  0.36010510042E+03  0.00000000000E+00 0.  1.
<mgrwt>
<rscale>  4 0.25910397E+03</rscale>
<asrwt>0</asrwt>
<pdfrwt beam="1">  1       21 0.59980066E-01 0.25910397E+03</pdfrwt>
<pdfrwt beam="2">  1       21 0.67228360E-01 0.25910397E+03</pdfrwt>
<totfact> 0.50161026E+03</totfact>
</mgrwt>
</event>
<event>
 5    0  0.1531977E+001  0.2514854E+03  0.7546771E-02  0.1112370E+00
         21   -1    0    0  502  501  0.00000000000E+00  0.00000000000E+00  0.11047336577E+04  0.11047336577E+04  0.00000000000E+00 0. -1.
         21   -1    0    0  504  502 -0.00000000000E+00 -0.00000000000E+00 -0.63995880446E+02  0.63995880446E+02  0.00000000000E+00 0. -1.
         25    1    1    2    0    0 -0.17761866704E+03  0.11889940167E+03  0.32211318125E+03  0.40628482636E+03  0.12500000000E+03 0.  0.
         21    1    1    2  503  501 -0.21225068791E+02 -0.10673333955E+02  0.12244714589E+03  0.12473061829E+03  0.00000000000E+00 0.  1.
         21    1    1    2  504  503  0.19884373583E+03 -0.10822606771E+03  0.59617745008E+03  0.63771409346E+03  0.00000000000E+00 0. -1.
<mgrwt>
<rscale>  4 0.25148539E+03</rscale>
<asrwt>0</asrwt>
<pdfrwt beam="1">  1       21 0.16995901E+00 0.25148539E+03</pdfrwt>
<pdfrwt beam="2">  1       21 0.98455209E-02 0.25148539E+03</pdfrwt>
<totfact> 0.17139061E+04</totfact>
</mgrwt>
</event>
<event>
 5    0  0.1531977E+001  0.2795899E+03  0.7546771E-02  0.1095913E+00
         21   -1    0    0  503  501  0.00000000000E+00  0.00000000000E+00  0.19302796542E+03  0.19302796542E+03  0.00000000000E+00 0. -1.
         21   -1    0    0  504  502 -0.00000000000E+00 -0.00000000000E+00 -0.43794784778E+03  0.43794784778E+03  0.00000000000E+00 0. -1.
         25    1    1    2    0    0  0.22265002829E+03 -0.13419424363E+03 -0.95505566222E+02  0.30385431262E+03  0.12500000000E+03 0.  0.
         21    1    1    2  503  502 -0.10842279528E+02  0.17353059111E+02 -0.69369596988E+02  0.72324440352E+02  0.00000000000E+00 0. -1.
         21    1    1    2  504  501 -0.21180774876E+03  0.11684118451E+03 -0.80044719149E+02  0.25479706022E+03  0.00000000000E+00 0. -1.
<mgrwt>
<rscale>  4 0.27958992E+03</rscale>
<asrwt>0</asrwt>
<pdfrwt beam="1">  1       21 0.29696610E-01 0.27958992E+03</pdfrwt>
<pdfrwt beam="2">  1       21 0.67376591E-01 0.27958992E+03</pdfrwt>
<totfact> 0.20951018E+04</totfact>
</mgrwt>
</event>
<event>
 5    0  0.1531977E+001  0.2036326E+03  0.7546771E-02  0.1146710E+00
         21   -1    0    0  502  501  0.00000000000E+00  0.00000000000E+00  0.10537312587E+04  0.10537312587E+04  0.00000000000E+00 0.  1.
         21   -1    0    0  504  502 -0.00000000000E+00 -0.00000000000E+00 -0.63057602005E+02  0.63057602005E+02  0.00000000000E+00 0.  1.
         25    1    1    2    0    0  0.21689053860E+03 -0.16802331177E+01  0.38908332946E+03  0.46266096246E+03  0.12500000000E+03 0.  0.
         21    1    1    2  503  501 -0.14001588408E+03 -0.42983485687E+02  0.49016171197E+03  0.51157651599E+03  0.00000000000E+00 0.  1.
         21    1    1    2  504  503 -0.76874654519E+02  0.44663718805E+02  0.11142861532E+03  0.14255138230E+03  0.00000000000E+00 0.  1.
<mgrwt>
<rscale>  4 0.20363257E+03</rscale>
<asrwt>0</asrwt>
<pdfrwt beam="1">  1       21 0.16211249E+00 0.20363257E+03</pdfrwt>
<pdfrwt beam="2">  1       21 0.97011703E-02 0.20363257E+03</pdfrwt>
<totfact> 0.20640284E+04</totfact>
</mgrwt>
</event>
<event>
 5    0  0.1531977E+001  0.2306338E+03  0.7546771E-02  0.1126194E+00
         21   -1    0    0  504  501  0.00000000000E+00  0.00000000000E+00  0.54236908538E+03  0.54236908538E+03  0.00000000000E+00 0.  1.
         21   -1    0    0  503  502 -0.00000000000E+00 -0.00000000000E+00 -0.20801663561E+03  0.20801663561E+03  0.00000000000E+00 0.  1.
         25    1    1    2    0    0 -0.19777023770E+03 -0.46822297542E+02 -0.86735783571E+02  0.25387692022E+03  0.12500000000E+03 0.  0.
         21    1    1    2  503  501  0.15732175543E+02 -0.16689005280E+02 -0.94246134302E+01  0.24796120318E+02  0.00000000000E+00 0. -1.
         21    1    1    2  504  502  0.18203806216E+03  0.63511302821E+02  0.43051284678E+03  0.47171268045E+03  0.00000000000E+00 0.  1.
<mgrwt>
<rscale>  4 0.23063385E+03</rscale>
<asrwt>0</asrwt>
<pdfrwt beam="1">  1       21 0.83441397E-01 0.23063385E+03</pdfrwt>
<pdfrwt beam="2">  1       21 0.32002560E-01 0.23063385E+03</pdfrwt>
<totfact> 0.11455290E+04</totfact>
</mgrwt>
</event>
<event>
 5    0  0.1531977E+001  0.2595609E+03  0.7546771E-02  0.1107407E+00
         21   -1    0    0  503  501  0.00000000000E+00  0.00000000000E+00  0.55283901775E+02  0.55283901775E+02  0.00000000000E+00 0.  1.
         21   -1    0    0  504  502 -0.00000000000E+00 -0.00000000000E+00 -0.15677133893E+04  0.15677133893E+04  0.00000000000E+00 0.  1.
         25    1    1    2    0    0 -0.12837528645E+03 -0.21522815983E+03 -0.49672995242E+03  0.57023593414E+03  0.12500000000E+03 0.  0.
         21    1    1    2  503  502  0.12867359394E+03  0.17837207453E+03 -0.96694367753E+03  0.99164185383E+03  0.00000000000E+00 0.  1.
         21    1    1    2  504  501 -0.29830748535E+00  0.36856085298E+02 -0.48755857531E+02  0.61119503061E+02  0.00000000000E+00 0.  1.
<mgrwt>
<rscale>  4 0.25956089E+03</rscale>
<asrwt>0</asrwt>
<pdfrwt beam="1">  1       21 0.85052158E-02 0.25956089E+03</pdfrwt>
<pdfrwt beam="2">  1       21 0.24118667E+00 0.25956089E+03</pdfrwt>
<totfact> 0.76411519E+03</totfact>
</mgrwt>
</event>
<event>
 5    0  0.1531977E+001  0.2554782E+03  0.7546771E-02  0.1109891E+00
         21   -1    0    0  504  501  0.00000000000E+00  0.00000000000E+00  0.15703591810E+03  0.15703591810E+03  0.00000000000E+00 0.  1.
         21   -1    0    0  501  502 -0.00000000000E+00 -0.00000000000E+00 -0.67765392952E+03  0.67765392952E+03  0.00000000000E+00 0.  1.
         25    1    1    2    0    0 -0.15024291609E+03 -0.13953272552E+03 -0.90886497325E+02  0.25676384232E+03  0.12500000000E+03 0.  0.
         21    1    1    2  503  502 -0.92266437046E+01 -0.24059889367E+02  0.44563161713E+02  0.51477029948E+02  0.00000000000E+00 0.  1.
         21    1    1    2  504  503  0.15946955979E+03  0.16359261489E+03 -0.47429467581E+03  0.52644897535E+03  0.00000000000E+00 0.  1.
<mgrwt>
<rscale>  4 0.25547823E+03</rscale>
<asrwt>0</asrwt>
<pdfrwt beam="1">  1       21 0.24159372E-01 0.25547823E+03</pdfrwt>
<pdfrwt beam="2">  1       21 0.10425445E+00 0.25547823E+03</pdfrwt>
<totfact> 0.11558049E+04</totfact>
</mgrwt>
</event>
<event>
 5    0  0.1531977E+001  0.3788454E+03  0.7546771E-02  0.1051361E+00
         21   -1    0    0  502  501  0.00000000000E+00  0.00000000000E+00  0.67427953407E+03  0.67427953407E+03  0.00000000000E+00 0.  1.
         21   -1    0    0  504  502 -0.00000000000E+00 -0.00000000000E+00 -0.44280656200E+03  0.44280656200E+03  0.00000000000E+00 0.  1.
         25    1    1    2    0    0 -0.30621816168E+03  0.18474100554E+03  0.52383755533E+03  0.64647473735E+03  0.12500000000E+03 0.  0.
         21    1    1    2  503  501  0.17377783449E+01 -0.24343350370E+02 -0.15387608644E+02  0.28851292529E+02  0.00000000000E+00 0.  1.
         21    1    1    2  504  503  0.30448038333E+03 -0.16039765517E+03 -0.27697697460E+03  0.44176006619E+03  0.00000000000E+00 0.  1.
<mgrwt>
<rscale>  4 0.37884535E+03</rscale>
<asrwt>0</asrwt>
<pdfrwt beam="1">  1       21 0.10373531E+00 0.37884535E+03</pdfrwt>
<pdfrwt beam="2">  1       21 0.68124087E-01 0.37884535E+03</pdfrwt>
<totfact> 0.13038732E+03</totfact>
</mgrwt>
</event>
<event>
 5    0  0.1531977E+001  0.2476443E+03  0.7546771E-02  0.1114803E+00
         21   -1    0    0  503  501  0.00000000000E+00  0.00000000000E+00  0.12085661126E+03  0.12085661126E+03  0.00000000000E+00 0.  1.
         21   -1    0    0  504  502 -0.00000000000E+00 -0.00000000000E+00 -0.87215227526E+03  0.87215227526E+03  0.00000000000E+00 0.  1.
         25    1    1    2    0    0  0.20578790402E+03  0.23707713298E+02 -0.13949317636E+03  0.27927417238E+03  0.12500000000E+03 0.  0.
         21    1    1    2  503  502  0.17914216450E+02 -0.53410409867E+02 -0.40096304918E+03  0.40490117047E+03  0.00000000000E+00 0.  1.
         21    1    1    2  504  501 -0.22370212047E+03  0.29702696569E+02 -0.21083943846E+03  0.30883354367E+03  0.00000000000E+00 0.  1.
<mgrwt>
<rscale>  4 0.24764434E+03</rscale>
<asrwt>0</asrwt>
<pdfrwt beam="1">  1       21 0.18593324E-01 0.24764434E+03</pdfrwt>
<pdfrwt beam="2">  1       21 0.13417728E+00 0.24764434E+03</pdfrwt>
<totfact> 0.10168937E+04</totfact>
</mgrwt>
</event>
<event>
 5    0  0.1531977E+001  0.1818662E+03  0.7546771E-02  0.1166009E+00
         21   -1    0    0  503  501  0.00000000000E+00  0.00000000000E+00  0.80380175027E+03  0.80380175027E+03  0.00000000000E+00 0.  1.
         21   -1    0    0  504  502 -0.00000000000E+00 -0.00000000000E+00 -0.64011629518E+03  0.64011629518E+03  0.00000000000E+00 0.  1.
         25    1    1    2    0    0  0.30198009679E+02  0.19943289896E+03  0.66647323773E+03  0.70745811013E+03  0.12500000000E+03 0.  0.
         21    1    1    2  503  502 -0.51912740957E+01 -0.13128988552E+03 -0.60051704192E+03  0.61472327189E+03  0.00000000000E+00 0.  1.
         21    1    1    2  504  501 -0.25006735583E+02 -0.68143013447E+02  0.97729259281E+02  0.12173666344E+03  0.00000000000E+00 0.  1.
<mgrwt>
<rscale>  4 0.18186619E+03</rscale>
<asrwt>0</asrwt>
<pdfrwt beam="1">  1       21 0.12366181E+00 0.18186619E+03</pdfrwt>
<pdfrwt beam="2">  1       21 0.98479430E-01 0.18186619E+03</pdfrwt>
<totfact> 0.42248527E+02</totfact>
</mgrwt>
</event>
<event>
 5    0  0.1531977E+001  0.2586110E+03  0.7546771E-02  0.1107981E+00
         21   -1    0    0  503  501  0.00000000000E+00  0.00000000000E+00  0.61033936797E+03  0.61033936797E+03  0.00000000000E+00 0.  1.
         21   -1    0    0  501  502 -0.00000000000E+00 -0.00000000000E+00 -0.23207341972E+03  0.23207341972E+03  0.00000000000E+00 0. -1.
         25    1    1    2    0    0  0.64731404606E+02 -0.23151120971E+03  0.47331579124E+03  0.54538099820E+03  0.12500000000E+03 0.  0.
         21    1    1    2  503  504 -0.28230195629E+02  0.15869294711E+03 -0.13128141882E+03  0.20788267445E+03  0.00000000000E+00 0. -1.
         21    1    1    2  504  502 -0.36501208977E+02  0.72818262594E+02  0.36231575837E+02  0.89149115036E+02  0.00000000000E+00 0.  1.
<mgrwt>
<rscale>  4 0.25861098E+03</rscale>
<asrwt>0</asrwt>
<pdfrwt beam="1">  1       21 0.93898363E-01 0.25861098E+03</pdfrwt>
<pdfrwt beam="2">  1       21 0.35703603E-01 0.25861098E+03</pdfrwt>
<totfact> 0.68930711E+03</totfact>
</mgrwt>
</event>
<event>
 5    0  0.1531977E+001  0.2361854E+03  0.7546771E-02  0.1122360E+00
         21   -1    0    0  503  501  0.00000000000E+00  0.00000000000E+00  0.33974135549E+03  0.33974135549E+03  0.00000000000E+00 0. -1.
         21   -1    0    0  504  502 -0.00000000000E+00 -0.00000000000E+00 -0.51308125495E+03  0.51308125495E+03  0.00000000000E+00 0.  1.
         25    1    1    2    0    0 -0.16731218087E+03 -0.14925057470E+03 -0.27008488620E+03  0.37261232625E+03  0.12500000000E+03 0.  0.
         21    1    1    2  503  502  0.81969320952E+02 -0.31071967055E+02 -0.14336193434E+03  0.16803892683E+03  0.00000000000E+00 0.  1.
         21    1    1    2  504  501  0.85342859922E+02  0.18032254175E+03  0.24010692108E+03  0.31217135736E+03  0.00000000000E+00 0. -1.
<mgrwt>
<rscale>  4 0.23618538E+03</rscale>
<asrwt>0</asrwt>
<pdfrwt beam="1">  1       21 0.52267901E-01 0.23618538E+03</pdfrwt>
<pdfrwt beam="2">  1       21 0.78935577E-01 0.23618538E+03</pdfrwt>
<totfact> 0.47681742E+03</totfact>
</mgrwt>
</event>
<event>
 5    0  0.1531977E+001  0.3653327E+03  0.7546771E-02  0.1056492E+00
         21   -1    0    0  502  501  0.00000000000E+00  0.00000000000E+00  0.44188612456E+03  0.44188612456E+03  0.00000000000E+00 0.  1.
         21   -1    0    0  504  502 -0.00000000000E+00 -0.00000000000E+00 -0.60064325787E+03  0.60064325787E+03  0.00000000000E+00 0.  1.
         25    1    1    2    0    0  0.25907580181E+03  0.24932940768E+03 -0.23018175685E+03  0.44485285860E+03  0.12500000000E+03 0.  0.
         21    1    1    2  503  501 -0.10985278338E+02 -0.34865198600E+02  0.23036772593E+03  0.23324996799E+03  0.00000000000E+00 0.  1.
         21    1    1    2  504  503 -0.24809052347E+03 -0.21446420908E+03 -0.15894310239E+03  0.36442655585E+03  0.00000000000E+00 0.  1.
<mgrwt>
<rscale>  4 0.36533272E+03</rscale>
<asrwt>0</asrwt>
<pdfrwt beam="1">  1       21 0.67982481E-01 0.36533272E+03</pdfrwt>
<pdfrwt beam="2">  1       21 0.92406655E-01 0.36533272E+03</pdfrwt>
<totfact> 0.17412157E+03</totfact>
</mgrwt>
</event>
<event>
 5    0  0.1531977E+001  0.2155798E+03  0.7546771E-02  0.1137222E+00
         21   -1    0    0  502  501  0.00000000000E+00  0.00000000000E+00  0.33645087945E+03  0.33645087945E+03  0.00000000000E+00 0.  1.
         21   -1    0    0  504  502 -0.00000000000E+00 -0.00000000000E+00 -0.40087319324E+03  0.40087319324E+03  0.00000000000E+00 0. -1.
         25    1    1    2    0    0 -0.15156343540E+03 -0.13781798854E+03  0.16722454854E+03  0.29249670520E+03  0.12500000000E+03 0.  0.
         21    1    1    2  503  501  0.26467309787E+02  0.18588345194E+02  0.81210428049E+02  0.87413835795E+02  0.00000000000E+00 0.  1.
         21    1    1    2  504  503  0.12509612562E+03  0.11922964334E+03 -0.31285729039E+03  0.35741353170E+03  0.00000000000E+00 0. -1.
<mgrwt>
<rscale>  4 0.21557980E+03</rscale>
<asrwt>0</asrwt>
<pdfrwt beam="1">  1       21 0.51761674E-01 0.21557980E+03</pdfrwt>
<pdfrwt beam="2">  1       21 0.61672799E-01 0.21557980E+03</pdfrwt>
<totfact> 0.85199944E+03</totfact>
</mgrwt>
</event>
<event>
 5    0  0.1531977E+001  0.6115397E+03  0.7546771E-02  0.9881750E-01
         21   -1    0    0  502  501  0.00000000000E+00  0.00000000000E+00  0.44148551688E+03  0.44148551688E+03  0.00000000000E+00 0.  1.
         21   -1    0    0  504  502 -0.00000000000E+00 -0.00000000000E+00 -0.16492309311E+04  0.16492309311E+04  0.00000000000E+00 0.  1.
         25    1    1    2    0    0  0.54798930255E+03 -0.43921757728E+03 -0.91931610329E+03  0.11636027903E+04  0.12500000000E+03 0.  0.
         21    1    1    2  503  501 -0.50924242461E+03  0.26402325351E+03  0.15889932647E+02  0.57383674976E+03  0.00000000000E+00 0.  1.
         21    1    1    2  504  503 -0.38746877944E+02  0.17519432377E+03 -0.30431924357E+03  0.35327690788E+03  0.00000000000E+00 0.  1.
<mgrwt>
<rscale>  4 0.61153974E+03</rscale>
<asrwt>0</asrwt>
<pdfrwt beam="1">  1       21 0.67920850E-01 0.61153974E+03</pdfrwt>
<pdfrwt beam="2">  1       21 0.25372783E+00 0.61153974E+03</pdfrwt>
<totfact> 0.90285127E+01</totfact>
</mgrwt>
</event>
<event>
 5    0  0.1531977E+001  0.2044094E+03  0.7546771E-02  0.1146071E+00
         21   -1    0    0  503  501  0.00000000000E+00  0.00000000000E+00  0.21424138199E+03  0.21424138199E+03  0.00000000000E+00 0.  1.
         21   -1    0    0  504  502 -0.00000000000E+00 -0.00000000000E+00 -0.49371393333E+03  0.49371393333E+03  0.00000000000E+00 0.  1.
         25    1    1    2    0    0  0.36100785066E+02  0.21038709026E+03  0.40960296444E+02  0.25073639607E+03  0.12500000000E+03 0.  0.
         21    1    1    2  503  502 -0.15065425955E+02 -0.15526306954E+03 -0.35575523510E+03  0.38845253908E+03  0.00000000000E+00 0.  1.
         21    1    1    2  504  501 -0.21035359111E+02 -0.55124020725E+02  0.35322387313E+02  0.68766380153E+02  0.00000000000E+00 0.  1.
<mgrwt>
<rscale>  4 0.20440938E+03</rscale>
<asrwt>0</asrwt>
<pdfrwt beam="1">  1       21 0.32960213E-01 0.20440938E+03</pdfrwt>
<pdfrwt beam="2">  1       21 0.75955989E-01 0.20440938E+03</pdfrwt>
<totfact> 0.13591197E+04</totfact>
</mgrwt>
</event>
<event>
 5    0  0.1531977E+001  0.3830466E+03  0.7546771E-02  0.1049813E+00
         21   -1    0    0  503  501  0.00000000000E+00  0.00000000000E+00  0.90676069792E+03  0.90676069792E+03  0.00000000000E+00 0.  1.
         21   -1    0    0  504  502 -0.00000000000E+00 -0.00000000000E+00 -0.29176137427E+03  0.29176137427E+03  0.00000000000E+00 0.  1.
         25    1    1    2    0    0 -0.17322613183E+03  0.40052416110E+03  0.32842895729E+03  0.56028338933E+03  0.12500000000E+03 0.  0.
         21    1    1    2  503  502  0.24411516474E+03 -0.23479579127E+03  0.52411302630E+02  0.34273637376E+03  0.00000000000E+00 0.  1.
         21    1    1    2  504  501 -0.70889032913E+02 -0.16572836983E+03  0.23415906374E+03  0.29550230910E+03  0.00000000000E+00 0.  1.
<mgrwt>
<rscale>  4 0.38304664E+03</rscale>
<asrwt>0</asrwt>
<pdfrwt beam="1">  1       21 0.13950164E+00 0.38304664E+03</pdfrwt>
<pdfrwt beam="2">  1       21 0.44886366E-01 0.38304664E+03</pdfrwt>
<totfact> 0.15109839E+03</totfact>
</mgrwt>
</event>
<event>
 5    0  0.1531977E+001  0.2521493E+03  0.7546771E-02  0.1111954E+00
         21   -1    0    0  503  501  0.00000000000E+00  0.00000000000E+00  0.10688320352E+03  0.10688320352E+03  0.00000000000E+00 0.  1.
         21   -1    0    0  504  502 -0.00000000000E+00 -0.00000000000E+00 -0.99222499512E+03  0.99222499512E+03  0.00000000000E+00 0. -1.
         25    1    1    2    0    0 -0.15014939580E+03  0.15930258596E+03 -0.12827762872E+03  0.28284678712E+03  0.12500000000E+03 0.  0.
         21    1    1    2  503  502  0.13227117518E+03 -0.17480967219E+03 -0.76128833960E+03  0.79222094221E+03  0.00000000000E+00 0. -1.
         21    1    1    2  504  501  0.17878220621E+02  0.15507086231E+02  0.42241767160E+01  0.24040469315E+02  0.00000000000E+00 0. -1.
<mgrwt>
<rscale>  4 0.25214929E+03</rscale>
<asrwt>0</asrwt>
<pdfrwt beam="1">  1       21 0.16443569E-01 0.25214929E+03</pdfrwt>
<pdfrwt beam="2">  1       21 0.15265001E+00 0.25214929E+03</pdfrwt>
<totfact> 0.90825505E+03</totfact>
</mgrwt>
</event>
<event>
 5    0  0.1531977E+001  0.2802020E+03  0.7546771E-02  0.1095579E+00
         21   -1    0    0  504  501  0.00000000000E+00  0.00000000000E+00  0.14685686180E+04  0.14685686180E+04  0.00000000000E+00 0. -1.
         21   -1    0    0  501  502 -0.00000000000E+00 -0.00000000000E+00 -0.48901509459E+02  0.48901509459E+02  0.00000000000E+00 0.  1.
         25    1    1    2    0    0  0.16852013516E+03  0.18571250085E+03  0.73633559719E+03  0.78784724447E+03  0.12500000000E+03 0.  0.
         21    1    1    2  503  502 -0.14012010821E+03 -0.17144790167E+03  0.62694037511E+03  0.66489266928E+03  0.00000000000E+00 0. -1.
         21    1    1    2  504  503 -0.28400026955E+02 -0.14264599172E+02  0.56391136196E+02  0.64730213672E+02  0.00000000000E+00 0. -1.
<mgrwt>
<rscale>  4 0.28020201E+03</rscale>
<asrwt>0</asrwt>
<pdfrwt beam="1">  1       21 0.22593360E+00 0.28020201E+03</pdfrwt>
<pdfrwt beam="2">  1       21 0.75233103E-02 0.28020201E+03</pdfrwt>
<totfact> 0.11580479E+04</totfact>
</mgrwt>
</event>
<event>
 5    0  0.1531977E+001  0.3036684E+03  0.7546771E-02  0.1083421E+00
         21   -1    0    0  502  501  0.00000000000E+00  0.00000000000E+00  0.24699525113E+03  0.24699525113E+03  0.00000000000E+00 0. -1.
         21   -1    0    0  504  502 -0.00000000000E+00 -0.00000000000E+00 -0.49039144795E+03  0.49039144795E+03  0.00000000000E+00 0. -1.
         25    1    1    2    0    0  0.29992070180E+03 -0.10387122395E+03 -0.15708741630E+03  0.37555707275E+03  0.12500000000E+03 0.  0.
         21    1    1    2  503  501 -0.24069525558E+03  0.90321790688E+02 -0.98592509183E+00  0.25708598558E+03  0.00000000000E+00 0. -1.
         21    1    1    2  504  503 -0.59225446218E+02  0.13549433258E+02 -0.85322855423E+02  0.10474364076E+03  0.00000000000E+00 0. -1.
<mgrwt>
<rscale>  4 0.30366837E+03</rscale>
<asrwt>0</asrwt>
<pdfrwt beam="1">  1       21 0.37999269E-01 0.30366837E+03</pdfrwt>
<pdfrwt beam="2">  1       21 0.75444838E-01 0.30366837E+03</pdfrwt>
<totfact> 0.98448518E+03</totfact>
</mgrwt>
</event>
<event>
 5    0  0.1531977E+001  0.2105546E+03  0.7546771E-02  0.1141128E+00
         21   -1    0    0  503  501  0.00000000000E+00  0.00000000000E+00  0.66322641899E+03  0.66322641899E+03  0.00000000000E+00 0. -1.
         21   -1    0    0  504  502 -0.00000000000E+00 -0.00000000000E+00 -0.89743162394E+02  0.89743162394E+02  0.00000000000E+00 0. -1.
         25    1    1    2    0    0  0.19725746990E+03  0.51615311513E+02  0.41555577133E+03  0.47946454395E+03  0.12500000000E+03 0.  0.
         21    1    1    2  503  502 -0.15481554476E+03 -0.40683925681E+02  0.68892301987E+02  0.17426756434E+03  0.00000000000E+00 0. -1.
         21    1    1    2  504  501 -0.42441925132E+02 -0.10931385832E+02  0.89035183273E+02  0.99237473091E+02  0.00000000000E+00 0.  1.
<mgrwt>
<rscale>  4 0.21055458E+03</rscale>
<asrwt>0</asrwt>
<pdfrwt beam="1">  1       21 0.10203483E+00 0.21055458E+03</pdfrwt>
<pdfrwt beam="2">  1       21 0.13806641E-01 0.21055458E+03</pdfrwt>
<totfact> 0.35330580E+04</totfact>
</mgrwt>
</event>
<event>
 5    0  0.1531977E+001  0.2154134E+03  0.7546771E-02  0.1137349E+00
         21   -1    0    0  502  501  0.00000000000E+00  0.00000000000E+00  0.79304582532E+03  0.79304582532E+03  0.00000000000E+00 0.  1.
         21   -1    0    0  504  502 -0.00000000000E+00 -0.00000000000E+00 -0.65237347109E+03  0.65237347109E+03  0.00000000000E+00 0. -1.
         25    1    1    2    0    0  0.63345015786E+01 -0.20019426377E+03 -0.56618269139E+03  0.61343761638E+03  0.12500000000E+03 0.  0.
         21    1    1    2  503  501  0.20602218071E+02  0.17383381128E+03  0.75261195801E+03  0.77270136836E+03  0.00000000000E+00 0.  1.
         21    1    1    2  504  503 -0.26936719650E+02  0.26360452493E+02 -0.45756912389E+02  0.59280311677E+02  0.00000000000E+00 0.  1.
<mgrwt>
<rscale>  4 0.21541338E+03</rscale>
<asrwt>0</asrwt>
<pdfrwt beam="1">  1       21 0.12200705E+00 0.21541338E+03</pdfrwt>
<pdfrwt beam="2">  1       21 0.10036515E+00 0.21541338E+03</pdfrwt>
<totfact> 0.40218728E+02</totfact>
</mgrwt>
</event>
<event>
 5    0  0.1531977E+001  0.3599087E+03  0.7546771E-02  0.1058620E+00
         21   -1    0    0  502  501  0.00000000000E+00  0.00000000000E+00  0.57144120050E+03  0.57144120050E+03  0.00000000000E+00 0. -1.
         21   -1    0    0  504  502 -0.00000000000E+00 -0.00000000000E+00 -0.43265611278E+03  0.43265611278E+03  0.00000000000E+00 0.  1.
         25    1    1    2    0    0  0.32610287797E+03  0.90487409377E+02  0.20415282327E+03  0.41452917090E+03  0.12500000000E+03 0.  0.
         21    1    1    2  503  501  0.82477999483E+01 -0.42030175622E+02  0.17162505919E+03  0.17688901268E+03  0.00000000000E+00 0.  1.
         21    1    1    2  504  503 -0.33435067792E+03 -0.48457233755E+02 -0.23699279474E+03  0.41267912969E+03  0.00000000000E+00 0.  1.
<mgrwt>
<rscale>  4 0.35990874E+03</rscale>
<asrwt>0</asrwt>
<pdfrwt beam="1">  1       21 0.87914031E-01 0.35990874E+03</pdfrwt>
<pdfrwt beam="2">  1       21 0.66562478E-01 0.35990874E+03</pdfrwt>
<totfact> 0.20576302E+03</totfact>
</mgrwt>
</event>
<event>
 5    0  0.1531977E+001  0.2851957E+03  0.7546771E-02  0.1092885E+00
         21   -1    0    0  502  501  0.00000000000E+00  0.00000000000E+00  0.65641103138E+03  0.65641103138E+03  0.00000000000E+00 0.  1.
         21   -1    0    0  504  502 -0.00000000000E+00 -0.00000000000E+00 -0.10823893220E+04  0.10823893220E+04  0.00000000000E+00 0.  1.
         25    1    1    2    0    0 -0.63828392442E+02 -0.29956722077E+03 -0.94942603485E+03  0.10054100552E+04  0.12500000000E+03 0.  0.
         21    1    1    2  503  501  0.52493680263E+02  0.24954136292E+03  0.59384931289E+03  0.64628436829E+03  0.00000000000E+00 0.  1.
         21    1    1    2  504  503  0.11334712178E+02  0.50025857848E+02 -0.70401568691E+02  0.87105929923E+02  0.00000000000E+00 0. -1.
<mgrwt>
<rscale>  4 0.28519566E+03</rscale>
<asrwt>0</asrwt>
<pdfrwt beam="1">  1       21 0.10098631E+00 0.28519566E+03</pdfrwt>
<pdfrwt beam="2">  1       21 0.16652143E+00 0.28519566E+03</pdfrwt>
<totfact> 0.16382886E+02</totfact>
</mgrwt>
</event>
<event>
 5    0  0.1531977E+001  0.3950774E+03  0.7546771E-02  0.1045498E+00
         21   -1    0    0  503  501  0.00000000000E+00  0.00000000000E+00  0.69635793755E+03  0.69635793755E+03  0.00000000000E+00 0. -1.
         21   -1    0    0  504  502 -0.00000000000E+00 -0.00000000000E+00 -0.54478011625E+03  0.54478011625E+03  0.00000000000E+00 0.  1.
         25    1    1    2    0    0 -0.59948160103E+02 -0.24629918313E+03  0.31092030309E+03  0.42018270357E+03  0.12500000000E+03 0.  0.
         21    1    1    2  503  502  0.88617711542E+02  0.39390321333E+03 -0.37966195175E+03  0.55421659834E+03  0.00000000000E+00 0.  1.
         21    1    1    2  504  501 -0.28669551439E+02 -0.14760403020E+03  0.22031946996E+03  0.26673875189E+03  0.00000000000E+00 0.  1.
<mgrwt>
<rscale>  4 0.39507737E+03</rscale>
<asrwt>0</asrwt>
<pdfrwt beam="1">  1       21 0.10713199E+00 0.39507737E+03</pdfrwt>
<pdfrwt beam="2">  1       21 0.83812326E-01 0.39507737E+03</pdfrwt>
<totfact> 0.74559610E+02</totfact>
</mgrwt>
</event>
<event>
 5    0  0.1531977E+001  0.2892144E+03  0.7546771E-02  0.1090760E+00
         21   -1    0    0  502  501  0.00000000000E+00  0.00000000000E+00  0.10029383336E+04  0.10029383336E+04  0.00000000000E+00 0.  1.
         21   -1    0    0  504  502 -0.00000000000E+00 -0.00000000000E+00 -0.20526441396E+03  0.20526441396E+03  0.00000000000E+00 0. -1.
         25    1    1    2    0    0 -0.28261875221E+03  0.11339989662E+02 -0.25369013720E+02  0.31027494472E+03  0.12500000000E+03 0.  0.
         21    1    1    2  503  501  0.25614766044E+03 -0.33496728918E+02  0.82384646465E+03  0.86339831603E+03  0.00000000000E+00 0.  1.
         21    1    1    2  504  503  0.26471091771E+02  0.22156739256E+02 -0.80353133751E+00  0.34529486770E+02  0.00000000000E+00 0. -1.
<mgrwt>
<rscale>  4 0.28921441E+03</rscale>
<asrwt>0</asrwt>
<pdfrwt beam="1">  1       21 0.15429820E+00 0.28921441E+03</pdfrwt>
<pdfrwt beam="2">  1       21 0.31579141E-01 0.28921441E+03</pdfrwt>
<totfact> 0.24820304E+03</totfact>
</mgrwt>
</event>
<event>
 5    0  0.1531977E+001  0.2465640E+03  0.7546771E-02  0.1115496E+00
         21   -1    0    0  502  501  0.00000000000E+00  0.00000000000E+00  0.24916300179E+04  0.24916300179E+04  0.00000000000E+00 0.  1.
         21   -1    0    0  504  502 -0.00000000000E+00 -0.00000000000E+00 -0.49729729624E+02  0.49729729624E+02  0.00000000000E+00 0.  1.
         25    1    1    2    0    0 -0.23548872188E+03 -0.12935022303E+02  0.98282888225E+03  0.10184300981E+04  0.12500000000E+03 0.  0.
         21    1    1    2  503  501  0.13897215117E+03  0.18803679472E+03  0.86888023197E+03  0.89979106046E+03  0.00000000000E+00 0.  1.
         21    1    1    2  504  503  0.96516570718E+02 -0.17510177242E+03  0.59019117410E+03  0.62313858901E+03  0.00000000000E+00 0.  1.
<mgrwt>
<rscale>  4 0.24656402E+03</rscale>
<asrwt>0</asrwt>
<pdfrwt beam="1">  1       21 0.38332760E+00 0.24656402E+03</pdfrwt>
<pdfrwt beam="2">  1       21 0.76507296E-02 0.24656402E+03</pdfrwt>
<totfact> 0.13335988E+03</totfact>
</mgrwt>
</event>
<event>
 5    0  0.1531977E+001  0.2355794E+03  0.7546771E-02  0.1122773E+00
         21   -1    0    0  503  501  0.00000000000E+00  0.00000000000E+00  0.15287509675E+03  0.15287509675E+03  0.00000000000E+00 0.  1.
         21   -1    0    0  504  502 -0.00000000000E+00 -0.00000000000E+00 -0.53119556028E+03  0.53119556028E+03  0.00000000000E+00 0.  1.
         25    1    1    2    0    0  0.10278974683E+03  0.19277047448E+03 -0.24584759457E+03  0.35184119662E+03  0.12500000000E+03 0.  0.
         21    1    1    2  503  502 -0.61159123949E+00 -0.28098905658E+02 -0.13552525593E+03  0.13840887810E+03  0.00000000000E+00 0.  1.
         21    1    1    2  504  501 -0.10217815559E+03 -0.16467156882E+03  0.30523869649E+01  0.19382058230E+03  0.00000000000E+00 0.  1.
<mgrwt>
<rscale>  4 0.23557938E+03</rscale>
<asrwt>0</asrwt>
<pdfrwt beam="1">  1       21 0.23519245E-01 0.23557938E+03</pdfrwt>
<pdfrwt beam="2">  1       21 0.81722395E-01 0.23557938E+03</pdfrwt>
<totfact> 0.21765211E+04</totfact>
</mgrwt>
</event>
<event>
 5    0  0.1531977E+001  0.3320830E+03  0.7546771E-02  0.1070219E+00
         21   -1    0    0  502  501  0.00000000000E+00  0.00000000000E+00  0.21275676839E+03  0.21275676839E+03  0.00000000000E+00 0.  1.
         21   -1    0    0  504  502 -0.00000000000E+00 -0.00000000000E+00 -0.85258674573E+03  0.85258674573E+03  0.00000000000E+00 0.  1.
         25    1    1    2    0    0  0.97667241307E+02 -0.31104406192E+03 -0.43643772266E+03  0.55891876354E+03  0.12500000000E+03 0.  0.
         21    1    1    2  503  501 -0.74073737366E+02  0.29296146725E+03 -0.13261796227E+01  0.30218388212E+03  0.00000000000E+00 0.  1.
         21    1    1    2  504  503 -0.23593503941E+02  0.18082594671E+02 -0.20206607506E+03  0.20424086846E+03  0.00000000000E+00 0.  1.
<mgrwt>
<rscale>  4 0.33208300E+03</rscale>
<asrwt>0</asrwt>
<pdfrwt beam="1">  1       21 0.32731810E-01 0.33208300E+03</pdfrwt>
<pdfrwt beam="2">  1       21 0.13116719E+00 0.33208300E+03</pdfrwt>
<totfact> 0.34628174E+03</totfact>
</mgrwt>
</event>
<event>
 5    0  0.1531977E+001  0.3103830E+03  0.7546771E-02  0.1080162E+00
         21   -1    0    0  503  501  0.00000000000E+00  0.00000000000E+00  0.54444157026E+03  0.54444157026E+03  0.00000000000E+00 0.  1.
         21   -1    0    0  504  502 -0.00000000000E+00 -0.00000000000E+00 -0.33557849786E+03  0.33557849786E+03  0.00000000000E+00 0.  1.
         25    1    1    2    0    0  0.18837917354E+03 -0.26994126918E+03  0.10187234706E+03  0.36654873745E+03  0.12500000000E+03 0.  0.
         21    1    1    2  503  502 -0.20027225055E+03  0.17890596006E+03 -0.10037520345E+03  0.28669059690E+03  0.00000000000E+00 0.  1.
         21    1    1    2  504  501  0.11893077013E+02  0.91035309121E+02  0.20736592879E+03  0.22678073377E+03  0.00000000000E+00 0.  1.
<mgrwt>
<rscale>  4 0.31038295E+03</rscale>
<asrwt>0</asrwt>
<pdfrwt beam="1">  1       21 0.83760241E-01 0.31038295E+03</pdfrwt>
<pdfrwt beam="2">  1       21 0.51627461E-01 0.31038295E+03</pdfrwt>
<totfact> 0.40938925E+03</totfact>
</mgrwt>
</event>
<event>
 5    0  0.1531977E+001  0.2444229E+03  0.7546771E-02  0.1116881E+00
         21   -1    0    0  504  501  0.00000000000E+00  0.00000000000E+00  0.70692335976E+02  0.70692335976E+02  0.00000000000E+00 0. -1.
         21   -1    0    0  503  502 -0.00000000000E+00 -0.00000000000E+00 -0.10219443643E+04  0.10219443643E+04  0.00000000000E+00 0. -1.
         25    1    1    2    0    0  0.44050267424E-01 -0.22115119770E+03 -0.31629807570E+03  0.40568131196E+03  0.12500000000E+03 0.  0.
         21    1    1    2  503  501  0.54611438339E+02  0.19091599007E+03 -0.50904808548E+03  0.54640761140E+03  0.00000000000E+00 0. -1.
         21    1    1    2  504  502 -0.54655488606E+02  0.30235207630E+02 -0.12590586716E+03  0.14054777693E+03  0.00000000000E+00 0. -1.
<mgrwt>
<rscale>  4 0.24442289E+03</rscale>
<asrwt>0</asrwt>
<pdfrwt beam="1">  1       21 0.10875743E-01 0.24442289E+03</pdfrwt>
<pdfrwt beam="2">  1       21 0.15722222E+00 0.24442289E+03</pdfrwt>
<totfact> 0.17848750E+04</totfact>
</mgrwt>
</event>
<event>
 5    0  0.1531977E+001  0.1882677E+03  0.7546771E-02  0.1160033E+00
         21   -1    0    0  504  501  0.00000000000E+00  0.00000000000E+00  0.35495018168E+03  0.35495018168E+03  0.00000000000E+00 0. -1.
         21   -1    0    0  503  502 -0.00000000000E+00 -0.00000000000E+00 -0.30176352989E+03  0.30176352989E+03  0.00000000000E+00 0. -1.
         25    1    1    2    0    0  0.19472459768E+03  0.88474781918E+02 -0.14179545844E+03  0.28544072591E+03  0.12500000000E+03 0.  0.
         21    1    1    2  503  501 -0.68814243990E+02 -0.40211845745E+02 -0.48246463716E+02  0.93167129264E+02  0.00000000000E+00 0. -1.
         21    1    1    2  504  502 -0.12591035369E+03 -0.48262936172E+02  0.24322857395E+03  0.27810585639E+03  0.00000000000E+00 0. -1.
<mgrwt>
<rscale>  4 0.18826771E+03</rscale>
<asrwt>0</asrwt>
<pdfrwt beam="1">  1       21 0.54607720E-01 0.18826771E+03</pdfrwt>
<pdfrwt beam="2">  1       21 0.46425159E-01 0.18826771E+03</pdfrwt>
<totfact> 0.14112989E+04</totfact>
</mgrwt>
</event>
<event>
 5    0  0.1531977E+001  0.2501734E+03  0.7546771E-02  0.1113195E+00
         21   -1    0    0  504  501  0.00000000000E+00  0.00000000000E+00  0.31914599700E+03  0.31914599700E+03  0.00000000000E+00 0.  1.
         21   -1    0    0  503  502 -0.00000000000E+00 -0.00000000000E+00 -0.88415659771E+03  0.88415659771E+03  0.00000000000E+00 0.  1.
         25    1    1    2    0    0 -0.33598779467E+03 -0.98093193237E+02  0.42477195496E+02  0.37408472952E+03  0.12500000000E+03 0.  0.
         21    1    1    2  503  501  0.20701559406E+03 -0.13807093446E+02 -0.62407978914E+03  0.65766380106E+03  0.00000000000E+00 0.  1.
         21    1    1    2  504  502  0.12897220061E+03  0.11190028668E+03  0.16591992937E+02  0.17155406413E+03  0.00000000000E+00 0.  1.
<mgrwt>
<rscale>  4 0.25017342E+03</rscale>
<asrwt>0</asrwt>
<pdfrwt beam="1">  1       21 0.49099384E-01 0.25017342E+03</pdfrwt>
<pdfrwt beam="2">  1       21 0.13602409E+00 0.25017342E+03</pdfrwt>
<totfact> 0.14499753E+03</totfact>
</mgrwt>
</event>
<event>
 5    0  0.1531977E+001  0.2580914E+03  0.7546771E-02  0.1108295E+00
         21   -1    0    0  504  501  0.00000000000E+00  0.00000000000E+00  0.37720740738E+03  0.37720740738E+03  0.00000000000E+00 0.  1.
         21   -1    0    0  503  502 -0.00000000000E+00 -0.00000000000E+00 -0.21813235876E+03  0.21813235876E+03  0.00000000000E+00 0.  1.
         25    1    1    2    0    0 -0.20318585628E+03 -0.42414342910E+02  0.19026714532E+03  0.30807475597E+03  0.12500000000E+03 0.  0.
         21    1    1    2  503  501  0.23064297446E+03  0.28787910398E+02 -0.65276530964E+02  0.24142483499E+03  0.00000000000E+00 0.  1.
         21    1    1    2  504  502 -0.27457118183E+02  0.13626432511E+02  0.34084434259E+02  0.45840175181E+02  0.00000000000E+00 0.  1.
<mgrwt>
<rscale>  4 0.25809143E+03</rscale>
<asrwt>0</asrwt>
<pdfrwt beam="1">  1       21 0.58031909E-01 0.25809143E+03</pdfrwt>
<pdfrwt beam="2">  1       21 0.33558824E-01 0.25809143E+03</pdfrwt>
<totfact> 0.23003362E+04</totfact>
</mgrwt>
</event>
<event>
 5    0  0.1531977E+001  0.1754046E+03  0.7546771E-02  0.1172326E+00
         21   -1    0    0  502  501  0.00000000000E+00  0.00000000000E+00  0.26404501010E+03  0.26404501010E+03  0.00000000000E+00 0.  1.
         21   -1    0    0  504  502 -0.00000000000E+00 -0.00000000000E+00 -0.88484999678E+03  0.88484999678E+03  0.00000000000E+00 0. -1.
         25    1    1    2    0    0  0.19063951134E+03  0.94680085984E+02 -0.17782755848E+03  0.30422916119E+03  0.12500000000E+03 0.  0.
         21    1    1    2  503  501 -0.75963983283E+02 -0.76280405127E+02  0.18066163546E+03  0.21030419275E+03  0.00000000000E+00 0.  1.
         21    1    1    2  504  503 -0.11467552806E+03 -0.18399680857E+02 -0.62363906366E+03  0.63436165293E+03  0.00000000000E+00 0. -1.
<mgrwt>
<rscale>  4 0.17540456E+03</rscale>
<asrwt>0</asrwt>
<pdfrwt beam="1">  1       21 0.40622309E-01 0.17540456E+03</pdfrwt>
<pdfrwt beam="2">  1       21 0.13613077E+00 0.17540456E+03</pdfrwt>
<totfact> 0.22827030E+03</totfact>
</mgrwt>
</event>
<event>
 5    0  0.1531977E+001  0.3276287E+03  0.7546771E-02  0.1072191E+00
         21   -1    0    0  504  501  0.00000000000E+00  0.00000000000E+00  0.66802994048E+03  0.66802994048E+03  0.00000000000E+00 0.  1.
         21   -1    0    0  503  502 -0.00000000000E+00 -0.00000000000E+00 -0.36925900923E+03  0.36925900923E+03  0.00000000000E+00 0.  1.
         25    1    1    2    0    0  0.11177197401E+03 -0.26016250149E+03 -0.18615632943E+03  0.36118787403E+03  0.12500000000E+03 0.  0.
         21    1    1    2  503  501 -0.96773630206E+01 -0.28137221644E+02 -0.50999853559E+02  0.59045234015E+02  0.00000000000E+00 0. -1.
         21    1    1    2  504  502 -0.10209461099E+03  0.28829972313E+03  0.53592711424E+03  0.61705584166E+03  0.00000000000E+00 0.  1.
<mgrwt>
<rscale>  4 0.32762868E+03</rscale>
<asrwt>0</asrwt>
<pdfrwt beam="1">  1       21 0.10277384E+00 0.32762868E+03</pdfrwt>
<pdfrwt beam="2">  1       21 0.56809079E-01 0.32762868E+03</pdfrwt>
<totfact> 0.20387041E+03</totfact>
</mgrwt>
</event>
<event>
 5    0  0.1531977E+001  0.2636933E+03  0.7546771E-02  0.1104944E+00
         21   -1    0    0  503  501  0.00000000000E+00  0.00000000000E+00  0.11956013331E+04  0.11956013331E+04  0.00000000000E+00 0. -1.
         21   -1    0    0  504  502 -0.00000000000E+00 -0.00000000000E+00 -0.11391454760E+03  0.11391454760E+03  0.00000000000E+00 0. -1.
         25    1    1    2    0    0 -0.28107776320E+03 -0.11809704442E+03  0.27187101444E+03  0.42718903235E+03  0.12500000000E+03 0.  0.
         21    1    1    2  503  502  0.95008018248E+02  0.52628474056E+01  0.92401731793E+02  0.13263597224E+03  0.00000000000E+00 0.  1.
         21    1    1    2  504  501  0.18606974495E+03  0.11283419701E+03  0.71741403927E+03  0.74969087612E+03  0.00000000000E+00 0. -1.
<mgrwt>
<rscale>  4 0.26369327E+03</rscale>
<asrwt>0</asrwt>
<pdfrwt beam="1">  1       21 0.18393866E+00 0.26369327E+03</pdfrwt>
<pdfrwt beam="2">  1       21 0.17525316E-01 0.26369327E+03</pdfrwt>
<totfact> 0.47744413E+03</totfact>
</mgrwt>
</event>
<event>
 5    0  0.1531977E+001  0.4238872E+03  0.7546771E-02  0.1035809E+00
         21   -1    0    0  504  501  0.00000000000E+00  0.00000000000E+00  0.11744819559E+04  0.11744819559E+04  0.00000000000E+00 0. -1.
         21   -1    0    0  503  502 -0.00000000000E+00 -0.00000000000E+00 -0.37090417433E+03  0.37090417433E+03  0.00000000000E+00 0. -1.
         25    1    1    2    0    0  0.39964120366E+03 -0.13119209665E+03 -0.12031295958E+03  0.45499963311E+03  0.12500000000E+03 0.  0.
         21    1    1    2  503  501 -0.13307564256E+02  0.16948725515E+02 -0.40141379576E+02  0.45559641320E+02  0.00000000000E+00 0. -1.
         21    1    1    2  504  502 -0.38633363941E+03  0.11424337114E+03  0.96403212078E+03  0.10448268558E+04  0.00000000000E+00 0. -1.
<mgrwt>
<rscale>  4 0.42388718E+03</rscale>
<asrwt>0</asrwt>
<pdfrwt beam="1">  1       21 0.18068953E+00 0.42388718E+03</pdfrwt>
<pdfrwt beam="2">  1       21 0.57062181E-01 0.42388718E+03</pdfrwt>
<totfact> 0.43403351E+02</totfact>
</mgrwt>
</event>
<event>
 5    0  0.1531977E+001  0.2279698E+03  0.7546771E-02  0.1128077E+00
         21   -1    0    0  502  501  0.00000000000E+00  0.00000000000E+00  0.21596813516E+03  0.21596813516E+03  0.00000000000E+00 0.  1.
         21   -1    0    0  504  502 -0.00000000000E+00 -0.00000000000E+00 -0.42406949581E+03  0.42406949581E+03  0.00000000000E+00 0.  1.
         25    1    1    2    0    0 -0.22435700363E+03  0.32554273923E+02  0.51335493673E+02  0.26392457017E+03  0.12500000000E+03 0.  0.
         21    1    1    2  503  501  0.14395893131E+03 -0.51159984814E+02 -0.67186654447E+02  0.16689986365E+03  0.00000000000E+00 0.  1.
         21    1    1    2  504  503  0.80398072316E+02  0.18605710891E+02 -0.19225019988E+03  0.20921319715E+03  0.00000000000E+00 0.  1.
<mgrwt>
<rscale>  4 0.22796977E+03</rscale>
<asrwt>0</asrwt>
<pdfrwt beam="1">  1       21 0.33225867E-01 0.22796977E+03</pdfrwt>
<pdfrwt beam="2">  1       21 0.65241460E-01 0.22796977E+03</pdfrwt>
<totfact> 0.18472470E+04</totfact>
</mgrwt>
</event>
<event>
 5    0  0.1531977E+001  0.2689800E+03  0.7546771E-02  0.1101865E+00
         21   -1    0    0  502  501  0.00000000000E+00  0.00000000000E+00  0.81643284514E+03  0.81643284514E+03  0.00000000000E+00 0.  1.
         21   -1    0    0  504  502 -0.00000000000E+00 -0.00000000000E+00 -0.27853547270E+03  0.27853547270E+03  0.00000000000E+00 0.  1.
         25    1    1    2    0    0  0.22536780545E+03 -0.89985899739E+02 -0.15986018792E+03  0.31633588093E+03  0.12500000000E+03 0.  0.
         21    1    1    2  503  501 -0.25913185790E+02 -0.52321002885E+01  0.43274766845E+03  0.43355439407E+03  0.00000000000E+00 0.  1.
         21    1    1    2  504  503 -0.19945461966E+03  0.95218000027E+02  0.26500989192E+03  0.34507804283E+03  0.00000000000E+00 0.  1.
<mgrwt>
<rscale>  4 0.26898002E+03</rscale>
<asrwt>0</asrwt>
<pdfrwt beam="1">  1       21 0.12560505E+00 0.26898002E+03</pdfrwt>
<pdfrwt beam="2">  1       21 0.42851612E-01 0.26898002E+03</pdfrwt>
<totfact> 0.23252908E+03</totfact>
</mgrwt>
</event>
<event>
 5    0  0.1531977E+001  0.2634834E+03  0.7546771E-02  0.1105068E+00
         21   -1    0    0  503  501  0.00000000000E+00  0.00000000000E+00  0.11627845255E+03  0.11627845255E+03  0.00000000000E+00 0.  1.
         21   -1    0    0  504  502 -0.00000000000E+00 -0.00000000000E+00 -0.55944650158E+03  0.55944650158E+03  0.00000000000E+00 0.  1.
         25    1    1    2    0    0  0.69413935047E+02  0.22131475135E+03 -0.20562380876E+03  0.33422247721E+03  0.12500000000E+03 0.  0.
         21    1    1    2  503  502 -0.72408240727E+01 -0.35174251350E+02 -0.87131284787E+02  0.94241807495E+02  0.00000000000E+00 0.  1.
         21    1    1    2  504  501 -0.62173110974E+02 -0.18614050000E+03 -0.15041295549E+03  0.24726066943E+03  0.00000000000E+00 0.  1.
<mgrwt>
<rscale>  4 0.26348342E+03</rscale>
<asrwt>0</asrwt>
<pdfrwt beam="1">  1       21 0.17888993E-01 0.26348342E+03</pdfrwt>
<pdfrwt beam="2">  1       21 0.86068692E-01 0.26348342E+03</pdfrwt>
<totfact> 0.31936767E+04</totfact>
</mgrwt>
</event>
<event>
 5    0  0.1531977E+001  0.2438554E+03  0.7546771E-02  0.1117251E+00
         21   -1    0    0  502  501  0.00000000000E+00  0.00000000000E+00  0.60072319205E+03  0.60072319205E+03  0.00000000000E+00 0. -1.
         21   -1    0    0  504  502 -0.00000000000E+00 -0.00000000000E+00 -0.62087024743E+03  0.62087024743E+03  0.00000000000E+00 0.  1.
         25    1    1    2    0    0  0.25273750500E+01  0.20073261838E+03 -0.46078103346E+03  0.51792290208E+03  0.12500000000E+03 0.  0.
         21    1    1    2  503  501 -0.31518099687E+02 -0.20741325441E+03  0.55088235810E+03  0.58947860112E+03  0.00000000000E+00 0. -1.
         21    1    1    2  504  503  0.28990724637E+02  0.66806360289E+01 -0.11024838003E+03  0.11419193628E+03  0.00000000000E+00 0.  1.
<mgrwt>
<rscale>  4 0.24385538E+03</rscale>
<asrwt>0</asrwt>
<pdfrwt beam="1">  1       21 0.92418952E-01 0.24385538E+03</pdfrwt>
<pdfrwt beam="2">  1       21 0.95518500E-01 0.24385538E+03</pdfrwt>
<totfact> 0.86148136E+02</totfact>
</mgrwt>
</event>
<event>
 5    0  0.1531977E+001  0.2727294E+03  0.7546771E-02  0.1099728E+00
         21   -1    0    0  503  501  0.00000000000E+00  0.00000000000E+00  0.39918616089E+03  0.39918616089E+03  0.00000000000E+00 0. -1.
         21   -1    0    0  504  502 -0.00000000000E+00 -0.00000000000E+00 -0.68282633494E+03  0.68282633494E+03  0.00000000000E+00 0. -1.
         25    1    1    2    0    0  0.26522322464E+03 -0.35397120759E+00 -0.42631473892E+03  0.51740964506E+03  0.12500000000E+03 0.  0.
         21    1    1    2  503  502 -0.24820066318E+02 -0.21395082869E+01 -0.16908489785E+03  0.17091025677E+03  0.00000000000E+00 0.  1.
         21    1    1    2  504  501 -0.24040315832E+03  0.24934794945E+01  0.31175946272E+03  0.39369259399E+03  0.00000000000E+00 0. -1.
<mgrwt>
<rscale>  4 0.27272936E+03</rscale>
<asrwt>0</asrwt>
<pdfrwt beam="1">  1       21 0.61413256E-01 0.27272936E+03</pdfrwt>
<pdfrwt beam="2">  1       21 0.10505020E+00 0.27272936E+03</pdfrwt>
<totfact> 0.16872444E+03</totfact>
</mgrwt>
</event>
<event>
 5    0  0.1531977E+001  0.1965878E+03  0.7546771E-02  0.1152650E+00
         21   -1    0    0  502  501  0.00000000000E+00  0.00000000000E+00  0.19577031901E+03  0.19577031901E+03  0.00000000000E+00 0. -1.
         21   -1    0    0  504  502 -0.00000000000E+00 -0.00000000000E+00 -0.44071316092E+03  0.44071316092E+03  0.00000000000E+00 0.  1.
         25    1    1    2    0    0 -0.18930489049E+03 -0.67959949466E+02  0.43663897349E+02  0.24080372137E+03  0.12500000000E+03 0.  0.
         21    1    1    2  503  501  0.43134354277E+02  0.58689889057E+02 -0.90421710548E+00  0.72841562346E+02  0.00000000000E+00 0. -1.
         21    1    1    2  504  503  0.14617053621E+03  0.92700604095E+01 -0.28770252216E+03  0.32283819621E+03  0.00000000000E+00 0.  1.
<mgrwt>
<rscale>  4 0.19658783E+03</rscale>
<asrwt>0</asrwt>
<pdfrwt beam="1">  1       21 0.30118511E-01 0.19658783E+03</pdfrwt>
<pdfrwt beam="2">  1       21 0.67802024E-01 0.19658783E+03</pdfrwt>
<totfact> 0.20968377E+04</totfact>
</mgrwt>
</event>
<event>
 5    0  0.1531977E+001  0.3145667E+03  0.7546771E-02  0.1078177E+00
         21   -1    0    0  504  501  0.00000000000E+00  0.00000000000E+00  0.32393347212E+03  0.32393347212E+03  0.00000000000E+00 0. -1.
         21   -1    0    0  501  502 -0.00000000000E+00 -0.00000000000E+00 -0.75778971474E+03  0.75778971474E+03  0.00000000000E+00 0. -1.
         25    1    1    2    0    0 -0.13036189182E+03 -0.16050783653E+03  0.53584590514E+02  0.24749403380E+03  0.12500000000E+03 0.  0.
         21    1    1    2  503  502  0.12242198013E+03 -0.16386091640E+03  0.46194245520E+02  0.20969370391E+03  0.00000000000E+00 0. -1.
         21    1    1    2  504  503  0.79399116868E+01  0.32436875293E+03 -0.53363507865E+03  0.62453544915E+03  0.00000000000E+00 0. -1.
<mgrwt>
<rscale>  4 0.31456665E+03</rscale>
<asrwt>0</asrwt>
<pdfrwt beam="1">  1       21 0.49835919E-01 0.31456665E+03</pdfrwt>
<pdfrwt beam="2">  1       21 0.11658303E+00 0.31456665E+03</pdfrwt>
<totfact> 0.19918146E+03</totfact>
</mgrwt>
</event>
<event>
 5    0  0.1531977E+001  0.2986275E+03  0.7546771E-02  0.1085929E+00
         21   -1    0    0  502  501  0.00000000000E+00  0.00000000000E+00  0.77061677005E+03  0.77061677005E+03  0.00000000000E+00 0.  1.
         21   -1    0    0  504  502 -0.00000000000E+00 -0.00000000000E+00 -0.30429436392E+04  0.30429436392E+04  0.00000000000E+00 0. -1.
         25    1    1    2    0    0 -0.22316884411E+03  0.29665536237E+01  0.26665440334E+03  0.36951685245E+03  0.12500000000E+03 0.  0.
         21    1    1    2  503  501 -0.17153668553E+02  0.12576968488E+03  0.43727532687E+03  0.45532622752E+03  0.00000000000E+00 0.  1.
         21    1    1    2  504  503  0.24032251267E+03 -0.12873623850E+03 -0.29762565993E+04  0.29887173293E+04  0.00000000000E+00 0. -1.
<mgrwt>
<rscale>  4 0.29862752E+03</rscale>
<asrwt>0</asrwt>
<pdfrwt beam="1">  1       21 0.11855643E+00 0.29862752E+03</pdfrwt>
<pdfrwt beam="2">  1       21 0.46814518E+00 0.29862752E+03</pdfrwt>
<totfact> 0.13984519E+00</totfact>
</mgrwt>
</event>
<event>
 5    0  0.1531977E+001  0.2206877E+03  0.7546771E-02  0.1133371E+00
         21   -1    0    0  502  501  0.00000000000E+00  0.00000000000E+00  0.46717655817E+02  0.46717655817E+02  0.00000000000E+00 0.  1.
         21   -1    0    0  504  502 -0.00000000000E+00 -0.00000000000E+00 -0.17891787044E+04  0.17891787044E+04  0.00000000000E+00 0.  1.
         25    1    1    2    0    0  0.12741643712E+03  0.20435229956E+03 -0.60037774459E+03  0.65884235367E+03  0.12500000000E+03 0.  0.
         21    1    1    2  503  501 -0.87391994606E+02 -0.11868245946E+03 -0.35599613882E+03  0.38530006197E+03  0.00000000000E+00 0.  1.
         21    1    1    2  504  503 -0.40024442512E+02 -0.85669840105E+02 -0.78608716516E+03  0.79175394456E+03  0.00000000000E+00 0.  1.
<mgrwt>
<rscale>  4 0.22068766E+03</rscale>
<asrwt>0</asrwt>
<pdfrwt beam="1">  1       21 0.71873311E-02 0.22068766E+03</pdfrwt>
<pdfrwt beam="2">  1       21 0.27525829E+00 0.22068766E+03</pdfrwt>
<totfact> 0.66583076E+03</totfact>
</mgrwt>
</event>
<event>
 5    0  0.1531977E+001  0.2297183E+03  0.7546771E-02  0.1126838E+00
         21   -1    0    0  502  501  0.00000000000E+00  0.00000000000E+00  0.35559234670E+03  0.35559234670E+03  0.00000000000E+00 0. -1.
         21   -1    0    0  504  502 -0.00000000000E+00 -0.00000000000E+00 -0.55291766733E+03  0.55291766733E+03  0.00000000000E+00 0. -1.
         25    1    1    2    0    0 -0.32818797696E+03  0.91677521912E+02 -0.15935348311E+03  0.39639708479E+03  0.12500000000E+03 0.  0.
         21    1    1    2  503  501  0.16760667743E+03 -0.44643631935E+02  0.17156291198E+03  0.24396492567E+03  0.00000000000E+00 0. -1.
         21    1    1    2  504  503  0.16058129954E+03 -0.47033889977E+02 -0.20953474951E+03  0.26814800357E+03  0.00000000000E+00 0. -1.
<mgrwt>
<rscale>  4 0.22971829E+03</rscale>
<asrwt>0</asrwt>
<pdfrwt beam="1">  1       21 0.54706515E-01 0.22971829E+03</pdfrwt>
<pdfrwt beam="2">  1       21 0.85064256E-01 0.22971829E+03</pdfrwt>
<totfact> 0.36663465E+03</totfact>
</mgrwt>
</event>
<event>
 5    0  0.1531977E+001  0.2496635E+03  0.7546771E-02  0.1113518E+00
         21   -1    0    0  502  501  0.00000000000E+00  0.00000000000E+00  0.12323589270E+03  0.12323589270E+03  0.00000000000E+00 0.  1.
         21   -1    0    0  504  502 -0.00000000000E+00 -0.00000000000E+00 -0.70515560527E+03  0.70515560527E+03  0.00000000000E+00 0. -1.
         25    1    1    2    0    0 -0.15255383503E+03  0.17775730132E+03 -0.38132502991E+03  0.46465482801E+03  0.12500000000E+03 0.  0.
         21    1    1    2  503  501  0.54622529615E+02 -0.19520867860E+03 -0.11881630968E+03  0.23496247442E+03  0.00000000000E+00 0.  1.
         21    1    1    2  504  503  0.97931305416E+02  0.17451377281E+02 -0.81778372972E+02  0.12877419553E+03  0.00000000000E+00 0.  1.
<mgrwt>
<rscale>  4 0.24966354E+03</rscale>
<asrwt>0</asrwt>
<pdfrwt beam="1">  1       21 0.18959368E-01 0.24966354E+03</pdfrwt>
<pdfrwt beam="2">  1       21 0.10848548E+00 0.24966354E+03</pdfrwt>
<totfact> 0.16652111E+04</totfact>
</mgrwt>
</event>
<event>
 5    0  0.1531977E+001  0.3835326E+03  0.7546771E-02  0.1049980E+00
         21   -1    0    0  503  501  0.00000000000E+00  0.00000000000E+00  0.11328904298E+03  0.11328904298E+03  0.00000000000E+00 0.  1.
         21   -1    0    0  504  502 -0.00000000000E+00 -0.00000000000E+00 -0.13388836519E+04  0.13388836519E+04  0.00000000000E+00 0.  1.
         25    1    1    2    0    0  0.31405290888E+03  0.17315067120E+03 -0.46528109472E+03  0.60060126674E+03  0.12500000000E+03 0.  0.
         21    1    1    2  503  502 -0.25686229836E+03 -0.13931865113E+03 -0.71135606379E+03  0.76903535443E+03  0.00000000000E+00 0.  1.
         21    1    1    2  504  501 -0.57190610521E+02 -0.33832020076E+02 -0.48957450448E+02  0.82536073741E+02  0.00000000000E+00 0.  1.
<mgrwt>
<rscale>  4 0.38259183E+03</rscale>
<asrwt>0</asrwt>
<pdfrwt beam="1">  1       21 0.17429085E-01 0.38353260E+03</pdfrwt>
<pdfrwt beam="2">  1       21 0.20598209E+00 0.38353260E+03</pdfrwt>
<totfact> 0.32133060E+03</totfact>
</mgrwt>
</event>
<event>
 5    0  0.1531977E+001  0.4085979E+03  0.7546771E-02  0.1040843E+00
         21   -1    0    0  504  501  0.00000000000E+00  0.00000000000E+00  0.13997884817E+03  0.13997884817E+03  0.00000000000E+00 0. -1.
         21   -1    0    0  501  502 -0.00000000000E+00 -0.00000000000E+00 -0.14040768568E+04  0.14040768568E+04  0.00000000000E+00 0. -1.
         25    1    1    2    0    0 -0.34050680104E+03  0.48830229528E+02 -0.64275321135E+03  0.73965259654E+03  0.12500000000E+03 0.  0.
         21    1    1    2  503  502 -0.80373457263E+02  0.19945467799E+02 -0.12590439101E+03  0.15069714660E+03  0.00000000000E+00 0. -1.
         21    1    1    2  504  503  0.42088025830E+03 -0.68775697327E+02 -0.49544040632E+03  0.65370596187E+03  0.00000000000E+00 0. -1.
<mgrwt>
<rscale>  4 0.40859793E+03</rscale>
<asrwt>0</asrwt>
<pdfrwt beam="1">  1       21 0.21535207E-01 0.40859793E+03</pdfrwt>
<pdfrwt beam="2">  1       21 0.21601183E+00 0.40859793E+03</pdfrwt>
<totfact> 0.18312427E+03</totfact>
</mgrwt>
</event>
<event>
 5    0  0.1531977E+001  0.1881939E+03  0.7546771E-02  0.1160100E+00
         21   -1    0    0  502  501  0.00000000000E+00  0.00000000000E+00  0.16717896453E+03  0.16717896453E+03  0.00000000000E+00 0. -1.
         21   -1    0    0  504  502 -0.00000000000E+00 -0.00000000000E+00 -0.11666684029E+04  0.11666684029E+04  0.00000000000E+00 0. -1.
         25    1    1    2    0    0  0.13737182433E+03  0.20637236318E+03 -0.14261019864E+03  0.31212696000E+03  0.12500000000E+03 0.  0.
         21    1    1    2  503  501 -0.77146271545E+02 -0.86213259754E+02  0.34138532189E+02  0.12062219013E+03  0.00000000000E+00 0. -1.
         21    1    1    2  504  503 -0.60225552782E+02 -0.12015910342E+03 -0.89101777187E+03  0.90109821725E+03  0.00000000000E+00 0. -1.
<mgrwt>
<rscale>  4 0.18819392E+03</rscale>
<asrwt>0</asrwt>
<pdfrwt beam="1">  1       21 0.25719840E-01 0.18819392E+03</pdfrwt>
<pdfrwt beam="2">  1       21 0.17948745E+00 0.18819392E+03</pdfrwt>
<totfact> 0.26431071E+03</totfact>
</mgrwt>
</event>
<event>
 5    0  0.1531977E+001  0.5151192E+03  0.7546771E-02  0.1009906E+00
         21   -1    0    0  502  501  0.00000000000E+00  0.00000000000E+00  0.40535139968E+03  0.40535139968E+03  0.00000000000E+00 0. -1.
         21   -1    0    0  504  502 -0.00000000000E+00 -0.00000000000E+00 -0.91604286332E+03  0.91604286332E+03  0.00000000000E+00 0.  1.
         25    1    1    2    0    0 -0.34181111002E+03 -0.36155754120E+03  0.71372279902E+02  0.51795530007E+03  0.12500000000E+03 0.  0.
         21    1    1    2  503  501 -0.23105592456E+02  0.18853575529E+02  0.67535663412E+01  0.30576729244E+02  0.00000000000E+00 0. -1.
         21    1    1    2  504  503  0.36491670248E+03  0.34270396568E+03 -0.58881730988E+03  0.77286223368E+03  0.00000000000E+00 0.  1.
<mgrwt>
<rscale>  4 0.51511915E+03</rscale>
<asrwt>0</asrwt>
<pdfrwt beam="1">  1       21 0.62361753E-01 0.51511915E+03</pdfrwt>
<pdfrwt beam="2">  1       21 0.14092967E+00 0.51511915E+03</pdfrwt>
<totfact> 0.68598387E+02</totfact>
</mgrwt>
</event>
<event>
 5    0  0.1531977E+001  0.2624413E+03  0.7546771E-02  0.1105685E+00
         21   -1    0    0  502  501  0.00000000000E+00  0.00000000000E+00  0.15022551194E+03  0.15022551194E+03  0.00000000000E+00 0. -1.
         21   -1    0    0  504  502 -0.00000000000E+00 -0.00000000000E+00 -0.13917858830E+04  0.13917858830E+04  0.00000000000E+00 0.  1.
         25    1    1    2    0    0  0.23824700872E+02 -0.20350663494E+03 -0.48871725272E+03  0.54447416830E+03  0.12500000000E+03 0.  0.
         21    1    1    2  503  501 -0.97002930675E+02  0.21782339632E+03  0.25628795520E+01  0.23845999433E+03  0.00000000000E+00 0. -1.
         21    1    1    2  504  503  0.73178229803E+02 -0.14316761379E+02 -0.75540599793E+03  0.75907723235E+03  0.00000000000E+00 0.  1.
<mgrwt>
<rscale>  4 0.26244131E+03</rscale>
<asrwt>0</asrwt>
<pdfrwt beam="1">  1       21 0.23111618E-01 0.26244131E+03</pdfrwt>
<pdfrwt beam="2">  1       21 0.21412090E+00 0.26244131E+03</pdfrwt>
<totfact> 0.18019413E+03</totfact>
</mgrwt>
</event>
<event>
 5    0  0.1531977E+001  0.3423189E+03  0.7546771E-02  0.1065813E+00
         21   -1    0    0  503  501  0.00000000000E+00  0.00000000000E+00  0.27785746707E+04  0.27785746707E+04  0.00000000000E+00 0. -1.
         21   -1    0    0  504  502 -0.00000000000E+00 -0.00000000000E+00 -0.10268354716E+03  0.10268354716E+03  0.00000000000E+00 0.  1.
         25    1    1    2    0    0  0.12729508241E+03 -0.32193503626E+03  0.61925738010E+03  0.72038247368E+03  0.12500000000E+03 0.  0.
         21    1    1    2  503  502  0.31968880555E+01  0.38038653877E+02 -0.31502266252E+02  0.49492949609E+02  0.00000000000E+00 0. -1.
         21    1    1    2  504  501 -0.13049197046E+03  0.28389638238E+03  0.20881360097E+04  0.21113827946E+04  0.00000000000E+00 0. -1.
<mgrwt>
<rscale>  4 0.34231892E+03</rscale>
<asrwt>0</asrwt>
<pdfrwt beam="1">  1       21 0.42747297E+00 0.34231892E+03</pdfrwt>
<pdfrwt beam="2">  1       21 0.15797471E-01 0.34231892E+03</pdfrwt>
<totfact> 0.17187380E+02</totfact>
</mgrwt>
</event>
<event>
 5    0  0.1531977E+001  0.2534293E+03  0.7546771E-02  0.1111157E+00
         21   -1    0    0  503  501  0.00000000000E+00  0.00000000000E+00  0.52119482364E+03  0.52119482364E+03  0.00000000000E+00 0. -1.
         21   -1    0    0  504  502 -0.00000000000E+00 -0.00000000000E+00 -0.36689537684E+03  0.36689537684E+03  0.00000000000E+00 0. -1.
         25    1    1    2    0    0  0.18881158514E+03  0.95388974923E+02  0.36469854389E+03  0.43974867724E+03  0.12500000000E+03 0.  0.
         21    1    1    2  503  502 -0.16431969132E+03 -0.14925889975E+03 -0.27978137254E+03  0.35715094362E+03  0.00000000000E+00 0. -1.
         21    1    1    2  504  501 -0.24491893819E+02  0.53869924825E+02  0.69382275458E+02  0.91190579618E+02  0.00000000000E+00 0.  1.
<mgrwt>
<rscale>  4 0.25342930E+03</rscale>
<asrwt>0</asrwt>
<pdfrwt beam="1">  1       21 0.80183819E-01 0.25342930E+03</pdfrwt>
<pdfrwt beam="2">  1       21 0.56445443E-01 0.25342930E+03</pdfrwt>
<totfact> 0.38646229E+03</totfact>
</mgrwt>
</event>
<event>
 5    0  0.1531977E+001  0.2798919E+03  0.7546771E-02  0.1095748E+00
         21   -1    0    0  502  501  0.00000000000E+00  0.00000000000E+00  0.62261331745E+03  0.62261331745E+03  0.00000000000E+00 0. -1.
         21   -1    0    0  504  502 -0.00000000000E+00 -0.00000000000E+00 -0.16693523515E+03  0.16693523515E+03  0.00000000000E+00 0. -1.
         25    1    1    2    0    0 -0.22295462956E+03 -0.13944995097E+03  0.94893724455E+02  0.30624316255E+03  0.12500000000E+03 0.  0.
         21    1    1    2  503  501  0.18530094256E+03  0.16304737772E+03  0.36282705670E+03  0.43882155801E+03  0.00000000000E+00 0. -1.
         21    1    1    2  504  503  0.37653687002E+02 -0.23597426754E+02 -0.20426988591E+01  0.44483832039E+02  0.00000000000E+00 0. -1.
<mgrwt>
<rscale>  4 0.27989190E+03</rscale>
<asrwt>0</asrwt>
<pdfrwt beam="1">  1       21 0.95786663E-01 0.27989190E+03</pdfrwt>
<pdfrwt beam="2">  1       21 0.25682344E-01 0.27989190E+03</pdfrwt>
<totfact> 0.12431951E+04</totfact>
</mgrwt>
</event>
<event>
 5    0  0.1531977E+001  0.3564077E+03  0.7546771E-02  0.1060015E+00
         21   -1    0    0  502  501  0.00000000000E+00  0.00000000000E+00  0.24559721292E+03  0.24559721292E+03  0.00000000000E+00 0.  1.
         21   -1    0    0  504  502 -0.00000000000E+00 -0.00000000000E+00 -0.80474783618E+03  0.80474783618E+03  0.00000000000E+00 0.  1.
         25    1    1    2    0    0  0.27055050049E+03  0.10661578420E+03  0.64950592610E+01  0.31659387952E+03  0.12500000000E+03 0.  0.
         21    1    1    2  503  501  0.55717387983E+02  0.10133614087E+02  0.14077503943E+02  0.58354893329E+02  0.00000000000E+00 0. -1.
         21    1    1    2  504  503 -0.32626788847E+03 -0.11674939828E+03 -0.57972318647E+03  0.67539627625E+03  0.00000000000E+00 0.  1.
<mgrwt>
<rscale>  4 0.35640774E+03</rscale>
<asrwt>0</asrwt>
<pdfrwt beam="1">  1       21 0.37784187E-01 0.35640774E+03</pdfrwt>
<pdfrwt beam="2">  1       21 0.12380736E+00 0.35640774E+03</pdfrwt>
<totfact> 0.29719444E+03</totfact>
</mgrwt>
</event>
<event>
 5    0  0.1531977E+001  0.3850360E+03  0.7546771E-02  0.1049088E+00
         21   -1    0    0  502  501  0.00000000000E+00  0.00000000000E+00  0.30729971151E+03  0.30729971151E+03  0.00000000000E+00 0. -1.
         21   -1    0    0  504  502 -0.00000000000E+00 -0.00000000000E+00 -0.70528983774E+03  0.70528983774E+03  0.00000000000E+00 0.  1.
         25    1    1    2    0    0  0.33210695382E+03  0.95825869142E+02 -0.37692987343E+03  0.52647768752E+03  0.12500000000E+03 0.  0.
         21    1    1    2  503  501 -0.35536530213E+03 -0.10397727229E+03  0.82764734731E+02  0.37940186138E+03  0.00000000000E+00 0. -1.
         21    1    1    2  504  503  0.23258348303E+02  0.81514031454E+01 -0.10382498753E+03  0.10671000034E+03  0.00000000000E+00 0. -1.
<mgrwt>
<rscale>  4 0.38503603E+03</rscale>
<asrwt>0</asrwt>
<pdfrwt beam="1">  1       21 0.47276879E-01 0.38503603E+03</pdfrwt>
<pdfrwt beam="2">  1       21 0.10850613E+00 0.38503603E+03</pdfrwt>
<totfact> 0.25669224E+03</totfact>
</mgrwt>
</event>
<event>
 5    0  0.1531977E+001  0.5719900E+03  0.7546771E-02  0.9965285E-01
         21   -1    0    0  503  501  0.00000000000E+00  0.00000000000E+00  0.11610109224E+04  0.11610109224E+04  0.00000000000E+00 0.  1.
         21   -1    0    0  504  502 -0.00000000000E+00 -0.00000000000E+00 -0.20488293436E+04  0.20488293436E+04  0.00000000000E+00 0. -1.
         25    1    1    2    0    0 -0.19106557338E+03  0.56974393364E+03  0.79737323664E+03  0.10062520965E+04  0.12500000000E+03 0.  0.
         21    1    1    2  503  502  0.20072090026E+03 -0.51882741824E+03 -0.19014758977E+04  0.19811818088E+04  0.00000000000E+00 0. -1.
         21    1    1    2  504  501 -0.96553268869E+01 -0.50916515402E+02  0.21628423988E+03  0.22240636074E+03  0.00000000000E+00 0. -1.
<mgrwt>
<rscale>  4 0.57199000E+03</rscale>
<asrwt>0</asrwt>
<pdfrwt beam="1">  1       21 0.17861707E+00 0.57199000E+03</pdfrwt>
<pdfrwt beam="2">  1       21 0.31520451E+00 0.57199000E+03</pdfrwt>
<totfact> 0.33574923E+00</totfact>
</mgrwt>
</event>
<event>
 5    0  0.1531977E+001  0.1944818E+03  0.7546771E-02  0.1154480E+00
         21   -1    0    0  502  501  0.00000000000E+00  0.00000000000E+00  0.23831328439E+03  0.23831328439E+03  0.00000000000E+00 0. -1.
         21   -1    0    0  504  502 -0.00000000000E+00 -0.00000000000E+00 -0.78205672817E+03  0.78205672817E+03  0.00000000000E+00 0. -1.
         25    1    1    2    0    0  0.15686192072E+03 -0.12972988948E+03 -0.19171818910E+03  0.30629458112E+03  0.12500000000E+03 0.  0.
         21    1    1    2  503  501 -0.10653585525E+03  0.95047104898E+02  0.15073299479E+03  0.20761569382E+03  0.00000000000E+00 0. -1.
         21    1    1    2  504  503 -0.50326065471E+02  0.34682784578E+02 -0.50275824947E+03  0.50645973762E+03  0.00000000000E+00 0. -1.
<mgrwt>
<rscale>  4 0.19448182E+03</rscale>
<asrwt>0</asrwt>
<pdfrwt beam="1">  1       21 0.36663582E-01 0.19448182E+03</pdfrwt>
<pdfrwt beam="2">  1       21 0.12031642E+00 0.19448182E+03</pdfrwt>
<totfact> 0.37585501E+03</totfact>
</mgrwt>
</event>
<event>
 5    0  0.1531977E+001  0.2749867E+03  0.7546771E-02  0.1098459E+00
         21   -1    0    0  503  501  0.00000000000E+00  0.00000000000E+00  0.31277543692E+03  0.31277543692E+03  0.00000000000E+00 0. -1.
         21   -1    0    0  504  502 -0.00000000000E+00 -0.00000000000E+00 -0.41215609072E+03  0.41215609072E+03  0.00000000000E+00 0. -1.
         25    1    1    2    0    0 -0.11261708030E+03  0.17554492129E+03 -0.21734339891E+03  0.32613153668E+03  0.12500000000E+03 0.  0.
         21    1    1    2  503  502  0.37514562247E+02  0.68987928186E+02 -0.49709629746E+02  0.92939356064E+02  0.00000000000E+00 0. -1.
         21    1    1    2  504  501  0.75102518050E+02 -0.24453284948E+03  0.16767237485E+03  0.30586063490E+03  0.00000000000E+00 0. -1.
<mgrwt>
<rscale>  4 0.27498668E+03</rscale>
<asrwt>0</asrwt>
<pdfrwt beam="1">  1       21 0.48119298E-01 0.27498668E+03</pdfrwt>
<pdfrwt beam="2">  1       21 0.63408629E-01 0.27498668E+03</pdfrwt>
<totfact> 0.90322174E+03</totfact>
</mgrwt>
</event>
<event>
 5    0  0.1531977E+001  0.3228724E+03  0.7546771E-02  0.1074335E+00
         21   -1    0    0  504  501  0.00000000000E+00  0.00000000000E+00  0.30258095725E+03  0.30258095725E+03  0.00000000000E+00 0.  1.
         21   -1    0    0  503  502 -0.00000000000E+00 -0.00000000000E+00 -0.44721319162E+03  0.44721319162E+03  0.00000000000E+00 0.  1.
         25    1    1    2    0    0 -0.10598701043E+03 -0.22103454199E+03  0.63599100482E+02  0.28241699792E+03  0.12500000000E+03 0.  0.
         21    1    1    2  503  501  0.17199561660E+03  0.27766008165E+03 -0.19211636257E+03  0.37892784252E+03  0.00000000000E+00 0.  1.
         21    1    1    2  504  502 -0.66008606167E+02 -0.56625539659E+02 -0.16114972284E+02  0.88449308429E+02  0.00000000000E+00 0.  1.
<mgrwt>
<rscale>  4 0.32287235E+03</rscale>
<asrwt>0</asrwt>
<pdfrwt beam="1">  1       21 0.46550917E-01 0.32287235E+03</pdfrwt>
<pdfrwt beam="2">  1       21 0.68802029E-01 0.32287235E+03</pdfrwt>
<totfact> 0.79051406E+03</totfact>
</mgrwt>
</event>
<event>
 5    0  0.1531977E+001  0.3091775E+03  0.7546771E-02  0.1080741E+00
         21   -1    0    0  503  501  0.00000000000E+00  0.00000000000E+00  0.15448272771E+04  0.15448272771E+04  0.00000000000E+00 0. -1.
         21   -1    0    0  504  502 -0.00000000000E+00 -0.00000000000E+00 -0.96833066403E+02  0.96833066403E+02  0.00000000000E+00 0. -1.
         25    1    1    2    0    0  0.30096968313E+03  0.94650100006E+01  0.82004511276E+03  0.88248021141E+03  0.12500000000E+03 0.  0.
         21    1    1    2  503  502 -0.33683056855E+02 -0.29149761856E+02 -0.26602690448E+02  0.51884102329E+02  0.00000000000E+00 0.  1.
         21    1    1    2  504  501 -0.26728662627E+03  0.19684751856E+02  0.65455178841E+03  0.70729602978E+03  0.00000000000E+00 0. -1.
<mgrwt>
<rscale>  4 0.30917753E+03</rscale>
<asrwt>0</asrwt>
<pdfrwt beam="1">  1       21 0.23766572E+00 0.30917753E+03</pdfrwt>
<pdfrwt beam="2">  1       21 0.14897396E-01 0.30917753E+03</pdfrwt>
<totfact> 0.28314753E+03</totfact>
</mgrwt>
</event>
<event>
 5    0  0.1531977E+001  0.4307827E+03  0.7546771E-02  0.1033613E+00
         21   -1    0    0  503  501  0.00000000000E+00  0.00000000000E+00  0.44792394696E+03  0.44792394696E+03  0.00000000000E+00 0.  1.
         21   -1    0    0  504  502 -0.00000000000E+00 -0.00000000000E+00 -0.52864470299E+03  0.52864470299E+03  0.00000000000E+00 0.  1.
         25    1    1    2    0    0  0.69809455674E+02 -0.41286623374E+03 -0.97935822040E+02  0.44782620770E+03  0.12500000000E+03 0.  0.
         21    1    1    2  503  502  0.37663345397E+02  0.17953622144E+02 -0.95511050003E+02  0.10422677587E+03  0.00000000000E+00 0.  1.
         21    1    1    2  504  501 -0.10747280107E+03  0.39491261160E+03  0.11272611601E+03  0.42451566638E+03  0.00000000000E+00 0.  1.
<mgrwt>
<rscale>  4 0.43078274E+03</rscale>
<asrwt>0</asrwt>
<pdfrwt beam="1">  1       21 0.68911377E-01 0.43078274E+03</pdfrwt>
<pdfrwt beam="2">  1       21 0.81329954E-01 0.43078274E+03</pdfrwt>
<totfact> 0.22145636E+03</totfact>
</mgrwt>
</event>
<event>
 5    0  0.1531977E+001  0.2963535E+03  0.7546771E-02  0.1087078E+00
         21   -1    0    0  502  501  0.00000000000E+00  0.00000000000E+00  0.46431415472E+03  0.46431415472E+03  0.00000000000E+00 0.  1.
         21   -1    0    0  504  502 -0.00000000000E+00 -0.00000000000E+00 -0.60714065719E+03  0.60714065719E+03  0.00000000000E+00 0.  1.
         25    1    1    2    0    0 -0.23559198163E+03  0.61083277636E+02 -0.43712490726E+03  0.51569170360E+03  0.12500000000E+03 0.  0.
         21    1    1    2  503  501  0.23520510123E+03 -0.13639031956E+03  0.36319810212E+03  0.45369220877E+03  0.00000000000E+00 0.  1.
         21    1    1    2  504  503  0.38688039566E+00  0.75307041929E+02 -0.68899697331E+02  0.10207089954E+03  0.00000000000E+00 0.  1.
<mgrwt>
<rscale>  4 0.29635355E+03</rscale>
<asrwt>0</asrwt>
<pdfrwt beam="1">  1       21 0.71432947E-01 0.29635355E+03</pdfrwt>
<pdfrwt beam="2">  1       21 0.93406255E-01 0.29635355E+03</pdfrwt>
<totfact> 0.15776238E+03</totfact>
</mgrwt>
</event>
<event>
 5    0  0.1531977E+001  0.4296286E+03  0.7546771E-02  0.1033977E+00
         21   -1    0    0  504  501  0.00000000000E+00  0.00000000000E+00  0.71051360920E+03  0.71051360920E+03  0.00000000000E+00 0.  1.
         21   -1    0    0  503  502 -0.00000000000E+00 -0.00000000000E+00 -0.92816716710E+03  0.92816716710E+03  0.00000000000E+00 0.  1.
         25    1    1    2    0    0 -0.19549190729E+03  0.34102117753E+03  0.33338955594E+03  0.53036414411E+03  0.12500000000E+03 0.  0.
         21    1    1    2  503  501  0.21317099631E+03 -0.35395828204E+03 -0.77767488988E+03  0.88062851047E+03  0.00000000000E+00 0.  1.
         21    1    1    2  504  502 -0.17679089023E+02  0.12937104510E+02  0.22663177605E+03  0.22768812173E+03  0.00000000000E+00 0.  1.
<mgrwt>
<rscale>  4 0.42962856E+03</rscale>
<asrwt>0</asrwt>
<pdfrwt beam="1">  1       21 0.10930979E+00 0.42962856E+03</pdfrwt>
<pdfrwt beam="2">  1       21 0.14279495E+00 0.42962856E+03</pdfrwt>
<totfact> 0.18575901E+02</totfact>
</mgrwt>
</event>
<event>
 5    0  0.1531977E+001  0.2093877E+03  0.7546771E-02  0.1142052E+00
         21   -1    0    0  504  501  0.00000000000E+00  0.00000000000E+00  0.12401679175E+03  0.12401679175E+03  0.00000000000E+00 0.  1.
         21   -1    0    0  503  502 -0.00000000000E+00 -0.00000000000E+00 -0.84431860833E+03  0.84431860833E+03  0.00000000000E+00 0.  1.
         25    1    1    2    0    0  0.22637483026E+03  0.75117318725E+02 -0.30298223790E+03  0.40535344063E+03  0.12500000000E+03 0.  0.
         21    1    1    2  503  501 -0.15039964885E+03 -0.17486348876E+02 -0.43969237849E+03  0.46503248755E+03  0.00000000000E+00 0.  1.
         21    1    1    2  504  502 -0.75975181401E+02 -0.57630969849E+02  0.22372799815E+02  0.97949471904E+02  0.00000000000E+00 0.  1.
<mgrwt>
<rscale>  4 0.20938775E+03</rscale>
<asrwt>0</asrwt>
<pdfrwt beam="1">  1       21 0.19079507E-01 0.20938775E+03</pdfrwt>
<pdfrwt beam="2">  1       21 0.12989517E+00 0.20938775E+03</pdfrwt>
<totfact> 0.10786135E+04</totfact>
</mgrwt>
</event>
<event>
 5    0  0.1531977E+001  0.2853037E+03  0.7546771E-02  0.1092827E+00
         21   -1    0    0  502  501  0.00000000000E+00  0.00000000000E+00  0.98723969328E+03  0.98723969328E+03  0.00000000000E+00 0. -1.
         21   -1    0    0  504  502 -0.00000000000E+00 -0.00000000000E+00 -0.63383903462E+03  0.63383903462E+03  0.00000000000E+00 0.  1.
         25    1    1    2    0    0 -0.24875748842E+01 -0.27380720069E+03 -0.54880546150E+03  0.62593051192E+03  0.12500000000E+03 0.  0.
         21    1    1    2  503  501  0.30373075138E+02  0.99235253788E+02  0.76329189456E+03  0.77031466011E+03  0.00000000000E+00 0. -1.
         21    1    1    2  504  503 -0.27885500254E+02  0.17457194690E+03  0.13891422560E+03  0.22483355587E+03  0.00000000000E+00 0.  1.
<mgrwt>
<rscale>  4 0.28530367E+03</rscale>
<asrwt>0</asrwt>
<pdfrwt beam="1">  1       21 0.15188303E+00 0.28530367E+03</pdfrwt>
<pdfrwt beam="2">  1       21 0.97513698E-01 0.28530367E+03</pdfrwt>
<totfact> 0.22903246E+02</totfact>
</mgrwt>
</event>
<event>
 5    0  0.1531977E+001  0.2484465E+03  0.7546771E-02  0.1114291E+00
         21   -1    0    0  503  501  0.00000000000E+00  0.00000000000E+00  0.40073144902E+03  0.40073144902E+03  0.00000000000E+00 0.  1.
         21   -1    0    0  504  502 -0.00000000000E+00 -0.00000000000E+00 -0.15117147558E+03  0.15117147558E+03  0.00000000000E+00 0.  1.
         25    1    1    2    0    0  0.65940686047E+02 -0.20433429237E+03  0.21321941600E+03  0.32739608500E+03  0.12500000000E+03 0.  0.
         21    1    1    2  503  502 -0.75052270453E+02  0.18504637226E+03  0.28172839496E+02  0.20166485086E+03  0.00000000000E+00 0.  1.
         21    1    1    2  504  501  0.91115844065E+01  0.19287920115E+02  0.81677179417E+01  0.22841988730E+02  0.00000000000E+00 0.  1.
<mgrwt>
<rscale>  4 0.24844653E+03</rscale>
<asrwt>0</asrwt>
<pdfrwt beam="1">  1       21 0.61650992E-01 0.24844653E+03</pdfrwt>
<pdfrwt beam="2">  1       21 0.23257150E-01 0.24844653E+03</pdfrwt>
<totfact> 0.41377513E+04</totfact>
</mgrwt>
</event>
<event>
 5    0  0.1531977E+001  0.2957349E+03  0.7546771E-02  0.1087392E+00
         21   -1    0    0  504  501  0.00000000000E+00  0.00000000000E+00  0.57566732473E+03  0.57566732473E+03  0.00000000000E+00 0. -1.
         21   -1    0    0  503  502 -0.00000000000E+00 -0.00000000000E+00 -0.37484626830E+03  0.37484626830E+03  0.00000000000E+00 0. -1.
         25    1    1    2    0    0 -0.10381249479E+03 -0.27785771821E+03  0.37461861267E+03  0.49390894971E+03  0.12500000000E+03 0.  0.
         21    1    1    2  503  501  0.81522906058E+02  0.25147619697E+03 -0.25565612864E+03  0.36775850495E+03  0.00000000000E+00 0. -1.
         21    1    1    2  504  502  0.22289588733E+02  0.26381521241E+02  0.81858572399E+02  0.88846138374E+02  0.00000000000E+00 0. -1.
<mgrwt>
<rscale>  4 0.29573490E+03</rscale>
<asrwt>0</asrwt>
<pdfrwt beam="1">  1       21 0.88564203E-01 0.29573490E+03</pdfrwt>
<pdfrwt beam="2">  1       21 0.57668657E-01 0.29573490E+03</pdfrwt>
<totfact> 0.28613794E+03</totfact>
</mgrwt>
</event>
<event>
 5    0  0.1531977E+001  0.4520990E+03  0.7546771E-02  0.1027098E+00
         21   -1    0    0  502  501  0.00000000000E+00  0.00000000000E+00  0.12019943770E+04  0.12019943770E+04  0.00000000000E+00 0.  1.
         21   -1    0    0  504  502 -0.00000000000E+00 -0.00000000000E+00 -0.37269001426E+03  0.37269001426E+03  0.00000000000E+00 0. -1.
         25    1    1    2    0    0  0.94696001595E+02  0.47006106986E+03 -0.31617861277E+02  0.49653744196E+03  0.12500000000E+03 0.  0.
         21    1    1    2  503  501 -0.71504457376E+02 -0.42037257263E+03  0.90974969516E+03  0.10047240890E+04  0.00000000000E+00 0.  1.
         21    1    1    2  504  503 -0.23191544219E+02 -0.49688497228E+02 -0.48827471108E+02  0.73422860301E+02  0.00000000000E+00 0. -1.
<mgrwt>
<rscale>  4 0.45209903E+03</rscale>
<asrwt>0</asrwt>
<pdfrwt beam="1">  1       21 0.18492221E+00 0.45209903E+03</pdfrwt>
<pdfrwt beam="2">  1       21 0.57336926E-01 0.45209903E+03</pdfrwt>
<totfact> 0.39562563E+02</totfact>
</mgrwt>
</event>
<event>
 5    0  0.1531977E+001  0.2110718E+03  0.7546771E-02  0.1140720E+00
         21   -1    0    0  502  501  0.00000000000E+00  0.00000000000E+00  0.42964481306E+02  0.42964481306E+02  0.00000000000E+00 0.  1.
         21   -1    0    0  504  502 -0.00000000000E+00 -0.00000000000E+00 -0.23690728266E+04  0.23690728266E+04  0.00000000000E+00 0.  1.
         25    1    1    2    0    0  0.57204210181E+02 -0.20228345129E+03 -0.64149838148E+03  0.68653921212E+03  0.12500000000E+03 0.  0.
         21    1    1    2  503  501 -0.10391043291E+03  0.11713460871E+03 -0.30847376470E+03  0.34593924052E+03  0.00000000000E+00 0.  1.
         21    1    1    2  504  503  0.46706222731E+02  0.85148842584E+02 -0.13761361992E+04  0.13795588553E+04  0.00000000000E+00 0.  1.
<mgrwt>
<rscale>  4 0.21107183E+03</rscale>
<asrwt>0</asrwt>
<pdfrwt beam="1">  1       21 0.66099187E-02 0.21107183E+03</pdfrwt>
<pdfrwt beam="2">  1       21 0.36447283E+00 0.21107183E+03</pdfrwt>
<totfact> 0.23377270E+03</totfact>
</mgrwt>
</event>
<event>
 5    0  0.1531977E+001  0.2034348E+03  0.7546771E-02  0.1146873E+00
         21   -1    0    0  502  501  0.00000000000E+00  0.00000000000E+00  0.35553194894E+03  0.35553194894E+03  0.00000000000E+00 0. -1.
         21   -1    0    0  504  502 -0.00000000000E+00 -0.00000000000E+00 -0.16214517123E+03  0.16214517123E+03  0.00000000000E+00 0. -1.
         25    1    1    2    0    0 -0.13968739692E+03  0.15406626608E+03  0.14807268392E+03  0.28425253372E+03  0.12500000000E+03 0.  0.
         21    1    1    2  503  501  0.41054097471E+02 -0.46352240703E+02  0.60521496850E+02  0.86584182841E+02  0.00000000000E+00 0. -1.
         21    1    1    2  504  503  0.98633299451E+02 -0.10771402538E+03 -0.15207403068E+02  0.14684040361E+03  0.00000000000E+00 0. -1.
<mgrwt>
<rscale>  4 0.20343482E+03</rscale>
<asrwt>0</asrwt>
<pdfrwt beam="1">  1       21 0.54697223E-01 0.20343482E+03</pdfrwt>
<pdfrwt beam="2">  1       21 0.24945411E-01 0.20343482E+03</pdfrwt>
<totfact> 0.47744453E+04</totfact>
</mgrwt>
</event>
<event>
 5    0  0.1531977E+001  0.3244085E+03  0.7546771E-02  0.1073638E+00
         21   -1    0    0  502  501  0.00000000000E+00  0.00000000000E+00  0.56419247824E+03  0.56419247824E+03  0.00000000000E+00 0. -1.
         21   -1    0    0  504  502 -0.00000000000E+00 -0.00000000000E+00 -0.89687729210E+03  0.89687729210E+03  0.00000000000E+00 0. -1.
         25    1    1    2    0    0 -0.22931977797E+03  0.14809242747E+03  0.43959529914E+03  0.53234195276E+03  0.12500000000E+03 0.  0.
         21    1    1    2  503  501  0.33881825140E+02  0.81503080056E+02  0.11445498279E+02  0.89004098581E+02  0.00000000000E+00 0.  1.
         21    1    1    2  504  503  0.19543795283E+03 -0.22959550752E+03 -0.78372561127E+03  0.83972371900E+03  0.00000000000E+00 0. -1.
<mgrwt>
<rscale>  4 0.32440849E+03</rscale>
<asrwt>0</asrwt>
<pdfrwt beam="1">  1       21 0.86798843E-01 0.32440849E+03</pdfrwt>
<pdfrwt beam="2">  1       21 0.13798112E+00 0.32440849E+03</pdfrwt>
<totfact> 0.37733856E+02</totfact>
</mgrwt>
</event>
<event>
 5    0  0.1531977E+001  0.3724258E+03  0.7546771E-02  0.1053769E+00
         21   -1    0    0  502  501  0.00000000000E+00  0.00000000000E+00  0.40562295294E+03  0.40562295294E+03  0.00000000000E+00 0. -1.
         21   -1    0    0  504  502 -0.00000000000E+00 -0.00000000000E+00 -0.41176360309E+03  0.41176360309E+03  0.00000000000E+00 0. -1.
         25    1    1    2    0    0  0.33195776684E+03  0.84874861836E+02 -0.20412492916E+02  0.36529627839E+03  0.12500000000E+03 0.  0.
         21    1    1    2  503  501  0.11135566892E+02  0.17091449803E+02  0.84854839275E+02  0.87272345304E+02  0.00000000000E+00 0.  1.
         21    1    1    2  504  503 -0.34309333373E+03 -0.10196631164E+03 -0.70582996517E+02  0.36481793234E+03  0.00000000000E+00 0. -1.
<mgrwt>
<rscale>  4 0.37242576E+03</rscale>
<asrwt>0</asrwt>
<pdfrwt beam="1">  1       21 0.62403531E-01 0.37242576E+03</pdfrwt>
<pdfrwt beam="2">  1       21 0.63348247E-01 0.37242576E+03</pdfrwt>
<totfact> 0.49644718E+03</totfact>
</mgrwt>
</event>
<event>
 5    0  0.1531977E+001  0.2988197E+03  0.7546771E-02  0.1085832E+00
         21   -1    0    0  502  501  0.00000000000E+00  0.00000000000E+00  0.37250629074E+03  0.37250629074E+03  0.00000000000E+00 0. -1.
         21   -1    0    0  504  502 -0.00000000000E+00 -0.00000000000E+00 -0.50768740000E+03  0.50768740000E+03  0.00000000000E+00 0.  1.
         25    1    1    2    0    0  0.24902772834E+03  0.94487907163E+02  0.19470109094E+03  0.35281197386E+03  0.12500000000E+03 0.  0.
         21    1    1    2  503  501 -0.12576051551E+02  0.41378899656E+02  0.45906072749E+02  0.63069310481E+02  0.00000000000E+00 0.  1.
         21    1    1    2  504  503 -0.23645167679E+03 -0.13586680682E+03 -0.37578827295E+03  0.46431240641E+03  0.00000000000E+00 0.  1.
<mgrwt>
<rscale>  4 0.29881969E+03</rscale>
<asrwt>0</asrwt>
<pdfrwt beam="1">  1       21 0.57308660E-01 0.29881969E+03</pdfrwt>
<pdfrwt beam="2">  1       21 0.78105754E-01 0.29881969E+03</pdfrwt>
<totfact> 0.38680827E+03</totfact>
</mgrwt>
</event>
<event>
 5    0  0.1531977E+001  0.4290097E+03  0.7546771E-02  0.1034173E+00
         21   -1    0    0  502  501  0.00000000000E+00  0.00000000000E+00  0.14086377677E+04  0.14086377677E+04  0.00000000000E+00 0. -1.
         21   -1    0    0  504  502 -0.00000000000E+00 -0.00000000000E+00 -0.18184252498E+03  0.18184252498E+03  0.00000000000E+00 0. -1.
         25    1    1    2    0    0 -0.39206333663E+03  0.74345327588E+02  0.81000910384E+03  0.91158139294E+03  0.12500000000E+03 0.  0.
         21    1    1    2  503  501 -0.98168468353E+01  0.29163799657E+02  0.21545986454E+03  0.21764615990E+03  0.00000000000E+00 0.  1.
         21    1    1    2  504  503  0.40188018346E+03 -0.10350912724E+03  0.20132627438E+03  0.46125273987E+03  0.00000000000E+00 0. -1.
<mgrwt>
<rscale>  4 0.42900968E+03</rscale>
<asrwt>0</asrwt>
<pdfrwt beam="1">  1       21 0.21671350E+00 0.42900968E+03</pdfrwt>
<pdfrwt beam="2">  1       21 0.27975774E-01 0.42900968E+03</pdfrwt>
<totfact> 0.10802030E+03</totfact>
</mgrwt>
</event>
<event>
 5    0  0.1531977E+001  0.2184501E+03  0.7546771E-02  0.1135044E+00
         21   -1    0    0  503  501  0.00000000000E+00  0.00000000000E+00  0.46959098552E+02  0.46959098552E+02  0.00000000000E+00 0.  1.
         21   -1    0    0  501  502 -0.00000000000E+00 -0.00000000000E+00 -0.11764240956E+04  0.11764240956E+04  0.00000000000E+00 0.  1.
         25    1    1    2    0    0 -0.18900627066E+03 -0.71986798947E+02 -0.45175879444E+03  0.51050609979E+03  0.12500000000E+03 0.  0.
         21    1    1    2  503  504  0.37322773453E+02  0.20927008872E+02 -0.29449060432E+03  0.29758300548E+03  0.00000000000E+00 0.  1.
         21    1    1    2  504  502  0.15168349720E+03  0.51059790075E+02 -0.38321559827E+03  0.41529408886E+03  0.00000000000E+00 0.  1.
<mgrwt>
<rscale>  4 0.21845007E+03</rscale>
<asrwt>0</asrwt>
<pdfrwt beam="1">  1       21 0.72244768E-02 0.21845007E+03</pdfrwt>
<pdfrwt beam="2">  1       21 0.18098832E+00 0.21845007E+03</pdfrwt>
<totfact> 0.25218996E+04</totfact>
</mgrwt>
</event>
<event>
 5    0  0.1531977E+001  0.3267145E+03  0.7546771E-02  0.1072600E+00
         21   -1    0    0  503  501  0.00000000000E+00  0.00000000000E+00  0.50582600495E+03  0.50582600495E+03  0.00000000000E+00 0. -1.
         21   -1    0    0  504  502 -0.00000000000E+00 -0.00000000000E+00 -0.35449966714E+03  0.35449966714E+03  0.00000000000E+00 0. -1.
         25    1    1    2    0    0  0.20790389284E+03  0.20947408393E+03 -0.10761775372E+03  0.33809762113E+03  0.12500000000E+03 0.  0.
         21    1    1    2  503  502  0.32907597510E+02 -0.23575851434E+02 -0.65795565520E+02  0.77251454270E+02  0.00000000000E+00 0. -1.
         21    1    1    2  504  501 -0.24081149035E+03 -0.18589823250E+03  0.32473965706E+03  0.44497659669E+03  0.00000000000E+00 0. -1.
<mgrwt>
<rscale>  4 0.32671451E+03</rscale>
<asrwt>0</asrwt>
<pdfrwt beam="1">  1       21 0.77819385E-01 0.32671451E+03</pdfrwt>
<pdfrwt beam="2">  1       21 0.54538410E-01 0.32671451E+03</pdfrwt>
<totfact> 0.42778629E+03</totfact>
</mgrwt>
</event>
<event>
 5    0  0.1531977E+001  0.3038046E+03  0.7546771E-02  0.1083354E+00
         21   -1    0    0  502  501  0.00000000000E+00  0.00000000000E+00  0.51457800057E+03  0.51457800057E+03  0.00000000000E+00 0.  1.
         21   -1    0    0  504  502 -0.00000000000E+00 -0.00000000000E+00 -0.51736152879E+03  0.51736152879E+03  0.00000000000E+00 0. -1.
         25    1    1    2    0    0 -0.24450412156E+03 -0.12220934180E+03 -0.39835252316E+03  0.49902617305E+03  0.12500000000E+03 0.  0.
         21    1    1    2  503  501  0.28244734410E+03  0.12353655348E+03  0.38555190232E+03  0.49364769990E+03  0.00000000000E+00 0.  1.
         21    1    1    2  504  503 -0.37943222537E+02 -0.13272116831E+01  0.10017092617E+02  0.39265656392E+02  0.00000000000E+00 0.  1.
<mgrwt>
<rscale>  4 0.30380463E+03</rscale>
<asrwt>0</asrwt>
<pdfrwt beam="1">  1       21 0.79165846E-01 0.30380463E+03</pdfrwt>
<pdfrwt beam="2">  1       21 0.79594081E-01 0.30380463E+03</pdfrwt>
<totfact> 0.18055625E+03</totfact>
</mgrwt>
</event>
<event>
 5    0  0.1531977E+001  0.2613357E+03  0.7546771E-02  0.1106343E+00
         21   -1    0    0  502  501  0.00000000000E+00  0.00000000000E+00  0.17140451209E+03  0.17140451209E+03  0.00000000000E+00 0.  1.
         21   -1    0    0  504  502 -0.00000000000E+00 -0.00000000000E+00 -0.40884198130E+03  0.40884198130E+03  0.00000000000E+00 0.  1.
         25    1    1    2    0    0  0.50994350982E+01 -0.22944577560E+03 -0.60208311293E+02  0.26818167150E+03  0.12500000000E+03 0.  0.
         21    1    1    2  503  501  0.37658287632E+02  0.13229846049E+03 -0.49962811316E+02  0.14634654690E+03  0.00000000000E+00 0.  1.
         21    1    1    2  504  503 -0.42757722730E+02  0.97147315111E+02 -0.12726634660E+03  0.16571827498E+03  0.00000000000E+00 0.  1.
<mgrwt>
<rscale>  4 0.26133574E+03</rscale>
<asrwt>0</asrwt>
<pdfrwt beam="1">  1       21 0.26369925E-01 0.26133574E+03</pdfrwt>
<pdfrwt beam="2">  1       21 0.62898766E-01 0.26133574E+03</pdfrwt>
<totfact> 0.30955686E+04</totfact>
</mgrwt>
</event>
<event>
 5    0  0.1531977E+001  0.2382703E+03  0.7546771E-02  0.1120950E+00
         21   -1    0    0  504  501  0.00000000000E+00  0.00000000000E+00  0.28420728044E+02  0.28420728044E+02  0.00000000000E+00 0. -1.
         21   -1    0    0  503  502 -0.00000000000E+00 -0.00000000000E+00 -0.26591724106E+04  0.26591724106E+04  0.00000000000E+00 0. -1.
         25    1    1    2    0    0  0.21501215351E+03  0.59349051608E+02 -0.17214858351E+04  0.17403709422E+04  0.12500000000E+03 0.  0.
         21    1    1    2  503  501 -0.22760634439E+02 -0.17264889917E+02 -0.40357963140E+03  0.40458947315E+03  0.00000000000E+00 0. -1.
         21    1    1    2  504  502 -0.19225151907E+03 -0.42084161691E+02 -0.50568621603E+03  0.54263272325E+03  0.00000000000E+00 0. -1.
<mgrwt>
<rscale>  4 0.23827029E+03</rscale>
<asrwt>0</asrwt>
<pdfrwt beam="1">  1       21 0.43724200E-02 0.23827029E+03</pdfrwt>
<pdfrwt beam="2">  1       21 0.40910342E+00 0.23827029E+03</pdfrwt>
<totfact> 0.24284424E+03</totfact>
</mgrwt>
</event>
<event>
 5    0  0.1531977E+001  0.3012761E+03  0.7546771E-02  0.1084604E+00
         21   -1    0    0  502  501  0.00000000000E+00  0.00000000000E+00  0.11186410520E+03  0.11186410520E+03  0.00000000000E+00 0. -1.
         21   -1    0    0  504  502 -0.00000000000E+00 -0.00000000000E+00 -0.11855962370E+04  0.11855962370E+04  0.00000000000E+00 0.  1.
         25    1    1    2    0    0  0.21347301885E+03 -0.14088273686E+03 -0.81565367474E+03  0.86390658780E+03  0.12500000000E+03 0.  0.
         21    1    1    2  503  501 -0.23828803801E+03  0.14527314219E+03 -0.13889034463E+03  0.31173065735E+03  0.00000000000E+00 0. -1.
         21    1    1    2  504  503  0.24815019151E+02 -0.43904053282E+01 -0.11918811242E+03  0.12182309706E+03  0.00000000000E+00 0.  1.
<mgrwt>
<rscale>  4 0.30127614E+03</rscale>
<asrwt>0</asrwt>
<pdfrwt beam="1">  1       21 0.17209863E-01 0.30127614E+03</pdfrwt>
<pdfrwt beam="2">  1       21 0.18239942E+00 0.30127614E+03</pdfrwt>
<totfact> 0.49430585E+03</totfact>
</mgrwt>
</event>
<event>
 5    0  0.1531977E+001  0.2587988E+03  0.7546771E-02  0.1107867E+00
         21   -1    0    0  503  501  0.00000000000E+00  0.00000000000E+00  0.58122652022E+02  0.58122652022E+02  0.00000000000E+00 0. -1.
         21   -1    0    0  504  502 -0.00000000000E+00 -0.00000000000E+00 -0.14824362386E+04  0.14824362386E+04  0.00000000000E+00 0. -1.
         25    1    1    2    0    0  0.66189201465E+02 -0.21334405719E+03 -0.50638011228E+03  0.56739978432E+03  0.12500000000E+03 0.  0.
         21    1    1    2  503  502 -0.33167936942E+02 -0.15230069431E+02 -0.44858998195E+03  0.45007225971E+03  0.00000000000E+00 0.  1.
         21    1    1    2  504  501 -0.33021264523E+02  0.22857412662E+03 -0.46934349237E+03  0.52308684661E+03  0.00000000000E+00 0. -1.
<mgrwt>
<rscale>  4 0.25879882E+03</rscale>
<asrwt>0</asrwt>
<pdfrwt beam="1">  1       21 0.89419472E-02 0.25879882E+03</pdfrwt>
<pdfrwt beam="2">  1       21 0.22806710E+00 0.25879882E+03</pdfrwt>
<totfact> 0.84132232E+03</totfact>
</mgrwt>
</event>
<event>
 5    0  0.1531977E+001  0.2401005E+03  0.7546771E-02  0.1119726E+00
         21   -1    0    0  502  501  0.00000000000E+00  0.00000000000E+00  0.11161845799E+04  0.11161845799E+04  0.00000000000E+00 0.  1.
         21   -1    0    0  504  502 -0.00000000000E+00 -0.00000000000E+00 -0.90099343491E+02  0.90099343491E+02  0.00000000000E+00 0.  1.
         25    1    1    2    0    0  0.46916776070E+02 -0.24690221325E+03  0.42386741593E+03  0.50838024457E+03  0.12500000000E+03 0.  0.
         21    1    1    2  503  501 -0.51272997481E+02  0.60005207596E+02  0.44986997159E+03  0.45674121398E+03  0.00000000000E+00 0.  1.
         21    1    1    2  504  503  0.43562214110E+01  0.18689700565E+03  0.15234784890E+03  0.24116246485E+03  0.00000000000E+00 0.  1.
<mgrwt>
<rscale>  4 0.24010047E+03</rscale>
<asrwt>0</asrwt>
<pdfrwt beam="1">  1       21 0.17172069E+00 0.24010047E+03</pdfrwt>
<pdfrwt beam="2">  1       21 0.13861438E-01 0.24010047E+03</pdfrwt>
<totfact> 0.90717430E+03</totfact>
</mgrwt>
</event>
<event>
 5    0  0.1531977E+001  0.2520605E+03  0.7546771E-02  0.1112009E+00
         21   -1    0    0  502  501  0.00000000000E+00  0.00000000000E+00  0.13080293215E+04  0.13080293215E+04  0.00000000000E+00 0.  1.
         21   -1    0    0  504  502 -0.00000000000E+00 -0.00000000000E+00 -0.14459701649E+03  0.14459701649E+03  0.00000000000E+00 0.  1.
         25    1    1    2    0    0  0.22680824142E+03 -0.42508932671E+02  0.46639179243E+02  0.26655055951E+03  0.12500000000E+03 0.  0.
         21    1    1    2  503  501 -0.52016165089E+02 -0.62008762168E+02  0.83216073477E+03  0.83608746941E+03  0.00000000000E+00 0.  1.
         21    1    1    2  504  503 -0.17479207633E+03  0.10451769484E+03  0.28463239095E+03  0.34998830903E+03  0.00000000000E+00 0.  1.
<mgrwt>
<rscale>  4 0.25206053E+03</rscale>
<asrwt>0</asrwt>
<pdfrwt beam="1">  1       21 0.20123527E+00 0.25206053E+03</pdfrwt>
<pdfrwt beam="2">  1       21 0.22245696E-01 0.25206053E+03</pdfrwt>
<totfact> 0.23616974E+03</totfact>
</mgrwt>
</event>
<event>
 5    0  0.1531977E+001  0.3213082E+03  0.7546771E-02  0.1075049E+00
         21   -1    0    0  503  501  0.00000000000E+00  0.00000000000E+00  0.36731976822E+03  0.36731976822E+03  0.00000000000E+00 0.  1.
         21   -1    0    0  504  502 -0.00000000000E+00 -0.00000000000E+00 -0.70580704654E+03  0.70580704654E+03  0.00000000000E+00 0.  1.
         25    1    1    2    0    0  0.11117359619E+03  0.29370683884E+03  0.23127203702E+03  0.40955467373E+03  0.12500000000E+03 0.  0.
         21    1    1    2  503  502 -0.10781937908E+03 -0.27351149415E+03 -0.57184597762E+03  0.64299407311E+03  0.00000000000E+00 0.  1.
         21    1    1    2  504  501 -0.33542171098E+01 -0.20195344687E+02  0.20866622852E+01  0.20578067911E+02  0.00000000000E+00 0.  1.
<mgrwt>
<rscale>  4 0.32130824E+03</rscale>
<asrwt>0</asrwt>
<pdfrwt beam="1">  1       21 0.56510735E-01 0.32130824E+03</pdfrwt>
<pdfrwt beam="2">  1       21 0.10858570E+00 0.32130824E+03</pdfrwt>
<totfact> 0.18090895E+03</totfact>
</mgrwt>
</event>
<event>
 5    0  0.1531977E+001  0.2474684E+03  0.7546771E-02  0.1114915E+00
         21   -1    0    0  503  501  0.00000000000E+00  0.00000000000E+00  0.50664115179E+03  0.50664115179E+03  0.00000000000E+00 0.  1.
         21   -1    0    0  504  502 -0.00000000000E+00 -0.00000000000E+00 -0.14182533416E+03  0.14182533416E+03  0.00000000000E+00 0.  1.
         25    1    1    2    0    0  0.73609234822E+01 -0.21267712113E+03  0.24127292593E+03  0.34514252973E+03  0.12500000000E+03 0.  0.
         21    1    1    2  503  502 -0.29402124649E+02 -0.16496919450E+01 -0.27424314126E+02  0.40240519662E+02  0.00000000000E+00 0.  1.
         21    1    1    2  504  501  0.22041201167E+02  0.21432681307E+03  0.15096720583E+03  0.26308343655E+03  0.00000000000E+00 0.  1.
<mgrwt>
<rscale>  4 0.24746837E+03</rscale>
<asrwt>0</asrwt>
<pdfrwt beam="1">  1       21 0.77944792E-01 0.24746837E+03</pdfrwt>
<pdfrwt beam="2">  1       21 0.21819282E-01 0.24746837E+03</pdfrwt>
<totfact> 0.27791420E+04</totfact>
</mgrwt>
</event>
<event>
 5    0  0.1691332E+001  0.2838556E+03  0.7546771E-02  0.1093602E+00
         21   -1    0    0  504  501  0.00000000000E+00  0.00000000000E+00  0.58512872504E+03  0.58512872504E+03  0.00000000000E+00 0.  1.
         21   -1    0    0  503  502 -0.00000000000E+00 -0.00000000000E+00 -0.71515160444E+03  0.71515160444E+03  0.00000000000E+00 0. -1.
         25    1    1    2    0    0  0.16165882841E+03  0.17572636024E+03 -0.63803958273E+03  0.69262748979E+03  0.12500000000E+03 0.  0.
         21    1    1    2  503  501 -0.88155992226E+00  0.22958072333E+02 -0.13660581504E+02  0.26729416757E+02  0.00000000000E+00 0.  1.
         21    1    1    2  504  502 -0.16077726848E+03 -0.19868443258E+03  0.52167728483E+03  0.58092342294E+03  0.00000000000E+00 0.  1.
<mgrwt>
<rscale>  4 0.28385561E+03</rscale>
<asrwt>0</asrwt>
<pdfrwt beam="1">  1       21 0.90019804E-01 0.28385561E+03</pdfrwt>
<pdfrwt beam="2">  1       21 0.11002332E+00 0.28385561E+03</pdfrwt>
<totfact> 0.63187557E+02</totfact>
</mgrwt>
</event>
<event>
 5    0  0.1531977E+001  0.5241656E+03  0.7546771E-02  0.1007657E+00
         21   -1    0    0  502  501  0.00000000000E+00  0.00000000000E+00  0.24282239006E+03  0.24282239006E+03  0.00000000000E+00 0. -1.
         21   -1    0    0  504  502 -0.00000000000E+00 -0.00000000000E+00 -0.22173162770E+04  0.22173162770E+04  0.00000000000E+00 0. -1.
         25    1    1    2    0    0  0.20831722992E+03 -0.65408040768E+03 -0.86117302352E+03  0.11083596999E+04  0.12500000000E+03 0.  0.
         21    1    1    2  503  501 -0.93999573509E+02  0.41454610129E+03 -0.37371809804E+03  0.56599435220E+03  0.00000000000E+00 0. -1.
         21    1    1    2  504  503 -0.11431765641E+03  0.23953430639E+03 -0.73960276543E+03  0.78578461498E+03  0.00000000000E+00 0. -1.
<mgrwt>
<rscale>  4 0.52416560E+03</rscale>
<asrwt>0</asrwt>
<pdfrwt beam="1">  1       21 0.37357293E-01 0.52416560E+03</pdfrwt>
<pdfrwt beam="2">  1       21 0.34112556E+00 0.52416560E+03</pdfrwt>
<totfact> 0.99443399E+01</totfact>
</mgrwt>
</event>
<event>
 5    0  0.1531977E+001  0.2482769E+03  0.7546771E-02  0.1114399E+00
         21   -1    0    0  504  501  0.00000000000E+00  0.00000000000E+00  0.37624045974E+02  0.37624045974E+02  0.00000000000E+00 0.  1.
         21   -1    0    0  503  502 -0.00000000000E+00 -0.00000000000E+00 -0.23167592443E+04  0.23167592443E+04  0.00000000000E+00 0.  1.
         25    1    1    2    0    0 -0.16052074598E+03  0.19578452465E+03 -0.14241128098E+04  0.14518335941E+04  0.12500000000E+03 0.  0.
         21    1    1    2  503  501  0.98907529478E+02 -0.15575517490E+03 -0.76194895592E+03  0.78396976047E+03  0.00000000000E+00 0.  1.
         21    1    1    2  504  502  0.61613216498E+02 -0.40029349746E+02 -0.93073432553E+02  0.11857993564E+03  0.00000000000E+00 0.  1.
<mgrwt>
<rscale>  4 0.24827692E+03</rscale>
<asrwt>0</asrwt>
<pdfrwt beam="1">  1       21 0.57883146E-02 0.24827692E+03</pdfrwt>
<pdfrwt beam="2">  1       21 0.35642451E+00 0.24827692E+03</pdfrwt>
<totfact> 0.31459770E+03</totfact>
</mgrwt>
</event>
<event>
 5    0  0.1531977E+001  0.3278336E+03  0.7546771E-02  0.1072099E+00
         21   -1    0    0  503  501  0.00000000000E+00  0.00000000000E+00  0.93012592268E+02  0.93012592268E+02  0.00000000000E+00 0.  1.
         21   -1    0    0  504  502 -0.00000000000E+00 -0.00000000000E+00 -0.13803173496E+04  0.13803173496E+04  0.00000000000E+00 0.  1.
         25    1    1    2    0    0  0.83292771131E+02  0.30210349276E+03 -0.42643745773E+03  0.54376291839E+03  0.12500000000E+03 0.  0.
         21    1    1    2  503  502 -0.20075816975E+01 -0.23843100851E+02 -0.27363669978E+03  0.27468084627E+03  0.00000000000E+00 0.  1.
         21    1    1    2  504  501 -0.81285189434E+02 -0.27826039191E+03 -0.58723059986E+03  0.65488617724E+03  0.00000000000E+00 0.  1.
<mgrwt>
<rscale>  4 0.32783365E+03</rscale>
<asrwt>0</asrwt>
<pdfrwt beam="1">  1       21 0.14309632E-01 0.32783365E+03</pdfrwt>
<pdfrwt beam="2">  1       21 0.21235649E+00 0.32783365E+03</pdfrwt>
<totfact> 0.43372612E+03</totfact>
</mgrwt>
</event>
<event>
 5    0  0.1531977E+001  0.2429780E+03  0.7546771E-02  0.1117825E+00
         21   -1    0    0  503  501  0.00000000000E+00  0.00000000000E+00  0.15778584280E+03  0.15778584280E+03  0.00000000000E+00 0.  1.
         21   -1    0    0  504  502 -0.00000000000E+00 -0.00000000000E+00 -0.10180456709E+04  0.10180456709E+04  0.00000000000E+00 0.  1.
         25    1    1    2    0    0 -0.21913721838E+03  0.28534767804E+02 -0.12988065407E+03  0.28518298994E+03  0.12500000000E+03 0.  0.
         21    1    1    2  503  502  0.15488877842E+03  0.20579499348E+03 -0.45946457775E+03  0.52673504841E+03  0.00000000000E+00 0.  1.
         21    1    1    2  504  501  0.64248439953E+02 -0.23432976128E+03 -0.27091459631E+03  0.36391347537E+03  0.00000000000E+00 0.  1.
<mgrwt>
<rscale>  4 0.24297798E+03</rscale>
<asrwt>0</asrwt>
<pdfrwt beam="1">  1       21 0.24274746E-01 0.24297798E+03</pdfrwt>
<pdfrwt beam="2">  1       21 0.15662241E+00 0.24297798E+03</pdfrwt>
<totfact> 0.41020877E+03</totfact>
</mgrwt>
</event>
<event>
 5    0  0.1531977E+001  0.2430647E+03  0.7546771E-02  0.1117768E+00
         21   -1    0    0  502  501  0.00000000000E+00  0.00000000000E+00  0.74384890781E+02  0.74384890781E+02  0.00000000000E+00 0. -1.
         21   -1    0    0  504  502 -0.00000000000E+00 -0.00000000000E+00 -0.16989702970E+04  0.16989702970E+04  0.00000000000E+00 0. -1.
         25    1    1    2    0    0 -0.35868339713E+02  0.21806590151E+03 -0.99955041670E+03  0.10312930285E+04  0.12500000000E+03 0.  0.
         21    1    1    2  503  501 -0.14603019625E+03 -0.81586503437E+02 -0.20663050207E+03  0.26585210202E+03  0.00000000000E+00 0. -1.
         21    1    1    2  504  503  0.18189853597E+03 -0.13647939807E+03 -0.41840448748E+03  0.47621005725E+03  0.00000000000E+00 0. -1.
<mgrwt>
<rscale>  4 0.24306473E+03</rscale>
<asrwt>0</asrwt>
<pdfrwt beam="1">  1       21 0.11443830E-01 0.24306473E+03</pdfrwt>
<pdfrwt beam="2">  1       21 0.26138003E+00 0.24306473E+03</pdfrwt>
<totfact> 0.34645820E+03</totfact>
</mgrwt>
</event>
<event>
 5    0  0.1531977E+001  0.2586704E+03  0.7546771E-02  0.1107945E+00
         21   -1    0    0  504  501  0.00000000000E+00  0.00000000000E+00  0.43087736517E+03  0.43087736517E+03  0.00000000000E+00 0.  1.
         21   -1    0    0  503  502 -0.00000000000E+00 -0.00000000000E+00 -0.48981623298E+03  0.48981623298E+03  0.00000000000E+00 0.  1.
         25    1    1    2    0    0  0.75054383676E+02  0.22581043440E+03 -0.38437305264E+03  0.46903214856E+03  0.12500000000E+03 0.  0.
         21    1    1    2  503  501 -0.10359734816E+03 -0.15837241888E+03  0.98788952900E+02  0.21347948572E+03  0.00000000000E+00 0.  1.
         21    1    1    2  504  502  0.28542964489E+02 -0.67438015517E+02  0.22664523192E+03  0.23818196387E+03  0.00000000000E+00 0.  1.
<mgrwt>
<rscale>  4 0.25867039E+03</rscale>
<asrwt>0</asrwt>
<pdfrwt beam="1">  1       21 0.66288825E-01 0.25867039E+03</pdfrwt>
<pdfrwt beam="2">  1       21 0.75356344E-01 0.25867039E+03</pdfrwt>
<totfact> 0.31278924E+03</totfact>
</mgrwt>
</event>
<event>
 5    0  0.1531977E+001  0.2879893E+03  0.7546771E-02  0.1091404E+00
         21   -1    0    0  503  501  0.00000000000E+00  0.00000000000E+00  0.75778397654E+02  0.75778397654E+02  0.00000000000E+00 0. -1.
         21   -1    0    0  504  502 -0.00000000000E+00 -0.00000000000E+00 -0.19480274302E+04  0.19480274302E+04  0.00000000000E+00 0. -1.
         25    1    1    2    0    0 -0.28558168966E+03 -0.11523164458E+03 -0.87916324575E+03  0.93988735818E+03  0.12500000000E+03 0.  0.
         21    1    1    2  503  502  0.55594569756E+02  0.40550421739E+02 -0.70258835070E+03  0.70595005732E+03  0.00000000000E+00 0. -1.
         21    1    1    2  504  501  0.22998711991E+03  0.74681222838E+02 -0.29049743613E+03  0.37796841239E+03  0.00000000000E+00 0. -1.
<mgrwt>
<rscale>  4 0.28798932E+03</rscale>
<asrwt>0</asrwt>
<pdfrwt beam="1">  1       21 0.11658217E-01 0.28798932E+03</pdfrwt>
<pdfrwt beam="2">  1       21 0.29969648E+00 0.28798932E+03</pdfrwt>
<totfact> 0.19192556E+03</totfact>
</mgrwt>
</event>
<event>
 5    0  0.1531977E+001  0.2976501E+03  0.7546771E-02  0.1086421E+00
         21   -1    0    0  504  501  0.00000000000E+00  0.00000000000E+00  0.45012998720E+03  0.45012998720E+03  0.00000000000E+00 0.  1.
         21   -1    0    0  503  502 -0.00000000000E+00 -0.00000000000E+00 -0.22451119335E+03  0.22451119335E+03  0.00000000000E+00 0.  1.
         25    1    1    2    0    0 -0.24536861844E+03 -0.21387494871E+02  0.31349686424E+01  0.27622094758E+03  0.12500000000E+03 0.  0.
         21    1    1    2  503  501 -0.32862772293E+02 -0.30930571891E+02  0.15496954723E+02  0.47716010793E+02  0.00000000000E+00 0. -1.
         21    1    1    2  504  502  0.27823139073E+03  0.52318066762E+02  0.20698687049E+03  0.35070422218E+03  0.00000000000E+00 0.  1.
<mgrwt>
<rscale>  4 0.29765012E+03</rscale>
<asrwt>0</asrwt>
<pdfrwt beam="1">  1       21 0.69250767E-01 0.29765012E+03</pdfrwt>
<pdfrwt beam="2">  1       21 0.34540184E-01 0.29765012E+03</pdfrwt>
<totfact> 0.14498619E+04</totfact>
</mgrwt>
</event>
<event>
 5    0  0.1531977E+001  0.3312730E+03  0.7546771E-02  0.1070575E+00
         21   -1    0    0  504  501  0.00000000000E+00  0.00000000000E+00  0.33544466970E+03  0.33544466970E+03  0.00000000000E+00 0.  1.
         21   -1    0    0  503  502 -0.00000000000E+00 -0.00000000000E+00 -0.42399285547E+03  0.42399285547E+03  0.00000000000E+00 0.  1.
         25    1    1    2    0    0 -0.22923122746E+03  0.21946363668E+03 -0.93027410785E+02  0.35353973274E+03  0.12500000000E+03 0.  0.
         21    1    1    2  503  501  0.21962769414E+03 -0.20112943213E+03 -0.88471085763E+02  0.31067105678E+03  0.00000000000E+00 0.  1.
         21    1    1    2  504  502  0.96035333233E+01 -0.18334204545E+02  0.92950310784E+02  0.95226735655E+02  0.00000000000E+00 0. -1.
<mgrwt>
<rscale>  4 0.33127301E+03</rscale>
<asrwt>0</asrwt>
<pdfrwt beam="1">  1       21 0.51606872E-01 0.33127301E+03</pdfrwt>
<pdfrwt beam="2">  1       21 0.65229670E-01 0.33127301E+03</pdfrwt>
<totfact> 0.71345334E+03</totfact>
</mgrwt>
</event>
<event>
 5    0  0.1531977E+001  0.2572352E+03  0.7546771E-02  0.1108816E+00
         21   -1    0    0  503  501  0.00000000000E+00  0.00000000000E+00  0.24717812447E+03  0.24717812447E+03  0.00000000000E+00 0. -1.
         21   -1    0    0  501  502 -0.00000000000E+00 -0.00000000000E+00 -0.29436281112E+03  0.29436281112E+03  0.00000000000E+00 0. -1.
         25    1    1    2    0    0 -0.11787468432E+03  0.19144322358E+03 -0.13730424858E+03  0.29158601773E+03  0.12500000000E+03 0.  0.
         21    1    1    2  503  504  0.17173240048E+02 -0.56697193382E+02  0.26235984995E+00  0.59241545758E+02  0.00000000000E+00 0. -1.
         21    1    1    2  504  502  0.10070144427E+03 -0.13474603020E+03  0.89857202073E+02  0.19071337210E+03  0.00000000000E+00 0. -1.
<mgrwt>
<rscale>  4 0.25723520E+03</rscale>
<asrwt>0</asrwt>
<pdfrwt beam="1">  1       21 0.38027404E-01 0.25723520E+03</pdfrwt>
<pdfrwt beam="2">  1       21 0.45286586E-01 0.25723520E+03</pdfrwt>
<totfact> 0.30217840E+04</totfact>
</mgrwt>
</event>
<event>
 5    0  0.1531977E+001  0.2545294E+03  0.7546771E-02  0.1110475E+00
         21   -1    0    0  503  501  0.00000000000E+00  0.00000000000E+00  0.55173438443E+02  0.55173438443E+02  0.00000000000E+00 0. -1.
         21   -1    0    0  504  502 -0.00000000000E+00 -0.00000000000E+00 -0.15527922721E+04  0.15527922721E+04  0.00000000000E+00 0. -1.
         25    1    1    2    0    0  0.17157353371E+03 -0.15576134891E+03 -0.89284042121E+03  0.93085342188E+03  0.12500000000E+03 0.  0.
         21    1    1    2  503  502 -0.12920326165E+03  0.17030877095E+03 -0.59363007244E+03  0.63094787677E+03  0.00000000000E+00 0. -1.
         21    1    1    2  504  501 -0.42370272051E+02 -0.14547422048E+02 -0.11148340018E+02  0.46164411911E+02  0.00000000000E+00 0. -1.
<mgrwt>
<rscale>  4 0.25452942E+03</rscale>
<asrwt>0</asrwt>
<pdfrwt beam="1">  1       21 0.84882212E-02 0.25452942E+03</pdfrwt>
<pdfrwt beam="2">  1       21 0.23889112E+00 0.25452942E+03</pdfrwt>
<totfact> 0.79459098E+03</totfact>
</mgrwt>
</event>
<event>
 5    0  0.1531977E+001  0.3751163E+03  0.7546771E-02  0.1052754E+00
         21   -1    0    0  504  501  0.00000000000E+00  0.00000000000E+00  0.24788907084E+03  0.24788907084E+03  0.00000000000E+00 0. -1.
         21   -1    0    0  503  502 -0.00000000000E+00 -0.00000000000E+00 -0.73191644678E+03  0.73191644678E+03  0.00000000000E+00 0. -1.
         25    1    1    2    0    0 -0.25106692580E+03  0.26472760214E+03 -0.45463983172E+03  0.59618594511E+03  0.12500000000E+03 0.  0.
         21    1    1    2  503  501  0.23181645046E+02  0.93769328978E+00 -0.24260020383E+02  0.33568087892E+02  0.00000000000E+00 0.  1.
         21    1    1    2  504  502  0.22788528075E+03 -0.26566529543E+03 -0.51275238401E+01  0.35005148462E+03  0.00000000000E+00 0. -1.
<mgrwt>
<rscale>  4 0.37511632E+03</rscale>
<asrwt>0</asrwt>
<pdfrwt beam="1">  1       21 0.38136781E-01 0.37511632E+03</pdfrwt>
<pdfrwt beam="2">  1       21 0.11260253E+00 0.37511632E+03</pdfrwt>
<totfact> 0.36698601E+03</totfact>
</mgrwt>
</event>
<event>
 5    0  0.1531977E+001  0.2329611E+03  0.7546771E-02  0.1124573E+00
         21   -1    0    0  502  501  0.00000000000E+00  0.00000000000E+00  0.85324791399E+03  0.85324791399E+03  0.00000000000E+00 0.  1.
         21   -1    0    0  504  502 -0.00000000000E+00 -0.00000000000E+00 -0.52088103265E+03  0.52088103265E+03  0.00000000000E+00 0. -1.
         25    1    1    2    0    0 -0.93873927182E+02 -0.29033709060E+03  0.48940264012E+03  0.59012531258E+03  0.12500000000E+03 0.  0.
         21    1    1    2  503  501  0.12081985728E+03  0.98704211830E+02  0.27187465681E+03  0.31345779359E+03  0.00000000000E+00 0.  1.
         21    1    1    2  504  503 -0.26945930098E+02  0.19163287878E+03 -0.42891041560E+03  0.47054584047E+03  0.00000000000E+00 0. -1.
<mgrwt>
<rscale>  4 0.23296107E+03</rscale>
<asrwt>0</asrwt>
<pdfrwt beam="1">  1       21 0.13126891E+00 0.23296107E+03</pdfrwt>
<pdfrwt beam="2">  1       21 0.80135543E-01 0.23296107E+03</pdfrwt>
<totfact> 0.55439982E+02</totfact>
</mgrwt>
</event>
<event>
 5    0  0.1531977E+001  0.4780887E+03  0.7546771E-02  0.1019662E+00
         21   -1    0    0  504  501  0.00000000000E+00  0.00000000000E+00  0.21346612261E+03  0.21346612261E+03  0.00000000000E+00 0. -1.
         21   -1    0    0  503  502 -0.00000000000E+00 -0.00000000000E+00 -0.23462576129E+04  0.23462576129E+04  0.00000000000E+00 0.  1.
         25    1    1    2    0    0 -0.23544180290E+03  0.27116646966E+03 -0.10816899231E+04  0.11465784694E+04  0.12500000000E+03 0.  0.
         21    1    1    2  503  501 -0.17901618504E+03  0.48980855540E+01 -0.86209717744E+03  0.88050118064E+03  0.00000000000E+00 0. -1.
         21    1    1    2  504  502  0.41445798794E+03 -0.27606455522E+03 -0.18900438973E+03  0.53264408544E+03  0.00000000000E+00 0. -1.
<mgrwt>
<rscale>  4 0.47808866E+03</rscale>
<asrwt>0</asrwt>
<pdfrwt beam="1">  1       21 0.32840945E-01 0.47808866E+03</pdfrwt>
<pdfrwt beam="2">  1       21 0.36096268E+00 0.47808866E+03</pdfrwt>
<totfact> 0.10017262E+02</totfact>
</mgrwt>
</event>
<event>
 5    0  0.1531977E+001  0.2330429E+03  0.7546771E-02  0.1124516E+00
         21   -1    0    0  502  501  0.00000000000E+00  0.00000000000E+00  0.17898176045E+03  0.17898176045E+03  0.00000000000E+00 0. -1.
         21   -1    0    0  504  502 -0.00000000000E+00 -0.00000000000E+00 -0.13508771228E+04  0.13508771228E+04  0.00000000000E+00 0.  1.
         25    1    1    2    0    0  0.23279243236E+03 -0.38523077386E+02 -0.10748951977E+04  0.11075653615E+04  0.12500000000E+03 0.  0.
         21    1    1    2  503  501 -0.19221475901E+03  0.30122970893E+02  0.10154797647E+03  0.21946730618E+03  0.00000000000E+00 0. -1.
         21    1    1    2  504  503 -0.40577673356E+02  0.84001064933E+01 -0.19854814116E+03  0.20282621556E+03  0.00000000000E+00 0.  1.
<mgrwt>
<rscale>  4 0.23304290E+03</rscale>
<asrwt>0</asrwt>
<pdfrwt beam="1">  1       21 0.27535656E-01 0.23304290E+03</pdfrwt>
<pdfrwt beam="2">  1       21 0.20782725E+00 0.23304290E+03</pdfrwt>
<totfact> 0.14461353E+03</totfact>
</mgrwt>
</event>
<event>
 5    0  0.1531977E+001  0.2543711E+03  0.7546771E-02  0.1110573E+00
         21   -1    0    0  504  501  0.00000000000E+00  0.00000000000E+00  0.76161172694E+03  0.76161172694E+03  0.00000000000E+00 0. -1.
         21   -1    0    0  503  502 -0.00000000000E+00 -0.00000000000E+00 -0.11402325758E+03  0.11402325758E+03  0.00000000000E+00 0. -1.
         25    1    1    2    0    0  0.15736602487E+03 -0.18981313091E+03  0.19492223216E+03  0.33824956325E+03  0.12500000000E+03 0.  0.
         21    1    1    2  503  501 -0.10885449132E+03  0.16622028962E+03  0.21122182544E+03  0.28998817994E+03  0.00000000000E+00 0. -1.
         21    1    1    2  504  502 -0.48511533544E+02  0.23592841290E+02  0.24144441176E+03  0.24739724133E+03  0.00000000000E+00 0. -1.
<mgrwt>
<rscale>  4 0.25437115E+03</rscale>
<asrwt>0</asrwt>
<pdfrwt beam="1">  1       21 0.11717103E+00 0.25437115E+03</pdfrwt>
<pdfrwt beam="2">  1       21 0.17542040E-01 0.25437115E+03</pdfrwt>
<totfact> 0.15896513E+04</totfact>
</mgrwt>
</event>
<event>
 5    0  0.1531977E+001  0.2896801E+03  0.7546771E-02  0.1090516E+00
         21   -1    0    0  503  501  0.00000000000E+00  0.00000000000E+00  0.47125105529E+03  0.47125105529E+03  0.00000000000E+00 0.  1.
         21   -1    0    0  504  502 -0.00000000000E+00 -0.00000000000E+00 -0.34767589327E+03  0.34767589327E+03  0.00000000000E+00 0. -1.
         25    1    1    2    0    0  0.20590938656E+03  0.19232384014E+03  0.17599976911E+03  0.35494795913E+03  0.12500000000E+03 0.  0.
         21    1    1    2  503  502 -0.18032233311E+03 -0.18233078917E+03 -0.19286967024E+03  0.32087282558E+03  0.00000000000E+00 0. -1.
         21    1    1    2  504  501 -0.25587053449E+02 -0.99930509725E+01  0.14044506315E+03  0.14310616386E+03  0.00000000000E+00 0.  1.
<mgrwt>
<rscale>  4 0.28968007E+03</rscale>
<asrwt>0</asrwt>
<pdfrwt beam="1">  1       21 0.72500162E-01 0.28968007E+03</pdfrwt>
<pdfrwt beam="2">  1       21 0.53488599E-01 0.28968007E+03</pdfrwt>
<totfact> 0.53303700E+03</totfact>
</mgrwt>
</event>
<event>
 5    0  0.1531977E+001  0.2108162E+03  0.7546771E-02  0.1140921E+00
         21   -1    0    0  502  501  0.00000000000E+00  0.00000000000E+00  0.29742828722E+03  0.29742828722E+03  0.00000000000E+00 0.  1.
         21   -1    0    0  504  502 -0.00000000000E+00 -0.00000000000E+00 -0.63470114420E+03  0.63470114420E+03  0.00000000000E+00 0. -1.
         25    1    1    2    0    0 -0.51731305630E+02  0.22435598094E+03  0.43400823656E+02  0.26555670893E+03  0.12500000000E+03 0.  0.
         21    1    1    2  503  501  0.33870675132E+02 -0.14437759874E+03  0.10006480928E+03  0.17889963585E+03  0.00000000000E+00 0.  1.
         21    1    1    2  504  503  0.17860630498E+02 -0.79978382197E+02 -0.48073848992E+03  0.48767308663E+03  0.00000000000E+00 0. -1.
<mgrwt>
<rscale>  4 0.21081622E+03</rscale>
<asrwt>0</asrwt>
<pdfrwt beam="1">  1       21 0.45758198E-01 0.21081622E+03</pdfrwt>
<pdfrwt beam="2">  1       21 0.97646330E-01 0.21081622E+03</pdfrwt>
<totfact> 0.39185441E+03</totfact>
</mgrwt>
</event>
<event>
 5    0  0.1531977E+001  0.1960865E+03  0.7546771E-02  0.1153083E+00
         21   -1    0    0  502  501  0.00000000000E+00  0.00000000000E+00  0.29801533246E+03  0.29801533246E+03  0.00000000000E+00 0.  1.
         21   -1    0    0  504  502 -0.00000000000E+00 -0.00000000000E+00 -0.28961597139E+03  0.28961597139E+03  0.00000000000E+00 0.  1.
         25    1    1    2    0    0 -0.11224588384E+03  0.17823801262E+03 -0.15918929340E+03  0.29212011009E+03  0.12500000000E+03 0.  0.
         21    1    1    2  503  501  0.64492087051E+02 -0.12912101257E+03  0.17473371318E+03  0.22663480690E+03  0.00000000000E+00 0.  1.
         21    1    1    2  504  503  0.47753796791E+02 -0.49117000053E+02 -0.71450587040E+01  0.68876386854E+02  0.00000000000E+00 0.  1.
<mgrwt>
<rscale>  4 0.19608649E+03</rscale>
<asrwt>0</asrwt>
<pdfrwt beam="1">  1       21 0.45848513E-01 0.19608649E+03</pdfrwt>
<pdfrwt beam="2">  1       21 0.44556303E-01 0.19608649E+03</pdfrwt>
<totfact> 0.22008477E+04</totfact>
</mgrwt>
</event>
<event>
 5    0  0.1531977E+001  0.2826186E+03  0.7546771E-02  0.1094267E+00
         21   -1    0    0  502  501  0.00000000000E+00  0.00000000000E+00  0.26865285742E+03  0.26865285742E+03  0.00000000000E+00 0. -1.
         21   -1    0    0  504  502 -0.00000000000E+00 -0.00000000000E+00 -0.31782168101E+03  0.31782168101E+03  0.00000000000E+00 0. -1.
         25    1    1    2    0    0  0.13941795656E+03  0.21587248942E+03  0.48447984653E+02  0.28984565810E+03  0.12500000000E+03 0.  0.
         21    1    1    2  503  501 -0.11291988824E+03 -0.22239689194E+03 -0.73020974073E+02  0.25989101823E+03  0.00000000000E+00 0. -1.
         21    1    1    2  504  503 -0.26498068321E+02  0.65244025116E+01 -0.24595834175E+02  0.36737862100E+02  0.00000000000E+00 0.  1.
<mgrwt>
<rscale>  4 0.28261856E+03</rscale>
<asrwt>0</asrwt>
<pdfrwt beam="1">  1       21 0.41331209E-01 0.28261856E+03</pdfrwt>
<pdfrwt beam="2">  1       21 0.48895643E-01 0.28261856E+03</pdfrwt>
<totfact> 0.21508009E+04</totfact>
</mgrwt>
</event>
<event>
 5    0  0.1531977E+001  0.2712207E+03  0.7546771E-02  0.1100583E+00
         21   -1    0    0  503  501  0.00000000000E+00  0.00000000000E+00  0.35967229674E+03  0.35967229674E+03  0.00000000000E+00 0. -1.
         21   -1    0    0  504  502 -0.00000000000E+00 -0.00000000000E+00 -0.58193688631E+03  0.58193688631E+03  0.00000000000E+00 0.  1.
         25    1    1    2    0    0  0.12756493963E+03 -0.23335021539E+03  0.19714020288E+03  0.35385646304E+03  0.12500000000E+03 0.  0.
         21    1    1    2  503  502 -0.92272641609E+02  0.21961629747E+03 -0.46859820830E+03  0.52567084694E+03  0.00000000000E+00 0.  1.
         21    1    1    2  504  501 -0.35292298023E+02  0.13733917928E+02  0.49193415850E+02  0.62081873074E+02  0.00000000000E+00 0. -1.
<mgrwt>
<rscale>  4 0.27122074E+03</rscale>
<asrwt>0</asrwt>
<pdfrwt beam="1">  1       21 0.55334199E-01 0.27122074E+03</pdfrwt>
<pdfrwt beam="2">  1       21 0.89528752E-01 0.27122074E+03</pdfrwt>
<totfact> 0.30926998E+03</totfact>
</mgrwt>
</event>
<event>
 5    0  0.1531977E+001  0.2884120E+03  0.7546771E-02  0.1091181E+00
         21   -1    0    0  504  501  0.00000000000E+00  0.00000000000E+00  0.17163335249E+03  0.17163335249E+03  0.00000000000E+00 0. -1.
         21   -1    0    0  503  502 -0.00000000000E+00 -0.00000000000E+00 -0.71823262079E+03  0.71823262079E+03  0.00000000000E+00 0.  1.
         25    1    1    2    0    0 -0.43592140973E+02 -0.24529925884E+03 -0.19117076299E+02  0.27939660654E+03  0.12500000000E+03 0.  0.
         21    1    1    2  503  501  0.62068916041E+02  0.25512332595E+03 -0.52784193075E+03  0.58954013064E+03  0.00000000000E+00 0.  1.
         21    1    1    2  504  502 -0.18476775068E+02 -0.98240671080E+01  0.35973875373E+00  0.20929236093E+02  0.00000000000E+00 0. -1.
<mgrwt>
<rscale>  4 0.28841199E+03</rscale>
<asrwt>0</asrwt>
<pdfrwt beam="1">  1       21 0.26405131E-01 0.28841199E+03</pdfrwt>
<pdfrwt beam="2">  1       21 0.11049733E+00 0.28841199E+03</pdfrwt>
<totfact> 0.83088468E+03</totfact>
</mgrwt>
</event>
<event>
 5    0  0.1531977E+001  0.2170545E+03  0.7546771E-02  0.1136098E+00
         21   -1    0    0  504  501  0.00000000000E+00  0.00000000000E+00  0.18283031162E+03  0.18283031162E+03  0.00000000000E+00 0. -1.
         21   -1    0    0  501  502 -0.00000000000E+00 -0.00000000000E+00 -0.67612761843E+03  0.67612761843E+03  0.00000000000E+00 0.  1.
         25    1    1    2    0    0 -0.27754703654E+02 -0.22447683922E+03  0.17591131138E+02  0.25902629753E+03  0.12500000000E+03 0.  0.
         21    1    1    2  503  502 -0.30010451714E+02  0.13076955083E+03 -0.82227019923E+02  0.15736132130E+03  0.00000000000E+00 0. -1.
         21    1    1    2  504  503  0.57765155368E+02  0.93707288386E+02 -0.42866141802E+03  0.44257031122E+03  0.00000000000E+00 0.  1.
<mgrwt>
<rscale>  4 0.21705451E+03</rscale>
<asrwt>0</asrwt>
<pdfrwt beam="1">  1       21 0.28127740E-01 0.21705451E+03</pdfrwt>
<pdfrwt beam="2">  1       21 0.10401963E+00 0.21705451E+03</pdfrwt>
<totfact> 0.88706151E+03</totfact>
</mgrwt>
</event>
<event>
 5    0  0.1531977E+001  0.2516230E+03  0.7546771E-02  0.1112283E+00
         21   -1    0    0  502  501  0.00000000000E+00  0.00000000000E+00  0.25672902086E+03  0.25672902086E+03  0.00000000000E+00 0. -1.
         21   -1    0    0  504  502 -0.00000000000E+00 -0.00000000000E+00 -0.55060605837E+03  0.55060605837E+03  0.00000000000E+00 0. -1.
         25    1    1    2    0    0  0.90748391866E+02 -0.20374553715E+03  0.11683556235E+03  0.28111041099E+03  0.12500000000E+03 0.  0.
         21    1    1    2  503  501 -0.64906633326E+02  0.19800028438E+03 -0.13287559396E+03  0.24712933281E+03  0.00000000000E+00 0. -1.
         21    1    1    2  504  503 -0.25841758540E+02  0.57452527717E+01 -0.27783700590E+03  0.27909533544E+03  0.00000000000E+00 0.  1.
<mgrwt>
<rscale>  4 0.25162304E+03</rscale>
<asrwt>0</asrwt>
<pdfrwt beam="1">  1       21 0.39496773E-01 0.25162304E+03</pdfrwt>
<pdfrwt beam="2">  1       21 0.84708624E-01 0.25162304E+03</pdfrwt>
<totfact> 0.71766360E+03</totfact>
</mgrwt>
</event>
<event>
 5    0  0.1531977E+001  0.2442452E+03  0.7546771E-02  0.1116997E+00
         21   -1    0    0  503  501  0.00000000000E+00  0.00000000000E+00  0.28364414768E+03  0.28364414768E+03  0.00000000000E+00 0. -1.
         21   -1    0    0  504  502 -0.00000000000E+00 -0.00000000000E+00 -0.22868641811E+04  0.22868641811E+04  0.00000000000E+00 0. -1.
         25    1    1    2    0    0  0.30325448692E+03  0.17593292484E+03 -0.98460029402E+03  0.10526055372E+04  0.12500000000E+03 0.  0.
         21    1    1    2  503  502 -0.18918431900E+03 -0.52913844818E+01 -0.12174861691E+04  0.12321084681E+04  0.00000000000E+00 0. -1.
         21    1    1    2  504  501 -0.11407016792E+03 -0.17064154036E+03  0.19886642967E+03  0.28579432352E+03  0.00000000000E+00 0. -1.
<mgrwt>
<rscale>  4 0.24424522E+03</rscale>
<asrwt>0</asrwt>
<pdfrwt beam="1">  1       21 0.43637560E-01 0.24424522E+03</pdfrwt>
<pdfrwt beam="2">  1       21 0.35182526E+00 0.24424522E+03</pdfrwt>
<totfact> 0.79363649E+01</totfact>
</mgrwt>
</event>
<event>
 5    0  0.1531977E+001  0.3596094E+03  0.7546771E-02  0.1058739E+00
         21   -1    0    0  502  501  0.00000000000E+00  0.00000000000E+00  0.12070585120E+04  0.12070585120E+04  0.00000000000E+00 0. -1.
         21   -1    0    0  504  502 -0.00000000000E+00 -0.00000000000E+00 -0.12880996905E+03  0.12880996905E+03  0.00000000000E+00 0. -1.
         25    1    1    2    0    0  0.12938096503E+03  0.28744431021E+03  0.76852253217E+03  0.84000925473E+03  0.12500000000E+03 0.  0.
         21    1    1    2  503  501  0.84157436010E+01  0.30322359424E+02  0.63593679698E+02  0.70953691369E+02  0.00000000000E+00 0. -1.
         21    1    1    2  504  503 -0.13779670863E+03 -0.31776666964E+03  0.24613233112E+03  0.42490553499E+03  0.00000000000E+00 0. -1.
<mgrwt>
<rscale>  4 0.35960935E+03</rscale>
<asrwt>0</asrwt>
<pdfrwt beam="1">  1       21 0.18570130E+00 0.35960935E+03</pdfrwt>
<pdfrwt beam="2">  1       21 0.19816919E-01 0.35960935E+03</pdfrwt>
<totfact> 0.34895199E+03</totfact>
</mgrwt>
</event>
<event>
 5    0  0.1531977E+001  0.5037032E+03  0.7546771E-02  0.1012817E+00
         21   -1    0    0  502  501  0.00000000000E+00  0.00000000000E+00  0.34849987189E+03  0.34849987189E+03  0.00000000000E+00 0.  1.
         21   -1    0    0  504  502 -0.00000000000E+00 -0.00000000000E+00 -0.25632605317E+04  0.25632605317E+04  0.00000000000E+00 0.  1.
         25    1    1    2    0    0  0.10068061532E+03  0.50394785726E+03 -0.14652659015E+04  0.15577962612E+04  0.12500000000E+03 0.  0.
         21    1    1    2  503  501 -0.52709733261E+02 -0.48195152100E+03  0.10646649760E+03  0.49637757774E+03  0.00000000000E+00 0.  1.
         21    1    1    2  504  503 -0.47970882055E+02 -0.21996336256E+02 -0.85596125592E+03  0.85758656471E+03  0.00000000000E+00 0. -1.
<mgrwt>
<rscale>  4 0.50370319E+03</rscale>
<asrwt>0</asrwt>
<pdfrwt beam="1">  1       21 0.53615364E-01 0.50370319E+03</pdfrwt>
<pdfrwt beam="2">  1       21 0.39434778E+00 0.50370319E+03</pdfrwt>
<totfact> 0.21897790E+01</totfact>
</mgrwt>
</event>
<event>
 5    0  0.1531977E+001  0.2998399E+03  0.7546771E-02  0.1085321E+00
         21   -1    0    0  503  501  0.00000000000E+00  0.00000000000E+00  0.40048292298E+02  0.40048292298E+02  0.00000000000E+00 0.  1.
         21   -1    0    0  504  502 -0.00000000000E+00 -0.00000000000E+00 -0.29191502204E+04  0.29191502204E+04  0.00000000000E+00 0.  1.
         25    1    1    2    0    0  0.25767549549E+03  0.14627158010E+03 -0.11282550442E+04  0.11731907265E+04  0.12500000000E+03 0.  0.
         21    1    1    2  503  502 -0.49743520260E+02 -0.14925008113E+01 -0.81349794477E+03  0.81501874304E+03  0.00000000000E+00 0.  1.
         21    1    1    2  504  501 -0.20793197523E+03 -0.14477907929E+03 -0.93734893921E+03  0.97098904317E+03  0.00000000000E+00 0.  1.
<mgrwt>
<rscale>  4 0.29983985E+03</rscale>
<asrwt>0</asrwt>
<pdfrwt beam="1">  1       21 0.61612742E-02 0.29983985E+03</pdfrwt>
<pdfrwt beam="2">  1       21 0.44910015E+00 0.29983985E+03</pdfrwt>
<totfact> 0.69312569E+02</totfact>
</mgrwt>
</event>
<event>
 5    0  0.1531977E+001  0.1840355E+03  0.7546771E-02  0.1163954E+00
         21   -1    0    0  502  501  0.00000000000E+00  0.00000000000E+00  0.34409146472E+03  0.34409146472E+03  0.00000000000E+00 0. -1.
         21   -1    0    0  504  502 -0.00000000000E+00 -0.00000000000E+00 -0.35905058185E+03  0.35905058185E+03  0.00000000000E+00 0.  1.
         25    1    1    2    0    0  0.38646762411E+01  0.21710207744E+03  0.19721062657E+02  0.25132084685E+03  0.12500000000E+03 0.  0.
         21    1    1    2  503  501  0.12579240739E+02 -0.12131341361E+03  0.17927348314E+03  0.21682749682E+03  0.00000000000E+00 0. -1.
         21    1    1    2  504  503 -0.16443916980E+02 -0.95788663830E+02 -0.21395366293E+03  0.23499370290E+03  0.00000000000E+00 0.  1.
<mgrwt>
<rscale>  4 0.18403549E+03</rscale>
<asrwt>0</asrwt>
<pdfrwt beam="1">  1       21 0.52937148E-01 0.18403549E+03</pdfrwt>
<pdfrwt beam="2">  1       21 0.55238551E-01 0.18403549E+03</pdfrwt>
<totfact> 0.10511687E+04</totfact>
</mgrwt>
</event>
<event>
 5    0  0.1531977E+001  0.2860430E+03  0.7546771E-02  0.1092433E+00
         21   -1    0    0  502  501  0.00000000000E+00  0.00000000000E+00  0.40299011309E+03  0.40299011309E+03  0.00000000000E+00 0. -1.
         21   -1    0    0  504  502 -0.00000000000E+00 -0.00000000000E+00 -0.93227765469E+03  0.93227765469E+03  0.00000000000E+00 0. -1.
         25    1    1    2    0    0  0.16335689789E+03  0.21099687160E+03  0.29142856281E+03  0.41444030105E+03  0.12500000000E+03 0.  0.
         21    1    1    2  503  501 -0.14511955245E+03 -0.16468617575E+03 -0.19643066081E+03  0.29456107260E+03  0.00000000000E+00 0. -1.
         21    1    1    2  504  503 -0.18237345434E+02 -0.46310695854E+02 -0.62428544360E+03  0.62626639412E+03  0.00000000000E+00 0. -1.
<mgrwt>
<rscale>  4 0.28604297E+03</rscale>
<asrwt>0</asrwt>
<pdfrwt beam="1">  1       21 0.61998480E-01 0.28604297E+03</pdfrwt>
<pdfrwt beam="2">  1       21 0.14342733E+00 0.28604297E+03</pdfrwt>
<totfact> 0.74688375E+02</totfact>
</mgrwt>
</event>
<event>
 5    0  0.1531977E+001  0.2674471E+03  0.7546771E-02  0.1102750E+00
         21   -1    0    0  502  501  0.00000000000E+00  0.00000000000E+00  0.17443367169E+03  0.17443367169E+03  0.00000000000E+00 0.  1.
         21   -1    0    0  504  502 -0.00000000000E+00 -0.00000000000E+00 -0.47288492412E+03  0.47288492412E+03  0.00000000000E+00 0.  1.
         25    1    1    2    0    0  0.18521000079E+03 -0.12922744770E+03 -0.16298923590E+03  0.30527523426E+03  0.12500000000E+03 0.  0.
         21    1    1    2  503  501 -0.18691469549E+03  0.15587670694E+03 -0.44723093337E+02  0.24745667546E+03  0.00000000000E+00 0.  1.
         21    1    1    2  504  503  0.17046947009E+01 -0.26649259234E+02 -0.90738923196E+02  0.94586686085E+02  0.00000000000E+00 0. -1.
<mgrwt>
<rscale>  4 0.26744710E+03</rscale>
<asrwt>0</asrwt>
<pdfrwt beam="1">  1       21 0.26835949E-01 0.26744710E+03</pdfrwt>
<pdfrwt beam="2">  1       21 0.72751528E-01 0.26744710E+03</pdfrwt>
<totfact> 0.21637100E+04</totfact>
</mgrwt>
</event>
<event>
 5    0  0.1531977E+001  0.3239701E+03  0.7546771E-02  0.1073837E+00
         21   -1    0    0  503  501  0.00000000000E+00  0.00000000000E+00  0.57194429624E+02  0.57194429624E+02  0.00000000000E+00 0. -1.
         21   -1    0    0  504  502 -0.00000000000E+00 -0.00000000000E+00 -0.20362775863E+04  0.20362775863E+04  0.00000000000E+00 0. -1.
         25    1    1    2    0    0 -0.62099755270E+01  0.27320610409E+03 -0.78733937607E+03  0.84273865001E+03  0.12500000000E+03 0.  0.
         21    1    1    2  503  502 -0.10173024930E+02 -0.31980335445E+03 -0.11102804231E+04  0.11554654014E+04  0.00000000000E+00 0. -1.
         21    1    1    2  504  501  0.16383000458E+02  0.46597250351E+02 -0.81463357534E+02  0.95267964526E+02  0.00000000000E+00 0. -1.
<mgrwt>
<rscale>  4 0.32397007E+03</rscale>
<asrwt>0</asrwt>
<pdfrwt beam="1">  1       21 0.87991442E-02 0.32397007E+03</pdfrwt>
<pdfrwt beam="2">  1       21 0.31327343E+00 0.32397007E+03</pdfrwt>
<totfact> 0.25648769E+03</totfact>
</mgrwt>
</event>
<event>
 5    0  0.1531977E+001  0.3112689E+03  0.7546771E-02  0.1079739E+00
         21   -1    0    0  503  501  0.00000000000E+00  0.00000000000E+00  0.10413323851E+04  0.10413323851E+04  0.00000000000E+00 0.  1.
         21   -1    0    0  504  502 -0.00000000000E+00 -0.00000000000E+00 -0.25751858166E+03  0.25751858166E+03  0.00000000000E+00 0.  1.
         25    1    1    2    0    0  0.20325959082E+03  0.22321628803E+03  0.50862108914E+02  0.33068402838E+03  0.12500000000E+03 0.  0.
         21    1    1    2  503  502 -0.23027355261E+02 -0.59502297912E+01 -0.92641763674E+02  0.95646017698E+02  0.00000000000E+00 0. -1.
         21    1    1    2  504  501 -0.18023223556E+03 -0.21726605823E+03  0.82559345824E+03  0.87252092071E+03  0.00000000000E+00 0.  1.
<mgrwt>
<rscale>  4 0.31126889E+03</rscale>
<asrwt>0</asrwt>
<pdfrwt beam="1">  1       21 0.16020498E+00 0.31126889E+03</pdfrwt>
<pdfrwt beam="2">  1       21 0.39618244E-01 0.31126889E+03</pdfrwt>
<totfact> 0.14011159E+03</totfact>
</mgrwt>
</event>
<event>
 5    0  0.1531977E+001  0.3452491E+03  0.7546771E-02  0.1064582E+00
         21   -1    0    0  503  501  0.00000000000E+00  0.00000000000E+00  0.16306425779E+04  0.16306425779E+04  0.00000000000E+00 0.  1.
         21   -1    0    0  504  502 -0.00000000000E+00 -0.00000000000E+00 -0.49806140471E+03  0.49806140471E+03  0.00000000000E+00 0.  1.
         25    1    1    2    0    0 -0.10951244390E+03 -0.24279476652E+03 -0.34996133280E+03  0.45720915179E+03  0.12500000000E+03 0.  0.
         21    1    1    2  503  502 -0.52203389741E+02 -0.38178028837E+02 -0.64208979029E+02  0.91134783558E+02  0.00000000000E+00 0.  1.
         21    1    1    2  504  501  0.16171583364E+03  0.28097279536E+03  0.15467514850E+04  0.15803600473E+04  0.00000000000E+00 0.  1.
<mgrwt>
<rscale>  4 0.34524905E+03</rscale>
<asrwt>0</asrwt>
<pdfrwt beam="1">  1       21 0.25086809E+00 0.34524905E+03</pdfrwt>
<pdfrwt beam="2">  1       21 0.76624832E-01 0.34524905E+03</pdfrwt>
<totfact> 0.83821561E+01</totfact>
</mgrwt>
</event>
<event>
 5    0  0.1531977E+001  0.3244946E+03  0.7546771E-02  0.1073599E+00
         21   -1    0    0  502  501  0.00000000000E+00  0.00000000000E+00  0.11855453218E+04  0.11855453218E+04  0.00000000000E+00 0.  1.
         21   -1    0    0  504  502 -0.00000000000E+00 -0.00000000000E+00 -0.38354717775E+03  0.38354717775E+03  0.00000000000E+00 0. -1.
         25    1    1    2    0    0  0.31544019419E+03  0.13437103730E+03  0.85071376957E+03  0.92568731736E+03  0.12500000000E+03 0.  0.
         21    1    1    2  503  501 -0.73846491849E+02  0.38061804456E+02  0.22487555085E+03  0.23973113833E+03  0.00000000000E+00 0.  1.
         21    1    1    2  504  503 -0.24159370234E+03 -0.17243284175E+03 -0.27359117636E+03  0.40367404388E+03  0.00000000000E+00 0. -1.
<mgrwt>
<rscale>  4 0.32449459E+03</rscale>
<asrwt>0</asrwt>
<pdfrwt beam="1">  1       21 0.18239159E+00 0.32449459E+03</pdfrwt>
<pdfrwt beam="2">  1       21 0.59007259E-01 0.32449459E+03</pdfrwt>
<totfact> 0.41699980E+02</totfact>
</mgrwt>
</event>
<event>
 5    0  0.1531977E+001  0.2731580E+03  0.7546771E-02  0.1099486E+00
         21   -1    0    0  502  501  0.00000000000E+00  0.00000000000E+00  0.15334345181E+03  0.15334345181E+03  0.00000000000E+00 0. -1.
         21   -1    0    0  504  502 -0.00000000000E+00 -0.00000000000E+00 -0.10408717621E+04  0.10408717621E+04  0.00000000000E+00 0.  1.
         25    1    1    2    0    0 -0.23049776730E+03 -0.14554633081E+03 -0.55076651540E+02  0.30491210649E+03  0.12500000000E+03 0.  0.
         21    1    1    2  503  501  0.14055664272E+03  0.14325079803E+02 -0.26929018645E+03  0.30410291390E+03  0.00000000000E+00 0. -1.
         21    1    1    2  504  503  0.89941124578E+02  0.13122125100E+03 -0.56316147231E+03  0.58520019352E+03  0.00000000000E+00 0.  1.
<mgrwt>
<rscale>  4 0.27315800E+03</rscale>
<asrwt>0</asrwt>
<pdfrwt beam="1">  1       21 0.23591302E-01 0.27315800E+03</pdfrwt>
<pdfrwt beam="2">  1       21 0.16013411E+00 0.27315800E+03</pdfrwt>
<totfact> 0.39970664E+03</totfact>
</mgrwt>
</event>
<event>
 5    0  0.1531977E+001  0.1886198E+03  0.7546771E-02  0.1159712E+00
         21   -1    0    0  503  501  0.00000000000E+00  0.00000000000E+00  0.12221535123E+04  0.12221535123E+04  0.00000000000E+00 0.  1.
         21   -1    0    0  501  502 -0.00000000000E+00 -0.00000000000E+00 -0.66067047755E+02  0.66067047755E+02  0.00000000000E+00 0.  1.
         25    1    1    2    0    0  0.18382086278E+03  0.10205476302E+03  0.55701844349E+03  0.60835830777E+03  0.12500000000E+03 0.  0.
         21    1    1    2  503  504 -0.12200870157E+03 -0.40334082158E+02  0.75465506584E+02  0.14902350193E+03  0.00000000000E+00 0.  1.
         21    1    1    2  504  502 -0.61812161215E+02 -0.61720680860E+02  0.52360251450E+03  0.53083875039E+03  0.00000000000E+00 0.  1.
<mgrwt>
<rscale>  4 0.18861979E+03</rscale>
<asrwt>0</asrwt>
<pdfrwt beam="1">  1       21 0.18802360E+00 0.18861979E+03</pdfrwt>
<pdfrwt beam="2">  1       21 0.10164162E-01 0.18861979E+03</pdfrwt>
<totfact> 0.12713143E+04</totfact>
</mgrwt>
</event>
<event>
 5    0  0.1531977E+001  0.2220340E+03  0.7546771E-02  0.1132376E+00
         21   -1    0    0  504  501  0.00000000000E+00  0.00000000000E+00  0.86088014848E+03  0.86088014848E+03  0.00000000000E+00 0. -1.
         21   -1    0    0  503  502 -0.00000000000E+00 -0.00000000000E+00 -0.29004427095E+03  0.29004427095E+03  0.00000000000E+00 0.  1.
         25    1    1    2    0    0  0.59179900482E+02  0.25640402116E+03 -0.15461064802E+03  0.32981015019E+03  0.12500000000E+03 0.  0.
         21    1    1    2  503  501 -0.10837875431E+02 -0.83171777854E+02  0.11256593890E+02  0.84626917002E+02  0.00000000000E+00 0. -1.
         21    1    1    2  504  502 -0.48342025051E+02 -0.17323224331E+03  0.71418993167E+03  0.73648735223E+03  0.00000000000E+00 0. -1.
<mgrwt>
<rscale>  4 0.22203401E+03</rscale>
<asrwt>0</asrwt>
<pdfrwt beam="1">  1       21 0.13244310E+00 0.22203401E+03</pdfrwt>
<pdfrwt beam="2">  1       21 0.44622196E-01 0.22203401E+03</pdfrwt>
<totfact> 0.19364232E+03</totfact>
</mgrwt>
</event>
<event>
 5    0  0.1531977E+001  0.2850489E+03  0.7546771E-02  0.1092963E+00
         21   -1    0    0  502  501  0.00000000000E+00  0.00000000000E+00  0.55112617504E+03  0.55112617504E+03  0.00000000000E+00 0.  1.
         21   -1    0    0  504  502 -0.00000000000E+00 -0.00000000000E+00 -0.21593577926E+03  0.21593577926E+03  0.00000000000E+00 0. -1.
         25    1    1    2    0    0  0.14240291608E+03  0.24693643933E+03  0.32061258042E+03  0.44684854515E+03  0.12500000000E+03 0.  0.
         21    1    1    2  503  501 -0.27883937847E+02 -0.26580430714E+02  0.56479076944E+02  0.68366069211E+02  0.00000000000E+00 0.  1.
         21    1    1    2  504  503 -0.11451897823E+03 -0.22035600862E+03 -0.41901261589E+02  0.25184733993E+03  0.00000000000E+00 0. -1.
<mgrwt>
<rscale>  4 0.28504889E+03</rscale>
<asrwt>0</asrwt>
<pdfrwt beam="1">  1       21 0.84788642E-01 0.28504889E+03</pdfrwt>
<pdfrwt beam="2">  1       21 0.33220889E-01 0.28504889E+03</pdfrwt>
<totfact> 0.99602788E+03</totfact>
</mgrwt>
</event>
<event>
 5    0  0.1531977E+001  0.3833613E+03  0.7546771E-02  0.1049698E+00
         21   -1    0    0  502  501  0.00000000000E+00  0.00000000000E+00  0.67396187253E+03  0.67396187253E+03  0.00000000000E+00 0. -1.
         21   -1    0    0  504  502 -0.00000000000E+00 -0.00000000000E+00 -0.25658558646E+03  0.25658558646E+03  0.00000000000E+00 0. -1.
         25    1    1    2    0    0  0.36561274763E+03 -0.21988479132E+02  0.72078795137E+02  0.39367058202E+03  0.12500000000E+03 0.  0.
         21    1    1    2  503  501 -0.35707961278E+03  0.53284497562E+02  0.35146436238E+03  0.50385740599E+03  0.00000000000E+00 0. -1.
         21    1    1    2  504  503 -0.85331348448E+01 -0.31296018430E+02 -0.61668714461E+01  0.33019470972E+02  0.00000000000E+00 0. -1.
<mgrwt>
<rscale>  4 0.38336127E+03</rscale>
<asrwt>0</asrwt>
<pdfrwt beam="1">  1       21 0.10368644E+00 0.38336127E+03</pdfrwt>
<pdfrwt beam="2">  1       21 0.39474706E-01 0.38336127E+03</pdfrwt>
<totfact> 0.41759630E+03</totfact>
</mgrwt>
</event>
<event>
 5    0  0.1531977E+001  0.2331038E+03  0.7546771E-02  0.1124474E+00
         21   -1    0    0  504  501  0.00000000000E+00  0.00000000000E+00  0.10322886111E+03  0.10322886111E+03  0.00000000000E+00 0.  1.
         21   -1    0    0  501  502 -0.00000000000E+00 -0.00000000000E+00 -0.83194274610E+03  0.83194274610E+03  0.00000000000E+00 0.  1.
         25    1    1    2    0    0  0.20019576059E+03  0.54178936697E+02 -0.63651461730E+03  0.68102096721E+03  0.12500000000E+03 0.  0.
         21    1    1    2  503  502 -0.53468947365E+02  0.32027942141E+02 -0.47030876984E+02  0.78080860651E+02  0.00000000000E+00 0.  1.
         21    1    1    2  504  503 -0.14672681323E+03 -0.86206878838E+02 -0.45168390704E+02  0.17606977934E+03  0.00000000000E+00 0.  1.
<mgrwt>
<rscale>  4 0.23310376E+03</rscale>
<asrwt>0</asrwt>
<pdfrwt beam="1">  1       21 0.15881363E-01 0.23310376E+03</pdfrwt>
<pdfrwt beam="2">  1       21 0.12799120E+00 0.23310376E+03</pdfrwt>
<totfact> 0.15484642E+04</totfact>
</mgrwt>
</event>
<event>
 5    0  0.1531977E+001  0.2386119E+03  0.7546771E-02  0.1120721E+00
         21   -1    0    0  504  501  0.00000000000E+00  0.00000000000E+00  0.84412896761E+03  0.84412896761E+03  0.00000000000E+00 0.  1.
         21   -1    0    0  503  502 -0.00000000000E+00 -0.00000000000E+00 -0.12167830600E+03  0.12167830600E+03  0.00000000000E+00 0.  1.
         25    1    1    2    0    0  0.30185545591E+01 -0.27715405053E+03  0.33474150720E+03  0.45221715584E+03  0.12500000000E+03 0.  0.
         21    1    1    2  503  501 -0.13676356325E+02  0.17602061317E+03  0.88337671269E+02  0.19741794029E+03  0.00000000000E+00 0.  1.
         21    1    1    2  504  502  0.10657801766E+02  0.10113343736E+03  0.29937148314E+03  0.31617217748E+03  0.00000000000E+00 0.  1.
<mgrwt>
<rscale>  4 0.23861193E+03</rscale>
<asrwt>0</asrwt>
<pdfrwt beam="1">  1       21 0.12986599E+00 0.23861193E+03</pdfrwt>
<pdfrwt beam="2">  1       21 0.18719740E-01 0.23861193E+03</pdfrwt>
<totfact> 0.10972541E+04</totfact>
</mgrwt>
</event>
<event>
 5    0  0.1531977E+001  0.3787667E+03  0.7546771E-02  0.1051391E+00
         21   -1    0    0  503  501  0.00000000000E+00  0.00000000000E+00  0.54226955773E+03  0.54226955773E+03  0.00000000000E+00 0. -1.
         21   -1    0    0  504  502 -0.00000000000E+00 -0.00000000000E+00 -0.13853300059E+04  0.13853300059E+04  0.00000000000E+00 0. -1.
         25    1    1    2    0    0  0.13083029591E+02  0.51078369507E+03 -0.84383467644E+03  0.99436065388E+03  0.12500000000E+03 0.  0.
         21    1    1    2  503  502  0.53476198209E+02 -0.26738114418E+03 -0.38529290445E+03  0.47202012908E+03  0.00000000000E+00 0. -1.
         21    1    1    2  504  501 -0.66559227800E+02 -0.24340255090E+03  0.38606713278E+03  0.46121878063E+03  0.00000000000E+00 0. -1.
<mgrwt>
<rscale>  4 0.37876674E+03</rscale>
<asrwt>0</asrwt>
<pdfrwt beam="1">  1       21 0.83426085E-01 0.37876674E+03</pdfrwt>
<pdfrwt beam="2">  1       21 0.21312769E+00 0.37876674E+03</pdfrwt>
<totfact> 0.11542718E+02</totfact>
</mgrwt>
</event>
<event>
 5    0  0.1531977E+001  0.2767057E+03  0.7546771E-02  0.1097502E+00
         21   -1    0    0  503  501  0.00000000000E+00  0.00000000000E+00  0.28229047069E+03  0.28229047069E+03  0.00000000000E+00 0.  1.
         21   -1    0    0  504  502 -0.00000000000E+00 -0.00000000000E+00 -0.60867779204E+03  0.60867779204E+03  0.00000000000E+00 0.  1.
         25    1    1    2    0    0 -0.24309823307E+03  0.41637672862E+02 -0.30629247911E+03  0.41263849733E+03  0.12500000000E+03 0.  0.
         21    1    1    2  503  502  0.21433349410E+02  0.71172308975E+02 -0.17166445903E+03  0.18706569040E+03  0.00000000000E+00 0. -1.
         21    1    1    2  504  501  0.22166488366E+03 -0.11280998184E+03  0.15156961678E+03  0.29126407499E+03  0.00000000000E+00 0.  1.
<mgrwt>
<rscale>  4 0.27670571E+03</rscale>
<asrwt>0</asrwt>
<pdfrwt beam="1">  1       21 0.43429304E-01 0.27670571E+03</pdfrwt>
<pdfrwt beam="2">  1       21 0.93642736E-01 0.27670571E+03</pdfrwt>
<totfact> 0.46114331E+03</totfact>
</mgrwt>
</event>
<event>
 5    0  0.1531977E+001  0.3167138E+03  0.7546771E-02  0.1077172E+00
         21   -1    0    0  504  501  0.00000000000E+00  0.00000000000E+00  0.19921015961E+03  0.19921015961E+03  0.00000000000E+00 0.  1.
         21   -1    0    0  503  502 -0.00000000000E+00 -0.00000000000E+00 -0.56423933248E+03  0.56423933248E+03  0.00000000000E+00 0.  1.
         25    1    1    2    0    0  0.28347552909E+03 -0.11388627957E+03 -0.10428155143E+03  0.34616195954E+03  0.12500000000E+03 0.  0.
         21    1    1    2  503  501 -0.25346031610E+03  0.12780707443E+03 -0.25882618715E+03  0.38414551315E+03  0.00000000000E+00 0.  1.
         21    1    1    2  504  502 -0.30015212987E+02 -0.13920794861E+02 -0.19214342881E+01  0.33142019400E+02  0.00000000000E+00 0. -1.
<mgrwt>
<rscale>  4 0.31671379E+03</rscale>
<asrwt>0</asrwt>
<pdfrwt beam="1">  1       21 0.30647717E-01 0.31671379E+03</pdfrwt>
<pdfrwt beam="2">  1       21 0.86806049E-01 0.31671379E+03</pdfrwt>
<totfact> 0.10909931E+04</totfact>
</mgrwt>
</event>
<event>
 5    0  0.1531977E+001  0.2711998E+03  0.7546771E-02  0.1100595E+00
         21   -1    0    0  504  501  0.00000000000E+00  0.00000000000E+00  0.10125300733E+04  0.10125300733E+04  0.00000000000E+00 0. -1.
         21   -1    0    0  503  502 -0.00000000000E+00 -0.00000000000E+00 -0.22475781928E+04  0.22475781928E+04  0.00000000000E+00 0. -1.
         25    1    1    2    0    0 -0.14595669856E+03 -0.39851818572E+03  0.22498703193E+03  0.49635095118E+03  0.12500000000E+03 0.  0.
         21    1    1    2  503  501  0.40755847700E+02  0.20913281152E+03 -0.20883246635E+04  0.20991658991E+04  0.00000000000E+00 0. -1.
         21    1    1    2  504  502  0.10520085086E+03  0.18938537420E+03  0.62828951206E+03  0.66459141580E+03  0.00000000000E+00 0. -1.
<mgrwt>
<rscale>  4 0.27119982E+03</rscale>
<asrwt>0</asrwt>
<pdfrwt beam="1">  1       21 0.15577386E+00 0.27119982E+03</pdfrwt>
<pdfrwt beam="2">  1       21 0.34578126E+00 0.27119982E+03</pdfrwt>
<totfact> 0.43341088E+00</totfact>
</mgrwt>
</event>
<event>
 5    0  0.1531977E+001  0.2689983E+03  0.7546771E-02  0.1101854E+00
         21   -1    0    0  502  501  0.00000000000E+00  0.00000000000E+00  0.27088329153E+03  0.27088329153E+03  0.00000000000E+00 0.  1.
         21   -1    0    0  504  502 -0.00000000000E+00 -0.00000000000E+00 -0.32341813431E+03  0.32341813431E+03  0.00000000000E+00 0.  1.
         25    1    1    2    0    0 -0.22387791718E+03  0.11567770837E+03 -0.78075720879E+02  0.29193059485E+03  0.12500000000E+03 0.  0.
         21    1    1    2  503  501  0.22377250590E+03 -0.42118117879E+02  0.17506628088E+02  0.22837371188E+03  0.00000000000E+00 0.  1.
         21    1    1    2  504  503  0.10541128478E+00 -0.73559590487E+02  0.80342500194E+01  0.73997119116E+02  0.00000000000E+00 0.  1.
<mgrwt>
<rscale>  4 0.26899833E+03</rscale>
<asrwt>0</asrwt>
<pdfrwt beam="1">  1       21 0.41674353E-01 0.26899833E+03</pdfrwt>
<pdfrwt beam="2">  1       21 0.49756636E-01 0.26899833E+03</pdfrwt>
<totfact> 0.20506035E+04</totfact>
</mgrwt>
</event>
<event>
 5    0  0.1531977E+001  0.1847509E+03  0.7546771E-02  0.1163283E+00
         21   -1    0    0  502  501  0.00000000000E+00  0.00000000000E+00  0.85358671967E+03  0.85358671967E+03  0.00000000000E+00 0.  1.
         21   -1    0    0  504  502 -0.00000000000E+00 -0.00000000000E+00 -0.11318836362E+03  0.11318836362E+03  0.00000000000E+00 0.  1.
         25    1    1    2    0    0  0.23722720206E+03 -0.31839695003E+02  0.45582588500E+03  0.52980444412E+03  0.12500000000E+03 0.  0.
         21    1    1    2  503  501 -0.11405035977E+03  0.47063344413E+02  0.28746431925E+03  0.31282291763E+03  0.00000000000E+00 0.  1.
         21    1    1    2  504  503 -0.12317684229E+03 -0.15223649410E+02 -0.28918482033E+01  0.12414772154E+03  0.00000000000E+00 0.  1.
<mgrwt>
<rscale>  4 0.18475092E+03</rscale>
<asrwt>0</asrwt>
<pdfrwt beam="1">  1       21 0.13132103E+00 0.18475092E+03</pdfrwt>
<pdfrwt beam="2">  1       21 0.17413595E-01 0.18475092E+03</pdfrwt>
<totfact> 0.12646041E+04</totfact>
</mgrwt>
</event>
<event>
 5    0  0.1531977E+001  0.3507982E+03  0.7546771E-02  0.1063269E+00
         21   -1    0    0  502  501  0.00000000000E+00  0.00000000000E+00  0.15063701293E+04  0.15063701293E+04  0.00000000000E+00 0.  1.
         21   -1    0    0  504  502 -0.00000000000E+00 -0.00000000000E+00 -0.79729155498E+02  0.79729155498E+02  0.00000000000E+00 0.  1.
         25    1    1    2    0    0 -0.12755435351E+03  0.29089962846E+03  0.74551368939E+03  0.81994412492E+03  0.12500000000E+03 0.  0.
         21    1    1    2  503  501  0.25518880827E+02 -0.11610183765E+03  0.41570346376E+03  0.43236584020E+03  0.00000000000E+00 0.  1.
         21    1    1    2  504  503  0.10203547268E+03 -0.17479779081E+03  0.26542382062E+03  0.33378931965E+03  0.00000000000E+00 0.  1.
<mgrwt>
<rscale>  4 0.34841109E+03</rscale>
<asrwt>0</asrwt>
<pdfrwt beam="1">  1       21 0.23174923E+00 0.35079816E+03</pdfrwt>
<pdfrwt beam="2">  1       21 0.12266025E-01 0.35079816E+03</pdfrwt>
<totfact> 0.42835488E+03</totfact>
</mgrwt>
</event>
<event>
 5    0  0.1531977E+001  0.3881442E+03  0.7546771E-02  0.1047964E+00
         21   -1    0    0  503  501  0.00000000000E+00  0.00000000000E+00  0.27487564989E+03  0.27487564989E+03  0.00000000000E+00 0.  1.
         21   -1    0    0  504  502 -0.00000000000E+00 -0.00000000000E+00 -0.11956018539E+04  0.11956018539E+04  0.00000000000E+00 0.  1.
         25    1    1    2    0    0 -0.15723216800E+03 -0.33212798873E+03 -0.10135691977E+04  0.10853471676E+04  0.12500000000E+03 0.  0.
         21    1    1    2  503  502  0.33592812023E+02  0.26395206806E+02  0.75872009850E+00  0.42728908459E+02  0.00000000000E+00 0.  1.
         21    1    1    2  504  501  0.12363935598E+03  0.30573278193E+03  0.92084273623E+02  0.34240142777E+03  0.00000000000E+00 0.  1.
<mgrwt>
<rscale>  4 0.38814425E+03</rscale>
<asrwt>0</asrwt>
<pdfrwt beam="1">  1       21 0.42288562E-01 0.38814425E+03</pdfrwt>
<pdfrwt beam="2">  1       21 0.18393875E+00 0.38814425E+03</pdfrwt>
<totfact> 0.79192735E+02</totfact>
</mgrwt>
</event>
<event>
 5    0  0.1531977E+001  0.1923081E+03  0.7546771E-02  0.1156396E+00
         21   -1    0    0  502  501  0.00000000000E+00  0.00000000000E+00  0.52994399406E+03  0.52994399406E+03  0.00000000000E+00 0.  1.
         21   -1    0    0  504  502 -0.00000000000E+00 -0.00000000000E+00 -0.71940072092E+03  0.71940072092E+03  0.00000000000E+00 0.  1.
         25    1    1    2    0    0 -0.75886392546E+02  0.18998411100E+03  0.36438146423E+03  0.43617835627E+03  0.12500000000E+03 0.  0.
         21    1    1    2  503  501  0.20376005296E+02 -0.56022648390E+02  0.11460148618E+03  0.12917902058E+03  0.00000000000E+00 0.  1.
         21    1    1    2  504  503  0.55510387249E+02 -0.13396146261E+03 -0.66843967728E+03  0.68398733812E+03  0.00000000000E+00 0.  1.
<mgrwt>
<rscale>  4 0.19230812E+03</rscale>
<asrwt>0</asrwt>
<pdfrwt beam="1">  1       21 0.81529845E-01 0.19230812E+03</pdfrwt>
<pdfrwt beam="2">  1       21 0.11067703E+00 0.19230812E+03</pdfrwt>
<totfact> 0.84819684E+02</totfact>
</mgrwt>
</event>
<event>
 5    0  0.1531977E+001  0.3891948E+03  0.7546771E-02  0.1048706E+00
         21   -1    0    0  503  501  0.00000000000E+00  0.00000000000E+00  0.81874530398E+03  0.81874530398E+03  0.00000000000E+00 0.  1.
         21   -1    0    0  501  502 -0.00000000000E+00 -0.00000000000E+00 -0.18674379679E+03  0.18674379679E+03  0.00000000000E+00 0.  1.
         25    1    1    2    0    0  0.59971931735E+02 -0.35049707719E+03  0.41205828417E+03  0.55844593586E+03  0.12500000000E+03 0.  0.
         21    1    1    2  503  504  0.19625875166E+02  0.17952145106E+03  0.37096134797E+02  0.18436173568E+03  0.00000000000E+00 0.  1.
         21    1    1    2  504  502 -0.79597806901E+02  0.17097562613E+03  0.18284708822E+03  0.26268142924E+03  0.00000000000E+00 0.  1.
<mgrwt>
<rscale>  4 0.38608949E+03</rscale>
<asrwt>0</asrwt>
<pdfrwt beam="1">  1       21 0.12596081E+00 0.38919477E+03</pdfrwt>
<pdfrwt beam="2">  1       21 0.28729815E-01 0.38919477E+03</pdfrwt>
<totfact> 0.48506680E+03</totfact>
</mgrwt>
</event>
<event>
 5    0  0.1531977E+001  0.2400157E+03  0.7546771E-02  0.1119782E+00
         21   -1    0    0  503  501  0.00000000000E+00  0.00000000000E+00  0.65960904590E+02  0.65960904590E+02  0.00000000000E+00 0.  1.
         21   -1    0    0  504  502 -0.00000000000E+00 -0.00000000000E+00 -0.18790843567E+04  0.18790843567E+04  0.00000000000E+00 0. -1.
         25    1    1    2    0    0 -0.19738844004E+03 -0.14671214838E+03 -0.14364716998E+04  0.14627243743E+04  0.12500000000E+03 0.  0.
         21    1    1    2  503  502  0.24161602807E+02  0.47870333010E+02 -0.22627036797E+03  0.23253737604E+03  0.00000000000E+00 0.  1.
         21    1    1    2  504  501  0.17322683723E+03  0.98841815367E+02 -0.15038138433E+03  0.24978351098E+03  0.00000000000E+00 0.  1.
<mgrwt>
<rscale>  4 0.24001573E+03</rscale>
<asrwt>0</asrwt>
<pdfrwt beam="1">  1       21 0.10147830E-01 0.24001573E+03</pdfrwt>
<pdfrwt beam="2">  1       21 0.28908994E+00 0.24001573E+03</pdfrwt>
<totfact> 0.29632420E+03</totfact>
</mgrwt>
</event>
<event>
 5    0  0.1531977E+001  0.1823171E+03  0.7546771E-02  0.1165579E+00
         21   -1    0    0  503  501  0.00000000000E+00  0.00000000000E+00  0.19078991040E+04  0.19078991040E+04  0.00000000000E+00 0. -1.
         21   -1    0    0  504  502 -0.00000000000E+00 -0.00000000000E+00 -0.17287947850E+03  0.17287947850E+03  0.00000000000E+00 0. -1.
         25    1    1    2    0    0  0.23525967061E+03 -0.84607522254E+01 -0.32641852258E+02  0.26853153905E+03  0.12500000000E+03 0.  0.
         21    1    1    2  503  502 -0.10537932463E+03  0.25484788628E+02  0.12965371381E+03  0.16900994650E+03  0.00000000000E+00 0. -1.
         21    1    1    2  504  501 -0.12988034598E+03 -0.17024036402E+02  0.16380077639E+04  0.16432370970E+04  0.00000000000E+00 0. -1.
<mgrwt>
<rscale>  4 0.18231707E+03</rscale>
<asrwt>0</asrwt>
<pdfrwt beam="1">  1       21 0.29352293E+00 0.18231707E+03</pdfrwt>
<pdfrwt beam="2">  1       21 0.26596844E-01 0.18231707E+03</pdfrwt>
<totfact> 0.50804502E+02</totfact>
</mgrwt>
</event>
<event>
 5    0  0.1531977E+001  0.1873540E+03  0.7546771E-02  0.1160870E+00
         21   -1    0    0  503  501  0.00000000000E+00  0.00000000000E+00  0.12484056266E+04  0.12484056266E+04  0.00000000000E+00 0. -1.
         21   -1    0    0  504  502 -0.00000000000E+00 -0.00000000000E+00 -0.10223759190E+04  0.10223759190E+04  0.00000000000E+00 0.  1.
         25    1    1    2    0    0 -0.10132494279E+03 -0.19942561166E+03 -0.22223445005E+02  0.25720847600E+03  0.12500000000E+03 0.  0.
         21    1    1    2  503  502  0.46466715036E+02  0.73819055648E+02 -0.87633388522E+03  0.88066423055E+03  0.00000000000E+00 0.  1.
         21    1    1    2  504  501  0.54858227749E+02  0.12560655601E+03  0.11245870378E+04  0.11329088391E+04  0.00000000000E+00 0. -1.
<mgrwt>
<rscale>  4 0.18735403E+03</rscale>
<asrwt>0</asrwt>
<pdfrwt beam="1">  1       21 0.19206240E+00 0.18735403E+03</pdfrwt>
<pdfrwt beam="2">  1       21 0.15728860E+00 0.18735403E+03</pdfrwt>
<totfact> 0.40190500E+01</totfact>
</mgrwt>
</event>
<event>
 5    0  0.1531977E+001  0.3694252E+03  0.7546771E-02  0.1054913E+00
         21   -1    0    0  503  501  0.00000000000E+00  0.00000000000E+00  0.31040721652E+03  0.31040721652E+03  0.00000000000E+00 0. -1.
         21   -1    0    0  504  502 -0.00000000000E+00 -0.00000000000E+00 -0.58486047332E+03  0.58486047332E+03  0.00000000000E+00 0. -1.
         25    1    1    2    0    0 -0.23775366833E+03  0.26140104217E+03  0.48812323205E+02  0.37797480677E+03  0.12500000000E+03 0.  0.
         21    1    1    2  503  502  0.25632808969E+03 -0.23252690086E+03 -0.33435562609E+03  0.48121360526E+03  0.00000000000E+00 0. -1.
         21    1    1    2  504  501 -0.18574421361E+02 -0.28874141312E+02  0.11090046092E+02  0.36079277816E+02  0.00000000000E+00 0. -1.
<mgrwt>
<rscale>  4 0.36942524E+03</rscale>
<asrwt>0</asrwt>
<pdfrwt beam="1">  1       21 0.47754957E-01 0.36942524E+03</pdfrwt>
<pdfrwt beam="2">  1       21 0.89978533E-01 0.36942524E+03</pdfrwt>
<totfact> 0.39738907E+03</totfact>
</mgrwt>
</event>
<event>
 5    0  0.1531977E+001  0.1982661E+03  0.7546771E-02  0.1151210E+00
         21   -1    0    0  502  501  0.00000000000E+00  0.00000000000E+00  0.30361357390E+02  0.30361357390E+02  0.00000000000E+00 0.  1.
         21   -1    0    0  504  502 -0.00000000000E+00 -0.00000000000E+00 -0.19519472189E+04  0.19519472189E+04  0.00000000000E+00 0.  1.
         25    1    1    2    0    0 -0.50650368245E+02  0.19444907744E+03 -0.75398972184E+03  0.79025401243E+03  0.12500000000E+03 0.  0.
         21    1    1    2  503  501  0.17768453827E+02 -0.56662806073E+02 -0.10992548456E+03  0.12494000039E+03  0.00000000000E+00 0.  1.
         21    1    1    2  504  503  0.32881914418E+02 -0.13778627137E+03 -0.10576706551E+04  0.10671145635E+04  0.00000000000E+00 0.  1.
<mgrwt>
<rscale>  4 0.19826611E+03</rscale>
<asrwt>0</asrwt>
<pdfrwt beam="1">  1       21 0.46709780E-02 0.19826611E+03</pdfrwt>
<pdfrwt beam="2">  1       21 0.30029957E+00 0.19826611E+03</pdfrwt>
<totfact> 0.10201391E+04</totfact>
</mgrwt>
</event>
<event>
 5    0  0.1531977E+001  0.3386298E+03  0.7546771E-02  0.1067381E+00
         21   -1    0    0  502  501  0.00000000000E+00  0.00000000000E+00  0.11135013671E+04  0.11135013671E+04  0.00000000000E+00 0. -1.
         21   -1    0    0  504  502 -0.00000000000E+00 -0.00000000000E+00 -0.14198376233E+03  0.14198376233E+03  0.00000000000E+00 0.  1.
         25    1    1    2    0    0  0.12007278641E+03  0.31002663920E+03  0.26170128424E+03  0.44118766214E+03  0.12500000000E+03 0.  0.
         21    1    1    2  503  501 -0.11926957054E+03 -0.28451794820E+03  0.72263815585E+03  0.78573634102E+03  0.00000000000E+00 0. -1.
         21    1    1    2  504  503 -0.80321586748E+00 -0.25508690999E+02 -0.12821835327E+02  0.28561126262E+02  0.00000000000E+00 0. -1.
<mgrwt>
<rscale>  4 0.33862982E+03</rscale>
<asrwt>0</asrwt>
<pdfrwt beam="1">  1       21 0.17130790E+00 0.33862982E+03</pdfrwt>
<pdfrwt beam="2">  1       21 0.21843657E-01 0.33862982E+03</pdfrwt>
<totfact> 0.36977109E+03</totfact>
</mgrwt>
</event>
<event>
 5    0  0.1531977E+001  0.2632778E+03  0.7546771E-02  0.1105190E+00
         21   -1    0    0  504  501  0.00000000000E+00  0.00000000000E+00  0.51116750248E+03  0.51116750248E+03  0.00000000000E+00 0.  1.
         21   -1    0    0  503  502 -0.00000000000E+00 -0.00000000000E+00 -0.15614075247E+03  0.15614075247E+03  0.00000000000E+00 0.  1.
         25    1    1    2    0    0  0.20362164253E+03 -0.94903110624E+02  0.51412679462E+02  0.26217672918E+03  0.12500000000E+03 0.  0.
         21    1    1    2  503  501 -0.22247881954E+03  0.10498180778E+03  0.26972505712E+03  0.36506110660E+03  0.00000000000E+00 0.  1.
         21    1    1    2  504  502  0.18857177011E+02 -0.10078697155E+02  0.33889013435E+02  0.40070419174E+02  0.00000000000E+00 0. -1.
<mgrwt>
<rscale>  4 0.26327779E+03</rscale>
<asrwt>0</asrwt>
<pdfrwt beam="1">  1       21 0.78641153E-01 0.26327779E+03</pdfrwt>
<pdfrwt beam="2">  1       21 0.24021654E-01 0.26327779E+03</pdfrwt>
<totfact> 0.22514764E+04</totfact>
</mgrwt>
</event>
<event>
 5    0  0.1531977E+001  0.2883371E+03  0.7546771E-02  0.1091221E+00
         21   -1    0    0  502  501  0.00000000000E+00  0.00000000000E+00  0.42120992702E+03  0.42120992702E+03  0.00000000000E+00 0.  1.
         21   -1    0    0  504  502 -0.00000000000E+00 -0.00000000000E+00 -0.57070631778E+03  0.57070631778E+03  0.00000000000E+00 0.  1.
         25    1    1    2    0    0  0.16375471068E+03 -0.20115345181E+03  0.25279213668E+03  0.38315425198E+03  0.12500000000E+03 0.  0.
         21    1    1    2  503  501 -0.26000415670E+02 -0.19443299528E+02  0.65744395601E+02  0.73323864223E+02  0.00000000000E+00 0. -1.
         21    1    1    2  504  503 -0.13775429501E+03  0.22059675134E+03 -0.46803292305E+03  0.53543812860E+03  0.00000000000E+00 0.  1.
<mgrwt>
<rscale>  4 0.28833705E+03</rscale>
<asrwt>0</asrwt>
<pdfrwt beam="1">  1       21 0.64801527E-01 0.28833705E+03</pdfrwt>
<pdfrwt beam="2">  1       21 0.87800972E-01 0.28833705E+03</pdfrwt>
<totfact> 0.22748239E+03</totfact>
</mgrwt>
</event>
<event>
 5    0  0.1531977E+001  0.2939311E+03  0.7546771E-02  0.1088314E+00
         21   -1    0    0  503  501  0.00000000000E+00  0.00000000000E+00  0.73456243121E+03  0.73456243121E+03  0.00000000000E+00 0. -1.
         21   -1    0    0  504  502 -0.00000000000E+00 -0.00000000000E+00 -0.16196098918E+03  0.16196098918E+03  0.00000000000E+00 0. -1.
         25    1    1    2    0    0 -0.25950614541E+03  0.75626716187E+02  0.78984369124E+02  0.30810123381E+03  0.12500000000E+03 0.  0.
         21    1    1    2  503  502 -0.14059414617E+01 -0.28591536186E+02  0.58818122291E+00  0.28632124791E+02  0.00000000000E+00 0. -1.
         21    1    1    2  504  501  0.26091208688E+03 -0.47035180001E+02  0.49302889168E+03  0.55979006178E+03  0.00000000000E+00 0. -1.
<mgrwt>
<rscale>  4 0.29393109E+03</rscale>
<asrwt>0</asrwt>
<pdfrwt beam="1">  1       21 0.11300960E+00 0.29393109E+03</pdfrwt>
<pdfrwt beam="2">  1       21 0.24917076E-01 0.29393109E+03</pdfrwt>
<totfact> 0.87711867E+03</totfact>
</mgrwt>
</event>
<event>
 5    0  0.1531977E+001  0.5463751E+03  0.7546771E-02  0.1002336E+00
         21   -1    0    0  504  501  0.00000000000E+00  0.00000000000E+00  0.22110158556E+03  0.22110158556E+03  0.00000000000E+00 0. -1.
         21   -1    0    0  501  502 -0.00000000000E+00 -0.00000000000E+00 -0.17512251942E+04  0.17512251942E+04  0.00000000000E+00 0. -1.
         25    1    1    2    0    0 -0.35842621387E+03  0.38585631448E+03 -0.61945843622E+03  0.82262275705E+03  0.12500000000E+03 0.  0.
         21    1    1    2  503  502  0.45170148369E+03 -0.30282337568E+03 -0.57437470957E+03  0.79097568498E+03  0.00000000000E+00 0. -1.
         21    1    1    2  504  503 -0.93275269823E+02 -0.83032938801E+02 -0.33629046280E+03  0.35872833768E+03  0.00000000000E+00 0.  1.
<mgrwt>
<rscale>  4 0.54637511E+03</rscale>
<asrwt>0</asrwt>
<pdfrwt beam="1">  1       21 0.34015629E-01 0.54637511E+03</pdfrwt>
<pdfrwt beam="2">  1       21 0.26941926E+00 0.54637511E+03</pdfrwt>
<totfact> 0.32482462E+02</totfact>
</mgrwt>
</event>
<event>
 5    0  0.1531977E+001  0.3604181E+03  0.7546771E-02  0.1058418E+00
         21   -1    0    0  502  501  0.00000000000E+00  0.00000000000E+00  0.32921837747E+03  0.32921837747E+03  0.00000000000E+00 0.  1.
         21   -1    0    0  504  502 -0.00000000000E+00 -0.00000000000E+00 -0.61194700124E+03  0.61194700124E+03  0.00000000000E+00 0.  1.
         25    1    1    2    0    0 -0.33745620769E+03  0.26937041721E+02  0.93442562209E+02  0.37277179180E+03  0.12500000000E+03 0.  0.
         21    1    1    2  503  501  0.33937535660E+03  0.46056377867E+02 -0.35287308559E+03  0.49174814401E+03  0.00000000000E+00 0.  1.
         21    1    1    2  504  503 -0.19191489029E+01 -0.72993419588E+02 -0.23298100386E+02  0.76645442899E+02  0.00000000000E+00 0.  1.
<mgrwt>
<rscale>  4 0.36041809E+03</rscale>
<asrwt>0</asrwt>
<pdfrwt beam="1">  1       21 0.50648982E-01 0.36041809E+03</pdfrwt>
<pdfrwt beam="2">  1       21 0.94145692E-01 0.36041809E+03</pdfrwt>
<totfact> 0.31652319E+03</totfact>
</mgrwt>
</event>
<event>
 5    0  0.1531977E+001  0.1720375E+03  0.7546771E-02  0.1175740E+00
         21   -1    0    0  502  501  0.00000000000E+00  0.00000000000E+00  0.21737241829E+03  0.21737241829E+03  0.00000000000E+00 0. -1.
         21   -1    0    0  504  502 -0.00000000000E+00 -0.00000000000E+00 -0.41187766968E+03  0.41187766968E+03  0.00000000000E+00 0.  1.
         25    1    1    2    0    0  0.45662369990E+02  0.19511694180E+03 -0.14985577242E+03  0.27970953781E+03  0.12500000000E+03 0.  0.
         21    1    1    2  503  501 -0.64094574470E+02 -0.90481491603E+02  0.11372162269E+03  0.15883205680E+03  0.00000000000E+00 0. -1.
         21    1    1    2  504  503  0.18432204480E+02 -0.10463545020E+03 -0.15837110166E+03  0.19070849337E+03  0.00000000000E+00 0. -1.
<mgrwt>
<rscale>  4 0.17203751E+03</rscale>
<asrwt>0</asrwt>
<pdfrwt beam="1">  1       21 0.33441910E-01 0.17203751E+03</pdfrwt>
<pdfrwt beam="2">  1       21 0.63365795E-01 0.17203751E+03</pdfrwt>
<totfact> 0.20086968E+04</totfact>
</mgrwt>
</event>
<event>
 5    0  0.1531977E+001  0.2832175E+03  0.7546771E-02  0.1093944E+00
         21   -1    0    0  503  501  0.00000000000E+00  0.00000000000E+00  0.70581736529E+03  0.70581736529E+03  0.00000000000E+00 0.  1.
         21   -1    0    0  504  502 -0.00000000000E+00 -0.00000000000E+00 -0.15826634055E+03  0.15826634055E+03  0.00000000000E+00 0. -1.
         25    1    1    2    0    0 -0.20214554945E+03 -0.15402700073E+03  0.52693459438E+03  0.59822421121E+03  0.12500000000E+03 0.  0.
         21    1    1    2  503  502  0.16969616958E+03  0.13422155990E+03 -0.10670753053E+02  0.21662428785E+03  0.00000000000E+00 0. -1.
         21    1    1    2  504  501  0.32449379871E+02  0.19805440829E+02  0.31287183409E+02  0.49235206774E+02  0.00000000000E+00 0.  1.
<mgrwt>
<rscale>  4 0.28321748E+03</rscale>
<asrwt>0</asrwt>
<pdfrwt beam="1">  1       21 0.10858729E+00 0.28321748E+03</pdfrwt>
<pdfrwt beam="2">  1       21 0.24348668E-01 0.28321748E+03</pdfrwt>
<totfact> 0.10165829E+04</totfact>
</mgrwt>
</event>
<event>
 5    0  0.1531977E+001  0.3235379E+03  0.7546771E-02  0.1074032E+00
         21   -1    0    0  502  501  0.00000000000E+00  0.00000000000E+00  0.37050322029E+03  0.37050322029E+03  0.00000000000E+00 0.  1.
         21   -1    0    0  504  502 -0.00000000000E+00 -0.00000000000E+00 -0.45322840311E+03  0.45322840311E+03  0.00000000000E+00 0.  1.
         25    1    1    2    0    0  0.22679222121E+03 -0.16514601188E+03 -0.24572883998E+03  0.39333901363E+03  0.12500000000E+03 0.  0.
         21    1    1    2  503  501 -0.24512818175E+03  0.17770713938E+03  0.21666834317E+03  0.37230743184E+03  0.00000000000E+00 0.  1.
         21    1    1    2  504  503  0.18335960532E+02 -0.12561127503E+02 -0.53664686000E+02  0.58085177939E+02  0.00000000000E+00 0. -1.
<mgrwt>
<rscale>  4 0.32353788E+03</rscale>
<asrwt>0</asrwt>
<pdfrwt beam="1">  1       21 0.57000496E-01 0.32353788E+03</pdfrwt>
<pdfrwt beam="2">  1       21 0.69727446E-01 0.32353788E+03</pdfrwt>
<totfact> 0.49919157E+03</totfact>
</mgrwt>
</event>
<event>
 5    0  0.1531977E+001  0.2821579E+03  0.7546771E-02  0.1094516E+00
         21   -1    0    0  502  501  0.00000000000E+00  0.00000000000E+00  0.17370142317E+04  0.17370142317E+04  0.00000000000E+00 0.  1.
         21   -1    0    0  504  502 -0.00000000000E+00 -0.00000000000E+00 -0.50761200291E+02  0.50761200291E+02  0.00000000000E+00 0.  1.
         25    1    1    2    0    0  0.20534968329E+03 -0.13175950959E+03  0.62741503987E+03  0.68469240761E+03  0.12500000000E+03 0.  0.
         21    1    1    2  503  501 -0.22711478626E+03  0.12268955946E+03  0.10435001785E+04  0.10749541742E+04  0.00000000000E+00 0.  1.
         21    1    1    2  504  503  0.21765102964E+02  0.90699501248E+01  0.15337813041E+02  0.28128850157E+02  0.00000000000E+00 0.  1.
<mgrwt>
<rscale>  4 0.28215791E+03</rscale>
<asrwt>0</asrwt>
<pdfrwt beam="1">  1       21 0.26723291E+00 0.28215791E+03</pdfrwt>
<pdfrwt beam="2">  1       21 0.78094168E-02 0.28215791E+03</pdfrwt>
<totfact> 0.61031270E+03</totfact>
</mgrwt>
</event>
<event>
 5    0  0.1531977E+001  0.4203856E+03  0.7546771E-02  0.1036941E+00
         21   -1    0    0  504  501  0.00000000000E+00  0.00000000000E+00  0.19623881741E+03  0.19623881741E+03  0.00000000000E+00 0.  1.
         21   -1    0    0  503  502 -0.00000000000E+00 -0.00000000000E+00 -0.11637677394E+04  0.11637677394E+04  0.00000000000E+00 0.  1.
         25    1    1    2    0    0  0.40580526419E+03  0.92760931155E+02 -0.71988315973E+03  0.84091573089E+03  0.12500000000E+03 0.  0.
         21    1    1    2  503  501 -0.26070026410E+02  0.19398500828E+02 -0.85062733773E+02  0.91058315317E+02  0.00000000000E+00 0.  1.
         21    1    1    2  504  502 -0.37973523779E+03 -0.11215943198E+03 -0.16258302851E+03  0.42803251063E+03  0.00000000000E+00 0.  1.
<mgrwt>
<rscale>  4 0.42038555E+03</rscale>
<asrwt>0</asrwt>
<pdfrwt beam="1">  1       21 0.30190587E-01 0.42038555E+03</pdfrwt>
<pdfrwt beam="2">  1       21 0.17904119E+00 0.42038555E+03</pdfrwt>
<totfact> 0.16686816E+03</totfact>
</mgrwt>
</event>
<event>
 5    0  0.1531977E+001  0.2318301E+03  0.7546771E-02  0.1125358E+00
         21   -1    0    0  502  501  0.00000000000E+00  0.00000000000E+00  0.29328569424E+03  0.29328569424E+03  0.00000000000E+00 0. -1.
         21   -1    0    0  504  502 -0.00000000000E+00 -0.00000000000E+00 -0.71708590440E+03  0.71708590440E+03  0.00000000000E+00 0. -1.
         25    1    1    2    0    0 -0.22675999969E+03  0.78351605242E+02 -0.25315489836E+03  0.37050165191E+03  0.12500000000E+03 0.  0.
         21    1    1    2  503  501  0.48435693249E+02 -0.49899580433E+02  0.20856801861E+03  0.21985586846E+03  0.00000000000E+00 0. -1.
         21    1    1    2  504  503  0.17832430644E+03 -0.28452024810E+02 -0.37921333041E+03  0.42001407827E+03  0.00000000000E+00 0. -1.
<mgrwt>
<rscale>  4 0.23183012E+03</rscale>
<asrwt>0</asrwt>
<pdfrwt beam="1">  1       21 0.45120877E-01 0.23183012E+03</pdfrwt>
<pdfrwt beam="2">  1       21 0.11032091E+00 0.23183012E+03</pdfrwt>
<totfact> 0.29603964E+03</totfact>
</mgrwt>
</event>
<event>
 5    0  0.1531977E+001  0.2064868E+03  0.7546771E-02  0.1144379E+00
         21   -1    0    0  502  501  0.00000000000E+00  0.00000000000E+00  0.50318196049E+03  0.50318196049E+03  0.00000000000E+00 0. -1.
         21   -1    0    0  504  502 -0.00000000000E+00 -0.00000000000E+00 -0.32815670474E+03  0.32815670474E+03  0.00000000000E+00 0. -1.
         25    1    1    2    0    0 -0.15200758593E+03 -0.18996669967E+03  0.21329479316E+03  0.34686210798E+03  0.12500000000E+03 0.  0.
         21    1    1    2  503  501  0.33015506124E+02  0.86524067053E+02  0.18748716120E+03  0.20911210735E+03  0.00000000000E+00 0. -1.
         21    1    1    2  504  503  0.11899207980E+03  0.10344263262E+03 -0.22575669862E+03  0.27536444990E+03  0.00000000000E+00 0. -1.
<mgrwt>
<rscale>  4 0.20648679E+03</rscale>
<asrwt>0</asrwt>
<pdfrwt beam="1">  1       21 0.77412609E-01 0.20648679E+03</pdfrwt>
<pdfrwt beam="2">  1       21 0.50485647E-01 0.20648679E+03</pdfrwt>
<totfact> 0.54728145E+03</totfact>
</mgrwt>
</event>
<event>
 5    0  0.1531977E+001  0.3066680E+03  0.7546771E-02  0.1081954E+00
         21   -1    0    0  502  501  0.00000000000E+00  0.00000000000E+00  0.14252692790E+03  0.14252692790E+03  0.00000000000E+00 0.  1.
         21   -1    0    0  504  502 -0.00000000000E+00 -0.00000000000E+00 -0.18880750291E+04  0.18880750291E+04  0.00000000000E+00 0.  1.
         25    1    1    2    0    0  0.22443494495E+03 -0.10870718665E+03 -0.12518890172E+04  0.12825908967E+04  0.12500000000E+03 0.  0.
         21    1    1    2  503  501 -0.20553974493E+03  0.19817433981E+03 -0.43683951370E+02  0.28883895740E+03  0.00000000000E+00 0.  1.
         21    1    1    2  504  503 -0.18895200017E+02 -0.89467153160E+02 -0.44997513267E+03  0.45917210292E+03  0.00000000000E+00 0.  1.
<mgrwt>
<rscale>  4 0.30666798E+03</rscale>
<asrwt>0</asrwt>
<pdfrwt beam="1">  1       21 0.21927219E-01 0.30666798E+03</pdfrwt>
<pdfrwt beam="2">  1       21 0.29047309E+00 0.30666798E+03</pdfrwt>
<totfact> 0.66549645E+02</totfact>
</mgrwt>
</event>
<event>
 5    0  0.1531977E+001  0.2971663E+03  0.7546771E-02  0.1086666E+00
         21   -1    0    0  503  501  0.00000000000E+00  0.00000000000E+00  0.17134646919E+03  0.17134646919E+03  0.00000000000E+00 0. -1.
         21   -1    0    0  504  502 -0.00000000000E+00 -0.00000000000E+00 -0.95641245706E+03  0.95641245706E+03  0.00000000000E+00 0. -1.
         25    1    1    2    0    0  0.26935934343E+03  0.11765824491E+03 -0.54229902148E+03  0.62937361494E+03  0.12500000000E+03 0.  0.
         21    1    1    2  503  502 -0.78320699802E+01 -0.73196110146E+02 -0.22016341361E+03  0.23214422360E+03  0.00000000000E+00 0. -1.
         21    1    1    2  504  501 -0.26152727345E+03 -0.44462134759E+02 -0.22603552784E+02  0.26624108771E+03  0.00000000000E+00 0. -1.
<mgrwt>
<rscale>  4 0.29716626E+03</rscale>
<asrwt>0</asrwt>
<pdfrwt beam="1">  1       21 0.26360996E-01 0.29716626E+03</pdfrwt>
<pdfrwt beam="2">  1       21 0.14714037E+00 0.29716626E+03</pdfrwt>
<totfact> 0.39968367E+03</totfact>
</mgrwt>
</event>
<event>
 5    0  0.1531977E+001  0.2430629E+03  0.7546771E-02  0.1117769E+00
         21   -1    0    0  504  501  0.00000000000E+00  0.00000000000E+00  0.31293503226E+03  0.31293503226E+03  0.00000000000E+00 0. -1.
         21   -1    0    0  503  502 -0.00000000000E+00 -0.00000000000E+00 -0.16977224306E+03  0.16977224306E+03  0.00000000000E+00 0. -1.
         25    1    1    2    0    0  0.20549706683E+03 -0.35007426734E+02  0.69111618054E+02  0.25269740828E+03  0.12500000000E+03 0.  0.
         21    1    1    2  503  501 -0.48384265238E+02  0.34736520535E+02  0.10255754716E+02  0.60438758147E+02  0.00000000000E+00 0.  1.
         21    1    1    2  504  502 -0.15711280159E+03  0.27090619928E+00  0.63795416432E+02  0.16957110889E+03  0.00000000000E+00 0. -1.
<mgrwt>
<rscale>  4 0.24306288E+03</rscale>
<asrwt>0</asrwt>
<pdfrwt beam="1">  1       21 0.48143851E-01 0.24306288E+03</pdfrwt>
<pdfrwt beam="2">  1       21 0.26118807E-01 0.24306288E+03</pdfrwt>
<totfact> 0.56165929E+04</totfact>
</mgrwt>
</event>
<event>
 5    0  0.1531977E+001  0.3742670E+03  0.7546771E-02  0.1053073E+00
         21   -1    0    0  503  501  0.00000000000E+00  0.00000000000E+00  0.54864422932E+03  0.54864422932E+03  0.00000000000E+00 0.  1.
         21   -1    0    0  504  502 -0.00000000000E+00 -0.00000000000E+00 -0.12521975366E+04  0.12521975366E+04  0.00000000000E+00 0.  1.
         25    1    1    2    0    0 -0.15721230795E+03  0.28228292039E+03  0.41857448560E+03  0.54334975560E+03  0.12500000000E+03 0.  0.
         21    1    1    2  503  502  0.16254211970E+03 -0.31495191795E+03 -0.11566092951E+04  0.12096940576E+04  0.00000000000E+00 0.  1.
         21    1    1    2  504  501 -0.53298117540E+01  0.32668997562E+02  0.34481502230E+02  0.47797952791E+02  0.00000000000E+00 0. -1.
<mgrwt>
<rscale>  4 0.37426700E+03</rscale>
<asrwt>0</asrwt>
<pdfrwt beam="1">  1       21 0.84406805E-01 0.37426700E+03</pdfrwt>
<pdfrwt beam="2">  1       21 0.19264577E+00 0.37426700E+03</pdfrwt>
<totfact> 0.15367320E+02</totfact>
</mgrwt>
</event>
<event>
 5    0  0.1531977E+001  0.2135885E+03  0.7546771E-02  0.1138755E+00
         21   -1    0    0  503  501  0.00000000000E+00  0.00000000000E+00  0.43044605929E+02  0.43044605929E+02  0.00000000000E+00 0.  1.
         21   -1    0    0  504  502 -0.00000000000E+00 -0.00000000000E+00 -0.20153089278E+04  0.20153089278E+04  0.00000000000E+00 0.  1.
         25    1    1    2    0    0  0.20947085967E+03  0.10354467577E+03 -0.12685999636E+04  0.12959824106E+04  0.12500000000E+03 0.  0.
         21    1    1    2  503  502 -0.10999040427E+03  0.25753929442E+02 -0.42214201635E+03  0.43699546437E+03  0.00000000000E+00 0.  1.
         21    1    1    2  504  501 -0.99480455399E+02 -0.12929860521E+03 -0.28152234194E+03  0.32537565878E+03  0.00000000000E+00 0.  1.
<mgrwt>
<rscale>  4 0.21358851E+03</rscale>
<asrwt>0</asrwt>
<pdfrwt beam="1">  1       21 0.66222465E-02 0.21358851E+03</pdfrwt>
<pdfrwt beam="2">  1       21 0.31004755E+00 0.21358851E+03</pdfrwt>
<totfact> 0.48562775E+03</totfact>
</mgrwt>
</event>
<event>
 5    0  0.1531977E+001  0.2115847E+03  0.7546771E-02  0.1140317E+00
         21   -1    0    0  503  501  0.00000000000E+00  0.00000000000E+00  0.10037948785E+04  0.10037948785E+04  0.00000000000E+00 0.  1.
         21   -1    0    0  504  502 -0.00000000000E+00 -0.00000000000E+00 -0.15985920667E+03  0.15985920667E+03  0.00000000000E+00 0.  1.
         25    1    1    2    0    0  0.50587102704E+02 -0.22910931671E+03  0.35219042700E+02  0.26817068246E+03  0.12500000000E+03 0.  0.
         21    1    1    2  503  502 -0.23951325144E+02  0.12519389964E+03  0.63170823086E+02  0.14225938062E+03  0.00000000000E+00 0.  1.
         21    1    1    2  504  501 -0.26635777560E+02  0.10391541706E+03  0.74554580600E+03  0.75322402205E+03  0.00000000000E+00 0.  1.
<mgrwt>
<rscale>  4 0.21158472E+03</rscale>
<asrwt>0</asrwt>
<pdfrwt beam="1">  1       21 0.15442998E+00 0.21158472E+03</pdfrwt>
<pdfrwt beam="2">  1       21 0.24593725E-01 0.21158472E+03</pdfrwt>
<totfact> 0.42562832E+03</totfact>
</mgrwt>
</event>
<event>
 5    0  0.1531977E+001  0.3048088E+03  0.7546771E-02  0.1082861E+00
         21   -1    0    0  502  501  0.00000000000E+00  0.00000000000E+00  0.14814283692E+04  0.14814283692E+04  0.00000000000E+00 0. -1.
         21   -1    0    0  504  502 -0.00000000000E+00 -0.00000000000E+00 -0.54512879761E+03  0.54512879761E+03  0.00000000000E+00 0.  1.
         25    1    1    2    0    0 -0.20729893947E+03  0.33620055266E+03  0.25184180860E+03  0.48482260516E+03  0.12500000000E+03 0.  0.
         21    1    1    2  503  501  0.27263711543E+02 -0.14106459288E+03  0.10666996000E+04  0.10763319962E+04  0.00000000000E+00 0. -1.
         21    1    1    2  504  503  0.18003522793E+03 -0.19513595978E+03 -0.38224183696E+03  0.46540256554E+03  0.00000000000E+00 0.  1.
<mgrwt>
<rscale>  4 0.30480879E+03</rscale>
<asrwt>0</asrwt>
<pdfrwt beam="1">  1       21 0.22791206E+00 0.30480879E+03</pdfrwt>
<pdfrwt beam="2">  1       21 0.83865969E-01 0.30480879E+03</pdfrwt>
<totfact> 0.97590723E+01</totfact>
</mgrwt>
</event>
<event>
 5    0  0.1531977E+001  0.2361371E+03  0.7546771E-02  0.1122393E+00
         21   -1    0    0  502  501  0.00000000000E+00  0.00000000000E+00  0.45022753359E+03  0.45022753359E+03  0.00000000000E+00 0. -1.
         21   -1    0    0  504  502 -0.00000000000E+00 -0.00000000000E+00 -0.16929187821E+03  0.16929187821E+03  0.00000000000E+00 0. -1.
         25    1    1    2    0    0 -0.18636549371E+03  0.93775750819E+02  0.29864030375E+03  0.38514545266E+03  0.12500000000E+03 0.  0.
         21    1    1    2  503  501 -0.37676763435E-03 -0.25138355550E+02  0.20122536582E+02  0.32200208049E+02  0.00000000000E+00 0. -1.
         21    1    1    2  504  503  0.18636587047E+03 -0.68637395269E+02 -0.37827184945E+02  0.20217375108E+03  0.00000000000E+00 0. -1.
<mgrwt>
<rscale>  4 0.23613708E+03</rscale>
<asrwt>0</asrwt>
<pdfrwt beam="1">  1       21 0.69265774E-01 0.23613708E+03</pdfrwt>
<pdfrwt beam="2">  1       21 0.26044905E-01 0.23613708E+03</pdfrwt>
<totfact> 0.25947637E+04</totfact>
</mgrwt>
</event>
<event>
 5    0  0.1531977E+001  0.2406342E+03  0.7546771E-02  0.1119371E+00
         21   -1    0    0  504  501  0.00000000000E+00  0.00000000000E+00  0.64781763940E+02  0.64781763940E+02  0.00000000000E+00 0.  1.
         21   -1    0    0  501  502 -0.00000000000E+00 -0.00000000000E+00 -0.12440119945E+04  0.12440119945E+04  0.00000000000E+00 0.  1.
         25    1    1    2    0    0 -0.50141758988E+02  0.20742530892E+03 -0.27432345456E+03  0.36934782048E+03  0.12500000000E+03 0.  0.
         21    1    1    2  503  502 -0.26365748749E+01 -0.19417326912E+03 -0.63177674925E+03  0.66094785790E+03  0.00000000000E+00 0.  1.
         21    1    1    2  504  503  0.52778333863E+02 -0.13252039796E+02 -0.27313002679E+03  0.27849808010E+03  0.00000000000E+00 0.  1.
<mgrwt>
<rscale>  4 0.24063424E+03</rscale>
<asrwt>0</asrwt>
<pdfrwt beam="1">  1       21 0.99664260E-02 0.24063424E+03</pdfrwt>
<pdfrwt beam="2">  1       21 0.19138645E+00 0.24063424E+03</pdfrwt>
<totfact> 0.12032652E+04</totfact>
</mgrwt>
</event>
<event>
 5    0  0.1531977E+001  0.2625558E+03  0.7546771E-02  0.1105617E+00
         21   -1    0    0  503  501  0.00000000000E+00  0.00000000000E+00  0.30334616541E+02  0.30334616541E+02  0.00000000000E+00 0.  1.
         21   -1    0    0  504  502 -0.00000000000E+00 -0.00000000000E+00 -0.29921677612E+04  0.29921677612E+04  0.00000000000E+00 0. -1.
         25    1    1    2    0    0 -0.50348539667E+02  0.20409071183E+03 -0.19970250600E+04  0.20119448513E+04  0.12500000000E+03 0.  0.
         21    1    1    2  503  502  0.32030417784E+02  0.33775600558E+02 -0.31337692861E+03  0.31681514837E+03  0.00000000000E+00 0.  1.
         21    1    1    2  504  501  0.18318121883E+02 -0.23786631238E+03 -0.65143115606E+03  0.69374237815E+03  0.00000000000E+00 0.  1.
<mgrwt>
<rscale>  4 0.26255584E+03</rscale>
<asrwt>0</asrwt>
<pdfrwt beam="1">  1       21 0.46668648E-02 0.26255584E+03</pdfrwt>
<pdfrwt beam="2">  1       21 0.46033344E+00 0.26255584E+03</pdfrwt>
<totfact> 0.97614803E+02</totfact>
</mgrwt>
</event>
<event>
 5    0  0.1531977E+001  0.1821269E+03  0.7546771E-02  0.1165760E+00
         21   -1    0    0  504  501  0.00000000000E+00  0.00000000000E+00  0.76397710125E+03  0.76397710125E+03  0.00000000000E+00 0. -1.
         21   -1    0    0  503  502 -0.00000000000E+00 -0.00000000000E+00 -0.19305139615E+03  0.19305139615E+03  0.00000000000E+00 0. -1.
         25    1    1    2    0    0  0.21154801103E+03  0.84042804391E+02  0.24438883645E+03  0.35660434282E+03  0.12500000000E+03 0.  0.
         21    1    1    2  503  501 -0.10601087119E+03 -0.63233227452E+02 -0.10104395260E+03  0.15951998690E+03  0.00000000000E+00 0. -1.
         21    1    1    2  504  502 -0.10553713984E+03 -0.20809576939E+02  0.42758082124E+03  0.44090416768E+03  0.00000000000E+00 0. -1.
<mgrwt>
<rscale>  4 0.18212690E+03</rscale>
<asrwt>0</asrwt>
<pdfrwt beam="1">  1       21 0.11753494E+00 0.18212690E+03</pdfrwt>
<pdfrwt beam="2">  1       21 0.29700215E-01 0.18212690E+03</pdfrwt>
<totfact> 0.60907222E+03</totfact>
</mgrwt>
</event>
<event>
 5    0  0.1531977E+001  0.3341738E+03  0.7546771E-02  0.1069305E+00
         21   -1    0    0  503  501  0.00000000000E+00  0.00000000000E+00  0.33272975270E+03  0.33272975270E+03  0.00000000000E+00 0.  1.
         21   -1    0    0  504  502 -0.00000000000E+00 -0.00000000000E+00 -0.10011393685E+04  0.10011393685E+04  0.00000000000E+00 0.  1.
         25    1    1    2    0    0 -0.29308926164E+03 -0.12848399377E+03 -0.85076654186E+03  0.91751738986E+03  0.12500000000E+03 0.  0.
         21    1    1    2  503  502  0.10265705479E+03 -0.15039610204E+02 -0.17495451870E+02  0.10521763925E+03  0.00000000000E+00 0.  1.
         21    1    1    2  504  501  0.19043220685E+03  0.14352360397E+03  0.19985237793E+03  0.31113409210E+03  0.00000000000E+00 0.  1.
<mgrwt>
<rscale>  4 0.33417377E+03</rscale>
<asrwt>0</asrwt>
<pdfrwt beam="1">  1       21 0.51189193E-01 0.33417377E+03</pdfrwt>
<pdfrwt beam="2">  1       21 0.15402144E+00 0.33417377E+03</pdfrwt>
<totfact> 0.90274846E+02</totfact>
</mgrwt>
</event>
<event>
 5    0  0.1531977E+001  0.2655805E+03  0.7546771E-02  0.1103836E+00
         21   -1    0    0  503  501  0.00000000000E+00  0.00000000000E+00  0.56545629393E+03  0.56545629393E+03  0.00000000000E+00 0.  1.
         21   -1    0    0  504  502 -0.00000000000E+00 -0.00000000000E+00 -0.13035262819E+03  0.13035262819E+03  0.00000000000E+00 0.  1.
         25    1    1    2    0    0  0.24428586617E+03  0.11003783941E+02  0.18661747705E+03  0.33203576677E+03  0.12500000000E+03 0.  0.
         21    1    1    2  503  502 -0.22547436948E+03 -0.31736950525E+01  0.16921845495E+03  0.28192844682E+03  0.00000000000E+00 0.  1.
         21    1    1    2  504  501 -0.18811496691E+02 -0.78300888883E+01  0.79267733751E+02  0.81844708526E+02  0.00000000000E+00 0.  1.
<mgrwt>
<rscale>  4 0.26558049E+03</rscale>
<asrwt>0</asrwt>
<pdfrwt beam="1">  1       21 0.86993275E-01 0.26558049E+03</pdfrwt>
<pdfrwt beam="2">  1       21 0.20054251E-01 0.26558049E+03</pdfrwt>
<totfact> 0.25134084E+04</totfact>
</mgrwt>
</event>
<event>
 5    0  0.1531977E+001  0.3991474E+03  0.7546771E-02  0.1044075E+00
         21   -1    0    0  502  501  0.00000000000E+00  0.00000000000E+00  0.45069148243E+03  0.45069148243E+03  0.00000000000E+00 0. -1.
         21   -1    0    0  504  502 -0.00000000000E+00 -0.00000000000E+00 -0.41740626308E+03  0.41740626308E+03  0.00000000000E+00 0. -1.
         25    1    1    2    0    0 -0.28221586358E+03  0.27323920018E+03 -0.76948552404E+02  0.41934655583E+03  0.12500000000E+03 0.  0.
         21    1    1    2  503  501  0.26586676022E+03 -0.26040160742E+03  0.15208272131E+03  0.40202398617E+03  0.00000000000E+00 0. -1.
         21    1    1    2  504  503  0.16349103360E+02 -0.12837592760E+02 -0.41848949560E+02  0.46727203510E+02  0.00000000000E+00 0. -1.
<mgrwt>
<rscale>  4 0.39914741E+03</rscale>
<asrwt>0</asrwt>
<pdfrwt beam="1">  1       21 0.69337151E-01 0.39914741E+03</pdfrwt>
<pdfrwt beam="2">  1       21 0.64216348E-01 0.39914741E+03</pdfrwt>
<totfact> 0.37729265E+03</totfact>
</mgrwt>
</event>
<event>
 5    0  0.1531977E+001  0.4112037E+03  0.7546771E-02  0.1039968E+00
         21   -1    0    0  502  501  0.00000000000E+00  0.00000000000E+00  0.33957732358E+03  0.33957732358E+03  0.00000000000E+00 0.  1.
         21   -1    0    0  504  502 -0.00000000000E+00 -0.00000000000E+00 -0.52600128887E+03  0.52600128887E+03  0.00000000000E+00 0. -1.
         25    1    1    2    0    0 -0.18348966187E+03  0.34611412448E+03  0.98353975154E+01  0.41132125914E+03  0.12500000000E+03 0.  0.
         21    1    1    2  503  501  0.18370040918E+03 -0.27461533641E+03 -0.12482040765E+03  0.35318487721E+03  0.00000000000E+00 0.  1.
         21    1    1    2  504  503 -0.21074731543E+00 -0.71498788073E+02 -0.71438955155E+02  0.10107247610E+03  0.00000000000E+00 0.  1.
<mgrwt>
<rscale>  4 0.41120365E+03</rscale>
<asrwt>0</asrwt>
<pdfrwt beam="1">  1       21 0.52242665E-01 0.41120365E+03</pdfrwt>
<pdfrwt beam="2">  1       21 0.80923275E-01 0.41120365E+03</pdfrwt>
<totfact> 0.41377151E+03</totfact>
</mgrwt>
</event>
<event>
 5    0  0.1531977E+001  0.1938600E+03  0.7546771E-02  0.1155025E+00
         21   -1    0    0  502  501  0.00000000000E+00  0.00000000000E+00  0.17475677090E+03  0.17475677090E+03  0.00000000000E+00 0. -1.
         21   -1    0    0  504  502 -0.00000000000E+00 -0.00000000000E+00 -0.47590517943E+03  0.47590517943E+03  0.00000000000E+00 0. -1.
         25    1    1    2    0    0 -0.41870920528E+02 -0.20268669931E+03 -0.12364734406E+03  0.27156718829E+03  0.12500000000E+03 0.  0.
         21    1    1    2  503  501  0.38646408908E+02  0.12850984505E+03  0.47349003633E+02  0.14230338485E+03  0.00000000000E+00 0. -1.
         21    1    1    2  504  503  0.32245116207E+01  0.74176854262E+02 -0.22485006810E+03  0.23679137718E+03  0.00000000000E+00 0. -1.
<mgrwt>
<rscale>  4 0.19385996E+03</rscale>
<asrwt>0</asrwt>
<pdfrwt beam="1">  1       21 0.26885657E-01 0.19385996E+03</pdfrwt>
<pdfrwt beam="2">  1       21 0.73216181E-01 0.19385996E+03</pdfrwt>
<totfact> 0.22089078E+04</totfact>
</mgrwt>
</event>
<event>
 5    0  0.1531977E+001  0.2456447E+03  0.7546771E-02  0.1116089E+00
         21   -1    0    0  502  501  0.00000000000E+00  0.00000000000E+00  0.72203018294E+02  0.72203018294E+02  0.00000000000E+00 0.  1.
         21   -1    0    0  504  502 -0.00000000000E+00 -0.00000000000E+00 -0.10323441324E+04  0.10323441324E+04  0.00000000000E+00 0.  1.
         25    1    1    2    0    0  0.16407030558E+03 -0.15510428165E+03 -0.53723623766E+03  0.59600686105E+03  0.12500000000E+03 0.  0.
         21    1    1    2  503  501 -0.15605734998E+03  0.13330393239E+03 -0.20739218397E+03  0.29177963062E+03  0.00000000000E+00 0.  1.
         21    1    1    2  504  503 -0.80129555969E+01  0.21800349259E+02 -0.21551269246E+03  0.21676065901E+03  0.00000000000E+00 0.  1.
<mgrwt>
<rscale>  4 0.24564470E+03</rscale>
<asrwt>0</asrwt>
<pdfrwt beam="1">  1       21 0.11108156E-01 0.24564470E+03</pdfrwt>
<pdfrwt beam="2">  1       21 0.15882218E+00 0.24564470E+03</pdfrwt>
<totfact> 0.16709410E+04</totfact>
</mgrwt>
</event>
<event>
 5    0  0.1531977E+001  0.2295278E+03  0.7546771E-02  0.1126973E+00
         21   -1    0    0  502  501  0.00000000000E+00  0.00000000000E+00  0.26805812568E+03  0.26805812568E+03  0.00000000000E+00 0. -1.
         21   -1    0    0  504  502 -0.00000000000E+00 -0.00000000000E+00 -0.26768380265E+03  0.26768380265E+03  0.00000000000E+00 0. -1.
         25    1    1    2    0    0  0.31127829598E+01 -0.20489383179E+03  0.78311354589E+02  0.25248532627E+03  0.12500000000E+03 0.  0.
         21    1    1    2  503  501  0.77635452273E+02  0.38402760774E+02 -0.15661799033E+02  0.88018903842E+02  0.00000000000E+00 0. -1.
         21    1    1    2  504  503 -0.80748235232E+02  0.16649107102E+03 -0.62275232519E+02  0.19523769822E+03  0.00000000000E+00 0. -1.
<mgrwt>
<rscale>  4 0.22952777E+03</rscale>
<asrwt>0</asrwt>
<pdfrwt beam="1">  1       21 0.41239712E-01 0.22952777E+03</pdfrwt>
<pdfrwt beam="2">  1       21 0.41182123E-01 0.22952777E+03</pdfrwt>
<totfact> 0.31547990E+04</totfact>
</mgrwt>
</event>
<event>
 5    0  0.1531977E+001  0.2197602E+03  0.7546771E-02  0.1134062E+00
         21   -1    0    0  502  501  0.00000000000E+00  0.00000000000E+00  0.23866780437E+03  0.23866780437E+03  0.00000000000E+00 0. -1.
         21   -1    0    0  504  502 -0.00000000000E+00 -0.00000000000E+00 -0.10454674342E+04  0.10454674342E+04  0.00000000000E+00 0.  1.
         25    1    1    2    0    0  0.20855237234E+03  0.57891128574E+01 -0.60319966298E+03  0.65038637690E+03  0.12500000000E+03 0.  0.
         21    1    1    2  503  501 -0.17392327798E+03  0.44453791346E+02  0.17474066888E+03  0.25051895647E+03  0.00000000000E+00 0. -1.
         21    1    1    2  504  503 -0.34629094366E+02 -0.50242904203E+02 -0.37834063575E+03  0.38322990522E+03  0.00000000000E+00 0.  1.
<mgrwt>
<rscale>  4 0.21976022E+03</rscale>
<asrwt>0</asrwt>
<pdfrwt beam="1">  1       21 0.36718124E-01 0.21976022E+03</pdfrwt>
<pdfrwt beam="2">  1       21 0.16084114E+00 0.21976022E+03</pdfrwt>
<totfact> 0.17300626E+03</totfact>
</mgrwt>
</event>
<event>
 5    0  0.1531977E+001  0.2654929E+03  0.7546771E-02  0.1103887E+00
         21   -1    0    0  502  501  0.00000000000E+00  0.00000000000E+00  0.66937727752E+03  0.66937727752E+03  0.00000000000E+00 0. -1.
         21   -1    0    0  504  502 -0.00000000000E+00 -0.00000000000E+00 -0.31396190785E+03  0.31396190785E+03  0.00000000000E+00 0. -1.
         25    1    1    2    0    0 -0.26884138994E+03 -0.11658276344E+03 -0.14969767186E+03  0.35199662873E+03  0.12500000000E+03 0.  0.
         21    1    1    2  503  501  0.20577118484E+03  0.99544967455E+02  0.51668870638E+03  0.56499398258E+03  0.00000000000E+00 0. -1.
         21    1    1    2  504  503  0.63070205099E+02  0.17037795981E+02 -0.11575664853E+02  0.66348574061E+02  0.00000000000E+00 0. -1.
<mgrwt>
<rscale>  4 0.26549291E+03</rscale>
<asrwt>0</asrwt>
<pdfrwt beam="1">  1       21 0.10298112E+00 0.26549291E+03</pdfrwt>
<pdfrwt beam="2">  1       21 0.48301832E-01 0.26549291E+03</pdfrwt>
<totfact> 0.29678217E+03</totfact>
</mgrwt>
</event>
<event>
 5    0  0.1531977E+001  0.4665262E+03  0.7546771E-02  0.1022905E+00
         21   -1    0    0  503  501  0.00000000000E+00  0.00000000000E+00  0.25352175623E+03  0.25352175623E+03  0.00000000000E+00 0. -1.
         21   -1    0    0  501  502 -0.00000000000E+00 -0.00000000000E+00 -0.11625194750E+04  0.11625194750E+04  0.00000000000E+00 0. -1.
         25    1    1    2    0    0  0.44352676734E+03 -0.78458273804E+02 -0.45625495450E+03  0.65319620145E+03  0.12500000000E+03 0.  0.
         21    1    1    2  503  504 -0.45471555896E+03 -0.45133326874E+02 -0.44605581844E+03  0.63856796813E+03  0.00000000000E+00 0. -1.
         21    1    1    2  504  502  0.11188791618E+02  0.12359160068E+03 -0.66869458719E+01  0.12427706169E+03  0.00000000000E+00 0. -1.
<mgrwt>
<rscale>  4 0.46652619E+03</rscale>
<asrwt>0</asrwt>
<pdfrwt beam="1">  1       21 0.39003347E-01 0.46652619E+03</pdfrwt>
<pdfrwt beam="2">  1       21 0.17884915E+00 0.46652619E+03</pdfrwt>
<totfact> 0.97809057E+02</totfact>
</mgrwt>
</event>
<event>
 5    0  0.1531977E+001  0.1943830E+03  0.7546771E-02  0.1154566E+00
         21   -1    0    0  502  501  0.00000000000E+00  0.00000000000E+00  0.86534847780E+03  0.86534847780E+03  0.00000000000E+00 0. -1.
         21   -1    0    0  504  502 -0.00000000000E+00 -0.00000000000E+00 -0.14854804385E+03  0.14854804385E+03  0.00000000000E+00 0. -1.
         25    1    1    2    0    0 -0.17961771980E+03  0.10857816093E+03  0.37316311501E+03  0.44601283917E+03  0.12500000000E+03 0.  0.
         21    1    1    2  503  501  0.73107044169E+02 -0.14269351563E+02  0.40583837698E+03  0.41261730760E+03  0.00000000000E+00 0. -1.
         21    1    1    2  504  503  0.10651067563E+03 -0.94308809369E+02 -0.62201058049E+02  0.15526637488E+03  0.00000000000E+00 0. -1.
<mgrwt>
<rscale>  4 0.19438304E+03</rscale>
<asrwt>0</asrwt>
<pdfrwt beam="1">  1       21 0.13313053E+00 0.19438304E+03</pdfrwt>
<pdfrwt beam="2">  1       21 0.22853546E-01 0.19438304E+03</pdfrwt>
<totfact> 0.73019676E+03</totfact>
</mgrwt>
</event>
<event>
 5    0  0.1531977E+001  0.3895747E+03  0.7546771E-02  0.1047451E+00
         21   -1    0    0  504  501  0.00000000000E+00  0.00000000000E+00  0.60831286183E+03  0.60831286183E+03  0.00000000000E+00 0.  1.
         21   -1    0    0  503  502 -0.00000000000E+00 -0.00000000000E+00 -0.62576127080E+03  0.62576127080E+03  0.00000000000E+00 0. -1.
         25    1    1    2    0    0 -0.14967603172E+03 -0.29051151332E+03 -0.44455982165E+03  0.56573694317E+03  0.12500000000E+03 0.  0.
         21    1    1    2  503  501 -0.53585982357E+02 -0.24226721870E+02 -0.38809246307E+02  0.70459556886E+02  0.00000000000E+00 0.  1.
         21    1    1    2  504  502  0.20326201408E+03  0.31473823519E+03  0.46592065899E+03  0.59787763257E+03  0.00000000000E+00 0.  1.
<mgrwt>
<rscale>  4 0.38957470E+03</rscale>
<asrwt>0</asrwt>
<pdfrwt beam="1">  1       21 0.93586594E-01 0.38957470E+03</pdfrwt>
<pdfrwt beam="2">  1       21 0.96270965E-01 0.38957470E+03</pdfrwt>
<totfact> 0.74795160E+02</totfact>
</mgrwt>
</event>
<event>
 5    0  0.1531977E+001  0.2266086E+03  0.7546771E-02  0.1129050E+00
         21   -1    0    0  502  501  0.00000000000E+00  0.00000000000E+00  0.33950125331E+03  0.33950125331E+03  0.00000000000E+00 0. -1.
         21   -1    0    0  504  502 -0.00000000000E+00 -0.00000000000E+00 -0.25489681919E+03  0.25489681919E+03  0.00000000000E+00 0. -1.
         25    1    1    2    0    0 -0.94642892595E+02 -0.18269540152E+03  0.19664202011E+03  0.31085039960E+03  0.12500000000E+03 0.  0.
         21    1    1    2  503  501  0.21101215397E+02  0.11687699980E+02  0.37625625944E+02  0.44693974423E+02  0.00000000000E+00 0.  1.
         21    1    1    2  504  503  0.73541677197E+02  0.17100770154E+03 -0.14966321194E+03  0.23885369848E+03  0.00000000000E+00 0. -1.
<mgrwt>
<rscale>  4 0.22660859E+03</rscale>
<asrwt>0</asrwt>
<pdfrwt beam="1">  1       21 0.52230962E-01 0.22660859E+03</pdfrwt>
<pdfrwt beam="2">  1       21 0.39214895E-01 0.22660859E+03</pdfrwt>
<totfact> 0.21388442E+04</totfact>
</mgrwt>
</event>
<event>
 5    0  0.1531977E+001  0.2816085E+03  0.7546771E-02  0.1094814E+00
         21   -1    0    0  504  501  0.00000000000E+00  0.00000000000E+00  0.67658097252E+03  0.67658097252E+03  0.00000000000E+00 0. -1.
         21   -1    0    0  503  502 -0.00000000000E+00 -0.00000000000E+00 -0.30578167901E+03  0.30578167901E+03  0.00000000000E+00 0. -1.
         25    1    1    2    0    0 -0.24984293414E+03  0.12848983859E+03 -0.75007948711E+02  0.31651591229E+03  0.12500000000E+03 0.  0.
         21    1    1    2  503  501  0.20101233088E+03 -0.10046728182E+03  0.84493142426E+01  0.22488001866E+03  0.00000000000E+00 0. -1.
         21    1    1    2  504  502  0.48830603263E+02 -0.28022556765E+02  0.43735792798E+03  0.44096672059E+03  0.00000000000E+00 0. -1.
<mgrwt>
<rscale>  4 0.28160849E+03</rscale>
<asrwt>0</asrwt>
<pdfrwt beam="1">  1       21 0.10408938E+00 0.28160849E+03</pdfrwt>
<pdfrwt beam="2">  1       21 0.47043335E-01 0.28160849E+03</pdfrwt>
<totfact> 0.30254365E+03</totfact>
</mgrwt>
</event>
<event>
 5    0  0.1531977E+001  0.3098340E+03  0.7546771E-02  0.1080425E+00
         21   -1    0    0  502  501  0.00000000000E+00  0.00000000000E+00  0.39908347786E+03  0.39908347786E+03  0.00000000000E+00 0. -1.
         21   -1    0    0  504  502 -0.00000000000E+00 -0.00000000000E+00 -0.33402863164E+03  0.33402863164E+03  0.00000000000E+00 0. -1.
         25    1    1    2    0    0 -0.26701487054E+03  0.43388704524E+02 -0.14528597451E+03  0.33153059460E+03  0.12500000000E+03 0.  0.
         21    1    1    2  503  501  0.28784498742E+03 -0.83657581833E+01  0.21662760432E+03  0.36035016532E+03  0.00000000000E+00 0. -1.
         21    1    1    2  504  503 -0.20830116884E+02 -0.35022946340E+02 -0.62867835831E+01  0.41231349573E+02  0.00000000000E+00 0.  1.
<mgrwt>
<rscale>  4 0.30983404E+03</rscale>
<asrwt>0</asrwt>
<pdfrwt beam="1">  1       21 0.61397458E-01 0.30983404E+03</pdfrwt>
<pdfrwt beam="2">  1       21 0.51389021E-01 0.30983404E+03</pdfrwt>
<totfact> 0.83000469E+03</totfact>
</mgrwt>
</event>
<event>
 5    0  0.1531977E+001  0.2910797E+03  0.7546771E-02  0.1089787E+00
         21   -1    0    0  504  501  0.00000000000E+00  0.00000000000E+00  0.71719535224E+03  0.71719535224E+03  0.00000000000E+00 0. -1.
         21   -1    0    0  503  502 -0.00000000000E+00 -0.00000000000E+00 -0.13926653719E+03  0.13926653719E+03  0.00000000000E+00 0. -1.
         25    1    1    2    0    0  0.31328859466E+02  0.24605822567E+03  0.11512671084E+03  0.30067475352E+03  0.12500000000E+03 0.  0.
         21    1    1    2  503  501 -0.64353514088E+01  0.21507509149E+02  0.22382592739E+01  0.22560950824E+02  0.00000000000E+00 0. -1.
         21    1    1    2  504  502 -0.24893508057E+02 -0.26756573482E+03  0.46056384494E+03  0.53322618508E+03  0.00000000000E+00 0. -1.
<mgrwt>
<rscale>  4 0.29107966E+03</rscale>
<asrwt>0</asrwt>
<pdfrwt beam="1">  1       21 0.11033774E+00 0.29107966E+03</pdfrwt>
<pdfrwt beam="2">  1       21 0.21425621E-01 0.29107966E+03</pdfrwt>
<totfact> 0.12433049E+04</totfact>
</mgrwt>
</event>
<event>
 5    0  0.1531977E+001  0.2523981E+03  0.7546771E-02  0.1111799E+00
         21   -1    0    0  502  501  0.00000000000E+00  0.00000000000E+00  0.34124398891E+03  0.34124398891E+03  0.00000000000E+00 0.  1.
         21   -1    0    0  504  502 -0.00000000000E+00 -0.00000000000E+00 -0.34300337373E+03  0.34300337373E+03  0.00000000000E+00 0.  1.
         25    1    1    2    0    0  0.91810910213E+02  0.23874021707E+03 -0.13196457254E+03  0.31379257940E+03  0.12500000000E+03 0.  0.
         21    1    1    2  503  501 -0.59007683084E+02 -0.20345926696E+03  0.19620347531E+03  0.28874449553E+03  0.00000000000E+00 0.  1.
         21    1    1    2  504  503 -0.32803227129E+02 -0.35280950117E+02 -0.65998287594E+02  0.81710287704E+02  0.00000000000E+00 0. -1.
<mgrwt>
<rscale>  4 0.25239805E+03</rscale>
<asrwt>0</asrwt>
<pdfrwt beam="1">  1       21 0.52499075E-01 0.25239805E+03</pdfrwt>
<pdfrwt beam="2">  1       21 0.52769750E-01 0.25239805E+03</pdfrwt>
<totfact> 0.11294979E+04</totfact>
</mgrwt>
</event>
<event>
 5    0  0.1531977E+001  0.3303000E+03  0.7546771E-02  0.1071004E+00
         21   -1    0    0  503  501  0.00000000000E+00  0.00000000000E+00  0.15819991874E+04  0.15819991874E+04  0.00000000000E+00 0.  1.
         21   -1    0    0  504  502 -0.00000000000E+00 -0.00000000000E+00 -0.11677383751E+04  0.11677383751E+04  0.00000000000E+00 0. -1.
         25    1    1    2    0    0  0.31332143539E+03  0.15876538875E+03 -0.94049657438E+03  0.10116993511E+04  0.12500000000E+03 0.  0.
         21    1    1    2  503  502 -0.49173995706E+02 -0.62049541209E+01 -0.17308538495E+03  0.18004203341E+03  0.00000000000E+00 0. -1.
         21    1    1    2  504  501 -0.26414743969E+03 -0.15256043463E+03  0.15278427716E+04  0.15579961780E+04  0.00000000000E+00 0.  1.
<mgrwt>
<rscale>  4 0.33029998E+03</rscale>
<asrwt>0</asrwt>
<pdfrwt beam="1">  1       21 0.24338449E+00 0.33029998E+03</pdfrwt>
<pdfrwt beam="2">  1       21 0.17965206E+00 0.33029998E+03</pdfrwt>
<totfact> 0.10955668E+01</totfact>
</mgrwt>
</event>
<event>
 5    0  0.1531977E+001  0.2850751E+03  0.7546771E-02  0.1092949E+00
         21   -1    0    0  502  501  0.00000000000E+00  0.00000000000E+00  0.66868784754E+03  0.66868784754E+03  0.00000000000E+00 0. -1.
         21   -1    0    0  504  502 -0.00000000000E+00 -0.00000000000E+00 -0.26241828159E+03  0.26241828159E+03  0.00000000000E+00 0.  1.
         25    1    1    2    0    0 -0.96642588017E+02  0.20118815066E+03 -0.11925846426E+03  0.28224819411E+03  0.12500000000E+03 0.  0.
         21    1    1    2  503  501  0.77900330219E+02 -0.24961794207E+03  0.53554120899E+03  0.59597144645E+03  0.00000000000E+00 0. -1.
         21    1    1    2  504  503  0.18742257798E+02  0.48429791408E+02 -0.10013178783E+02  0.52886488563E+02  0.00000000000E+00 0.  1.
<mgrwt>
<rscale>  4 0.28507507E+03</rscale>
<asrwt>0</asrwt>
<pdfrwt beam="1">  1       21 0.10287505E+00 0.28507507E+03</pdfrwt>
<pdfrwt beam="2">  1       21 0.40372044E-01 0.28507507E+03</pdfrwt>
<totfact> 0.42594607E+03</totfact>
</mgrwt>
</event>
<event>
 5    0  0.1531977E+001  0.3857227E+03  0.7546771E-02  0.1048839E+00
         21   -1    0    0  503  501  0.00000000000E+00  0.00000000000E+00  0.49899762158E+03  0.49899762158E+03  0.00000000000E+00 0. -1.
         21   -1    0    0  504  502 -0.00000000000E+00 -0.00000000000E+00 -0.13476495018E+04  0.13476495018E+04  0.00000000000E+00 0. -1.
         25    1    1    2    0    0  0.12380479588E+02  0.45798170605E+03  0.12866951331E+03  0.49201764502E+03  0.12500000000E+03 0.  0.
         21    1    1    2  503  502  0.72440129433E+00 -0.35661341257E+03 -0.11221007543E+04  0.11774055179E+04  0.00000000000E+00 0. -1.
         21    1    1    2  504  501 -0.13104880882E+02 -0.10136829348E+03  0.14477936082E+03  0.17722396041E+03  0.00000000000E+00 0. -1.
<mgrwt>
<rscale>  4 0.38572266E+03</rscale>
<asrwt>0</asrwt>
<pdfrwt beam="1">  1       21 0.76768867E-01 0.38572266E+03</pdfrwt>
<pdfrwt beam="2">  1       21 0.20733069E+00 0.38572266E+03</pdfrwt>
<totfact> 0.15165984E+02</totfact>
</mgrwt>
</event>
<event>
 5    0  0.1531977E+001  0.3565414E+03  0.7546771E-02  0.1059962E+00
         21   -1    0    0  503  501  0.00000000000E+00  0.00000000000E+00  0.10647136673E+04  0.10647136673E+04  0.00000000000E+00 0.  1.
         21   -1    0    0  504  502 -0.00000000000E+00 -0.00000000000E+00 -0.37360256118E+03  0.37360256118E+03  0.00000000000E+00 0. -1.
         25    1    1    2    0    0  0.31792305188E+03 -0.10964560943E+03  0.77528418023E+03  0.85427617706E+03  0.12500000000E+03 0.  0.
         21    1    1    2  503  502 -0.32417451486E+03  0.79568571971E+02 -0.24895954143E+03  0.41641460949E+03  0.00000000000E+00 0. -1.
         21    1    1    2  504  501  0.62514629797E+01  0.30077037463E+02  0.16478646728E+03  0.16762544189E+03  0.00000000000E+00 0. -1.
<mgrwt>
<rscale>  4 0.35654144E+03</rscale>
<asrwt>0</asrwt>
<pdfrwt beam="1">  1       21 0.16380210E+00 0.35654144E+03</pdfrwt>
<pdfrwt beam="2">  1       21 0.57477318E-01 0.35654144E+03</pdfrwt>
<totfact> 0.58672496E+02</totfact>
</mgrwt>
</event>
<event>
 5    0  0.1531977E+001  0.3500437E+03  0.7546771E-02  0.1062597E+00
         21   -1    0    0  504  501  0.00000000000E+00  0.00000000000E+00  0.13816964359E+04  0.13816964359E+04  0.00000000000E+00 0.  1.
         21   -1    0    0  501  502 -0.00000000000E+00 -0.00000000000E+00 -0.18420746578E+03  0.18420746578E+03  0.00000000000E+00 0.  1.
         25    1    1    2    0    0 -0.26455458701E+03 -0.17801367716E+03  0.59792809875E+02  0.34767539297E+03  0.12500000000E+03 0.  0.
         21    1    1    2  503  502  0.32893591642E+03  0.16895142142E+03  0.99208680181E+03  0.10587632607E+04  0.00000000000E+00 0.  1.
         21    1    1    2  504  503 -0.64381329410E+02  0.90622557355E+01  0.14560935841E+03  0.15946524797E+03  0.00000000000E+00 0.  1.
<mgrwt>
<rscale>  4 0.35004373E+03</rscale>
<asrwt>0</asrwt>
<pdfrwt beam="1">  1       21 0.21256868E+00 0.35004373E+03</pdfrwt>
<pdfrwt beam="2">  1       21 0.28339611E-01 0.35004373E+03</pdfrwt>
<totfact> 0.11690233E+03</totfact>
</mgrwt>
</event>
<event>
 5    0  0.1531977E+001  0.2324705E+03  0.7546771E-02  0.1124913E+00
         21   -1    0    0  502  501  0.00000000000E+00  0.00000000000E+00  0.67747159898E+03  0.67747159898E+03  0.00000000000E+00 0.  1.
         21   -1    0    0  504  502 -0.00000000000E+00 -0.00000000000E+00 -0.11081113099E+03  0.11081113099E+03  0.00000000000E+00 0.  1.
         25    1    1    2    0    0  0.20592113759E+03 -0.73111722774E+01  0.41506092816E+03  0.47995577112E+03  0.12500000000E+03 0.  0.
         21    1    1    2  503  501 -0.13742906409E+02 -0.14605946384E+02  0.10826667997E+03  0.11010846988E+03  0.00000000000E+00 0.  1.
         21    1    1    2  504  503 -0.19217823118E+03  0.21917118662E+02  0.43332859855E+02  0.19821848898E+03  0.00000000000E+00 0.  1.
<mgrwt>
<rscale>  4 0.23247050E+03</rscale>
<asrwt>0</asrwt>
<pdfrwt beam="1">  1       21 0.10422640E+00 0.23247050E+03</pdfrwt>
<pdfrwt beam="2">  1       21 0.17047867E-01 0.23247050E+03</pdfrwt>
<totfact> 0.22557028E+04</totfact>
</mgrwt>
</event>
<event>
 5    0  0.1531977E+001  0.2481122E+03  0.7546771E-02  0.1114504E+00
         21   -1    0    0  502  501  0.00000000000E+00  0.00000000000E+00  0.38947973563E+03  0.38947973563E+03  0.00000000000E+00 0.  1.
         21   -1    0    0  504  502 -0.00000000000E+00 -0.00000000000E+00 -0.24871123629E+03  0.24871123629E+03  0.00000000000E+00 0.  1.
         25    1    1    2    0    0 -0.21118467536E+03  0.10052500325E+03 -0.11318854935E+02  0.26543805278E+03  0.12500000000E+03 0.  0.
         21    1    1    2  503  501  0.20299745335E+03 -0.50866143896E+02  0.20969580870E+03  0.29625607647E+03  0.00000000000E+00 0.  1.
         21    1    1    2  504  503  0.81872220183E+01 -0.49658859355E+02 -0.57608454427E+02  0.76496842669E+02  0.00000000000E+00 0.  1.
<mgrwt>
<rscale>  4 0.24811220E+03</rscale>
<asrwt>0</asrwt>
<pdfrwt beam="1">  1       21 0.59919960E-01 0.24811220E+03</pdfrwt>
<pdfrwt beam="2">  1       21 0.38263267E-01 0.24811220E+03</pdfrwt>
<totfact> 0.16584789E+04</totfact>
</mgrwt>
</event>
<event>
 5    0  0.1531977E+001  0.2619602E+03  0.7546771E-02  0.1105971E+00
         21   -1    0    0  503  501  0.00000000000E+00  0.00000000000E+00  0.30268653078E+03  0.30268653078E+03  0.00000000000E+00 0. -1.
         21   -1    0    0  504  502 -0.00000000000E+00 -0.00000000000E+00 -0.25502214690E+03  0.25502214690E+03  0.00000000000E+00 0. -1.
         25    1    1    2    0    0 -0.14611244180E+03 -0.16756801575E+03 -0.35577419189E+02  0.25752405384E+03  0.12500000000E+03 0.  0.
         21    1    1    2  503  502  0.17492459871E+02 -0.39780427499E+02  0.40063502043E+01  0.43640799790E+02  0.00000000000E+00 0. -1.
         21    1    1    2  504  501  0.12861998193E+03  0.20734844325E+03  0.79235452864E+02  0.25654382405E+03  0.00000000000E+00 0. -1.
<mgrwt>
<rscale>  4 0.26196019E+03</rscale>
<asrwt>0</asrwt>
<pdfrwt beam="1">  1       21 0.46567159E-01 0.26196019E+03</pdfrwt>
<pdfrwt beam="2">  1       21 0.39234176E-01 0.26196019E+03</pdfrwt>
<totfact> 0.26717247E+04</totfact>
</mgrwt>
</event>
<event>
 5    0  0.1531977E+001  0.5391120E+03  0.7546771E-02  0.1004046E+00
         21   -1    0    0  504  501  0.00000000000E+00  0.00000000000E+00  0.20254240800E+04  0.20254240800E+04  0.00000000000E+00 0. -1.
         21   -1    0    0  503  502 -0.00000000000E+00 -0.00000000000E+00 -0.64575115508E+03  0.64575115508E+03  0.00000000000E+00 0. -1.
         25    1    1    2    0    0  0.43823733733E+03  0.88774558595E+02  0.24126431197E+01  0.46428838768E+03  0.12500000000E+03 0.  0.
         21    1    1    2  503  501  0.87399660498E+02 -0.23979524520E+03 -0.32827085030E+03  0.41581511689E+03  0.00000000000E+00 0. -1.
         21    1    1    2  504  502 -0.52563699783E+03  0.15102068661E+03  0.17055311321E+04  0.17910717305E+04  0.00000000000E+00 0. -1.
<mgrwt>
<rscale>  4 0.53911201E+03</rscale>
<asrwt>0</asrwt>
<pdfrwt beam="1">  1       21 0.31160370E+00 0.53911201E+03</pdfrwt>
<pdfrwt beam="2">  1       21 0.99346332E-01 0.53911201E+03</pdfrwt>
<totfact> 0.17071462E+01</totfact>
</mgrwt>
</event>
<event>
 5    0  0.1531977E+001  0.3453657E+03  0.7546771E-02  0.1064533E+00
         21   -1    0    0  503  501  0.00000000000E+00  0.00000000000E+00  0.66182721471E+03  0.66182721471E+03  0.00000000000E+00 0. -1.
         21   -1    0    0  504  502 -0.00000000000E+00 -0.00000000000E+00 -0.48663041074E+03  0.48663041074E+03  0.00000000000E+00 0. -1.
         25    1    1    2    0    0  0.35068756881E+03 -0.81852074603E+02  0.43693239277E+03  0.57984174469E+03  0.12500000000E+03 0.  0.
         21    1    1    2  503  502 -0.97701634517E+02  0.22713874057E+02 -0.29039784889E+03  0.30723352698E+03  0.00000000000E+00 0. -1.
         21    1    1    2  504  501 -0.25298593429E+03  0.59138200546E+02  0.28662260089E+02  0.26138235378E+03  0.00000000000E+00 0. -1.
<mgrwt>
<rscale>  4 0.34536574E+03</rscale>
<asrwt>0</asrwt>
<pdfrwt beam="1">  1       21 0.10181957E+00 0.34536574E+03</pdfrwt>
<pdfrwt beam="2">  1       21 0.74866217E-01 0.34536574E+03</pdfrwt>
<totfact> 0.11225595E+03</totfact>
</mgrwt>
</event>
<event>
 5    0  0.1531977E+001  0.2291766E+03  0.7546771E-02  0.1127221E+00
         21   -1    0    0  503  501  0.00000000000E+00  0.00000000000E+00  0.12534319603E+04  0.12534319603E+04  0.00000000000E+00 0.  1.
         21   -1    0    0  504  502 -0.00000000000E+00 -0.00000000000E+00 -0.69177445765E+02  0.69177445765E+02  0.00000000000E+00 0.  1.
         25    1    1    2    0    0 -0.18355722061E+03  0.99139056617E+02  0.27284808413E+03  0.36550360163E+03  0.12500000000E+03 0.  0.
         21    1    1    2  503  502  0.15740092576E+03 -0.75404467886E+02  0.31880051007E+03  0.36344827751E+03  0.00000000000E+00 0.  1.
         21    1    1    2  504  501  0.26156294858E+02 -0.23734588731E+02  0.59260592037E+03  0.59365752696E+03  0.00000000000E+00 0.  1.
<mgrwt>
<rscale>  4 0.22917656E+03</rscale>
<asrwt>0</asrwt>
<pdfrwt beam="1">  1       21 0.19283567E+00 0.22917656E+03</pdfrwt>
<pdfrwt beam="2">  1       21 0.10642685E-01 0.22917656E+03</pdfrwt>
<totfact> 0.10555452E+04</totfact>
</mgrwt>
</event>
<event>
 5    0  0.1531977E+001  0.2814932E+03  0.7546771E-02  0.1094876E+00
         21   -1    0    0  503  501  0.00000000000E+00  0.00000000000E+00  0.91661104007E+02  0.91661104007E+02  0.00000000000E+00 0. -1.
         21   -1    0    0  504  502 -0.00000000000E+00 -0.00000000000E+00 -0.16476535281E+04  0.16476535281E+04  0.00000000000E+00 0. -1.
         25    1    1    2    0    0 -0.42592742616E+02  0.25821742739E+03 -0.11424168960E+04  0.11786567548E+04  0.12500000000E+03 0.  0.
         21    1    1    2  503  502 -0.26371342672E+02 -0.17170355547E+02 -0.26982288306E+03  0.27165172012E+03  0.00000000000E+00 0.  1.
         21    1    1    2  504  501  0.68964085288E+02 -0.24104707184E+03 -0.14375264507E+03  0.28900615715E+03  0.00000000000E+00 0. -1.
<mgrwt>
<rscale>  4 0.28149319E+03</rscale>
<asrwt>0</asrwt>
<pdfrwt beam="1">  1       21 0.14101710E-01 0.28149319E+03</pdfrwt>
<pdfrwt beam="2">  1       21 0.25348512E+00 0.28149319E+03</pdfrwt>
<totfact> 0.25619210E+03</totfact>
</mgrwt>
</event>
<event>
 5    0  0.1531977E+001  0.2498288E+03  0.7546771E-02  0.1113413E+00
         21   -1    0    0  502  501  0.00000000000E+00  0.00000000000E+00  0.11889308699E+04  0.11889308699E+04  0.00000000000E+00 0.  1.
         21   -1    0    0  504  502 -0.00000000000E+00 -0.00000000000E+00 -0.64269676895E+02  0.64269676895E+02  0.00000000000E+00 0.  1.
         25    1    1    2    0    0 -0.12052111603E+03  0.17962208167E+03  0.88072489269E+03  0.91547297515E+03  0.12500000000E+03 0.  0.
         21    1    1    2  503  501  0.74870342332E+02 -0.14327949420E+03  0.22363196168E+03  0.27594534949E+03  0.00000000000E+00 0.  1.
         21    1    1    2  504  503  0.45650773700E+02 -0.36342587475E+02  0.20304338596E+02  0.61782222116E+02  0.00000000000E+00 0.  1.
<mgrwt>
<rscale>  4 0.24982880E+03</rscale>
<asrwt>0</asrwt>
<pdfrwt beam="1">  1       21 0.18291243E+00 0.24982880E+03</pdfrwt>
<pdfrwt beam="2">  1       21 0.98876434E-02 0.24982880E+03</pdfrwt>
<totfact> 0.13832694E+04</totfact>
</mgrwt>
</event>
<event>
 5    0  0.1531977E+001  0.3100454E+03  0.7546771E-02  0.1080324E+00
         21   -1    0    0  504  501  0.00000000000E+00  0.00000000000E+00  0.15704104844E+03  0.15704104844E+03  0.00000000000E+00 0. -1.
         21   -1    0    0  503  502 -0.00000000000E+00 -0.00000000000E+00 -0.97527862559E+03  0.97527862559E+03  0.00000000000E+00 0. -1.
         25    1    1    2    0    0 -0.20546876123E+03 -0.19484597052E+03 -0.10438407182E+03  0.32665486147E+03  0.12500000000E+03 0.  0.
         21    1    1    2  503  501  0.25517472917E+03  0.14252621105E+03 -0.63341858049E+03  0.69760086105E+03  0.00000000000E+00 0. -1.
         21    1    1    2  504  502 -0.49705967933E+02  0.52319759473E+02 -0.80434924853E+02  0.10806395151E+03  0.00000000000E+00 0. -1.
<mgrwt>
<rscale>  4 0.31004544E+03</rscale>
<asrwt>0</asrwt>
<pdfrwt beam="1">  1       21 0.24160161E-01 0.31004544E+03</pdfrwt>
<pdfrwt beam="2">  1       21 0.15004287E+00 0.31004544E+03</pdfrwt>
<totfact> 0.44576912E+03</totfact>
</mgrwt>
</event>
<event>
 5    0  0.1531977E+001  0.2574952E+03  0.7546771E-02  0.1108658E+00
         21   -1    0    0  504  501  0.00000000000E+00  0.00000000000E+00  0.24215093793E+03  0.24215093793E+03  0.00000000000E+00 0.  1.
         21   -1    0    0  503  502 -0.00000000000E+00 -0.00000000000E+00 -0.10722432492E+04  0.10722432492E+04  0.00000000000E+00 0. -1.
         25    1    1    2    0    0 -0.22580264177E+03  0.87297107985E+02  0.77459710796E+02  0.28325364056E+03  0.12500000000E+03 0.  0.
         21    1    1    2  503  501  0.20486685694E+03 -0.90380095953E+02 -0.95409190057E+03  0.98001548230E+03  0.00000000000E+00 0. -1.
         21    1    1    2  504  502  0.20935784838E+02  0.30829879687E+01  0.46539878521E+02  0.51125064248E+02  0.00000000000E+00 0. -1.
<mgrwt>
<rscale>  4 0.25749522E+03</rscale>
<asrwt>0</asrwt>
<pdfrwt beam="1">  1       21 0.37253990E-01 0.25749522E+03</pdfrwt>
<pdfrwt beam="2">  1       21 0.16496050E+00 0.25749522E+03</pdfrwt>
<totfact> 0.15199335E+03</totfact>
</mgrwt>
</event>
<event>
 5    0  0.1531977E+001  0.2543442E+03  0.7546771E-02  0.1110590E+00
         21   -1    0    0  502  501  0.00000000000E+00  0.00000000000E+00  0.74145269706E+03  0.74145269706E+03  0.00000000000E+00 0.  1.
         21   -1    0    0  504  502 -0.00000000000E+00 -0.00000000000E+00 -0.20110083359E+03  0.20110083359E+03  0.00000000000E+00 0.  1.
         25    1    1    2    0    0 -0.13409210693E+03 -0.15334018390E+03  0.11135149501E+03  0.26366277815E+03  0.12500000000E+03 0.  0.
         21    1    1    2  503  501  0.11561999158E+03  0.19639830815E+03  0.52485382874E+03  0.57219910822E+03  0.00000000000E+00 0.  1.
         21    1    1    2  504  503  0.18472115351E+02 -0.43058124252E+02 -0.95853460288E+02  0.10669164428E+03  0.00000000000E+00 0. -1.
<mgrwt>
<rscale>  4 0.25434420E+03</rscale>
<asrwt>0</asrwt>
<pdfrwt beam="1">  1       21 0.11406964E+00 0.25434420E+03</pdfrwt>
<pdfrwt beam="2">  1       21 0.30938590E-01 0.25434420E+03</pdfrwt>
<totfact> 0.57463646E+03</totfact>
</mgrwt>
</event>
<event>
 5    0  0.1531977E+001  0.9066332E+03  0.7546771E-02  0.9417327E-01
         21   -1    0    0  503  501  0.00000000000E+00  0.00000000000E+00  0.84289382962E+03  0.84289382962E+03  0.00000000000E+00 0.  1.
         21   -1    0    0  504  502 -0.00000000000E+00 -0.00000000000E+00 -0.17196914300E+04  0.17196914300E+04  0.00000000000E+00 0.  1.
         25    1    1    2    0    0  0.76678691698E+03  0.43949312544E+03  0.81035206372E+02  0.89627456063E+03  0.12500000000E+03 0.  0.
         21    1    1    2  503  502 -0.79055365021E+03 -0.43536829851E+03 -0.11560566350E+04  0.14666245506E+04  0.00000000000E+00 0.  1.
         21    1    1    2  504  501  0.23766733233E+02 -0.41248269248E+01  0.19822382818E+03  0.19968614840E+03  0.00000000000E+00 0.  1.
<mgrwt>
<rscale>  4 0.90663323E+03</rscale>
<asrwt>0</asrwt>
<pdfrwt beam="1">  1       21 0.12967598E+00 0.90663323E+03</pdfrwt>
<pdfrwt beam="2">  1       21 0.26456791E+00 0.90663323E+03</pdfrwt>
<totfact> 0.14348735E+01</totfact>
</mgrwt>
</event>
<event>
 5    0  0.1531977E+001  0.3464195E+03  0.7546771E-02  0.1064094E+00
         21   -1    0    0  502  501  0.00000000000E+00  0.00000000000E+00  0.16629045122E+03  0.16629045122E+03  0.00000000000E+00 0.  1.
         21   -1    0    0  504  502 -0.00000000000E+00 -0.00000000000E+00 -0.22713814283E+04  0.22713814283E+04  0.00000000000E+00 0.  1.
         25    1    1    2    0    0  0.17851475459E+03  0.19088981477E+03 -0.86838105018E+02  0.30244387160E+03  0.12500000000E+03 0.  0.
         21    1    1    2  503  501  0.12896996866E+03 -0.60680355939E+02 -0.70417327735E+02  0.15897785524E+03  0.00000000000E+00 0. -1.
         21    1    1    2  504  503 -0.30748472324E+03 -0.13020945883E+03 -0.19478355443E+04  0.19762501527E+04  0.00000000000E+00 0.  1.
<mgrwt>
<rscale>  4 0.34641947E+03</rscale>
<asrwt>0</asrwt>
<pdfrwt beam="1">  1       21 0.25583149E-01 0.34641947E+03</pdfrwt>
<pdfrwt beam="2">  1       21 0.34944326E+00 0.34641947E+03</pdfrwt>
<totfact> 0.21283587E+02</totfact>
</mgrwt>
</event>
<event>
 5    0  0.1531977E+001  0.2739162E+03  0.7546771E-02  0.1099059E+00
         21   -1    0    0  504  501  0.00000000000E+00  0.00000000000E+00  0.13112371798E+04  0.13112371798E+04  0.00000000000E+00 0.  1.
         21   -1    0    0  503  502 -0.00000000000E+00 -0.00000000000E+00 -0.62731759885E+02  0.62731759885E+02  0.00000000000E+00 0.  1.
         25    1    1    2    0    0  0.22726322813E+03 -0.11394365687E+03  0.65854343783E+03  0.71689343093E+03  0.12500000000E+03 0.  0.
         21    1    1    2  503  501 -0.21782441858E+03  0.94293282493E+02  0.39449437089E+03  0.46039603508E+03  0.00000000000E+00 0.  1.
         21    1    1    2  504  502 -0.94388095486E+01  0.19650374376E+02  0.19546761119E+03  0.19667947367E+03  0.00000000000E+00 0. -1.
<mgrwt>
<rscale>  4 0.27391624E+03</rscale>
<asrwt>0</asrwt>
<pdfrwt beam="1">  1       21 0.20172878E+00 0.27391624E+03</pdfrwt>
<pdfrwt beam="2">  1       21 0.96510410E-02 0.27391624E+03</pdfrwt>
<totfact> 0.10668386E+04</totfact>
</mgrwt>
</event>
<event>
 5    0  0.1531977E+001  0.2773953E+03  0.7546771E-02  0.1097120E+00
         21   -1    0    0  502  501  0.00000000000E+00  0.00000000000E+00  0.54577533405E+02  0.54577533405E+02  0.00000000000E+00 0.  1.
         21   -1    0    0  504  502 -0.00000000000E+00 -0.00000000000E+00 -0.14852006247E+04  0.14852006247E+04  0.00000000000E+00 0.  1.
         25    1    1    2    0    0  0.48118726103E+02 -0.23889861343E+03 -0.53023680624E+03  0.59679479723E+03  0.12500000000E+03 0.  0.
         21    1    1    2  503  501 -0.71819672573E+02  0.24343574767E+03 -0.78182072184E+03  0.82198702527E+03  0.00000000000E+00 0.  1.
         21    1    1    2  504  503  0.23700946470E+02 -0.45371342401E+01 -0.11856556318E+03  0.12099633558E+03  0.00000000000E+00 0. -1.
<mgrwt>
<rscale>  4 0.27739532E+03</rscale>
<asrwt>0</asrwt>
<pdfrwt beam="1">  1       21 0.83965442E-02 0.27739532E+03</pdfrwt>
<pdfrwt beam="2">  1       21 0.22849239E+00 0.27739532E+03</pdfrwt>
<totfact> 0.92266887E+03</totfact>
</mgrwt>
</event>
<event>
 5    0  0.1531977E+001  0.2973588E+03  0.7546771E-02  0.1086568E+00
         21   -1    0    0  503  501  0.00000000000E+00  0.00000000000E+00  0.20877179121E+03  0.20877179121E+03  0.00000000000E+00 0. -1.
         21   -1    0    0  501  502 -0.00000000000E+00 -0.00000000000E+00 -0.71848247396E+03  0.71848247396E+03  0.00000000000E+00 0. -1.
         25    1    1    2    0    0  0.77171855227E+02  0.29449571385E+03 -0.50545450889E+03  0.60315212117E+03  0.12500000000E+03 0.  0.
         21    1    1    2  503  504 -0.15062017674E+01 -0.42941868408E+02 -0.40353328070E+02  0.58946278868E+02  0.00000000000E+00 0.  1.
         21    1    1    2  504  502 -0.75665653460E+02 -0.25155384544E+03  0.36097154219E+02  0.26515586513E+03  0.00000000000E+00 0. -1.
<mgrwt>
<rscale>  4 0.29735884E+03</rscale>
<asrwt>0</asrwt>
<pdfrwt beam="1">  1       21 0.32118737E-01 0.29735884E+03</pdfrwt>
<pdfrwt beam="2">  1       21 0.11053576E+00 0.29735884E+03</pdfrwt>
<totfact> 0.56276003E+03</totfact>
</mgrwt>
</event>
<event>
 5    0  0.1531977E+001  0.2718961E+03  0.7546771E-02  0.1100199E+00
         21   -1    0    0  502  501  0.00000000000E+00  0.00000000000E+00  0.21604041112E+03  0.21604041112E+03  0.00000000000E+00 0. -1.
         21   -1    0    0  504  502 -0.00000000000E+00 -0.00000000000E+00 -0.42183993717E+03  0.42183993717E+03  0.00000000000E+00 0. -1.
         25    1    1    2    0    0 -0.23406058610E+03 -0.54902852610E+02 -0.23069789691E+02  0.27194833403E+03  0.12500000000E+03 0.  0.
         21    1    1    2  503  501  0.24664950758E+03 -0.21949560280E+01 -0.10357240819E+03  0.26752203865E+03  0.00000000000E+00 0. -1.
         21    1    1    2  504  503 -0.12588921490E+02  0.57097808638E+02 -0.79157328171E+02  0.98409975606E+02  0.00000000000E+00 0.  1.
<mgrwt>
<rscale>  4 0.27189613E+03</rscale>
<asrwt>0</asrwt>
<pdfrwt beam="1">  1       21 0.33236987E-01 0.27189613E+03</pdfrwt>
<pdfrwt beam="2">  1       21 0.64898451E-01 0.27189613E+03</pdfrwt>
<totfact> 0.18275274E+04</totfact>
</mgrwt>
</event>
<event>
 5    0  0.1531977E+001  0.2281284E+03  0.7546771E-02  0.1127964E+00
         21   -1    0    0  503  501  0.00000000000E+00  0.00000000000E+00  0.53139729426E+03  0.53139729426E+03  0.00000000000E+00 0.  1.
         21   -1    0    0  504  502 -0.00000000000E+00 -0.00000000000E+00 -0.26222480709E+03  0.26222480709E+03  0.00000000000E+00 0.  1.
         25    1    1    2    0    0 -0.23203667115E+03  0.76798496590E+02  0.20445987648E+03  0.34229792130E+03  0.12500000000E+03 0.  0.
         21    1    1    2  503  502  0.61587295947E+02 -0.12173458509E+03 -0.13015834362E+03  0.18855635402E+03  0.00000000000E+00 0.  1.
         21    1    1    2  504  501  0.17044937520E+03  0.44936088495E+02  0.19487095432E+03  0.26276782603E+03  0.00000000000E+00 0.  1.
<mgrwt>
<rscale>  4 0.22812841E+03</rscale>
<asrwt>0</asrwt>
<pdfrwt beam="1">  1       21 0.81753429E-01 0.22812841E+03</pdfrwt>
<pdfrwt beam="2">  1       21 0.40342278E-01 0.22812841E+03</pdfrwt>
<totfact> 0.75644352E+03</totfact>
</mgrwt>
</event>
<event>
 5    0  0.1531977E+001  0.2282177E+03  0.7546771E-02  0.1127901E+00
         21   -1    0    0  503  501  0.00000000000E+00  0.00000000000E+00  0.25090400697E+03  0.25090400697E+03  0.00000000000E+00 0. -1.
         21   -1    0    0  504  502 -0.00000000000E+00 -0.00000000000E+00 -0.70798109848E+03  0.70798109848E+03  0.00000000000E+00 0.  1.
         25    1    1    2    0    0  0.22452281828E+03  0.62603937622E+02 -0.49260177296E+03  0.55911649561E+03  0.12500000000E+03 0.  0.
         21    1    1    2  503  502 -0.36330643301E+02 -0.69516968815E+02 -0.12815828990E+03  0.15025668660E+03  0.00000000000E+00 0.  1.
         21    1    1    2  504  501 -0.18819217498E+03  0.69130311926E+01  0.16368297136E+03  0.24951192324E+03  0.00000000000E+00 0. -1.
<mgrwt>
<rscale>  4 0.22821772E+03</rscale>
<asrwt>0</asrwt>
<pdfrwt beam="1">  1       21 0.38600617E-01 0.22821772E+03</pdfrwt>
<pdfrwt beam="2">  1       21 0.10892017E+00 0.22821772E+03</pdfrwt>
<totfact> 0.42107339E+03</totfact>
</mgrwt>
</event>
<event>
 5    0  0.1531977E+001  0.2207830E+03  0.7546771E-02  0.1133301E+00
         21   -1    0    0  504  501  0.00000000000E+00  0.00000000000E+00  0.23929456445E+03  0.23929456445E+03  0.00000000000E+00 0.  1.
         21   -1    0    0  503  502 -0.00000000000E+00 -0.00000000000E+00 -0.14437544583E+04  0.14437544583E+04  0.00000000000E+00 0.  1.
         25    1    1    2    0    0  0.14274735833E+03 -0.18510812445E+03 -0.10872744687E+04  0.11191213502E+04  0.12500000000E+03 0.  0.
         21    1    1    2  503  501 -0.22348702823E+02  0.50920639389E+02 -0.30121540712E+03  0.30630556234E+03  0.00000000000E+00 0.  1.
         21    1    1    2  504  502 -0.12039865550E+03  0.13418748506E+03  0.18402998201E+03  0.25762211022E+03  0.00000000000E+00 0.  1.
<mgrwt>
<rscale>  4 0.22078301E+03</rscale>
<asrwt>0</asrwt>
<pdfrwt beam="1">  1       21 0.36814548E-01 0.22078301E+03</pdfrwt>
<pdfrwt beam="2">  1       21 0.22211607E+00 0.22078301E+03</pdfrwt>
<totfact> 0.67252136E+02</totfact>
</mgrwt>
</event>
<event>
 5    0  0.1531977E+001  0.3405422E+03  0.7546771E-02  0.1066565E+00
         21   -1    0    0  502  501  0.00000000000E+00  0.00000000000E+00  0.69520458796E+03  0.69520458796E+03  0.00000000000E+00 0. -1.
         21   -1    0    0  504  502 -0.00000000000E+00 -0.00000000000E+00 -0.21607399434E+04  0.21607399434E+04  0.00000000000E+00 0. -1.
         25    1    1    2    0    0  0.33319378539E+03  0.44622465350E+02  0.51213456011E+03  0.62523281319E+03  0.12500000000E+03 0.  0.
         21    1    1    2  503  501 -0.17302782437E+02 -0.26938770208E+02  0.11237941517E+03  0.11685125833E+03  0.00000000000E+00 0. -1.
         21    1    1    2  504  503 -0.31589100296E+03 -0.17683695142E+02 -0.20900493308E+04  0.21138604599E+04  0.00000000000E+00 0. -1.
<mgrwt>
<rscale>  4 0.34054217E+03</rscale>
<asrwt>0</asrwt>
<pdfrwt beam="1">  1       21 0.10695455E+00 0.34054217E+03</pdfrwt>
<pdfrwt beam="2">  1       21 0.33242153E+00 0.34054217E+03</pdfrwt>
<totfact> 0.12504454E+01</totfact>
</mgrwt>
</event>
<event>
 5    0  0.1531977E+001  0.2352438E+03  0.7546771E-02  0.1123002E+00
         21   -1    0    0  502  501  0.00000000000E+00  0.00000000000E+00  0.35287098991E+03  0.35287098991E+03  0.00000000000E+00 0.  1.
         21   -1    0    0  504  502 -0.00000000000E+00 -0.00000000000E+00 -0.38419895254E+03  0.38419895254E+03  0.00000000000E+00 0.  1.
         25    1    1    2    0    0 -0.18556264195E+03 -0.18710063087E+03  0.40700818986E+02  0.29448547813E+03  0.12500000000E+03 0.  0.
         21    1    1    2  503  501  0.87583346792E+02  0.28197059851E+02  0.13528265393E+03  0.16360719200E+03  0.00000000000E+00 0.  1.
         21    1    1    2  504  503  0.97979295163E+02  0.15890357102E+03 -0.20731143555E+03  0.27897727233E+03  0.00000000000E+00 0.  1.
<mgrwt>
<rscale>  4 0.23524375E+03</rscale>
<asrwt>0</asrwt>
<pdfrwt beam="1">  1       21 0.54287845E-01 0.23524375E+03</pdfrwt>
<pdfrwt beam="2">  1       21 0.59107531E-01 0.23524375E+03</pdfrwt>
<totfact> 0.83395805E+03</totfact>
</mgrwt>
</event>
<event>
 5    0  0.1531977E+001  0.2180345E+03  0.7546771E-02  0.1135357E+00
         21   -1    0    0  502  501  0.00000000000E+00  0.00000000000E+00  0.33581024704E+03  0.33581024704E+03  0.00000000000E+00 0.  1.
         21   -1    0    0  504  502 -0.00000000000E+00 -0.00000000000E+00 -0.18306890904E+03  0.18306890904E+03  0.00000000000E+00 0.  1.
         25    1    1    2    0    0 -0.89060707462E+02 -0.19040018904E+03  0.11828159312E+03  0.27166077537E+03  0.12500000000E+03 0.  0.
         21    1    1    2  503  501  0.48654981071E+02  0.36701930422E+02 -0.38775637753E+02  0.72234956654E+02  0.00000000000E+00 0.  1.
         21    1    1    2  504  503  0.40405726392E+02  0.15369825862E+03  0.73235382627E+02  0.17498342406E+03  0.00000000000E+00 0.  1.
<mgrwt>
<rscale>  4 0.21803454E+03</rscale>
<asrwt>0</asrwt>
<pdfrwt beam="1">  1       21 0.51663115E-01 0.21803454E+03</pdfrwt>
<pdfrwt beam="2">  1       21 0.28164448E-01 0.21803454E+03</pdfrwt>
<totfact> 0.42330492E+04</totfact>
</mgrwt>
</event>
<event>
 5    0  0.1531977E+001  0.3276709E+03  0.7546771E-02  0.1072172E+00
         21   -1    0    0  502  501  0.00000000000E+00  0.00000000000E+00  0.57713939693E+03  0.57713939693E+03  0.00000000000E+00 0. -1.
         21   -1    0    0  504  502 -0.00000000000E+00 -0.00000000000E+00 -0.40683040091E+03  0.40683040091E+03  0.00000000000E+00 0. -1.
         25    1    1    2    0    0 -0.30317898745E+03  0.12646344835E+03  0.22001471769E+03  0.41465886968E+03  0.12500000000E+03 0.  0.
         21    1    1    2  503  501  0.26492143700E+03 -0.98354411381E+02  0.17980416738E+03  0.33494252735E+03  0.00000000000E+00 0. -1.
         21    1    1    2  504  503  0.38257550458E+02 -0.28109036972E+02 -0.22950988906E+03  0.23436840082E+03  0.00000000000E+00 0. -1.
<mgrwt>
<rscale>  4 0.32767093E+03</rscale>
<asrwt>0</asrwt>
<pdfrwt beam="1">  1       21 0.88790676E-01 0.32767093E+03</pdfrwt>
<pdfrwt beam="2">  1       21 0.62589293E-01 0.32767093E+03</pdfrwt>
<totfact> 0.23397964E+03</totfact>
</mgrwt>
</event>
<event>
 5    0  0.1531977E+001  0.2741583E+03  0.7546771E-02  0.1098923E+00
         21   -1    0    0  503  501  0.00000000000E+00  0.00000000000E+00  0.10711385940E+04  0.10711385940E+04  0.00000000000E+00 0.  1.
         21   -1    0    0  504  502 -0.00000000000E+00 -0.00000000000E+00 -0.96423964044E+02  0.96423964044E+02  0.00000000000E+00 0.  1.
         25    1    1    2    0    0  0.61342673593E+02  0.22788509216E+03  0.22309174264E+03  0.34797911498E+03  0.12500000000E+03 0.  0.
         21    1    1    2  503  502  0.51510673107E+02 -0.70435855225E+01  0.38865567732E+02  0.64911431166E+02  0.00000000000E+00 0.  1.
         21    1    1    2  504  501 -0.11285334670E+03 -0.22084150663E+03  0.71275731962E+03  0.75467201193E+03  0.00000000000E+00 0.  1.
<mgrwt>
<rscale>  4 0.27415830E+03</rscale>
<asrwt>0</asrwt>
<pdfrwt beam="1">  1       21 0.16479054E+00 0.27415830E+03</pdfrwt>
<pdfrwt beam="2">  1       21 0.14834457E-01 0.27415830E+03</pdfrwt>
<totfact> 0.87987361E+03</totfact>
</mgrwt>
</event>
<event>
 5    0  0.1531977E+001  0.2967672E+03  0.7546771E-02  0.1086868E+00
         21   -1    0    0  504  501  0.00000000000E+00  0.00000000000E+00  0.16635631608E+03  0.16635631608E+03  0.00000000000E+00 0.  1.
         21   -1    0    0  501  502 -0.00000000000E+00 -0.00000000000E+00 -0.14995413626E+04  0.14995413626E+04  0.00000000000E+00 0.  1.
         25    1    1    2    0    0 -0.15312569379E+03  0.15405785967E+03  0.48914470532E-01  0.25061186049E+03  0.12500000000E+03 0.  0.
         21    1    1    2  503  502 -0.11749770523E+03 -0.82901887943E+02 -0.18986991732E+03  0.23817854493E+03  0.00000000000E+00 0.  1.
         21    1    1    2  504  503  0.27062339902E+03 -0.71155971727E+02 -0.11433640437E+04  0.11771072732E+04  0.00000000000E+00 0.  1.
<mgrwt>
<rscale>  4 0.29676719E+03</rscale>
<asrwt>0</asrwt>
<pdfrwt beam="1">  1       21 0.25593279E-01 0.29676719E+03</pdfrwt>
<pdfrwt beam="2">  1       21 0.23069867E+00 0.29676719E+03</pdfrwt>
<totfact> 0.11371758E+03</totfact>
</mgrwt>
</event>
<event>
 5    0  0.1531977E+001  0.2057120E+03  0.7546771E-02  0.1145007E+00
         21   -1    0    0  502  501  0.00000000000E+00  0.00000000000E+00  0.44352782527E+03  0.44352782527E+03  0.00000000000E+00 0. -1.
         21   -1    0    0  504  502 -0.00000000000E+00 -0.00000000000E+00 -0.14514239311E+03  0.14514239311E+03  0.00000000000E+00 0.  1.
         25    1    1    2    0    0 -0.76121438746E+02  0.19111421200E+03  0.22759399620E+03  0.33127502558E+03  0.12500000000E+03 0.  0.
         21    1    1    2  503  501  0.92152172509E+01 -0.53396660498E+02  0.87975934043E+02  0.10332419151E+03  0.00000000000E+00 0. -1.
         21    1    1    2  504  503  0.66906221495E+02 -0.13771755150E+03 -0.17184498083E+02  0.15407100130E+03  0.00000000000E+00 0.  1.
<mgrwt>
<rscale>  4 0.20571198E+03</rscale>
<asrwt>0</asrwt>
<pdfrwt beam="1">  1       21 0.68235050E-01 0.20571198E+03</pdfrwt>
<pdfrwt beam="2">  1       21 0.22329599E-01 0.20571198E+03</pdfrwt>
<totfact> 0.36533466E+04</totfact>
</mgrwt>
</event>
<event>
 5    0  0.1531977E+001  0.4972526E+03  0.7546771E-02  0.1014499E+00
         21   -1    0    0  504  501  0.00000000000E+00  0.00000000000E+00  0.46499723835E+03  0.46499723835E+03  0.00000000000E+00 0.  1.
         21   -1    0    0  503  502 -0.00000000000E+00 -0.00000000000E+00 -0.68178214543E+03  0.68178214543E+03  0.00000000000E+00 0.  1.
         25    1    1    2    0    0  0.39844200382E+03 -0.28927396553E+03 -0.64968796440E+02  0.51213416412E+03  0.12500000000E+03 0.  0.
         21    1    1    2  503  501 -0.14305536952E+02  0.14346693410E+02 -0.16090415400E+03  0.16217466749E+03  0.00000000000E+00 0. -1.
         21    1    1    2  504  502 -0.38413646687E+03  0.27492727213E+03  0.90880433590E+01  0.47247055217E+03  0.00000000000E+00 0.  1.
<mgrwt>
<rscale>  4 0.49725257E+03</rscale>
<asrwt>0</asrwt>
<pdfrwt beam="1">  1       21 0.71538037E-01 0.49725257E+03</pdfrwt>
<pdfrwt beam="2">  1       21 0.10488956E+00 0.49725257E+03</pdfrwt>
<totfact> 0.10814866E+03</totfact>
</mgrwt>
</event>
<event>
 5    0  0.1531977E+001  0.2257845E+03  0.7546771E-02  0.1129643E+00
         21   -1    0    0  502  501  0.00000000000E+00  0.00000000000E+00  0.29627487859E+03  0.29627487859E+03  0.00000000000E+00 0.  1.
         21   -1    0    0  504  502 -0.00000000000E+00 -0.00000000000E+00 -0.31394649952E+03  0.31394649952E+03  0.00000000000E+00 0.  1.
         25    1    1    2    0    0 -0.77048145287E+02 -0.21681583930E+03  0.62490939154E+02  0.26921300552E+03  0.12500000000E+03 0.  0.
         21    1    1    2  503  501 -0.69727869547E+02  0.15854872958E+03 -0.34332621627E+02  0.17657407610E+03  0.00000000000E+00 0.  1.
         21    1    1    2  504  503  0.14677601483E+03  0.58267109715E+02 -0.45829938458E+02  0.16443429650E+03  0.00000000000E+00 0.  1.
<mgrwt>
<rscale>  4 0.22578446E+03</rscale>
<asrwt>0</asrwt>
<pdfrwt beam="1">  1       21 0.45580750E-01 0.22578446E+03</pdfrwt>
<pdfrwt beam="2">  1       21 0.48299462E-01 0.22578446E+03</pdfrwt>
<totfact> 0.18536598E+04</totfact>
</mgrwt>
</event>
<event>
 5    0  0.1531977E+001  0.3150364E+03  0.7546771E-02  0.1077957E+00
         21   -1    0    0  502  501  0.00000000000E+00  0.00000000000E+00  0.10585400329E+04  0.10585400329E+04  0.00000000000E+00 0.  1.
         21   -1    0    0  504  502 -0.00000000000E+00 -0.00000000000E+00 -0.73760396482E+03  0.73760396482E+03  0.00000000000E+00 0. -1.
         25    1    1    2    0    0  0.88929581238E+02  0.29880379549E+03 -0.61821007214E+03  0.70356298362E+03  0.12500000000E+03 0.  0.
         21    1    1    2  503  501 -0.84052159976E+02 -0.27595857316E+03  0.99290697107E+03  0.10339642899E+04  0.00000000000E+00 0.  1.
         21    1    1    2  504  503 -0.48774212615E+01 -0.22845222330E+02 -0.53760830831E+02  0.58616724176E+02  0.00000000000E+00 0. -1.
<mgrwt>
<rscale>  4 0.31503643E+03</rscale>
<asrwt>0</asrwt>
<pdfrwt beam="1">  1       21 0.16285231E+00 0.31503643E+03</pdfrwt>
<pdfrwt beam="2">  1       21 0.11347753E+00 0.31503643E+03</pdfrwt>
<totfact> 0.12784523E+02</totfact>
</mgrwt>
</event>
<event>
 5    0  0.1531977E+001  0.4108131E+03  0.7546771E-02  0.1040099E+00
         21   -1    0    0  504  501  0.00000000000E+00  0.00000000000E+00  0.11798320776E+04  0.11798320776E+04  0.00000000000E+00 0. -1.
         21   -1    0    0  503  502 -0.00000000000E+00 -0.00000000000E+00 -0.28773597550E+03  0.28773597550E+03  0.00000000000E+00 0.  1.
         25    1    1    2    0    0  0.19688537322E+03 -0.34595955165E+03 -0.47093669383E+01  0.41725177016E+03  0.12500000000E+03 0.  0.
         21    1    1    2  503  501 -0.32807407799E+02 -0.81711995974E+01 -0.29673001385E+02  0.44984236356E+02  0.00000000000E+00 0. -1.
         21    1    1    2  504  502 -0.16407796542E+03  0.35413075125E+03  0.92647847044E+03  0.10053320466E+04  0.00000000000E+00 0. -1.
<mgrwt>
<rscale>  4 0.41081308E+03</rscale>
<asrwt>0</asrwt>
<pdfrwt beam="1">  1       21 0.18151262E+00 0.41081308E+03</pdfrwt>
<pdfrwt beam="2">  1       21 0.44267074E-01 0.41081308E+03</pdfrwt>
<totfact> 0.73971918E+02</totfact>
</mgrwt>
</event>
<event>
 5    0  0.1531977E+001  0.3259564E+03  0.7546771E-02  0.1072940E+00
         21   -1    0    0  503  501  0.00000000000E+00  0.00000000000E+00  0.55621570003E+03  0.55621570003E+03  0.00000000000E+00 0. -1.
         21   -1    0    0  504  502 -0.00000000000E+00 -0.00000000000E+00 -0.12001983458E+04  0.12001983458E+04  0.00000000000E+00 0.  1.
         25    1    1    2    0    0 -0.21629015618E+03  0.42708608700E+03 -0.75644258844E+03  0.90388845937E+03  0.12500000000E+03 0.  0.
         21    1    1    2  503  502  0.92531670312E+02 -0.16361943508E+03 -0.29619064982E+03  0.35080240960E+03  0.00000000000E+00 0.  1.
         21    1    1    2  504  501  0.12375848587E+03 -0.26346665193E+03  0.40865059247E+03  0.50172317689E+03  0.00000000000E+00 0. -1.
<mgrwt>
<rscale>  4 0.32595642E+03</rscale>
<asrwt>0</asrwt>
<pdfrwt beam="1">  1       21 0.85571646E-01 0.32595642E+03</pdfrwt>
<pdfrwt beam="2">  1       21 0.18464590E+00 0.32595642E+03</pdfrwt>
<totfact> 0.17463848E+02</totfact>
</mgrwt>
</event>
<event>
 5    0  0.1531977E+001  0.3310604E+03  0.7546771E-02  0.1070669E+00
         21   -1    0    0  503  501  0.00000000000E+00  0.00000000000E+00  0.16147331783E+03  0.16147331783E+03  0.00000000000E+00 0.  1.
         21   -1    0    0  504  502 -0.00000000000E+00 -0.00000000000E+00 -0.12854987140E+04  0.12854987140E+04  0.00000000000E+00 0.  1.
         25    1    1    2    0    0  0.28238073368E+03  0.13636740664E+03 -0.81070781239E+03  0.87818398153E+03  0.12500000000E+03 0.  0.
         21    1    1    2  503  502  0.67234161646E+01 -0.37844885233E+02 -0.25494894380E+03  0.25783018366E+03  0.00000000000E+00 0. -1.
         21    1    1    2  504  501 -0.28910414985E+03 -0.98522521408E+02 -0.58368639970E+02  0.31095786662E+03  0.00000000000E+00 0.  1.
<mgrwt>
<rscale>  4 0.33106042E+03</rscale>
<asrwt>0</asrwt>
<pdfrwt beam="1">  1       21 0.24842049E-01 0.33106042E+03</pdfrwt>
<pdfrwt beam="2">  1       21 0.19776903E+00 0.33106042E+03</pdfrwt>
<totfact> 0.19078336E+03</totfact>
</mgrwt>
</event>
<event>
 5    0  0.1531977E+001  0.2585900E+03  0.7546771E-02  0.1107993E+00
         21   -1    0    0  504  501  0.00000000000E+00  0.00000000000E+00  0.94243560710E+03  0.94243560710E+03  0.00000000000E+00 0. -1.
         21   -1    0    0  501  502 -0.00000000000E+00 -0.00000000000E+00 -0.84507991785E+02  0.84507991785E+02  0.00000000000E+00 0.  1.
         25    1    1    2    0    0 -0.12060391927E+03  0.19156852588E+03  0.69153468970E+03  0.73830145098E+03  0.12500000000E+03 0.  0.
         21    1    1    2  503  502  0.41632619891E+02 -0.11897367361E+03  0.68695830846E+02  0.14355182767E+03  0.00000000000E+00 0. -1.
         21    1    1    2  504  503  0.78971299374E+02 -0.72594852270E+02  0.97697094769E+02  0.14509032024E+03  0.00000000000E+00 0.  1.
<mgrwt>
<rscale>  4 0.25859003E+03</rscale>
<asrwt>0</asrwt>
<pdfrwt beam="1">  1       21 0.14499009E+00 0.25859003E+03</pdfrwt>
<pdfrwt beam="2">  1       21 0.13001230E-01 0.25859003E+03</pdfrwt>
<totfact> 0.15942843E+04</totfact>
</mgrwt>
</event>
<event>
 5    0  0.1531977E+001  0.2727528E+03  0.7546771E-02  0.1099714E+00
         21   -1    0    0  502  501  0.00000000000E+00  0.00000000000E+00  0.19459957457E+04  0.19459957457E+04  0.00000000000E+00 0.  1.
         21   -1    0    0  504  502 -0.00000000000E+00 -0.00000000000E+00 -0.39325033765E+03  0.39325033765E+03  0.00000000000E+00 0.  1.
         25    1    1    2    0    0  0.29575868673E+03 -0.36450390457E+02  0.12978759570E+04  0.13375009650E+04  0.12500000000E+03 0.  0.
         21    1    1    2  503  501 -0.19891681793E+03 -0.19298176270E+02  0.60345517300E+03  0.63568739635E+03  0.00000000000E+00 0.  1.
         21    1    1    2  504  503 -0.96841868806E+02  0.55748566727E+02 -0.34858572196E+03  0.36605772195E+03  0.00000000000E+00 0.  1.
<mgrwt>
<rscale>  4 0.27275278E+03</rscale>
<asrwt>0</asrwt>
<pdfrwt beam="1">  1       21 0.29938395E+00 0.27275278E+03</pdfrwt>
<pdfrwt beam="2">  1       21 0.60500053E-01 0.27275278E+03</pdfrwt>
<totfact> 0.78347487E+01</totfact>
</mgrwt>
</event>
<event>
 5    0  0.1531977E+001  0.2187408E+03  0.7546771E-02  0.1134825E+00
         21   -1    0    0  503  501  0.00000000000E+00  0.00000000000E+00  0.19562074367E+04  0.19562074367E+04  0.00000000000E+00 0.  1.
         21   -1    0    0  504  502 -0.00000000000E+00 -0.00000000000E+00 -0.31273618463E+02  0.31273618463E+02  0.00000000000E+00 0.  1.
         25    1    1    2    0    0  0.20818415706E+03 -0.32258071861E+02  0.74172258040E+03  0.78112650238E+03  0.12500000000E+03 0.  0.
         21    1    1    2  503  502 -0.15486628363E+03 -0.12901058786E+02  0.63649789414E+03  0.65519430123E+03  0.00000000000E+00 0.  1.
         21    1    1    2  504  501 -0.53317873428E+02  0.45159130648E+02  0.54671334369E+03  0.55116025154E+03  0.00000000000E+00 0. -1.
<mgrwt>
<rscale>  4 0.21874076E+03</rscale>
<asrwt>0</asrwt>
<pdfrwt beam="1">  1       21 0.30095489E+00 0.21874076E+03</pdfrwt>
<pdfrwt beam="2">  1       21 0.48113275E-02 0.21874076E+03</pdfrwt>
<totfact> 0.94200613E+03</totfact>
</mgrwt>
</event>
<event>
 5    0  0.1531977E+001  0.4498040E+03  0.7546771E-02  0.1027781E+00
         21   -1    0    0  502  501  0.00000000000E+00  0.00000000000E+00  0.65946743529E+03  0.65946743529E+03  0.00000000000E+00 0.  1.
         21   -1    0    0  504  502 -0.00000000000E+00 -0.00000000000E+00 -0.57147598953E+03  0.57147598953E+03  0.00000000000E+00 0.  1.
         25    1    1    2    0    0 -0.37904713005E+03 -0.21176438504E+03  0.44246290833E+03  0.63239173525E+03  0.12500000000E+03 0.  0.
         21    1    1    2  503  501 -0.12174543894E+02  0.28847634965E+02  0.10594628219E+02  0.33055282622E+02  0.00000000000E+00 0.  1.
         21    1    1    2  504  503  0.39122167395E+03  0.18291675008E+03 -0.36506609079E+03  0.56549640695E+03  0.00000000000E+00 0.  1.
<mgrwt>
<rscale>  4 0.44980401E+03</rscale>
<asrwt>0</asrwt>
<pdfrwt beam="1">  1       21 0.10145653E+00 0.44980401E+03</pdfrwt>
<pdfrwt beam="2">  1       21 0.87919383E-01 0.44980401E+03</pdfrwt>
<totfact> 0.74286498E+02</totfact>
</mgrwt>
</event>
<event>
 5    0  0.1531977E+001  0.2309811E+03  0.7546771E-02  0.1125951E+00
         21   -1    0    0  503  501  0.00000000000E+00  0.00000000000E+00  0.22200438906E+04  0.22200438906E+04  0.00000000000E+00 0. -1.
         21   -1    0    0  504  502 -0.00000000000E+00 -0.00000000000E+00 -0.42089127139E+02  0.42089127139E+02  0.00000000000E+00 0.  1.
         25    1    1    2    0    0 -0.81539144694E+02  0.19935682417E+03  0.15272918962E+04  0.15474615703E+04  0.12500000000E+03 0.  0.
         21    1    1    2  503  502  0.55054717053E+02 -0.18227758056E+03  0.25753125449E+03  0.32027876183E+03  0.00000000000E+00 0.  1.
         21    1    1    2  504  501  0.26484427642E+02 -0.17079243615E+02  0.39313161281E+03  0.39439268561E+03  0.00000000000E+00 0.  1.
<mgrwt>
<rscale>  4 0.23098111E+03</rscale>
<asrwt>0</asrwt>
<pdfrwt beam="1">  1       21 0.34154512E+00 0.23098111E+03</pdfrwt>
<pdfrwt beam="2">  1       21 0.64752521E-02 0.23098111E+03</pdfrwt>
<totfact> 0.32392112E+03</totfact>
</mgrwt>
</event>
<event>
 5    0  0.1531977E+001  0.3047504E+03  0.7546771E-02  0.1082890E+00
         21   -1    0    0  502  501  0.00000000000E+00  0.00000000000E+00  0.62385071239E+03  0.62385071239E+03  0.00000000000E+00 0.  1.
         21   -1    0    0  504  502 -0.00000000000E+00 -0.00000000000E+00 -0.56701241003E+03  0.56701241003E+03  0.00000000000E+00 0.  1.
         25    1    1    2    0    0  0.26528507481E+03  0.69831200541E+02 -0.25821878520E+03  0.39693136499E+03  0.12500000000E+03 0.  0.
         21    1    1    2  503  501 -0.27414800490E+03 -0.48530231133E+02  0.51885518659E+03  0.58883190859E+03  0.00000000000E+00 0.  1.
         21    1    1    2  504  503  0.88629300916E+01 -0.21300969408E+02 -0.20379809903E+03  0.20509984884E+03  0.00000000000E+00 0. -1.
<mgrwt>
<rscale>  4 0.30475044E+03</rscale>
<asrwt>0</asrwt>
<pdfrwt beam="1">  1       21 0.95977033E-01 0.30475044E+03</pdfrwt>
<pdfrwt beam="2">  1       21 0.87232678E-01 0.30475044E+03</pdfrwt>
<totfact> 0.93275366E+02</totfact>
</mgrwt>
</event>
<event>
 5    0  0.1531977E+001  0.2816349E+03  0.7546771E-02  0.1094799E+00
         21   -1    0    0  502  501  0.00000000000E+00  0.00000000000E+00  0.89299638176E+02  0.89299638176E+02  0.00000000000E+00 0.  1.
         21   -1    0    0  504  502 -0.00000000000E+00 -0.00000000000E+00 -0.14422284121E+04  0.14422284121E+04  0.00000000000E+00 0.  1.
         25    1    1    2    0    0 -0.86012922582E+02 -0.27851471078E+03 -0.49509001798E+03  0.58796921082E+03  0.12500000000E+03 0.  0.
         21    1    1    2  503  501 -0.23316250761E+02  0.65574218998E+02 -0.20314967909E+02  0.72500508052E+02  0.00000000000E+00 0.  1.
         21    1    1    2  504  503  0.10932917334E+03  0.21294049178E+03 -0.83752378806E+03  0.87105833143E+03  0.00000000000E+00 0.  1.
<mgrwt>
<rscale>  4 0.28163493E+03</rscale>
<asrwt>0</asrwt>
<pdfrwt beam="1">  1       21 0.13738406E-01 0.28163493E+03</pdfrwt>
<pdfrwt beam="2">  1       21 0.22188130E+00 0.28163493E+03</pdfrwt>
<totfact> 0.41863046E+03</totfact>
</mgrwt>
</event>
<event>
 5    0  0.1531977E+001  0.2662180E+03  0.7546771E-02  0.1103464E+00
         21   -1    0    0  503  501  0.00000000000E+00  0.00000000000E+00  0.28654854953E+03  0.28654854953E+03  0.00000000000E+00 0.  1.
         21   -1    0    0  504  502 -0.00000000000E+00 -0.00000000000E+00 -0.24828432375E+03  0.24828432375E+03  0.00000000000E+00 0.  1.
         25    1    1    2    0    0  0.88202384310E+02 -0.21787003269E+03 -0.39446570122E+02  0.26912458758E+03  0.12500000000E+03 0.  0.
         21    1    1    2  503  502 -0.32153626959E+02  0.57450262663E+02 -0.21105223392E+02  0.69136234068E+02  0.00000000000E+00 0. -1.
         21    1    1    2  504  501 -0.56048757351E+02  0.16041977003E+03  0.98816019287E+02  0.19657205164E+03  0.00000000000E+00 0.  1.
<mgrwt>
<rscale>  4 0.26621798E+03</rscale>
<asrwt>0</asrwt>
<pdfrwt beam="1">  1       21 0.44084392E-01 0.26621798E+03</pdfrwt>
<pdfrwt beam="2">  1       21 0.38197588E-01 0.26621798E+03</pdfrwt>
<totfact> 0.31539959E+04</totfact>
</mgrwt>
</event>
<event>
 5    0  0.1531977E+001  0.2653762E+03  0.7546771E-02  0.1103955E+00
         21   -1    0    0  502  501  0.00000000000E+00  0.00000000000E+00  0.74954599077E+03  0.74954599077E+03  0.00000000000E+00 0. -1.
         21   -1    0    0  504  502 -0.00000000000E+00 -0.00000000000E+00 -0.17719440662E+03  0.17719440662E+03  0.00000000000E+00 0. -1.
         25    1    1    2    0    0 -0.20283215832E+01  0.21847967251E+03 -0.16864871818E+02  0.25228338291E+03  0.12500000000E+03 0.  0.
         21    1    1    2  503  501  0.24083323991E+02 -0.23561478739E+03  0.59958313960E+03  0.64466601882E+03  0.00000000000E+00 0. -1.
         21    1    1    2  504  503 -0.22055002408E+02  0.17135114875E+02 -0.10366683627E+02  0.29790995660E+02  0.00000000000E+00 0. -1.
<mgrwt>
<rscale>  4 0.26537618E+03</rscale>
<asrwt>0</asrwt>
<pdfrwt beam="1">  1       21 0.11531477E+00 0.26537618E+03</pdfrwt>
<pdfrwt beam="2">  1       21 0.27260678E-01 0.26537618E+03</pdfrwt>
<totfact> 0.71198764E+03</totfact>
</mgrwt>
</event>
<event>
 5    0  0.1531977E+001  0.2186202E+03  0.7546771E-02  0.1134916E+00
         21   -1    0    0  502  501  0.00000000000E+00  0.00000000000E+00  0.56882568231E+03  0.56882568231E+03  0.00000000000E+00 0. -1.
         21   -1    0    0  504  502 -0.00000000000E+00 -0.00000000000E+00 -0.40891713234E+03  0.40891713234E+03  0.00000000000E+00 0.  1.
         25    1    1    2    0    0 -0.19474111820E+03  0.50812371707E+02  0.34232984569E+03  0.41631805568E+03  0.12500000000E+03 0.  0.
         21    1    1    2  503  501  0.22821047313E+02 -0.42045299374E+01  0.16732748907E+03  0.16892888110E+03  0.00000000000E+00 0. -1.
         21    1    1    2  504  503  0.17192007089E+03 -0.46607841769E+02 -0.34974878479E+03  0.39249587787E+03  0.00000000000E+00 0.  1.
<mgrwt>
<rscale>  4 0.21862021E+03</rscale>
<asrwt>0</asrwt>
<pdfrwt beam="1">  1       21 0.87511644E-01 0.21862021E+03</pdfrwt>
<pdfrwt beam="2">  1       21 0.62910328E-01 0.21862021E+03</pdfrwt>
<totfact> 0.25656695E+03</totfact>
</mgrwt>
</event>
<event>
 5    0  0.1531977E+001  0.3324473E+03  0.7546771E-02  0.1070059E+00
         21   -1    0    0  503  501  0.00000000000E+00  0.00000000000E+00  0.43566008303E+03  0.43566008303E+03  0.00000000000E+00 0. -1.
         21   -1    0    0  504  502 -0.00000000000E+00 -0.00000000000E+00 -0.62739800012E+03  0.62739800012E+03  0.00000000000E+00 0. -1.
         25    1    1    2    0    0 -0.84300672047E+02 -0.29764856352E+03 -0.48996595278E+03  0.59278402943E+03  0.12500000000E+03 0.  0.
         21    1    1    2  503  502  0.12757181832E+03  0.27414653920E+03  0.29250344101E+03  0.42070079247E+03  0.00000000000E+00 0. -1.
         21    1    1    2  504  501 -0.43271146269E+02  0.23502024318E+02  0.57245946701E+01  0.49573261247E+02  0.00000000000E+00 0. -1.
<mgrwt>
<rscale>  4 0.33244727E+03</rscale>
<asrwt>0</asrwt>
<pdfrwt beam="1">  1       21 0.67024628E-01 0.33244727E+03</pdfrwt>
<pdfrwt beam="2">  1       21 0.96522769E-01 0.33244727E+03</pdfrwt>
<totfact> 0.16473614E+03</totfact>
</mgrwt>
</event>
<event>
 5    0  0.1531977E+001  0.2257301E+03  0.7546771E-02  0.1129682E+00
         21   -1    0    0  503  501  0.00000000000E+00  0.00000000000E+00  0.18452375730E+03  0.18452375730E+03  0.00000000000E+00 0.  1.
         21   -1    0    0  504  502 -0.00000000000E+00 -0.00000000000E+00 -0.58378949599E+03  0.58378949599E+03  0.00000000000E+00 0.  1.
         25    1    1    2    0    0 -0.45236227714E+02  0.20399605535E+03 -0.23691767345E+03  0.33972884907E+03  0.12500000000E+03 0.  0.
         21    1    1    2  503  502  0.56153222294E+02 -0.19702671540E+02 -0.22569003408E+03  0.23340387984E+03  0.00000000000E+00 0.  1.
         21    1    1    2  504  501 -0.10916994579E+02 -0.18429338381E+03  0.63341968832E+02  0.19518052439E+03  0.00000000000E+00 0.  1.
<mgrwt>
<rscale>  4 0.22573013E+03</rscale>
<asrwt>0</asrwt>
<pdfrwt beam="1">  1       21 0.28388271E-01 0.22573013E+03</pdfrwt>
<pdfrwt beam="2">  1       21 0.89813768E-01 0.22573013E+03</pdfrwt>
<totfact> 0.12258845E+04</totfact>
</mgrwt>
</event>
<event>
 5    0  0.1531977E+001  0.2512481E+03  0.7546771E-02  0.1112519E+00
         21   -1    0    0  502  501  0.00000000000E+00  0.00000000000E+00  0.54028591347E+03  0.54028591347E+03  0.00000000000E+00 0. -1.
         21   -1    0    0  504  502 -0.00000000000E+00 -0.00000000000E+00 -0.12441063233E+03  0.12441063233E+03  0.00000000000E+00 0. -1.
         25    1    1    2    0    0  0.18185675492E+03 -0.10166245225E+03  0.21991548843E+03  0.32771169579E+03  0.12500000000E+03 0.  0.
         21    1    1    2  503  501  0.25898973157E+02  0.15059459889E+02  0.76516989317E+02  0.82172950518E+02  0.00000000000E+00 0.  1.
         21    1    1    2  504  503 -0.20775572808E+03  0.86602992356E+02  0.11944280339E+03  0.25481189948E+03  0.00000000000E+00 0. -1.
<mgrwt>
<rscale>  4 0.25124811E+03</rscale>
<asrwt>0</asrwt>
<pdfrwt beam="1">  1       21 0.83120908E-01 0.25124811E+03</pdfrwt>
<pdfrwt beam="2">  1       21 0.19140098E-01 0.25124811E+03</pdfrwt>
<totfact> 0.30667608E+04</totfact>
</mgrwt>
</event>
<event>
 5    0  0.1531977E+001  0.3233029E+03  0.7546771E-02  0.1074139E+00
         21   -1    0    0  503  501  0.00000000000E+00  0.00000000000E+00  0.20998052120E+03  0.20998052120E+03  0.00000000000E+00 0.  1.
         21   -1    0    0  504  502 -0.00000000000E+00 -0.00000000000E+00 -0.61431169214E+03  0.61431169214E+03  0.00000000000E+00 0.  1.
         25    1    1    2    0    0  0.16388469563E+03  0.25424925164E+03 -0.24429558555E+03  0.40841915790E+03  0.12500000000E+03 0.  0.
         21    1    1    2  503  502 -0.21413176303E+02  0.53522331023E+01 -0.11408724660E+03  0.11620271234E+03  0.00000000000E+00 0. -1.
         21    1    1    2  504  501 -0.14247151933E+03 -0.25960148474E+03 -0.45948338785E+02  0.29967034310E+03  0.00000000000E+00 0.  1.
<mgrwt>
<rscale>  4 0.32330286E+03</rscale>
<asrwt>0</asrwt>
<pdfrwt beam="1">  1       21 0.32304696E-01 0.32330286E+03</pdfrwt>
<pdfrwt beam="2">  1       21 0.94509489E-01 0.32330286E+03</pdfrwt>
<totfact> 0.80245188E+03</totfact>
</mgrwt>
</event>
<event>
 5    0  0.1531977E+001  0.3157641E+03  0.7546771E-02  0.1077615E+00
         21   -1    0    0  504  501  0.00000000000E+00  0.00000000000E+00  0.85032526917E+02  0.85032526917E+02  0.00000000000E+00 0. -1.
         21   -1    0    0  503  502 -0.00000000000E+00 -0.00000000000E+00 -0.24854519832E+04  0.24854519832E+04  0.00000000000E+00 0.  1.
         25    1    1    2    0    0 -0.37275711629E+03 -0.65768233539E+02 -0.12511459884E+04  0.13131125666E+04  0.12500000000E+03 0.  0.
         21    1    1    2  503  501  0.10718554505E+03  0.50519951951E+02 -0.84477590744E+03  0.85304591928E+03  0.00000000000E+00 0.  1.
         21    1    1    2  504  502  0.26557157125E+03  0.15248281588E+02 -0.30449756040E+03  0.40432602419E+03  0.00000000000E+00 0. -1.
<mgrwt>
<rscale>  4 0.31576410E+03</rscale>
<asrwt>0</asrwt>
<pdfrwt beam="1">  1       21 0.13081929E-01 0.31576410E+03</pdfrwt>
<pdfrwt beam="2">  1       21 0.38237718E+00 0.31576410E+03</pdfrwt>
<totfact> 0.48380886E+02</totfact>
</mgrwt>
</event>
<event>
 5    0  0.1531977E+001  0.3666465E+03  0.7546771E-02  0.1055983E+00
         21   -1    0    0  502  501  0.00000000000E+00  0.00000000000E+00  0.90408713354E+03  0.90408713354E+03  0.00000000000E+00 0. -1.
         21   -1    0    0  504  502 -0.00000000000E+00 -0.00000000000E+00 -0.27748977068E+03  0.27748977068E+03  0.00000000000E+00 0. -1.
         25    1    1    2    0    0 -0.20132554995E+03 -0.27255106335E+03  0.15977314705E+03  0.39492849696E+03  0.12500000000E+03 0.  0.
         21    1    1    2  503  501  0.28042301381E+03  0.21192746914E+03  0.55276219044E+03  0.65505446952E+03  0.00000000000E+00 0. -1.
         21    1    1    2  504  503 -0.79097463858E+02  0.60623594211E+02 -0.85937974635E+02  0.13159393773E+03  0.00000000000E+00 0. -1.
<mgrwt>
<rscale>  4 0.36664650E+03</rscale>
<asrwt>0</asrwt>
<pdfrwt beam="1">  1       21 0.13909033E+00 0.36664650E+03</pdfrwt>
<pdfrwt beam="2">  1       21 0.42690734E-01 0.36664650E+03</pdfrwt>
<totfact> 0.17037670E+03</totfact>
</mgrwt>
</event>
<event>
 5    0  0.1531977E+001  0.3938124E+03  0.7546771E-02  0.1045944E+00
         21   -1    0    0  503  501  0.00000000000E+00  0.00000000000E+00  0.10341374052E+04  0.10341374052E+04  0.00000000000E+00 0. -1.
         21   -1    0    0  504  502 -0.00000000000E+00 -0.00000000000E+00 -0.20815850648E+03  0.20815850648E+03  0.00000000000E+00 0. -1.
         25    1    1    2    0    0 -0.30970892901E+03 -0.18992877117E+03  0.15618757730E+03  0.41474343651E+03  0.12500000000E+03 0.  0.
         21    1    1    2  503  502  0.64316164954E+01 -0.35064744097E+02 -0.20207912603E+02  0.40978795750E+02  0.00000000000E+00 0.  1.
         21    1    1    2  504  501  0.30327731251E+03  0.22499351527E+03  0.68999923402E+03  0.78657367941E+03  0.00000000000E+00 0. -1.
<mgrwt>
<rscale>  4 0.39381240E+03</rscale>
<asrwt>0</asrwt>
<pdfrwt beam="1">  1       21 0.15909806E+00 0.39381240E+03</pdfrwt>
<pdfrwt beam="2">  1       21 0.32024386E-01 0.39381240E+03</pdfrwt>
<totfact> 0.20988359E+03</totfact>
</mgrwt>
</event>
<event>
 5    0  0.1531977E+001  0.1746341E+03  0.7546771E-02  0.1173100E+00
         21   -1    0    0  502  501  0.00000000000E+00  0.00000000000E+00  0.14674291715E+04  0.14674291715E+04  0.00000000000E+00 0.  1.
         21   -1    0    0  504  502 -0.00000000000E+00 -0.00000000000E+00 -0.51223068813E+02  0.51223068813E+02  0.00000000000E+00 0.  1.
         25    1    1    2    0    0 -0.18539657805E+03  0.10430073472E+03  0.81280358768E+03  0.84942639855E+03  0.12500000000E+03 0.  0.
         21    1    1    2  503  501  0.90416699044E+02 -0.48615593431E+02  0.52277817287E+03  0.53276230480E+03  0.00000000000E+00 0.  1.
         21    1    1    2  504  503  0.94979879010E+02 -0.55685141291E+02  0.80624342176E+02  0.13646353699E+03  0.00000000000E+00 0.  1.
<mgrwt>
<rscale>  4 0.17463415E+03</rscale>
<asrwt>0</asrwt>
<pdfrwt beam="1">  1       21 0.22575830E+00 0.17463415E+03</pdfrwt>
<pdfrwt beam="2">  1       21 0.78804732E-02 0.17463415E+03</pdfrwt>
<totfact> 0.11618238E+04</totfact>
</mgrwt>
</event>
<event>
 5    0  0.1531977E+001  0.2261402E+03  0.7546771E-02  0.1129386E+00
         21   -1    0    0  502  501  0.00000000000E+00  0.00000000000E+00  0.12920805965E+04  0.12920805965E+04  0.00000000000E+00 0. -1.
         21   -1    0    0  504  502 -0.00000000000E+00 -0.00000000000E+00 -0.11996661321E+03  0.11996661321E+03  0.00000000000E+00 0. -1.
         25    1    1    2    0    0 -0.96919429757E+02 -0.28024295658E+03  0.31142959694E+03  0.44782014741E+03  0.12500000000E+03 0.  0.
         21    1    1    2  503  501  0.91537391566E+02  0.14841376496E+03  0.80038960513E+03  0.81916375633E+03  0.00000000000E+00 0. -1.
         21    1    1    2  504  503  0.53820381912E+01  0.13182919162E+03  0.60294781224E+02  0.14506330598E+03  0.00000000000E+00 0. -1.
<mgrwt>
<rscale>  4 0.22614023E+03</rscale>
<asrwt>0</asrwt>
<pdfrwt beam="1">  1       21 0.19878162E+00 0.22614023E+03</pdfrwt>
<pdfrwt beam="2">  1       21 0.18456403E-01 0.22614023E+03</pdfrwt>
<totfact> 0.35541704E+03</totfact>
</mgrwt>
</event>
<event>
 5    0  0.1531977E+001  0.2844399E+03  0.7546771E-02  0.1093288E+00
         21   -1    0    0  502  501  0.00000000000E+00  0.00000000000E+00  0.13873938038E+03  0.13873938038E+03  0.00000000000E+00 0. -1.
         21   -1    0    0  504  502 -0.00000000000E+00 -0.00000000000E+00 -0.70115438829E+03  0.70115438829E+03  0.00000000000E+00 0. -1.
         25    1    1    2    0    0  0.23451662572E+03  0.16164499633E+03 -0.23271713789E+03  0.38847061516E+03  0.12500000000E+03 0.  0.
         21    1    1    2  503  501 -0.35056084465E+02 -0.41567378707E+02 -0.14301859404E+03  0.15300684388E+03  0.00000000000E+00 0. -1.
         21    1    1    2  504  503 -0.19946054126E+03 -0.12007761762E+03 -0.18667927598E+03  0.29841630963E+03  0.00000000000E+00 0. -1.
<mgrwt>
<rscale>  4 0.28443994E+03</rscale>
<asrwt>0</asrwt>
<pdfrwt beam="1">  1       21 0.21344520E-01 0.28443994E+03</pdfrwt>
<pdfrwt beam="2">  1       21 0.10786991E+00 0.28443994E+03</pdfrwt>
<totfact> 0.13276341E+04</totfact>
</mgrwt>
</event>
<event>
 5    0  0.1531977E+001  0.3641329E+03  0.7546771E-02  0.1056959E+00
         21   -1    0    0  502  501  0.00000000000E+00  0.00000000000E+00  0.48486758676E+03  0.48486758676E+03  0.00000000000E+00 0.  1.
         21   -1    0    0  504  502 -0.00000000000E+00 -0.00000000000E+00 -0.51075665063E+03  0.51075665063E+03  0.00000000000E+00 0.  1.
         25    1    1    2    0    0  0.38669684305E+03 -0.14774301834E+02  0.12754920735E+03  0.42620010408E+03  0.12500000000E+03 0.  0.
         21    1    1    2  503  501 -0.57619915253E+02 -0.37036253764E+01  0.12517353830E+03  0.13784841735E+03  0.00000000000E+00 0.  1.
         21    1    1    2  504  503 -0.32907692780E+03  0.18477927211E+02 -0.27861180952E+03  0.43157571596E+03  0.00000000000E+00 0.  1.
<mgrwt>
<rscale>  4 0.36413291E+03</rscale>
<asrwt>0</asrwt>
<pdfrwt beam="1">  1       21 0.74595013E-01 0.36413291E+03</pdfrwt>
<pdfrwt beam="2">  1       21 0.78577946E-01 0.36413291E+03</pdfrwt>
<totfact> 0.20627156E+03</totfact>
</mgrwt>
</event>
<event>
 5    0  0.1531977E+001  0.2149620E+03  0.7546771E-02  0.1137696E+00
         21   -1    0    0  502  501  0.00000000000E+00  0.00000000000E+00  0.27849820391E+03  0.27849820391E+03  0.00000000000E+00 0.  1.
         21   -1    0    0  504  502 -0.00000000000E+00 -0.00000000000E+00 -0.19973127543E+03  0.19973127543E+03  0.00000000000E+00 0. -1.
         25    1    1    2    0    0 -0.99068184196E+01  0.20204834126E+03  0.61224001963E+01  0.23787425469E+03  0.12500000000E+03 0.  0.
         21    1    1    2  503  501 -0.28418807222E+02 -0.42295838917E+02 -0.16347979283E+02  0.53514699105E+02  0.00000000000E+00 0. -1.
         21    1    1    2  504  503  0.38325625642E+02 -0.15975250235E+03  0.88992507561E+02  0.18684052555E+03  0.00000000000E+00 0.  1.
<mgrwt>
<rscale>  4 0.21496205E+03</rscale>
<asrwt>0</asrwt>
<pdfrwt beam="1">  1       21 0.42845878E-01 0.21496205E+03</pdfrwt>
<pdfrwt beam="2">  1       21 0.30727889E-01 0.21496205E+03</pdfrwt>
<totfact> 0.52718651E+04</totfact>
</mgrwt>
</event>
<event>
 5    0  0.1531977E+001  0.3362196E+03  0.7546771E-02  0.1068418E+00
         21   -1    0    0  504  501  0.00000000000E+00  0.00000000000E+00  0.40553526571E+03  0.40553526571E+03  0.00000000000E+00 0. -1.
         21   -1    0    0  501  502 -0.00000000000E+00 -0.00000000000E+00 -0.27459200043E+03  0.27459200043E+03  0.00000000000E+00 0. -1.
         25    1    1    2    0    0  0.31184041362E+03  0.13197905061E+02  0.17847789522E+02  0.33669299348E+03  0.12500000000E+03 0.  0.
         21    1    1    2  503  502 -0.24192280095E+03 -0.44772980132E+02  0.10014632594E+03  0.26563235490E+03  0.00000000000E+00 0. -1.
         21    1    1    2  504  503 -0.69917612675E+02  0.31575075071E+02  0.12949149819E+02  0.77801917771E+02  0.00000000000E+00 0. -1.
<mgrwt>
<rscale>  4 0.33621961E+03</rscale>
<asrwt>0</asrwt>
<pdfrwt beam="1">  1       21 0.62390041E-01 0.33621961E+03</pdfrwt>
<pdfrwt beam="2">  1       21 0.42244923E-01 0.33621961E+03</pdfrwt>
<totfact> 0.11936666E+04</totfact>
</mgrwt>
</event>
<event>
 5    0  0.1531977E+001  0.2223560E+03  0.7546771E-02  0.1132139E+00
         21   -1    0    0  504  501  0.00000000000E+00  0.00000000000E+00  0.45795205634E+02  0.45795205634E+02  0.00000000000E+00 0. -1.
         21   -1    0    0  501  502 -0.00000000000E+00 -0.00000000000E+00 -0.14827451350E+04  0.14827451350E+04  0.00000000000E+00 0. -1.
         25    1    1    2    0    0  0.11793082066E+03 -0.19144297512E+03 -0.67672201711E+03  0.72397222297E+03  0.12500000000E+03 0.  0.
         21    1    1    2  503  502 -0.10500005236E+03  0.12656665510E+03 -0.32392698121E+03  0.36328063302E+03  0.00000000000E+00 0. -1.
         21    1    1    2  504  503 -0.12930768302E+02  0.64876320021E+02 -0.43630093104E+03  0.44128748463E+03  0.00000000000E+00 0. -1.
<mgrwt>
<rscale>  4 0.22235599E+03</rscale>
<asrwt>0</asrwt>
<pdfrwt beam="1">  1       21 0.70454156E-02 0.22235599E+03</pdfrwt>
<pdfrwt beam="2">  1       21 0.22811466E+00 0.22235599E+03</pdfrwt>
<totfact> 0.13102143E+04</totfact>
</mgrwt>
</event>
<event>
 5    0  0.1531977E+001  0.2664954E+03  0.7546771E-02  0.1103302E+00
         21   -1    0    0  502  501  0.00000000000E+00  0.00000000000E+00  0.19323152427E+03  0.19323152427E+03  0.00000000000E+00 0.  1.
         21   -1    0    0  504  502 -0.00000000000E+00 -0.00000000000E+00 -0.48913159141E+03  0.48913159141E+03  0.00000000000E+00 0.  1.
         25    1    1    2    0    0  0.26629287493E+03  0.49849100063E+02 -0.69475047060E+02  0.30634720528E+03  0.12500000000E+03 0.  0.
         21    1    1    2  503  501 -0.20086719590E+03 -0.44254060356E+02 -0.89805185026E+02  0.22443489815E+03  0.00000000000E+00 0.  1.
         21    1    1    2  504  503 -0.65425679030E+02 -0.55950397073E+01 -0.13661983506E+03  0.15158101226E+03  0.00000000000E+00 0.  1.
<mgrwt>
<rscale>  4 0.26649536E+03</rscale>
<asrwt>0</asrwt>
<pdfrwt beam="1">  1       21 0.29727927E-01 0.26649536E+03</pdfrwt>
<pdfrwt beam="2">  1       21 0.75251015E-01 0.26649536E+03</pdfrwt>
<totfact> 0.16433537E+04</totfact>
</mgrwt>
</event>
<event>
 5    0  0.1531977E+001  0.2310185E+03  0.7546771E-02  0.1125925E+00
         21   -1    0    0  502  501  0.00000000000E+00  0.00000000000E+00  0.31707786986E+03  0.31707786986E+03  0.00000000000E+00 0. -1.
         21   -1    0    0  504  502 -0.00000000000E+00 -0.00000000000E+00 -0.21762214714E+03  0.21762214714E+03  0.00000000000E+00 0. -1.
         25    1    1    2    0    0 -0.10484762184E+03 -0.17831055603E+03  0.76569939959E+01  0.24180841125E+03  0.12500000000E+03 0.  0.
         21    1    1    2  503  501  0.11785834136E+03  0.14863079958E+03  0.13933271329E+03  0.23536207895E+03  0.00000000000E+00 0. -1.
         21    1    1    2  504  503 -0.13010719526E+02  0.29679756448E+02 -0.47533984571E+02  0.57529526806E+02  0.00000000000E+00 0. -1.
<mgrwt>
<rscale>  4 0.23101850E+03</rscale>
<asrwt>0</asrwt>
<pdfrwt beam="1">  1       21 0.48781211E-01 0.23101850E+03</pdfrwt>
<pdfrwt beam="2">  1       21 0.33480330E-01 0.23101850E+03</pdfrwt>
<totfact> 0.33799896E+04</totfact>
</mgrwt>
</event>
<event>
 5    0  0.1531977E+001  0.2123828E+03  0.7546771E-02  0.1139693E+00
         21   -1    0    0  502  501  0.00000000000E+00  0.00000000000E+00  0.68942614329E+03  0.68942614329E+03  0.00000000000E+00 0. -1.
         21   -1    0    0  504  502 -0.00000000000E+00 -0.00000000000E+00 -0.10202502636E+03  0.10202502636E+03  0.00000000000E+00 0. -1.
         25    1    1    2    0    0 -0.22320883828E+02  0.21137385036E+03  0.21075574884E+03  0.32437649751E+03  0.12500000000E+03 0.  0.
         21    1    1    2  503  501 -0.99634929925E+01 -0.16014706455E+03  0.37342367427E+03  0.40643768770E+03  0.00000000000E+00 0. -1.
         21    1    1    2  504  503  0.32284376821E+02 -0.51226785810E+02  0.32216938173E+01  0.60636984441E+02  0.00000000000E+00 0. -1.
<mgrwt>
<rscale>  4 0.21238280E+03</rscale>
<asrwt>0</asrwt>
<pdfrwt beam="1">  1       21 0.10606556E+00 0.21238280E+03</pdfrwt>
<pdfrwt beam="2">  1       21 0.15696158E-01 0.21238280E+03</pdfrwt>
<totfact> 0.25454540E+04</totfact>
</mgrwt>
</event>
<event>
 5    0  0.1531977E+001  0.3043572E+03  0.7546771E-02  0.1083083E+00
         21   -1    0    0  503  501  0.00000000000E+00  0.00000000000E+00  0.17934641231E+03  0.17934641231E+03  0.00000000000E+00 0.  1.
         21   -1    0    0  504  502 -0.00000000000E+00 -0.00000000000E+00 -0.88841077534E+03  0.88841077534E+03  0.00000000000E+00 0. -1.
         25    1    1    2    0    0 -0.25117224171E+03 -0.15676189033E+03 -0.62516260790E+02  0.32740657924E+03  0.12500000000E+03 0.  0.
         21    1    1    2  503  502  0.21209310242E+03  0.17345176116E+03 -0.64149624724E+03  0.69755747632E+03  0.00000000000E+00 0. -1.
         21    1    1    2  504  501  0.39079139289E+02 -0.16689870835E+02 -0.50518550038E+01  0.42793132101E+02  0.00000000000E+00 0. -1.
<mgrwt>
<rscale>  4 0.30435717E+03</rscale>
<asrwt>0</asrwt>
<pdfrwt beam="1">  1       21 0.27591756E-01 0.30435717E+03</pdfrwt>
<pdfrwt beam="2">  1       21 0.13667858E+00 0.30435717E+03</pdfrwt>
<totfact> 0.44245966E+03</totfact>
</mgrwt>
</event>
<event>
 5    0  0.1531977E+001  0.5161464E+03  0.7546771E-02  0.1012741E+00
         21   -1    0    0  504  501  0.00000000000E+00  0.00000000000E+00  0.82877221909E+03  0.82877221909E+03  0.00000000000E+00 0.  1.
         21   -1    0    0  503  502 -0.00000000000E+00 -0.00000000000E+00 -0.31792014628E+03  0.31792014628E+03  0.00000000000E+00 0.  1.
         25    1    1    2    0    0  0.95389345143E+02 -0.44211145548E+03  0.83546892828E+02  0.47662013127E+03  0.12500000000E+03 0.  0.
         21    1    1    2  503  501  0.58149920119E+02  0.23757924366E+03  0.12692026552E+03  0.27556136164E+03  0.00000000000E+00 0.  1.
         21    1    1    2  504  502 -0.15353926526E+03  0.20453221182E+03  0.30038491447E+03  0.39451087246E+03  0.00000000000E+00 0.  1.
<mgrwt>
<rscale>  4 0.50399768E+03</rscale>
<asrwt>0</asrwt>
<pdfrwt beam="1">  1       21 0.12750342E+00 0.51614638E+03</pdfrwt>
<pdfrwt beam="2">  1       21 0.48910792E-01 0.51614638E+03</pdfrwt>
<totfact> 0.15111259E+03</totfact>
</mgrwt>
</event>
<event>
 5    0  0.1531977E+001  0.2678656E+03  0.7546771E-02  0.1102507E+00
         21   -1    0    0  503  501  0.00000000000E+00  0.00000000000E+00  0.89294351927E+03  0.89294351927E+03  0.00000000000E+00 0.  1.
         21   -1    0    0  501  502 -0.00000000000E+00 -0.00000000000E+00 -0.81408998202E+02  0.81408998202E+02  0.00000000000E+00 0.  1.
         25    1    1    2    0    0  0.16221988900E+03 -0.16968242407E+03  0.40620636982E+03  0.48552655160E+03  0.12500000000E+03 0.  0.
         21    1    1    2  503  504 -0.14348853361E+03  0.19185634996E+03  0.38475255151E+03  0.45324644973E+03  0.00000000000E+00 0.  1.
         21    1    1    2  504  502 -0.18731355389E+02 -0.22173925899E+02  0.20575599744E+02  0.35579516147E+02  0.00000000000E+00 0.  1.
<mgrwt>
<rscale>  4 0.26786562E+03</rscale>
<asrwt>0</asrwt>
<pdfrwt beam="1">  1       21 0.13737592E+00 0.26786562E+03</pdfrwt>
<pdfrwt beam="2">  1       21 0.12524462E-01 0.26786562E+03</pdfrwt>
<totfact> 0.19554064E+04</totfact>
</mgrwt>
</event>
<event>
 5    0  0.1531977E+001  0.2807020E+03  0.7546771E-02  0.1095306E+00
         21   -1    0    0  504  501  0.00000000000E+00  0.00000000000E+00  0.52729248684E+03  0.52729248684E+03  0.00000000000E+00 0.  1.
         21   -1    0    0  503  502 -0.00000000000E+00 -0.00000000000E+00 -0.23692994352E+03  0.23692994352E+03  0.00000000000E+00 0.  1.
         25    1    1    2    0    0  0.13120420361E+03  0.21797208709E+03  0.21903122036E+03  0.35822625433E+03  0.12500000000E+03 0.  0.
         21    1    1    2  503  501 -0.15163831792E+03 -0.19962449951E+03 -0.71391929697E+02  0.26065480600E+03  0.00000000000E+00 0.  1.
         21    1    1    2  504  502  0.20434114303E+02 -0.18347587579E+02  0.14272325265E+03  0.14534137003E+03  0.00000000000E+00 0.  1.
<mgrwt>
<rscale>  4 0.28070204E+03</rscale>
<asrwt>0</asrwt>
<pdfrwt beam="1">  1       21 0.81121921E-01 0.28070204E+03</pdfrwt>
<pdfrwt beam="2">  1       21 0.36450761E-01 0.28070204E+03</pdfrwt>
<totfact> 0.91767819E+03</totfact>
</mgrwt>
</event>
<event>
 5    0  0.1531977E+001  0.2438458E+03  0.7546771E-02  0.1117257E+00
         21   -1    0    0  502  501  0.00000000000E+00  0.00000000000E+00  0.17868876428E+03  0.17868876428E+03  0.00000000000E+00 0.  1.
         21   -1    0    0  504  502 -0.00000000000E+00 -0.00000000000E+00 -0.46327269785E+03  0.46327269785E+03  0.00000000000E+00 0. -1.
         25    1    1    2    0    0  0.18442377814E+03 -0.99114270519E+02 -0.34055343714E+03  0.41885249446E+03  0.12500000000E+03 0.  0.
         21    1    1    2  503  501 -0.15377124607E+03  0.99503446033E+02  0.58697407644E+02  0.19233283016E+03  0.00000000000E+00 0.  1.
         21    1    1    2  504  503 -0.30652532069E+02 -0.38917551371E+00 -0.27279040764E+01  0.30776137517E+02  0.00000000000E+00 0.  1.
<mgrwt>
<rscale>  4 0.24384579E+03</rscale>
<asrwt>0</asrwt>
<pdfrwt beam="1">  1       21 0.27490579E-01 0.24384579E+03</pdfrwt>
<pdfrwt beam="2">  1       21 0.71272722E-01 0.24384579E+03</pdfrwt>
<totfact> 0.21856886E+04</totfact>
</mgrwt>
</event>
<event>
 5    0  0.1531977E+001  0.3520278E+03  0.7546771E-02  0.1061786E+00
         21   -1    0    0  503  501  0.00000000000E+00  0.00000000000E+00  0.10961617334E+04  0.10961617334E+04  0.00000000000E+00 0. -1.
         21   -1    0    0  504  502 -0.00000000000E+00 -0.00000000000E+00 -0.39894731115E+03  0.39894731115E+03  0.00000000000E+00 0. -1.
         25    1    1    2    0    0 -0.31550714513E+03 -0.18006079672E+03  0.79600375505E+03  0.88386290068E+03  0.12500000000E+03 0.  0.
         21    1    1    2  503  502  0.30013367049E+03  0.12778089341E+03 -0.27509268545E+03  0.42671320869E+03  0.00000000000E+00 0. -1.
         21    1    1    2  504  501  0.15373474638E+02  0.52279903304E+02  0.17630335268E+03  0.18453293521E+03  0.00000000000E+00 0. -1.
<mgrwt>
<rscale>  4 0.35202779E+03</rscale>
<asrwt>0</asrwt>
<pdfrwt beam="1">  1       21 0.16864027E+00 0.35202779E+03</pdfrwt>
<pdfrwt beam="2">  1       21 0.61376510E-01 0.35202779E+03</pdfrwt>
<totfact> 0.47011748E+02</totfact>
</mgrwt>
</event>
<event>
 5    0  0.1531977E+001  0.3297963E+03  0.7546771E-02  0.1071227E+00
         21   -1    0    0  503  501  0.00000000000E+00  0.00000000000E+00  0.15943782672E+03  0.15943782672E+03  0.00000000000E+00 0.  1.
         21   -1    0    0  504  502 -0.00000000000E+00 -0.00000000000E+00 -0.23112453968E+04  0.23112453968E+04  0.00000000000E+00 0. -1.
         25    1    1    2    0    0  0.26613165560E+03  0.12618462467E+03 -0.18167408043E+04  0.18447007258E+04  0.12500000000E+03 0.  0.
         21    1    1    2  503  502  0.24817591223E+02 -0.30360008210E+02 -0.31669027598E+03  0.31910871789E+03  0.00000000000E+00 0.  1.
         21    1    1    2  504  501 -0.29094924682E+03 -0.95824616457E+02 -0.18376489716E+02  0.30687377979E+03  0.00000000000E+00 0.  1.
<mgrwt>
<rscale>  4 0.32979625E+03</rscale>
<asrwt>0</asrwt>
<pdfrwt beam="1">  1       21 0.24528898E-01 0.32979625E+03</pdfrwt>
<pdfrwt beam="2">  1       21 0.35557620E+00 0.32979625E+03</pdfrwt>
<totfact> 0.21509650E+02</totfact>
</mgrwt>
</event>
<event>
 5    0  0.1531977E+001  0.2415247E+03  0.7546771E-02  0.1118781E+00
         21   -1    0    0  503  501  0.00000000000E+00  0.00000000000E+00  0.43587516700E+03  0.43587516700E+03  0.00000000000E+00 0. -1.
         21   -1    0    0  504  502 -0.00000000000E+00 -0.00000000000E+00 -0.18820505062E+03  0.18820505062E+03  0.00000000000E+00 0. -1.
         25    1    1    2    0    0 -0.20784253469E+03  0.42751195306E+02  0.21011483935E+03  0.32372740020E+03  0.12500000000E+03 0.  0.
         21    1    1    2  503  502  0.19010641703E+03 -0.78930560212E+02 -0.42998335089E+02  0.21028395077E+03  0.00000000000E+00 0. -1.
         21    1    1    2  504  501  0.17736117666E+02  0.36179364905E+02  0.80553612117E+02  0.90068866652E+02  0.00000000000E+00 0. -1.
<mgrwt>
<rscale>  4 0.24152470E+03</rscale>
<asrwt>0</asrwt>
<pdfrwt beam="1">  1       21 0.67057718E-01 0.24152470E+03</pdfrwt>
<pdfrwt beam="2">  1       21 0.28954623E-01 0.24152470E+03</pdfrwt>
<totfact> 0.22636957E+04</totfact>
</mgrwt>
</event>
<event>
 5    0  0.1531977E+001  0.3578144E+03  0.7546771E-02  0.1059453E+00
         21   -1    0    0  502  501  0.00000000000E+00  0.00000000000E+00  0.42761855008E+03  0.42761855008E+03  0.00000000000E+00 0. -1.
         21   -1    0    0  504  502 -0.00000000000E+00 -0.00000000000E+00 -0.31764226574E+03  0.31764226574E+03  0.00000000000E+00 0. -1.
         25    1    1    2    0    0  0.33235341470E+03  0.85752184220E+02 -0.13730889626E+02  0.36554858322E+03  0.12500000000E+03 0.  0.
         21    1    1    2  503  501 -0.20328127764E+02  0.79596701023E+01  0.36363300666E+02  0.42413190895E+02  0.00000000000E+00 0.  1.
         21    1    1    2  504  503 -0.31202528694E+03 -0.93711854322E+02  0.87343873300E+02  0.33729904170E+03  0.00000000000E+00 0. -1.
<mgrwt>
<rscale>  4 0.35781442E+03</rscale>
<asrwt>0</asrwt>
<pdfrwt beam="1">  1       21 0.65787469E-01 0.35781442E+03</pdfrwt>
<pdfrwt beam="2">  1       21 0.48868041E-01 0.35781442E+03</pdfrwt>
<totfact> 0.77728899E+03</totfact>
</mgrwt>
</event>
<event>
 5    0  0.1531977E+001  0.2013479E+03  0.7546771E-02  0.1148607E+00
         21   -1    0    0  503  501  0.00000000000E+00  0.00000000000E+00  0.88499418836E+03  0.88499418836E+03  0.00000000000E+00 0. -1.
         21   -1    0    0  504  502 -0.00000000000E+00 -0.00000000000E+00 -0.10768144679E+03  0.10768144679E+03  0.00000000000E+00 0. -1.
         25    1    1    2    0    0  0.19741245444E+03 -0.10690605775E+03  0.40673298042E+03  0.48110009323E+03  0.12500000000E+03 0.  0.
         21    1    1    2  503  502 -0.50767285342E+02  0.14350337472E+03  0.55323625572E+02  0.16196061053E+03  0.00000000000E+00 0. -1.
         21    1    1    2  504  501 -0.14664516909E+03 -0.36597316973E+02  0.31525613558E+03  0.34961493138E+03  0.00000000000E+00 0. -1.
<mgrwt>
<rscale>  4 0.20134791E+03</rscale>
<asrwt>0</asrwt>
<pdfrwt beam="1">  1       21 0.13615295E+00 0.20134791E+03</pdfrwt>
<pdfrwt beam="2">  1       21 0.16566377E-01 0.20134791E+03</pdfrwt>
<totfact> 0.12498255E+04</totfact>
</mgrwt>
</event>
<event>
 5    0  0.1531977E+001  0.3344529E+03  0.7546771E-02  0.1069183E+00
         21   -1    0    0  503  501  0.00000000000E+00  0.00000000000E+00  0.18835285154E+03  0.18835285154E+03  0.00000000000E+00 0. -1.
         21   -1    0    0  501  502 -0.00000000000E+00 -0.00000000000E+00 -0.10924407156E+04  0.10924407156E+04  0.00000000000E+00 0. -1.
         25    1    1    2    0    0 -0.32109322956E+03 -0.62317645937E+02 -0.81729067247E+03  0.88914194275E+03  0.12500000000E+03 0.  0.
         21    1    1    2  503  504  0.17550971810E+02  0.15317510647E+02 -0.81163672603E+02  0.84440538217E+02  0.00000000000E+00 0. -1.
         21    1    1    2  504  502  0.30354225775E+03  0.47000135290E+02 -0.56335190326E+01  0.30721108621E+03  0.00000000000E+00 0. -1.
<mgrwt>
<rscale>  4 0.33445294E+03</rscale>
<asrwt>0</asrwt>
<pdfrwt beam="1">  1       21 0.28977362E-01 0.33445294E+03</pdfrwt>
<pdfrwt beam="2">  1       21 0.16806780E+00 0.33445294E+03</pdfrwt>
<totfact> 0.22627971E+03</totfact>
</mgrwt>
</event>
<event>
 5    0  0.1531977E+001  0.2756739E+03  0.7546771E-02  0.1098075E+00
         21   -1    0    0  502  501  0.00000000000E+00  0.00000000000E+00  0.67206043963E+03  0.67206043963E+03  0.00000000000E+00 0. -1.
         21   -1    0    0  504  502 -0.00000000000E+00 -0.00000000000E+00 -0.14667911052E+03  0.14667911052E+03  0.00000000000E+00 0. -1.
         25    1    1    2    0    0 -0.22512748316E+03 -0.12276361583E+03  0.36047578360E+03  0.45969672569E+03  0.12500000000E+03 0.  0.
         21    1    1    2  503  501  0.22219629220E+03  0.77802404073E+02  0.19429724176E+03  0.30524715315E+03  0.00000000000E+00 0. -1.
         21    1    1    2  504  503  0.29311909617E+01  0.44961211755E+02 -0.29391696264E+02  0.53795671315E+02  0.00000000000E+00 0. -1.
<mgrwt>
<rscale>  4 0.27567393E+03</rscale>
<asrwt>0</asrwt>
<pdfrwt beam="1">  1       21 0.10339391E+00 0.27567393E+03</pdfrwt>
<pdfrwt beam="2">  1       21 0.22566017E-01 0.27567393E+03</pdfrwt>
<totfact> 0.13295307E+04</totfact>
</mgrwt>
</event>
<event>
 5    0  0.1531977E+001  0.2052027E+03  0.7546771E-02  0.1145422E+00
         21   -1    0    0  503  501  0.00000000000E+00  0.00000000000E+00  0.90178528379E+03  0.90178528379E+03  0.00000000000E+00 0.  1.
         21   -1    0    0  504  502 -0.00000000000E+00 -0.00000000000E+00 -0.14908757393E+03  0.14908757393E+03  0.00000000000E+00 0.  1.
         25    1    1    2    0    0  0.12435763041E+03  0.21503826283E+03  0.37135867640E+03  0.46393807912E+03  0.12500000000E+03 0.  0.
         21    1    1    2  503  502 -0.80024969496E+02 -0.12776662994E+03 -0.38694889724E+02  0.15564575792E+03  0.00000000000E+00 0.  1.
         21    1    1    2  504  501 -0.44332660919E+02 -0.87271632886E+02  0.42003392318E+03  0.43128902068E+03  0.00000000000E+00 0.  1.
<mgrwt>
<rscale>  4 0.20520271E+03</rscale>
<asrwt>0</asrwt>
<pdfrwt beam="1">  1       21 0.13873619E+00 0.20520271E+03</pdfrwt>
<pdfrwt beam="2">  1       21 0.22936550E-01 0.20520271E+03</pdfrwt>
<totfact> 0.64709541E+03</totfact>
</mgrwt>
</event>
<event>
 5    0  0.1531977E+001  0.2260982E+03  0.7546771E-02  0.1129417E+00
         21   -1    0    0  502  501  0.00000000000E+00  0.00000000000E+00  0.80734717280E+03  0.80734717280E+03  0.00000000000E+00 0. -1.
         21   -1    0    0  504  502 -0.00000000000E+00 -0.00000000000E+00 -0.12551520006E+03  0.12551520006E+03  0.00000000000E+00 0. -1.
         25    1    1    2    0    0  0.15272168799E+03  0.13247155895E+03  0.54361662590E+03  0.59330992227E+03  0.12500000000E+03 0.  0.
         21    1    1    2  503  501 -0.29325645986E+02  0.73905284082E+01  0.14966116415E+03  0.15268620592E+03  0.00000000000E+00 0. -1.
         21    1    1    2  504  503 -0.12339604201E+03 -0.13986208736E+03 -0.11445817316E+02  0.18686624467E+03  0.00000000000E+00 0. -1.
<mgrwt>
<rscale>  4 0.22609821E+03</rscale>
<asrwt>0</asrwt>
<pdfrwt beam="1">  1       21 0.12420725E+00 0.22609821E+03</pdfrwt>
<pdfrwt beam="2">  1       21 0.19310031E-01 0.22609821E+03</pdfrwt>
<totfact> 0.11677943E+04</totfact>
</mgrwt>
</event>
<event>
 5    0  0.1531977E+001  0.2528627E+03  0.7546771E-02  0.1111509E+00
         21   -1    0    0  503  501  0.00000000000E+00  0.00000000000E+00  0.49013562802E+03  0.49013562802E+03  0.00000000000E+00 0.  1.
         21   -1    0    0  504  502 -0.00000000000E+00 -0.00000000000E+00 -0.55039001241E+03  0.55039001241E+03  0.00000000000E+00 0.  1.
         25    1    1    2    0    0 -0.27413217802E+03  0.15710936581E+03  0.65800935922E+02  0.34610196044E+03  0.12500000000E+03 0.  0.
         21    1    1    2  503  502  0.19493679078E+03 -0.71472230777E+02 -0.36986036120E+03  0.42415247136E+03  0.00000000000E+00 0.  1.
         21    1    1    2  504  501  0.79195387240E+02 -0.85637135035E+02  0.24380504088E+03  0.27027120863E+03  0.00000000000E+00 0.  1.
<mgrwt>
<rscale>  4 0.25286269E+03</rscale>
<asrwt>0</asrwt>
<pdfrwt beam="1">  1       21 0.75405482E-01 0.25286269E+03</pdfrwt>
<pdfrwt beam="2">  1       21 0.84675386E-01 0.25286269E+03</pdfrwt>
<totfact> 0.18076354E+03</totfact>
</mgrwt>
</event>
<event>
 5    0  0.1531977E+001  0.3282425E+03  0.7546771E-02  0.1071917E+00
         21   -1    0    0  504  501  0.00000000000E+00  0.00000000000E+00  0.31201252749E+03  0.31201252749E+03  0.00000000000E+00 0.  1.
         21   -1    0    0  503  502 -0.00000000000E+00 -0.00000000000E+00 -0.77141395836E+03  0.77141395836E+03  0.00000000000E+00 0. -1.
         25    1    1    2    0    0  0.32020877282E+03 -0.13704963469E+03  0.70907276367E+02  0.37678787454E+03  0.12500000000E+03 0.  0.
         21    1    1    2  503  501 -0.28107002601E+03  0.93994656279E+02 -0.56563032486E+03  0.63857107618E+03  0.00000000000E+00 0. -1.
         21    1    1    2  504  502 -0.39138746807E+02  0.43054978407E+02  0.35321617621E+02  0.68067535129E+02  0.00000000000E+00 0. -1.
<mgrwt>
<rscale>  4 0.32824251E+03</rscale>
<asrwt>0</asrwt>
<pdfrwt beam="1">  1       21 0.48001928E-01 0.32824251E+03</pdfrwt>
<pdfrwt beam="2">  1       21 0.11867907E+00 0.32824251E+03</pdfrwt>
<totfact> 0.20461872E+03</totfact>
</mgrwt>
</event>
<event>
 5    0  0.1531977E+001  0.2802097E+03  0.7546771E-02  0.1095574E+00
         21   -1    0    0  503  501  0.00000000000E+00  0.00000000000E+00  0.10474331328E+03  0.10474331328E+03  0.00000000000E+00 0. -1.
         21   -1    0    0  504  502 -0.00000000000E+00 -0.00000000000E+00 -0.16223264778E+04  0.16223264778E+04  0.00000000000E+00 0. -1.
         25    1    1    2    0    0  0.15000861275E+03 -0.22859415145E+03 -0.42188308292E+03  0.51804266777E+03  0.12500000000E+03 0.  0.
         21    1    1    2  503  502 -0.24248696334E+02  0.25783070789E+02 -0.89920744650E+03  0.89990377144E+03  0.00000000000E+00 0. -1.
         21    1    1    2  504  501 -0.12575991642E+03  0.20281108066E+03 -0.19649263506E+03  0.30912335183E+03  0.00000000000E+00 0. -1.
<mgrwt>
<rscale>  4 0.28020970E+03</rscale>
<asrwt>0</asrwt>
<pdfrwt beam="1">  1       21 0.16114355E-01 0.28020970E+03</pdfrwt>
<pdfrwt beam="2">  1       21 0.24958870E+00 0.28020970E+03</pdfrwt>
<totfact> 0.21178631E+03</totfact>
</mgrwt>
</event>
<event>
 5    0  0.1531977E+001  0.2528810E+03  0.7546771E-02  0.1111498E+00
         21   -1    0    0  503  501  0.00000000000E+00  0.00000000000E+00  0.65342973556E+03  0.65342973556E+03  0.00000000000E+00 0. -1.
         21   -1    0    0  504  502 -0.00000000000E+00 -0.00000000000E+00 -0.23999204432E+03  0.23999204432E+03  0.00000000000E+00 0. -1.
         25    1    1    2    0    0 -0.30429170467E+03  0.58996132857E+02  0.24352018682E+03  0.41352275223E+03  0.12500000000E+03 0.  0.
         21    1    1    2  503  502  0.12485372989E+03 -0.19291256126E+01 -0.93576958557E+02  0.15604109256E+03  0.00000000000E+00 0. -1.
         21    1    1    2  504  501  0.17943797478E+03 -0.57067007245E+02  0.26349446297E+03  0.32385793510E+03  0.00000000000E+00 0. -1.
<mgrwt>
<rscale>  4 0.25288102E+03</rscale>
<asrwt>0</asrwt>
<pdfrwt beam="1">  1       21 0.10052765E+00 0.25288102E+03</pdfrwt>
<pdfrwt beam="2">  1       21 0.36921853E-01 0.25288102E+03</pdfrwt>
<totfact> 0.54994968E+03</totfact>
</mgrwt>
</event>
<event>
 5    0  0.1531977E+001  0.2638307E+03  0.7546771E-02  0.1104863E+00
         21   -1    0    0  503  501  0.00000000000E+00  0.00000000000E+00  0.12491274642E+03  0.12491274642E+03  0.00000000000E+00 0.  1.
         21   -1    0    0  501  502 -0.00000000000E+00 -0.00000000000E+00 -0.53071845992E+03  0.53071845992E+03  0.00000000000E+00 0.  1.
         25    1    1    2    0    0  0.81986973992E+02  0.21739318053E+03 -0.27294355704E+03  0.37961143841E+03  0.12500000000E+03 0.  0.
         21    1    1    2  503  504  0.45961113183E+01 -0.25649240993E+02 -0.35912020604E+02  0.44369821125E+02  0.00000000000E+00 0.  1.
         21    1    1    2  504  502 -0.86583085310E+02 -0.19174393954E+03 -0.96950135863E+02  0.23164994680E+03  0.00000000000E+00 0.  1.
<mgrwt>
<rscale>  4 0.26383074E+03</rscale>
<asrwt>0</asrwt>
<pdfrwt beam="1">  1       21 0.19217346E-01 0.26383074E+03</pdfrwt>
<pdfrwt beam="2">  1       21 0.81648993E-01 0.26383074E+03</pdfrwt>
<totfact> 0.31535987E+04</totfact>
</mgrwt>
</event>
<event>
 5    0  0.1531977E+001  0.3094078E+03  0.7546771E-02  0.1080630E+00
         21   -1    0    0  504  501  0.00000000000E+00  0.00000000000E+00  0.70913398840E+02  0.70913398840E+02  0.00000000000E+00 0.  1.
         21   -1    0    0  501  502 -0.00000000000E+00 -0.00000000000E+00 -0.14013493541E+04  0.14013493541E+04  0.00000000000E+00 0.  1.
         25    1    1    2    0    0  0.19844083949E+03 -0.21189762847E+03 -0.75987327533E+03  0.82298952988E+03  0.12500000000E+03 0.  0.
         21    1    1    2  503  502  0.80587977733E+01  0.24794035225E+02 -0.90669209091E+02  0.94342958834E+02  0.00000000000E+00 0.  1.
         21    1    1    2  504  503 -0.20649963727E+03  0.18710359325E+03 -0.47989347082E+03  0.55493026421E+03  0.00000000000E+00 0.  1.
<mgrwt>
<rscale>  4 0.30940776E+03</rscale>
<asrwt>0</asrwt>
<pdfrwt beam="1">  1       21 0.10909754E-01 0.30940776E+03</pdfrwt>
<pdfrwt beam="2">  1       21 0.21559220E+00 0.30940776E+03</pdfrwt>
<totfact> 0.68401022E+03</totfact>
</mgrwt>
</event>
<event>
 5    0  0.1531977E+001  0.3059379E+03  0.7546771E-02  0.1082309E+00
         21   -1    0    0  502  501  0.00000000000E+00  0.00000000000E+00  0.19371566081E+04  0.19371566081E+04  0.00000000000E+00 0.  1.
         21   -1    0    0  504  502 -0.00000000000E+00 -0.00000000000E+00 -0.32680735233E+03  0.32680735233E+03  0.00000000000E+00 0.  1.
         25    1    1    2    0    0  0.20708581596E+03  0.19165423509E+03 -0.13194129977E+03  0.33563281661E+03  0.12500000000E+03 0.  0.
         21    1    1    2  503  501 -0.19062418005E+03 -0.20390958523E+03  0.18234120396E+04  0.18446539413E+04  0.00000000000E+00 0.  1.
         21    1    1    2  504  503 -0.16461635913E+02  0.12255350141E+02 -0.81121484009E+02  0.83677202581E+02  0.00000000000E+00 0.  1.
<mgrwt>
<rscale>  4 0.30593795E+03</rscale>
<asrwt>0</asrwt>
<pdfrwt beam="1">  1       21 0.29802409E+00 0.30593795E+03</pdfrwt>
<pdfrwt beam="2">  1       21 0.50278055E-01 0.30593795E+03</pdfrwt>
<totfact> 0.11445113E+02</totfact>
</mgrwt>
</event>
<event>
 5    0  0.1531977E+001  0.1837688E+03  0.7546771E-02  0.1164205E+00
         21   -1    0    0  503  501  0.00000000000E+00  0.00000000000E+00  0.33580941250E+03  0.33580941250E+03  0.00000000000E+00 0.  1.
         21   -1    0    0  504  502 -0.00000000000E+00 -0.00000000000E+00 -0.58351516350E+03  0.58351516350E+03  0.00000000000E+00 0.  1.
         25    1    1    2    0    0  0.17419702601E+03 -0.98277669544E+02 -0.48812177837E+03  0.54211712270E+03  0.12500000000E+03 0.  0.
         21    1    1    2  503  502 -0.77695828716E+02  0.69263551830E+01 -0.23719085252E+02  0.81530431136E+02  0.00000000000E+00 0.  1.
         21    1    1    2  504  501 -0.96501197292E+02  0.91351314361E+02  0.26413511262E+03  0.29567702216E+03  0.00000000000E+00 0.  1.
<mgrwt>
<rscale>  4 0.18376880E+03</rscale>
<asrwt>0</asrwt>
<pdfrwt beam="1">  1       21 0.51662987E-01 0.18376880E+03</pdfrwt>
<pdfrwt beam="2">  1       21 0.89771563E-01 0.18376880E+03</pdfrwt>
<totfact> 0.37885138E+03</totfact>
</mgrwt>
</event>
<event>
 5    0  0.1531977E+001  0.3240380E+03  0.7546771E-02  0.1073806E+00
         21   -1    0    0  502  501  0.00000000000E+00  0.00000000000E+00  0.77177860835E+03  0.77177860835E+03  0.00000000000E+00 0. -1.
         21   -1    0    0  504  502 -0.00000000000E+00 -0.00000000000E+00 -0.22694612009E+03  0.22694612009E+03  0.00000000000E+00 0.  1.
         25    1    1    2    0    0 -0.26787736348E+03 -0.48199468236E+02  0.56769474766E+03  0.64185963973E+03  0.12500000000E+03 0.  0.
         21    1    1    2  503  501 -0.30141490723E+02 -0.14757711860E+02  0.33137997329E+02  0.47163825007E+02  0.00000000000E+00 0. -1.
         21    1    1    2  504  503  0.29801885420E+03  0.62957180096E+02 -0.56000256723E+02  0.30970126370E+03  0.00000000000E+00 0.  1.
<mgrwt>
<rscale>  4 0.32403804E+03</rscale>
<asrwt>0</asrwt>
<pdfrwt beam="1">  1       21 0.11873517E+00 0.32403804E+03</pdfrwt>
<pdfrwt beam="2">  1       21 0.34914788E-01 0.32403804E+03</pdfrwt>
<totfact> 0.39370779E+03</totfact>
</mgrwt>
</event>
<event>
 5    0  0.1531977E+001  0.2594916E+03  0.7546771E-02  0.1107449E+00
         21   -1    0    0  502  501  0.00000000000E+00  0.00000000000E+00  0.80855421714E+03  0.80855421714E+03  0.00000000000E+00 0. -1.
         21   -1    0    0  504  502 -0.00000000000E+00 -0.00000000000E+00 -0.67599155536E+03  0.67599155536E+03  0.00000000000E+00 0.  1.
         25    1    1    2    0    0  0.15633638136E+03 -0.17362432060E+03 -0.31448677423E+03  0.41123399666E+03  0.12500000000E+03 0.  0.
         21    1    1    2  503  501 -0.12840895602E+03  0.18743206315E+03  0.74236679742E+03  0.77635565316E+03  0.00000000000E+00 0. -1.
         21    1    1    2  504  503 -0.27927425348E+02 -0.13807742552E+02 -0.29531736142E+03  0.29695612268E+03  0.00000000000E+00 0. -1.
<mgrwt>
<rscale>  4 0.25949160E+03</rscale>
<asrwt>0</asrwt>
<pdfrwt beam="1">  1       21 0.12439296E+00 0.25949160E+03</pdfrwt>
<pdfrwt beam="2">  1       21 0.10399870E+00 0.25949160E+03</pdfrwt>
<totfact> 0.33711909E+02</totfact>
</mgrwt>
</event>
<event>
 5    0  0.1531977E+001  0.2485969E+03  0.7546771E-02  0.1114195E+00
         21   -1    0    0  502  501  0.00000000000E+00  0.00000000000E+00  0.10579047583E+03  0.10579047583E+03  0.00000000000E+00 0. -1.
         21   -1    0    0  504  502 -0.00000000000E+00 -0.00000000000E+00 -0.73049443570E+03  0.73049443570E+03  0.00000000000E+00 0. -1.
         25    1    1    2    0    0  0.11558112811E+03  0.18115307406E+03 -0.53841787806E+03  0.59303814788E+03  0.12500000000E+03 0.  0.
         21    1    1    2  503  501 -0.11086410500E+03 -0.15008029957E+03 -0.46041648808E+02  0.19218423328E+03  0.00000000000E+00 0. -1.
         21    1    1    2  504  503 -0.47170231151E+01 -0.31072774488E+02 -0.40244432991E+02  0.51062530374E+02  0.00000000000E+00 0. -1.
<mgrwt>
<rscale>  4 0.24859693E+03</rscale>
<asrwt>0</asrwt>
<pdfrwt beam="1">  1       21 0.16275458E-01 0.24859693E+03</pdfrwt>
<pdfrwt beam="2">  1       21 0.11238376E+00 0.24859693E+03</pdfrwt>
<totfact> 0.20292401E+04</totfact>
</mgrwt>
</event>
<event>
 5    0  0.1531977E+001  0.2530211E+03  0.7546771E-02  0.1111410E+00
         21   -1    0    0  503  501  0.00000000000E+00  0.00000000000E+00  0.17349118893E+03  0.17349118893E+03  0.00000000000E+00 0. -1.
         21   -1    0    0  504  502 -0.00000000000E+00 -0.00000000000E+00 -0.58626253451E+03  0.58626253451E+03  0.00000000000E+00 0. -1.
         25    1    1    2    0    0  0.70388869201E+02 -0.18966180186E+03 -0.40113055858E+03  0.46632276056E+03  0.12500000000E+03 0.  0.
         21    1    1    2  503  502  0.28070227323E+02 -0.11419763186E+02 -0.57401286264E+02  0.64909601123E+02  0.00000000000E+00 0. -1.
         21    1    1    2  504  501 -0.98459096524E+02  0.20108156504E+03  0.45760499261E+02  0.22852136176E+03  0.00000000000E+00 0. -1.
<mgrwt>
<rscale>  4 0.25302108E+03</rscale>
<asrwt>0</asrwt>
<pdfrwt beam="1">  1       21 0.26690953E-01 0.25302108E+03</pdfrwt>
<pdfrwt beam="2">  1       21 0.90194235E-01 0.25302108E+03</pdfrwt>
<totfact> 0.13474243E+04</totfact>
</mgrwt>
</event>
<event>
 5    0  0.1531977E+001  0.1928873E+03  0.7546771E-02  0.1155883E+00
         21   -1    0    0  502  501  0.00000000000E+00  0.00000000000E+00  0.73670536252E+02  0.73670536252E+02  0.00000000000E+00 0. -1.
         21   -1    0    0  504  502 -0.00000000000E+00 -0.00000000000E+00 -0.23075168374E+04  0.23075168374E+04  0.00000000000E+00 0. -1.
         25    1    1    2    0    0  0.19469674162E+02  0.20621729967E+03 -0.17820710609E+03  0.30047864410E+03  0.12500000000E+03 0.  0.
         21    1    1    2  503  501  0.24130816266E+02 -0.68515356359E+02 -0.12424994207E+03  0.14392601730E+03  0.00000000000E+00 0.  1.
         21    1    1    2  504  503 -0.43600490427E+02 -0.13770194331E+03 -0.19313892530E+04  0.19367827122E+04  0.00000000000E+00 0. -1.
<mgrwt>
<rscale>  4 0.19288733E+03</rscale>
<asrwt>0</asrwt>
<pdfrwt beam="1">  1       21 0.11333929E-01 0.19288733E+03</pdfrwt>
<pdfrwt beam="2">  1       21 0.35500258E+00 0.19288733E+03</pdfrwt>
<totfact> 0.10610316E+03</totfact>
</mgrwt>
</event>
<event>
 5    0  0.1531977E+001  0.2789063E+03  0.7546771E-02  0.1096288E+00
         21   -1    0    0  503  501  0.00000000000E+00  0.00000000000E+00  0.11727189910E+04  0.11727189910E+04  0.00000000000E+00 0. -1.
         21   -1    0    0  501  502 -0.00000000000E+00 -0.00000000000E+00 -0.87161662594E+02  0.87161662594E+02  0.00000000000E+00 0. -1.
         25    1    1    2    0    0  0.18203673824E+03 -0.10005147108E+03  0.45538327855E+03  0.51589398263E+03  0.12500000000E+03 0.  0.
         21    1    1    2  503  504 -0.22191768418E+03  0.18238784832E+03  0.37143393175E+03  0.46954866779E+03  0.00000000000E+00 0. -1.
         21    1    1    2  504  502  0.39880945939E+02 -0.82336377239E+02  0.25874011807E+03  0.27443800314E+03  0.00000000000E+00 0. -1.
<mgrwt>
<rscale>  4 0.27890626E+03</rscale>
<asrwt>0</asrwt>
<pdfrwt beam="1">  1       21 0.18041829E+00 0.27890626E+03</pdfrwt>
<pdfrwt beam="2">  1       21 0.13409487E-01 0.27890626E+03</pdfrwt>
<totfact> 0.81779278E+03</totfact>
</mgrwt>
</event>
<event>
 5    0  0.1531977E+001  0.2780006E+03  0.7546771E-02  0.1096786E+00
         21   -1    0    0  504  501  0.00000000000E+00  0.00000000000E+00  0.52586238226E+03  0.52586238226E+03  0.00000000000E+00 0.  1.
         21   -1    0    0  503  502 -0.00000000000E+00 -0.00000000000E+00 -0.22681582331E+03  0.22681582331E+03  0.00000000000E+00 0.  1.
         25    1    1    2    0    0 -0.26794536921E+03  0.47110842950E+02  0.16692362498E+03  0.34278659393E+03  0.12500000000E+03 0.  0.
         21    1    1    2  503  501  0.23464946905E+03 -0.43507430722E+02 -0.33435623303E+02  0.24097968952E+03  0.00000000000E+00 0.  1.
         21    1    1    2  504  502  0.33295900153E+02 -0.36034122278E+01  0.16555855728E+03  0.16891192212E+03  0.00000000000E+00 0.  1.
<mgrwt>
<rscale>  4 0.27800064E+03</rscale>
<asrwt>0</asrwt>
<pdfrwt beam="1">  1       21 0.80901905E-01 0.27800064E+03</pdfrwt>
<pdfrwt beam="2">  1       21 0.34894742E-01 0.27800064E+03</pdfrwt>
<totfact> 0.10092675E+04</totfact>
</mgrwt>
</event>
<event>
 5    0  0.1531977E+001  0.2374323E+03  0.7546771E-02  0.1121515E+00
         21   -1    0    0  504  501  0.00000000000E+00  0.00000000000E+00  0.10649061768E+04  0.10649061768E+04  0.00000000000E+00 0.  1.
         21   -1    0    0  503  502 -0.00000000000E+00 -0.00000000000E+00 -0.70155009878E+02  0.70155009878E+02  0.00000000000E+00 0.  1.
         25    1    1    2    0    0 -0.10459976075E+03 -0.17147218201E+03  0.70393331421E+03  0.74262435323E+03  0.12500000000E+03 0.  0.
         21    1    1    2  503  501  0.82383264437E+02  0.18500978343E+03  0.15737350746E+03  0.25648010268E+03  0.00000000000E+00 0.  1.
         21    1    1    2  504  502  0.22216496312E+02 -0.13537601414E+02  0.13344434522E+03  0.13595673073E+03  0.00000000000E+00 0. -1.
<mgrwt>
<rscale>  4 0.23743232E+03</rscale>
<asrwt>0</asrwt>
<pdfrwt beam="1">  1       21 0.16383171E+00 0.23743232E+03</pdfrwt>
<pdfrwt beam="2">  1       21 0.10793079E-01 0.23743232E+03</pdfrwt>
<totfact> 0.16239113E+04</totfact>
</mgrwt>
</event>
<event>
 5    0  0.1531977E+001  0.2425846E+03  0.7546771E-02  0.1118083E+00
         21   -1    0    0  504  501  0.00000000000E+00  0.00000000000E+00  0.39540466044E+03  0.39540466044E+03  0.00000000000E+00 0.  1.
         21   -1    0    0  503  502 -0.00000000000E+00 -0.00000000000E+00 -0.10094595442E+04  0.10094595442E+04  0.00000000000E+00 0.  1.
         25    1    1    2    0    0  0.13015436966E+03  0.15798790496E+03  0.28257504021E+03  0.37063997546E+03  0.12500000000E+03 0.  0.
         21    1    1    2  503  501 -0.11189387543E+03 -0.17541019077E+03 -0.95141822619E+03  0.97390226178E+03  0.00000000000E+00 0.  1.
         21    1    1    2  504  502 -0.18260494232E+02  0.17422285810E+02  0.54788302215E+02  0.60321967409E+02  0.00000000000E+00 0.  1.
<mgrwt>
<rscale>  4 0.24258458E+03</rscale>
<asrwt>0</asrwt>
<pdfrwt beam="1">  1       21 0.60831487E-01 0.24258458E+03</pdfrwt>
<pdfrwt beam="2">  1       21 0.15530147E+00 0.24258458E+03</pdfrwt>
<totfact> 0.65234064E+02</totfact>
</mgrwt>
</event>
<event>
 5    0  0.1531977E+001  0.2248953E+03  0.7546771E-02  0.1130285E+00
         21   -1    0    0  502  501  0.00000000000E+00  0.00000000000E+00  0.57543816662E+03  0.57543816662E+03  0.00000000000E+00 0. -1.
         21   -1    0    0  504  502 -0.00000000000E+00 -0.00000000000E+00 -0.35117230769E+03  0.35117230769E+03  0.00000000000E+00 0. -1.
         25    1    1    2    0    0 -0.24503341602E+03 -0.15990966637E+03 -0.17734929206E+03  0.36426672612E+03  0.12500000000E+03 0.  0.
         21    1    1    2  503  501  0.12940722031E+03  0.12485940189E+03  0.40323178101E+03  0.44151100566E+03  0.00000000000E+00 0. -1.
         21    1    1    2  504  503  0.11562619571E+03  0.35050264484E+02 -0.16166300158E+01  0.12083274253E+03  0.00000000000E+00 0. -1.
<mgrwt>
<rscale>  4 0.22489530E+03</rscale>
<asrwt>0</asrwt>
<pdfrwt beam="1">  1       21 0.88528948E-01 0.22489530E+03</pdfrwt>
<pdfrwt beam="2">  1       21 0.54026509E-01 0.22489530E+03</pdfrwt>
<totfact> 0.34456272E+03</totfact>
</mgrwt>
</event>
<event>
 5    0  0.1531977E+001  0.2971350E+03  0.7546771E-02  0.1086682E+00
         21   -1    0    0  503  501  0.00000000000E+00  0.00000000000E+00  0.50745568776E+03  0.50745568776E+03  0.00000000000E+00 0. -1.
         21   -1    0    0  504  502 -0.00000000000E+00 -0.00000000000E+00 -0.14633725321E+04  0.14633725321E+04  0.00000000000E+00 0.  1.
         25    1    1    2    0    0  0.10367444658E+03 -0.26855071600E+03  0.24887629987E+03  0.40053999873E+03  0.12500000000E+03 0.  0.
         21    1    1    2  503  502 -0.71557920575E+02  0.25918536532E+03 -0.13728502680E+04  0.13989336825E+04  0.00000000000E+00 0.  1.
         21    1    1    2  504  501 -0.32116526006E+02  0.93653506870E+01  0.16805712383E+03  0.17135453862E+03  0.00000000000E+00 0. -1.
<mgrwt>
<rscale>  4 0.29713498E+03</rscale>
<asrwt>0</asrwt>
<pdfrwt beam="1">  1       21 0.78070107E-01 0.29713498E+03</pdfrwt>
<pdfrwt beam="2">  1       21 0.22513423E+00 0.29713498E+03</pdfrwt>
<totfact> 0.12049949E+02</totfact>
</mgrwt>
</event>
<event>
 5    0  0.1531977E+001  0.3343305E+03  0.7546771E-02  0.1069237E+00
         21   -1    0    0  502  501  0.00000000000E+00  0.00000000000E+00  0.44567086548E+03  0.44567086548E+03  0.00000000000E+00 0.  1.
         21   -1    0    0  504  502 -0.00000000000E+00 -0.00000000000E+00 -0.37096594889E+03  0.37096594889E+03  0.00000000000E+00 0.  1.
         25    1    1    2    0    0  0.24956148299E+03 -0.23123542197E+03  0.16565446273E+02  0.36283628288E+03  0.12500000000E+03 0.  0.
         21    1    1    2  503  501 -0.23400442971E+03  0.18016122582E+03  0.16213273647E+03  0.33690230728E+03  0.00000000000E+00 0.  1.
         21    1    1    2  504  503 -0.15557053276E+02  0.51074196152E+02 -0.10399326615E+03  0.11689822421E+03  0.00000000000E+00 0.  1.
<mgrwt>
<rscale>  4 0.33433053E+03</rscale>
<asrwt>0</asrwt>
<pdfrwt beam="1">  1       21 0.68564748E-01 0.33433053E+03</pdfrwt>
<pdfrwt beam="2">  1       21 0.57071685E-01 0.33433053E+03</pdfrwt>
<totfact> 0.51430445E+03</totfact>
</mgrwt>
</event>
<event>
 5    0  0.1531977E+001  0.2574581E+03  0.7546771E-02  0.1108680E+00
         21   -1    0    0  504  501  0.00000000000E+00  0.00000000000E+00  0.33373755278E+03  0.33373755278E+03  0.00000000000E+00 0.  1.
         21   -1    0    0  503  502 -0.00000000000E+00 -0.00000000000E+00 -0.99069878514E+03  0.99069878514E+03  0.00000000000E+00 0.  1.
         25    1    1    2    0    0  0.17660636397E+03 -0.14551678117E+03 -0.88913802682E+03  0.92658317065E+03  0.12500000000E+03 0.  0.
         21    1    1    2  503  501 -0.18293650801E+03  0.89289419584E+02  0.53565650654E+02  0.21049381307E+03  0.00000000000E+00 0.  1.
         21    1    1    2  504  502  0.63301440331E+01  0.56227361585E+02  0.17861114381E+03  0.18735935420E+03  0.00000000000E+00 0.  1.
<mgrwt>
<rscale>  4 0.25745813E+03</rscale>
<asrwt>0</asrwt>
<pdfrwt beam="1">  1       21 0.51344240E-01 0.25745813E+03</pdfrwt>
<pdfrwt beam="2">  1       21 0.15241520E+00 0.25745813E+03</pdfrwt>
<totfact> 0.97308466E+02</totfact>
</mgrwt>
</event>
<event>
 5    0  0.1531977E+001  0.2177149E+03  0.7546771E-02  0.1135598E+00
         21   -1    0    0  502  501  0.00000000000E+00  0.00000000000E+00  0.37241139033E+03  0.37241139033E+03  0.00000000000E+00 0.  1.
         21   -1    0    0  504  502 -0.00000000000E+00 -0.00000000000E+00 -0.48789925385E+03  0.48789925385E+03  0.00000000000E+00 0.  1.
         25    1    1    2    0    0 -0.20729284381E+03 -0.42179785686E+02 -0.13324898508E+03  0.27951699311E+03  0.12500000000E+03 0.  0.
         21    1    1    2  503  501  0.17419348076E+03  0.83453181427E+01  0.27149638481E+03  0.32268142190E+03  0.00000000000E+00 0.  1.
         21    1    1    2  504  503  0.33099363045E+02  0.33834467543E+02 -0.25373526325E+03  0.25811222916E+03  0.00000000000E+00 0.  1.
<mgrwt>
<rscale>  4 0.21771489E+03</rscale>
<asrwt>0</asrwt>
<pdfrwt beam="1">  1       21 0.57294060E-01 0.21771489E+03</pdfrwt>
<pdfrwt beam="2">  1       21 0.75061424E-01 0.21771489E+03</pdfrwt>
<totfact> 0.44520797E+03</totfact>
</mgrwt>
</event>
<event>
 5    0  0.1531977E+001  0.2496576E+03  0.7546771E-02  0.1113521E+00
         21   -1    0    0  502  501  0.00000000000E+00  0.00000000000E+00  0.77296067477E+03  0.77296067477E+03  0.00000000000E+00 0. -1.
         21   -1    0    0  504  502 -0.00000000000E+00 -0.00000000000E+00 -0.10095832212E+03  0.10095832212E+03  0.00000000000E+00 0. -1.
         25    1    1    2    0    0 -0.20138603076E+03  0.35601812334E+02  0.14751315589E+03  0.28144085273E+03  0.12500000000E+03 0.  0.
         21    1    1    2  503  501  0.21937830787E+03 -0.18659022129E+02  0.52330584621E+03  0.56773586266E+03  0.00000000000E+00 0. -1.
         21    1    1    2  504  503 -0.17992277110E+02 -0.16942790205E+02  0.11833505547E+01  0.24742281506E+02  0.00000000000E+00 0. -1.
<mgrwt>
<rscale>  4 0.24965757E+03</rscale>
<asrwt>0</asrwt>
<pdfrwt beam="1">  1       21 0.11891702E+00 0.24965757E+03</pdfrwt>
<pdfrwt beam="2">  1       21 0.15532050E-01 0.24965757E+03</pdfrwt>
<totfact> 0.19232870E+04</totfact>
</mgrwt>
</event>
<event>
 5    0  0.1531977E+001  0.3274069E+03  0.7546771E-02  0.1072290E+00
         21   -1    0    0  502  501  0.00000000000E+00  0.00000000000E+00  0.12018107472E+04  0.12018107472E+04  0.00000000000E+00 0. -1.
         21   -1    0    0  504  502 -0.00000000000E+00 -0.00000000000E+00 -0.20180179672E+03  0.20180179672E+03  0.00000000000E+00 0. -1.
         25    1    1    2    0    0 -0.12460991542E+03  0.29755082827E+03  0.92085280800E+03  0.98369660995E+03  0.12500000000E+03 0.  0.
         21    1    1    2  503  501  0.21303553805E+02 -0.16056886040E+02  0.11488634114E+03  0.11794293694E+03  0.00000000000E+00 0.  1.
         21    1    1    2  504  503  0.10330636162E+03 -0.28149394223E+03 -0.35730198627E+02  0.30197299706E+03  0.00000000000E+00 0. -1.
<mgrwt>
<rscale>  4 0.32740695E+03</rscale>
<asrwt>0</asrwt>
<pdfrwt beam="1">  1       21 0.18489396E+00 0.32740695E+03</pdfrwt>
<pdfrwt beam="2">  1       21 0.31046431E-01 0.32740695E+03</pdfrwt>
<totfact> 0.15093605E+03</totfact>
</mgrwt>
</event>
<event>
 5    0  0.1531977E+001  0.3403225E+03  0.7546771E-02  0.1066659E+00
         21   -1    0    0  504  501  0.00000000000E+00  0.00000000000E+00  0.73585378680E+03  0.73585378680E+03  0.00000000000E+00 0.  1.
         21   -1    0    0  503  502 -0.00000000000E+00 -0.00000000000E+00 -0.45742821701E+03  0.45742821701E+03  0.00000000000E+00 0.  1.
         25    1    1    2    0    0 -0.18385329176E+03 -0.36635928620E+03 -0.20552211554E+03  0.47527413085E+03  0.12500000000E+03 0.  0.
         21    1    1    2  503  501  0.81910043325E+02  0.21166803473E+03  0.31549755076E+02  0.22914623970E+03  0.00000000000E+00 0.  1.
         21    1    1    2  504  502  0.10194324844E+03  0.15469125147E+03  0.45239793025E+03  0.48886163326E+03  0.00000000000E+00 0.  1.
<mgrwt>
<rscale>  4 0.34032249E+03</rscale>
<asrwt>0</asrwt>
<pdfrwt beam="1">  1       21 0.11320827E+00 0.34032249E+03</pdfrwt>
<pdfrwt beam="2">  1       21 0.70373572E-01 0.34032249E+03</pdfrwt>
<totfact> 0.99778785E+02</totfact>
</mgrwt>
</event>
<event>
 5    0  0.1531977E+001  0.2196633E+03  0.7546771E-02  0.1134134E+00
         21   -1    0    0  504  501  0.00000000000E+00  0.00000000000E+00  0.86413410246E+02  0.86413410246E+02  0.00000000000E+00 0.  1.
         21   -1    0    0  503  502 -0.00000000000E+00 -0.00000000000E+00 -0.79949329093E+03  0.79949329093E+03  0.00000000000E+00 0.  1.
         25    1    1    2    0    0 -0.14715247405E+03 -0.16492498480E+03 -0.45514687091E+03  0.52118880968E+03  0.12500000000E+03 0.  0.
         21    1    1    2  503  501  0.69843526412E+02  0.14512960110E+02 -0.14430309266E+03  0.16097244095E+03  0.00000000000E+00 0.  1.
         21    1    1    2  504  502  0.77308947640E+02  0.15041202469E+03 -0.11362991711E+03  0.20374545055E+03  0.00000000000E+00 0.  1.
<mgrwt>
<rscale>  4 0.21966335E+03</rscale>
<asrwt>0</asrwt>
<pdfrwt beam="1">  1       21 0.13294371E-01 0.21966335E+03</pdfrwt>
<pdfrwt beam="2">  1       21 0.12299896E+00 0.21966335E+03</pdfrwt>
<totfact> 0.23855664E+04</totfact>
</mgrwt>
</event>
<event>
 5    0  0.1531977E+001  0.2187561E+03  0.7546771E-02  0.1134814E+00
         21   -1    0    0  503  501  0.00000000000E+00  0.00000000000E+00  0.10667877445E+04  0.10667877445E+04  0.00000000000E+00 0. -1.
         21   -1    0    0  501  502 -0.00000000000E+00 -0.00000000000E+00 -0.62024559358E+02  0.62024559358E+02  0.00000000000E+00 0. -1.
         25    1    1    2    0    0  0.19518378399E+02  0.20515110635E+03  0.70334493443E+03  0.74349649651E+03  0.12500000000E+03 0.  0.
         21    1    1    2  503  504 -0.70533312730E+02 -0.13218644693E+03  0.17028037664E+03  0.22681184190E+03  0.00000000000E+00 0. -1.
         21    1    1    2  504  502  0.51014934331E+02 -0.72964659423E+02  0.13113787407E+03  0.15850396546E+03  0.00000000000E+00 0. -1.
<mgrwt>
<rscale>  4 0.21875607E+03</rscale>
<asrwt>0</asrwt>
<pdfrwt beam="1">  1       21 0.16412118E+00 0.21875607E+03</pdfrwt>
<pdfrwt beam="2">  1       21 0.95422407E-02 0.21875607E+03</pdfrwt>
<totfact> 0.20346560E+04</totfact>
</mgrwt>
</event>
<event>
 5    0  0.1531977E+001  0.2462707E+03  0.7546771E-02  0.1115685E+00
         21   -1    0    0  502  501  0.00000000000E+00  0.00000000000E+00  0.15829528728E+04  0.15829528728E+04  0.00000000000E+00 0. -1.
         21   -1    0    0  504  502 -0.00000000000E+00 -0.00000000000E+00 -0.12347597323E+03  0.12347597323E+03  0.00000000000E+00 0. -1.
         25    1    1    2    0    0 -0.41179584731E+02  0.29780006997E+03  0.43157197581E+03  0.54061077512E+03  0.12500000000E+03 0.  0.
         21    1    1    2  503  501  0.69277999642E+02 -0.11056507384E+03  0.95350846595E+03  0.96239413517E+03  0.00000000000E+00 0. -1.
         21    1    1    2  504  503 -0.28098414911E+02 -0.18723499613E+03  0.74396457811E+02  0.20342393574E+03  0.00000000000E+00 0. -1.
<mgrwt>
<rscale>  4 0.24627068E+03</rscale>
<asrwt>0</asrwt>
<pdfrwt beam="1">  1       21 0.24353120E+00 0.24627068E+03</pdfrwt>
<pdfrwt beam="2">  1       21 0.18996305E-01 0.24627068E+03</pdfrwt>
<totfact> 0.17457001E+03</totfact>
</mgrwt>
</event>
<event>
 5    0  0.1531977E+001  0.3365556E+03  0.7546771E-02  0.1068272E+00
         21   -1    0    0  502  501  0.00000000000E+00  0.00000000000E+00  0.28965048232E+03  0.28965048232E+03  0.00000000000E+00 0.  1.
         21   -1    0    0  504  502 -0.00000000000E+00 -0.00000000000E+00 -0.52536318961E+03  0.52536318961E+03  0.00000000000E+00 0.  1.
         25    1    1    2    0    0 -0.12080453505E+03  0.32692781568E+03 -0.14043871877E+03  0.39600955302E+03  0.12500000000E+03 0.  0.
         21    1    1    2  503  501 -0.13686768687E+02 -0.71132220973E+02  0.57156511549E+02  0.92271270231E+02  0.00000000000E+00 0.  1.
         21    1    1    2  504  503  0.13449130373E+03 -0.25579559471E+03 -0.15243050007E+03  0.32673284868E+03  0.00000000000E+00 0.  1.
<mgrwt>
<rscale>  4 0.33655559E+03</rscale>
<asrwt>0</asrwt>
<pdfrwt beam="1">  1       21 0.44561613E-01 0.33655559E+03</pdfrwt>
<pdfrwt beam="2">  1       21 0.80825105E-01 0.33655559E+03</pdfrwt>
<totfact> 0.59786519E+03</totfact>
</mgrwt>
</event>
<event>
 5    0  0.1531977E+001  0.2757749E+03  0.7546771E-02  0.1098019E+00
         21   -1    0    0  503  501  0.00000000000E+00  0.00000000000E+00  0.71419962278E+03  0.71419962278E+03  0.00000000000E+00 0.  1.
         21   -1    0    0  504  502 -0.00000000000E+00 -0.00000000000E+00 -0.62560273714E+03  0.62560273714E+03  0.00000000000E+00 0.  1.
         25    1    1    2    0    0 -0.94578240312E+02 -0.27778592364E+03 -0.19393484703E+03  0.37329048716E+03  0.12500000000E+03 0.  0.
         21    1    1    2  503  502  0.51376746591E+02  0.22030268040E+03 -0.30213678808E+03  0.37743804762E+03  0.00000000000E+00 0.  1.
         21    1    1    2  504  501  0.43201493721E+02  0.57483243244E+02  0.58466852075E+03  0.58907382514E+03  0.00000000000E+00 0.  1.
<mgrwt>
<rscale>  4 0.27577494E+03</rscale>
<asrwt>0</asrwt>
<pdfrwt beam="1">  1       21 0.10987687E+00 0.27577494E+03</pdfrwt>
<pdfrwt beam="2">  1       21 0.96246575E-01 0.27577494E+03</pdfrwt>
<totfact> 0.54482103E+02</totfact>
</mgrwt>
</event>
<event>
 5    0  0.1531977E+001  0.2652417E+03  0.7546771E-02  0.1104034E+00
         21   -1    0    0  502  501  0.00000000000E+00  0.00000000000E+00  0.12483642797E+03  0.12483642797E+03  0.00000000000E+00 0.  1.
         21   -1    0    0  504  502 -0.00000000000E+00 -0.00000000000E+00 -0.10473405598E+04  0.10473405598E+04  0.00000000000E+00 0.  1.
         25    1    1    2    0    0 -0.14505229761E+03 -0.24554923798E+03 -0.20536181193E+03  0.37300545722E+03  0.12500000000E+03 0.  0.
         21    1    1    2  503  501  0.39759658774E+02  0.48586513466E+02 -0.18130033036E+02  0.65346597880E+02  0.00000000000E+00 0. -1.
         21    1    1    2  504  503  0.10529263883E+03  0.19696272451E+03 -0.69901228683E+03  0.73382493265E+03  0.00000000000E+00 0.  1.
<mgrwt>
<rscale>  4 0.26524171E+03</rscale>
<asrwt>0</asrwt>
<pdfrwt beam="1">  1       21 0.19205604E-01 0.26524171E+03</pdfrwt>
<pdfrwt beam="2">  1       21 0.16112932E+00 0.26524171E+03</pdfrwt>
<totfact> 0.58306997E+03</totfact>
</mgrwt>
</event>
<event>
 5    0  0.1531977E+001  0.3776916E+03  0.7546771E-02  0.1051790E+00
         21   -1    0    0  504  501  0.00000000000E+00  0.00000000000E+00  0.15774711311E+04  0.15774711311E+04  0.00000000000E+00 0.  1.
         21   -1    0    0  503  502 -0.00000000000E+00 -0.00000000000E+00 -0.25697550557E+03  0.25697550557E+03  0.00000000000E+00 0.  1.
         25    1    1    2    0    0 -0.36250398644E+03 -0.23996174449E+03  0.11582694148E+04  0.12434644411E+04  0.12500000000E+03 0.  0.
         21    1    1    2  503  501  0.26849690338E+03  0.21986602507E+03 -0.56928265898E+02  0.35167098766E+03  0.00000000000E+00 0.  1.
         21    1    1    2  504  502  0.94007083056E+02  0.20095719423E+02  0.21915447658E+03  0.23931120787E+03  0.00000000000E+00 0.  1.
<mgrwt>
<rscale>  4 0.37769156E+03</rscale>
<asrwt>0</asrwt>
<pdfrwt beam="1">  1       21 0.24268786E+00 0.37769156E+03</pdfrwt>
<pdfrwt beam="2">  1       21 0.39534694E-01 0.37769156E+03</pdfrwt>
<totfact> 0.38187839E+02</totfact>
</mgrwt>
</event>
<event>
 5    0  0.1531977E+001  0.1862710E+03  0.7546771E-02  0.1161868E+00
         21   -1    0    0  502  501  0.00000000000E+00  0.00000000000E+00  0.52023171298E+03  0.52023171298E+03  0.00000000000E+00 0.  1.
         21   -1    0    0  504  502 -0.00000000000E+00 -0.00000000000E+00 -0.71360122479E+03  0.71360122479E+03  0.00000000000E+00 0.  1.
         25    1    1    2    0    0  0.11262692992E+03  0.20079846818E+03 -0.52285863121E+03  0.58481706405E+03  0.12500000000E+03 0.  0.
         21    1    1    2  503  501 -0.67447199322E+02 -0.11863694029E+03  0.46478463866E+03  0.48440541764E+03  0.00000000000E+00 0.  1.
         21    1    1    2  504  503 -0.45179730596E+02 -0.82161527891E+02 -0.13529551925E+03  0.16461045608E+03  0.00000000000E+00 0.  1.
<mgrwt>
<rscale>  4 0.18627103E+03</rscale>
<asrwt>0</asrwt>
<pdfrwt beam="1">  1       21 0.80035649E-01 0.18627103E+03</pdfrwt>
<pdfrwt beam="2">  1       21 0.10978480E+00 0.18627103E+03</pdfrwt>
<totfact> 0.90763907E+02</totfact>
</mgrwt>
</event>
<event>
 5    0  0.1531977E+001  0.2914757E+03  0.7546771E-02  0.1089581E+00
         21   -1    0    0  503  501  0.00000000000E+00  0.00000000000E+00  0.33072938252E+03  0.33072938252E+03  0.00000000000E+00 0. -1.
         21   -1    0    0  504  502 -0.00000000000E+00 -0.00000000000E+00 -0.80180807257E+03  0.80180807257E+03  0.00000000000E+00 0.  1.
         25    1    1    2    0    0 -0.44526006219E+02 -0.26138414698E+03 -0.49420741650E+03  0.57460439264E+03  0.12500000000E+03 0.  0.
         21    1    1    2  503  502  0.36368717987E+02 -0.18483482616E+01 -0.20579138551E+03  0.20898850301E+03  0.00000000000E+00 0. -1.
         21    1    1    2  504  501  0.81572882321E+01  0.26323249525E+03  0.22892011196E+03  0.34894455944E+03  0.00000000000E+00 0. -1.
<mgrwt>
<rscale>  4 0.29147567E+03</rscale>
<asrwt>0</asrwt>
<pdfrwt beam="1">  1       21 0.50881444E-01 0.29147567E+03</pdfrwt>
<pdfrwt beam="2">  1       21 0.12335509E+00 0.29147567E+03</pdfrwt>
<totfact> 0.16773184E+03</totfact>
</mgrwt>
</event>
<event>
 5    0  0.1531977E+001  0.6823450E+03  0.7546771E-02  0.9747910E-01
         21   -1    0    0  503  501  0.00000000000E+00  0.00000000000E+00  0.92547834943E+03  0.92547834943E+03  0.00000000000E+00 0.  1.
         21   -1    0    0  501  502 -0.00000000000E+00 -0.00000000000E+00 -0.52886692944E+03  0.52886692944E+03  0.00000000000E+00 0.  1.
         25    1    1    2    0    0 -0.40475340060E+03  0.54315068877E+03  0.19382646506E+03  0.71556389272E+03  0.12500000000E+03 0.  0.
         21    1    1    2  503  504  0.37138515701E+03 -0.55170564282E+03  0.16033861430E+03  0.68411586913E+03  0.00000000000E+00 0.  1.
         21    1    1    2  504  502  0.33368243593E+02  0.85549540505E+01  0.42446340624E+02  0.54665517025E+02  0.00000000000E+00 0.  1.
<mgrwt>
<rscale>  4 0.68234502E+03</rscale>
<asrwt>0</asrwt>
<pdfrwt beam="1">  1       21 0.14238128E+00 0.68234502E+03</pdfrwt>
<pdfrwt beam="2">  1       21 0.81364143E-01 0.68234502E+03</pdfrwt>
<totfact> 0.34425438E+02</totfact>
</mgrwt>
</event>
<event>
 5    0  0.1531977E+001  0.3963483E+03  0.7546771E-02  0.1045052E+00
         21   -1    0    0  502  501  0.00000000000E+00  0.00000000000E+00  0.75009328715E+03  0.75009328715E+03  0.00000000000E+00 0.  1.
         21   -1    0    0  504  502 -0.00000000000E+00 -0.00000000000E+00 -0.24301642621E+03  0.24301642621E+03  0.00000000000E+00 0.  1.
         25    1    1    2    0    0 -0.16023879351E+03 -0.34682256886E+03  0.80473940187E+02  0.40995538814E+03  0.12500000000E+03 0.  0.
         21    1    1    2  503  501  0.16806028691E+03  0.32485023875E+03  0.36256014996E+03  0.51499689318E+03  0.00000000000E+00 0.  1.
         21    1    1    2  504  503 -0.78214933947E+01  0.21972330117E+02  0.64042770794E+02  0.68157432028E+02  0.00000000000E+00 0. -1.
<mgrwt>
<rscale>  4 0.39634826E+03</rscale>
<asrwt>0</asrwt>
<pdfrwt beam="1">  1       21 0.11539897E+00 0.39634826E+03</pdfrwt>
<pdfrwt beam="2">  1       21 0.37387143E-01 0.39634826E+03</pdfrwt>
<totfact> 0.35633277E+03</totfact>
</mgrwt>
</event>
<event>
 5    0  0.1531977E+001  0.2292150E+03  0.7546771E-02  0.1127194E+00
         21   -1    0    0  503  501  0.00000000000E+00  0.00000000000E+00  0.83670466114E+03  0.83670466114E+03  0.00000000000E+00 0.  1.
         21   -1    0    0  504  502 -0.00000000000E+00 -0.00000000000E+00 -0.11884196926E+03  0.11884196926E+03  0.00000000000E+00 0.  1.
         25    1    1    2    0    0 -0.22694925295E+03 -0.63771129306E+02  0.37617781335E+03  0.46120219818E+03  0.12500000000E+03 0.  0.
         21    1    1    2  503  502  0.17641649696E+03  0.39018361759E+02  0.36900721743E+02  0.18440953397E+03  0.00000000000E+00 0.  1.
         21    1    1    2  504  501  0.50532755992E+02  0.24752767547E+02  0.30478415679E+03  0.30993489826E+03  0.00000000000E+00 0.  1.
<mgrwt>
<rscale>  4 0.22921495E+03</rscale>
<asrwt>0</asrwt>
<pdfrwt beam="1">  1       21 0.12872379E+00 0.22921495E+03</pdfrwt>
<pdfrwt beam="2">  1       21 0.18283380E-01 0.22921495E+03</pdfrwt>
<totfact> 0.11792443E+04</totfact>
</mgrwt>
</event>
<event>
 5    0  0.1531977E+001  0.2820884E+03  0.7546771E-02  0.1094554E+00
         21   -1    0    0  502  501  0.00000000000E+00  0.00000000000E+00  0.70799637052E+03  0.70799637052E+03  0.00000000000E+00 0. -1.
         21   -1    0    0  504  502 -0.00000000000E+00 -0.00000000000E+00 -0.15551400216E+03  0.15551400216E+03  0.00000000000E+00 0. -1.
         25    1    1    2    0    0 -0.25967950592E+03 -0.66578975688E+02  0.13615736197E+03  0.32562253149E+03  0.12500000000E+03 0.  0.
         21    1    1    2  503  501  0.22679987422E+03  0.10141723131E+03  0.42194634617E+03  0.48965534491E+03  0.00000000000E+00 0. -1.
         21    1    1    2  504  503  0.32879631694E+02 -0.34838255624E+02 -0.56213397856E+01  0.48232496268E+02  0.00000000000E+00 0.  1.
<mgrwt>
<rscale>  4 0.28208842E+03</rscale>
<asrwt>0</asrwt>
<pdfrwt beam="1">  1       21 0.10892252E+00 0.28208842E+03</pdfrwt>
<pdfrwt beam="2">  1       21 0.23925231E-01 0.28208842E+03</pdfrwt>
<totfact> 0.10440840E+04</totfact>
</mgrwt>
</event>
<event>
 5    0  0.1531977E+001  0.2647769E+03  0.7546771E-02  0.1104307E+00
         21   -1    0    0  503  501  0.00000000000E+00  0.00000000000E+00  0.62394000759E+03  0.62394000759E+03  0.00000000000E+00 0.  1.
         21   -1    0    0  504  502 -0.00000000000E+00 -0.00000000000E+00 -0.16493788189E+03  0.16493788189E+03  0.00000000000E+00 0.  1.
         25    1    1    2    0    0 -0.10206146632E+03  0.24915893023E+03  0.20888932393E+03  0.36298273385E+03  0.12500000000E+03 0.  0.
         21    1    1    2  503  502  0.95251889442E+02 -0.19405426216E+03  0.55031317367E+02  0.22306596557E+03  0.00000000000E+00 0.  1.
         21    1    1    2  504  501  0.68095768821E+01 -0.55104668072E+02  0.19508148441E+03  0.20282919006E+03  0.00000000000E+00 0.  1.
<mgrwt>
<rscale>  4 0.26477692E+03</rscale>
<asrwt>0</asrwt>
<pdfrwt beam="1">  1       21 0.95990769E-01 0.26477692E+03</pdfrwt>
<pdfrwt beam="2">  1       21 0.25375059E-01 0.26477692E+03</pdfrwt>
<totfact> 0.12755060E+04</totfact>
</mgrwt>
</event>
<event>
 5    0  0.1531977E+001  0.3451312E+03  0.7546771E-02  0.1064631E+00
         21   -1    0    0  502  501  0.00000000000E+00  0.00000000000E+00  0.86152117859E+03  0.86152117859E+03  0.00000000000E+00 0. -1.
         21   -1    0    0  504  502 -0.00000000000E+00 -0.00000000000E+00 -0.69219807383E+03  0.69219807383E+03  0.00000000000E+00 0.  1.
         25    1    1    2    0    0  0.87972511152E+02  0.31584768792E+03  0.72850883643E+03  0.80860933054E+03  0.12500000000E+03 0.  0.
         21    1    1    2  503  501  0.47185906704E+02 -0.24039586483E+02  0.39129654747E+02  0.65844828122E+02  0.00000000000E+00 0. -1.
         21    1    1    2  504  503 -0.13515841786E+03 -0.29180810143E+03 -0.59831538641E+03  0.67926509376E+03  0.00000000000E+00 0.  1.
<mgrwt>
<rscale>  4 0.34513122E+03</rscale>
<asrwt>0</asrwt>
<pdfrwt beam="1">  1       21 0.13254172E+00 0.34513122E+03</pdfrwt>
<pdfrwt beam="2">  1       21 0.10649201E+00 0.34513122E+03</pdfrwt>
<totfact> 0.25348414E+02</totfact>
</mgrwt>
</event>
<event>
 5    0  0.1531977E+001  0.3265779E+03  0.7546771E-02  0.1072661E+00
         21   -1    0    0  503  501  0.00000000000E+00  0.00000000000E+00  0.20068949376E+03  0.20068949376E+03  0.00000000000E+00 0. -1.
         21   -1    0    0  501  502 -0.00000000000E+00 -0.00000000000E+00 -0.65393733570E+03  0.65393733570E+03  0.00000000000E+00 0. -1.
         25    1    1    2    0    0  0.94317556553E+02 -0.24265173567E+03 -0.28531730407E+03  0.40596382881E+03  0.12500000000E+03 0.  0.
         21    1    1    2  503  504  0.62212684339E+02 -0.46439064095E+02 -0.72800032080E+02  0.10642767233E+03  0.00000000000E+00 0.  1.
         21    1    1    2  504  502 -0.15653024089E+03  0.28909079976E+03 -0.95130505781E+02  0.34223532832E+03  0.00000000000E+00 0. -1.
<mgrwt>
<rscale>  4 0.32657787E+03</rscale>
<asrwt>0</asrwt>
<pdfrwt beam="1">  1       21 0.30875307E-01 0.32657787E+03</pdfrwt>
<pdfrwt beam="2">  1       21 0.10060574E+00 0.32657787E+03</pdfrwt>
<totfact> 0.75488409E+03</totfact>
</mgrwt>
</event>
<event>
 5    0  0.1531977E+001  0.2804034E+03  0.7546771E-02  0.1095469E+00
         21   -1    0    0  503  501  0.00000000000E+00  0.00000000000E+00  0.29922136321E+03  0.29922136321E+03  0.00000000000E+00 0. -1.
         21   -1    0    0  504  502 -0.00000000000E+00 -0.00000000000E+00 -0.48011694027E+03  0.48011694027E+03  0.00000000000E+00 0. -1.
         25    1    1    2    0    0 -0.14786557235E+03 -0.21791796804E+03 -0.22441560153E+01  0.29151758869E+03  0.12500000000E+03 0.  0.
         21    1    1    2  503  502 -0.32725879119E+02  0.51825601338E+02 -0.22924872380E+03  0.23730118727E+03  0.00000000000E+00 0. -1.
         21    1    1    2  504  501  0.18059145147E+03  0.16609236670E+03  0.50597302748E+02  0.25051952751E+03  0.00000000000E+00 0. -1.
<mgrwt>
<rscale>  4 0.28040340E+03</rscale>
<asrwt>0</asrwt>
<pdfrwt beam="1">  1       21 0.46034056E-01 0.28040340E+03</pdfrwt>
<pdfrwt beam="2">  1       21 0.73864145E-01 0.28040340E+03</pdfrwt>
<totfact> 0.70427140E+03</totfact>
</mgrwt>
</event>
