<event>
 5    0  0.1967526E+000  0.3300707E+03  0.7546771E-02  0.1071106E+00
         21   -1    0    0  502  501  0.00000000000E+00  0.00000000000E+00  0.12001949933E+03  0.12001949933E+03  0.00000000000E+00 0. -1.
         21   -1    0    0  503  502 -0.00000000000E+00 -0.00000000000E+00 -0.88232694494E+03  0.88232694494E+03  0.00000000000E+00 0. -1.
         25    1    1    2    0    0 -0.27130123098E+03 -0.14041841448E+03 -0.32133112739E+03  0.46065212741E+03  0.12500000000E+03 0.  0.
         21    1    1    2  503  504  0.23298746804E+03  0.10741277135E+03 -0.40578189191E+03  0.48008291733E+03  0.00000000000E+00 0. -1.
         21    1    1    2  504  501  0.38313762939E+02  0.33005643134E+02 -0.35194426296E+02  0.61611399526E+02  0.00000000000E+00 0. -1.
<mgrwt>
<rscale>  4 0.33007073E+03</rscale>
<asrwt>0</asrwt>
<pdfrwt beam="1">  1       21 0.18464539E-01 0.33007073E+03</pdfrwt>
<pdfrwt beam="2">  1       21 0.13574260E+00 0.33007073E+03</pdfrwt>
<totfact> 0.95878254E+03</totfact>
</mgrwt>
</event>
<event>
 5    0  0.1856407E+000  0.3195054E+03  0.7546771E-02  0.1075877E+00
         21   -1    0    0  502  501  0.00000000000E+00  0.00000000000E+00  0.19182875047E+03  0.19182875047E+03  0.00000000000E+00 0.  1.
         21   -1    0    0  503  502 -0.00000000000E+00 -0.00000000000E+00 -0.26502974305E+04  0.26502974305E+04  0.00000000000E+00 0.  1.
         25    1    1    2    0    0 -0.11761668439E+02 -0.29464268891E+03  0.41990129107E+02  0.32301829966E+03  0.12500000000E+03 0.  0.
         21    1    1    2  503  504  0.17385805634E+02  0.13437654073E+02 -0.28914840960E+03  0.28998213662E+03  0.00000000000E+00 0.  1.
         21    1    1    2  504  501 -0.56241371944E+01  0.28120503484E+03 -0.22113103995E+04  0.22291257447E+04  0.00000000000E+00 0.  1.
<mgrwt>
<rscale>  4 0.31950539E+03</rscale>
<asrwt>0</asrwt>
<pdfrwt beam="1">  1       21 0.29512117E-01 0.31950539E+03</pdfrwt>
<pdfrwt beam="2">  1       21 0.40773805E+00 0.31950539E+03</pdfrwt>
<totfact> 0.71726750E+01</totfact>
</mgrwt>
</event>
<event>
 5    0  0.1856407E+000  0.2238766E+03  0.7546771E-02  0.1131025E+00
         21   -1    0    0  502  501  0.00000000000E+00  0.00000000000E+00  0.38489474967E+03  0.38489474967E+03  0.00000000000E+00 0.  1.
         21   -1    0    0  503  502 -0.00000000000E+00 -0.00000000000E+00 -0.84858584243E+03  0.84858584243E+03  0.00000000000E+00 0.  1.
         25    1    1    2    0    0 -0.24501004016E+02  0.22409769551E+03  0.30747664967E+03  0.40123181133E+03  0.12500000000E+03 0.  0.
         21    1    1    2  503  504 -0.13761466243E+02 -0.43574938503E+02 -0.71384326388E+01  0.46250518259E+02  0.00000000000E+00 0.  1.
         21    1    1    2  504  501  0.38262470259E+02 -0.18052275701E+03 -0.76402930979E+03  0.78599826250E+03  0.00000000000E+00 0.  1.
<mgrwt>
<rscale>  4 0.22387660E+03</rscale>
<asrwt>0</asrwt>
<pdfrwt beam="1">  1       21 0.59214578E-01 0.22387660E+03</pdfrwt>
<pdfrwt beam="2">  1       21 0.13055167E+00 0.22387660E+03</pdfrwt>
<totfact> 0.11062247E+03</totfact>
</mgrwt>
</event>
<event>
 5    0  0.1975929E+000  0.3327797E+03  0.7546771E-02  0.1069914E+00
         21   -1    0    0  502  501  0.00000000000E+00  0.00000000000E+00  0.21721507725E+03  0.21721507725E+03  0.00000000000E+00 0. -1.
         21   -1    0    0  503  502 -0.00000000000E+00 -0.00000000000E+00 -0.49755260753E+03  0.49755260753E+03  0.00000000000E+00 0. -1.
         25    1    1    2    0    0 -0.30458546964E+03  0.48425575191E+02 -0.21373923103E+03  0.39550828504E+03  0.12500000000E+03 0.  0.
         21    1    1    2  503  504  0.26642307567E+03 -0.25579168855E+02 -0.60044956228E+02  0.27430083102E+03  0.00000000000E+00 0. -1.
         21    1    1    2  504  501  0.38162393971E+02 -0.22846406336E+02 -0.65533430187E+01  0.44958568714E+02  0.00000000000E+00 0. -1.
<mgrwt>
<rscale>  4 0.33277972E+03</rscale>
<asrwt>0</asrwt>
<pdfrwt beam="1">  1       21 0.33417704E-01 0.33277972E+03</pdfrwt>
<pdfrwt beam="2">  1       21 0.76546555E-01 0.33277972E+03</pdfrwt>
<totfact> 0.12187720E+04</totfact>
</mgrwt>
</event>
<event>
 5    0  0.1856407E+000  0.2346940E+03  0.7546771E-02  0.1123379E+00
         21   -1    0    0  502  501  0.00000000000E+00  0.00000000000E+00  0.24528455958E+03  0.24528455958E+03  0.00000000000E+00 0. -1.
         21   -1    0    0  503  502 -0.00000000000E+00 -0.00000000000E+00 -0.49178939733E+03  0.49178939733E+03  0.00000000000E+00 0.  1.
         25    1    1    2    0    0  0.30607506531E+02 -0.20629884631E+03  0.13420903578E+03  0.27772846223E+03  0.12500000000E+03 0.  0.
         21    1    1    2  503  504 -0.81773355645E+02  0.14085519295E+03 -0.31029874814E+03  0.35044597326E+03  0.00000000000E+00 0.  1.
         21    1    1    2  504  501  0.51165849115E+02  0.65443653360E+02 -0.70415125396E+02  0.10889952142E+03  0.00000000000E+00 0.  1.
<mgrwt>
<rscale>  4 0.23469398E+03</rscale>
<asrwt>0</asrwt>
<pdfrwt beam="1">  1       21 0.37736086E-01 0.23469398E+03</pdfrwt>
<pdfrwt beam="2">  1       21 0.75659907E-01 0.23469398E+03</pdfrwt>
<totfact> 0.10276219E+04</totfact>
</mgrwt>
</event>
<event>
 5    0  0.1856407E+000  0.2562546E+03  0.7546771E-02  0.1109415E+00
         21   -1    0    0  502  501  0.00000000000E+00  0.00000000000E+00  0.30867245678E+02  0.30867245678E+02  0.00000000000E+00 0. -1.
         21   -1    0    0  503  502 -0.00000000000E+00 -0.00000000000E+00 -0.20833498537E+04  0.20833498537E+04  0.00000000000E+00 0. -1.
         25    1    1    2    0    0  0.20960686168E+03 -0.78143298546E+02 -0.77800446188E+03  0.81911986563E+03  0.12500000000E+03 0.  0.
         21    1    1    2  503  504 -0.42526567854E+02 -0.57390121506E+01 -0.26529625807E+03  0.26874439488E+03  0.00000000000E+00 0. -1.
         21    1    1    2  504  501 -0.16708029382E+03  0.83882310696E+02 -0.10091818881E+04  0.10263528389E+04  0.00000000000E+00 0. -1.
<mgrwt>
<rscale>  4 0.25625458E+03</rscale>
<asrwt>0</asrwt>
<pdfrwt beam="1">  1       21 0.47488065E-02 0.25625458E+03</pdfrwt>
<pdfrwt beam="2">  1       21 0.32051540E+00 0.25625458E+03</pdfrwt>
<totfact> 0.71540314E+03</totfact>
</mgrwt>
</event>
<event>
 5    0  0.1856407E+000  0.2472702E+03  0.7546771E-02  0.1115042E+00
         21   -1    0    0  502  501  0.00000000000E+00  0.00000000000E+00  0.83234445919E+03  0.83234445919E+03  0.00000000000E+00 0.  1.
         21   -1    0    0  503  502 -0.00000000000E+00 -0.00000000000E+00 -0.22125597482E+03  0.22125597482E+03  0.00000000000E+00 0. -1.
         25    1    1    2    0    0  0.83236925874E+02 -0.25090730038E+03  0.67584853221E+03  0.73639601962E+03  0.12500000000E+03 0.  0.
         21    1    1    2  503  504 -0.12449063065E+02  0.54310642449E+02  0.53383322285E+02  0.77164785703E+02  0.00000000000E+00 0. -1.
         21    1    1    2  504  501 -0.70787862809E+02  0.19659665793E+03 -0.11814337013E+03  0.24003962868E+03  0.00000000000E+00 0. -1.
<mgrwt>
<rscale>  4 0.24727020E+03</rscale>
<asrwt>0</asrwt>
<pdfrwt beam="1">  1       21 0.12805299E+00 0.24727020E+03</pdfrwt>
<pdfrwt beam="2">  1       21 0.34039381E-01 0.24727020E+03</pdfrwt>
<totfact> 0.35789100E+03</totfact>
</mgrwt>
</event>
<event>
 5    0  0.1856407E+000  0.2938298E+03  0.7546771E-02  0.1088366E+00
         21   -1    0    0  502  501  0.00000000000E+00  0.00000000000E+00  0.68059682370E+02  0.68059682370E+02  0.00000000000E+00 0. -1.
         21   -1    0    0  503  502 -0.00000000000E+00 -0.00000000000E+00 -0.11954942360E+04  0.11954942360E+04  0.00000000000E+00 0. -1.
         25    1    1    2    0    0 -0.49693168725E+02 -0.26123079721E+03 -0.54128649360E+03  0.61589529027E+03  0.12500000000E+03 0.  0.
         21    1    1    2  503  504  0.87206355331E+01  0.19291318327E+03 -0.37126398459E+03  0.41848356242E+03  0.00000000000E+00 0. -1.
         21    1    1    2  504  501  0.40972533192E+02  0.68317613942E+02 -0.21488407546E+03  0.22917506570E+03  0.00000000000E+00 0. -1.
<mgrwt>
<rscale>  4 0.29382978E+03</rscale>
<asrwt>0</asrwt>
<pdfrwt beam="1">  1       21 0.10470721E-01 0.29382978E+03</pdfrwt>
<pdfrwt beam="2">  1       21 0.18392217E+00 0.29382978E+03</pdfrwt>
<totfact> 0.11989088E+04</totfact>
</mgrwt>
</event>
<event>
 5    0  0.1856407E+000  0.2416060E+03  0.7546771E-02  0.1118728E+00
         21   -1    0    0  502  501  0.00000000000E+00  0.00000000000E+00  0.17938181036E+03  0.17938181036E+03  0.00000000000E+00 0. -1.
         21   -1    0    0  503  502 -0.00000000000E+00 -0.00000000000E+00 -0.13589008691E+04  0.13589008691E+04  0.00000000000E+00 0. -1.
         25    1    1    2    0    0  0.31181459254E+02  0.20683366577E+03  0.80417243819E+02  0.25660160132E+03  0.12500000000E+03 0.  0.
         21    1    1    2  503  504 -0.22849117134E+02 -0.17233320769E+03 -0.11958781595E+04  0.12084475119E+04  0.00000000000E+00 0. -1.
         21    1    1    2  504  501 -0.83323421201E+01 -0.34500458089E+02 -0.64058143029E+02  0.73233566224E+02  0.00000000000E+00 0. -1.
<mgrwt>
<rscale>  4 0.24160596E+03</rscale>
<asrwt>0</asrwt>
<pdfrwt beam="1">  1       21 0.27597202E-01 0.24160596E+03</pdfrwt>
<pdfrwt beam="2">  1       21 0.20906167E+00 0.24160596E+03</pdfrwt>
<totfact> 0.14034039E+03</totfact>
</mgrwt>
</event>
<event>
 5    0  0.1856407E+000  0.2914800E+03  0.7546771E-02  0.1089579E+00
         21   -1    0    0  502  501  0.00000000000E+00  0.00000000000E+00  0.64162054320E+02  0.64162054320E+02  0.00000000000E+00 0.  1.
         21   -1    0    0  503  502 -0.00000000000E+00 -0.00000000000E+00 -0.12938918101E+04  0.12938918101E+04  0.00000000000E+00 0. -1.
         25    1    1    2    0    0  0.96793505412E+02 -0.24488078631E+03 -0.51712140333E+03  0.59361193382E+03  0.12500000000E+03 0.  0.
         21    1    1    2  503  504 -0.73121269440E+02  0.16656763946E+03 -0.37132884887E+03  0.41349318321E+03  0.00000000000E+00 0. -1.
         21    1    1    2  504  501 -0.23672235971E+02  0.78313146858E+02 -0.34127950356E+03  0.35094874736E+03  0.00000000000E+00 0. -1.
<mgrwt>
<rscale>  4 0.29147999E+03</rscale>
<asrwt>0</asrwt>
<pdfrwt beam="1">  1       21 0.98710860E-02 0.29147999E+03</pdfrwt>
<pdfrwt beam="2">  1       21 0.19906026E+00 0.29147999E+03</pdfrwt>
<totfact> 0.10560705E+04</totfact>
</mgrwt>
</event>
<event>
 5    0  0.1856407E+000  0.2951394E+03  0.7546771E-02  0.1087696E+00
         21   -1    0    0  502  501  0.00000000000E+00  0.00000000000E+00  0.58346900449E+03  0.58346900449E+03  0.00000000000E+00 0.  1.
         21   -1    0    0  503  502 -0.00000000000E+00 -0.00000000000E+00 -0.37060794310E+03  0.37060794310E+03  0.00000000000E+00 0.  1.
         25    1    1    2    0    0 -0.45501435587E+01 -0.26547090336E+03  0.46479959574E+03  0.54969006589E+03  0.12500000000E+03 0.  0.
         21    1    1    2  503  504 -0.26209552679E+02 -0.13047756981E+02 -0.53629776802E+02  0.61101043966E+02  0.00000000000E+00 0.  1.
         21    1    1    2  504  501  0.30759696238E+02  0.27851866034E+03 -0.19830875756E+03  0.34328583774E+03  0.00000000000E+00 0.  1.
<mgrwt>
<rscale>  4 0.29513941E+03</rscale>
<asrwt>0</asrwt>
<pdfrwt beam="1">  1       21 0.89764463E-01 0.29513941E+03</pdfrwt>
<pdfrwt beam="2">  1       21 0.57016606E-01 0.29513941E+03</pdfrwt>
<totfact> 0.28424222E+03</totfact>
</mgrwt>
</event>
