<event>
 5    0  0.1014204E+000  0.3123564E+03  0.7546771E-02  0.1079222E+00
         21   -1    0    0  501  502  0.00000000000E+00  0.00000000000E+00  0.19077414999E+04  0.19077414999E+04  0.00000000000E+00 0.  1.
          1   -1    0    0  503    0 -0.00000000000E+00 -0.00000000000E+00 -0.84338811247E+03  0.84338811247E+03  0.00000000000E+00 0.  1.
         25    1    1    2    0    0 -0.20138173242E+03 -0.20381224669E+03  0.18656806604E+04  0.18916879660E+04  0.12500000000E+03 0.  0.
         21    1    1    2  503  502  0.31188090178E+02 -0.78607807945E+01 -0.41342957263E+02  0.52380616252E+02  0.00000000000E+00 0.  1.
          1    1    1    2  501    0  0.17019364224E+03  0.21167302748E+03 -0.75998431565E+03  0.80706103019E+03  0.00000000000E+00 0.  1.
<mgrwt>
<rscale>  4 0.31235645E+03</rscale>
<asrwt>0</asrwt>
<pdfrwt beam="1">  1       21 0.29349869E+00 0.31235645E+03</pdfrwt>
<pdfrwt beam="2">  1        1 0.12975202E+00 0.31235645E+03</pdfrwt>
<totfact> 0.76771345E+00</totfact>
</mgrwt>
</event>
<event>
 5    0  0.1014204E+000  0.3662913E+03  0.7546771E-02  0.1056120E+00
          2   -1    0    0  503    0 -0.00000000000E+00  0.00000000000E+00  0.25021171566E+04  0.25021171566E+04  0.00000000000E+00 0.  1.
         21   -1    0    0  501  502  0.00000000000E+00 -0.00000000000E+00 -0.16073732832E+03  0.16073732832E+03  0.00000000000E+00 0.  1.
         25    1    1    2    0    0 -0.27470092631E+03  0.20360057360E+03  0.98947390928E+02  0.37726566059E+03  0.12500000000E+03 0.  0.
         21    1    1    2  503  502 -0.52434116582E+02 -0.39381053621E+02  0.55821658571E+03  0.56205512232E+03  0.00000000000E+00 0.  1.
          2    1    1    2  501    0  0.32713504289E+03 -0.16421951998E+03  0.16842158517E+04  0.17235337020E+04  0.00000000000E+00 0.  1.
<mgrwt>
<rscale>  4 0.36629133E+03</rscale>
<asrwt>0</asrwt>
<pdfrwt beam="1">  1       21 0.24728822E-01 0.36629133E+03</pdfrwt>
<pdfrwt beam="2">  1        2 0.38494107E+00 0.36629133E+03</pdfrwt>
<totfact> 0.73365046E+02</totfact>
</mgrwt>
</event>
<event>
 5    0  0.1014204E+000  0.3551756E+03  0.7546771E-02  0.1060511E+00
         21   -1    0    0  501  502  0.00000000000E+00  0.00000000000E+00  0.18188293396E+04  0.18188293396E+04  0.00000000000E+00 0. -1.
          2   -1    0    0  503    0 -0.00000000000E+00 -0.00000000000E+00 -0.17540749957E+03  0.17540749957E+03  0.00000000000E+00 0. -1.
         25    1    1    2    0    0 -0.96242074984E+02  0.32013472344E+03  0.15537937661E+04  0.15942549501E+04  0.12500000000E+03 0.  0.
         21    1    1    2  503  502  0.21243962099E+02 -0.58282595480E+01 -0.44863515996E+02  0.49980092062E+02  0.00000000000E+00 0.  1.
          2    1    1    2  501    0  0.74998112885E+02 -0.31430646389E+03  0.13449158991E+03  0.35000179705E+03  0.00000000000E+00 0. -1.
<mgrwt>
<rscale>  4 0.35517556E+03</rscale>
<asrwt>0</asrwt>
<pdfrwt beam="1">  1       21 0.27981989E+00 0.35517556E+03</pdfrwt>
<pdfrwt beam="2">  1        2 0.26985770E-01 0.35517556E+03</pdfrwt>
<totfact> 0.95120642E+01</totfact>
</mgrwt>
</event>
<event>
 5    0  0.1014204E+000  0.2777151E+03  0.7546771E-02  0.1096943E+00
         21   -1    0    0  503  502  0.00000000000E+00  0.00000000000E+00  0.38355181728E+03  0.38355181728E+03  0.00000000000E+00 0. -1.
         -1   -1    0    0    0  501 -0.00000000000E+00 -0.00000000000E+00 -0.34712615582E+03  0.34712615582E+03  0.00000000000E+00 0. -1.
         25    1    1    2    0    0 -0.22516041729E+03 -0.13053455278E+03  0.18124354775E+03  0.34089691489E+03  0.12500000000E+03 0.  0.
         21    1    1    2  503  501  0.26660944451E+02  0.12260511735E+02 -0.15571871547E+03  0.15845959881E+03  0.00000000000E+00 0. -1.
         -1    1    1    2    0  502  0.19849947283E+03  0.11827404104E+03  0.10900829171E+02  0.23132145939E+03  0.00000000000E+00 0. -1.
<mgrwt>
<rscale>  4 0.27771509E+03</rscale>
<asrwt>0</asrwt>
<pdfrwt beam="1">  1       21 0.59007972E-01 0.27771509E+03</pdfrwt>
<pdfrwt beam="2">  1       -1 0.53404024E-01 0.27771509E+03</pdfrwt>
<totfact> 0.87507040E+02</totfact>
</mgrwt>
</event>
<event>
 5    0  0.1014204E+000  0.2810573E+03  0.7546771E-02  0.1095113E+00
         21   -1    0    0  501  502  0.00000000000E+00  0.00000000000E+00  0.10249106792E+03  0.10249106792E+03  0.00000000000E+00 0. -1.
          2   -1    0    0  503    0 -0.00000000000E+00 -0.00000000000E+00 -0.13377092101E+04  0.13377092101E+04  0.00000000000E+00 0. -1.
         25    1    1    2    0    0 -0.17121975481E+03 -0.18307452158E+03 -0.14750070175E+03  0.31656585714E+03  0.12500000000E+03 0.  0.
         21    1    1    2  503  502  0.13665005739E+02 -0.20223102913E+02 -0.10730481119E+03  0.11004557591E+03  0.00000000000E+00 0.  1.
          2    1    1    2  501    0  0.15755474908E+03  0.20329762449E+03 -0.98041262920E+03  0.10135888449E+04  0.00000000000E+00 0. -1.
<mgrwt>
<rscale>  4 0.28105733E+03</rscale>
<asrwt>0</asrwt>
<pdfrwt beam="1">  1       21 0.15767858E-01 0.28105733E+03</pdfrwt>
<pdfrwt beam="2">  1        2 0.20580139E+00 0.28105733E+03</pdfrwt>
<totfact> 0.74559334E+03</totfact>
</mgrwt>
</event>
<event>
 5    0  0.1014204E+000  0.3344785E+03  0.7546771E-02  0.1069172E+00
         21   -1    0    0  501  502  0.00000000000E+00  0.00000000000E+00  0.54700766722E+03  0.54700766722E+03  0.00000000000E+00 0. -1.
          2   -1    0    0  503    0 -0.00000000000E+00 -0.00000000000E+00 -0.12191680293E+04  0.12191680293E+04  0.00000000000E+00 0. -1.
         25    1    1    2    0    0  0.25334217849E+03 -0.18037719417E+03  0.46993609149E+03  0.57722016741E+03  0.12500000000E+03 0.  0.
         21    1    1    2  503  502 -0.41029778003E+01  0.22975435911E+02 -0.27655274235E+02  0.36187280571E+02  0.00000000000E+00 0.  1.
          2    1    1    2  501    0 -0.24923920069E+03  0.15740175826E+03 -0.11144411793E+04  0.11527682485E+04  0.00000000000E+00 0. -1.
<mgrwt>
<rscale>  4 0.33447853E+03</rscale>
<asrwt>0</asrwt>
<pdfrwt beam="1">  1       21 0.84155027E-01 0.33447853E+03</pdfrwt>
<pdfrwt beam="2">  1        2 0.18756431E+00 0.33447853E+03</pdfrwt>
<totfact> 0.28069874E+02</totfact>
</mgrwt>
</event>
<event>
 5    0  0.1014204E+000  0.2195530E+03  0.7546771E-02  0.1134217E+00
         21   -1    0    0  501  502  0.00000000000E+00  0.00000000000E+00  0.37112606520E+02  0.37112606520E+02  0.00000000000E+00 0. -1.
          2   -1    0    0  503    0 -0.00000000000E+00 -0.00000000000E+00 -0.23273038687E+04  0.23273038687E+04  0.00000000000E+00 0. -1.
         25    1    1    2    0    0  0.20767668114E+03 -0.43283471958E+01 -0.46451449142E+03  0.52397237638E+03  0.12500000000E+03 0.  0.
         21    1    1    2  503  502 -0.31840988216E+02 -0.10286241028E+02 -0.93554873612E+02  0.99358792573E+02  0.00000000000E+00 0.  1.
          2    1    1    2  501    0 -0.17583569292E+03  0.14614588224E+02 -0.17321218971E+04  0.17410853062E+04  0.00000000000E+00 0. -1.
<mgrwt>
<rscale>  4 0.21955301E+03</rscale>
<asrwt>0</asrwt>
<pdfrwt beam="1">  1       21 0.57096301E-02 0.21955301E+03</pdfrwt>
<pdfrwt beam="2">  1        2 0.35804685E+00 0.21955301E+03</pdfrwt>
<totfact> 0.13776996E+04</totfact>
</mgrwt>
</event>
<event>
 5    0  0.1014204E+000  0.2445665E+03  0.7546771E-02  0.1116788E+00
          1   -1    0    0  503    0 -0.00000000000E+00  0.00000000000E+00  0.18769089773E+04  0.18769089773E+04  0.00000000000E+00 0. -1.
         21   -1    0    0  501  502  0.00000000000E+00 -0.00000000000E+00 -0.83413259361E+02  0.83413259361E+02  0.00000000000E+00 0.  1.
         25    1    1    2    0    0 -0.14917079833E+03  0.15598342997E+03  0.13301422490E+03  0.28266683839E+03  0.12500000000E+03 0.  0.
         21    1    1    2  503  502  0.22676872013E+02 -0.24314486381E+02  0.64731234650E+03  0.64816564912E+03  0.00000000000E+00 0. -1.
          1    1    1    2  501    0  0.12649392632E+03 -0.13166894359E+03  0.10131691465E+04  0.10294897492E+04  0.00000000000E+00 0. -1.
<mgrwt>
<rscale>  4 0.24456653E+03</rscale>
<asrwt>0</asrwt>
<pdfrwt beam="1">  1       21 0.12832811E-01 0.24456653E+03</pdfrwt>
<pdfrwt beam="2">  1        1 0.28875519E+00 0.24456653E+03</pdfrwt>
<totfact> 0.23496974E+03</totfact>
</mgrwt>
</event>
<event>
 5    0  0.1014204E+000  0.2845372E+03  0.7546771E-02  0.1093236E+00
         21   -1    0    0  501  502  0.00000000000E+00  0.00000000000E+00  0.35587994399E+02  0.35587994399E+02  0.00000000000E+00 0.  1.
          1   -1    0    0  503    0 -0.00000000000E+00 -0.00000000000E+00 -0.27103987176E+04  0.27103987176E+04  0.00000000000E+00 0.  1.
         25    1    1    2    0    0 -0.14804640996E+03  0.21103608971E+03 -0.17480810776E+04  0.17714023892E+04  0.12500000000E+03 0.  0.
         21    1    1    2  503  502 -0.16830013082E+02 -0.16440767073E+02 -0.25467677766E+03  0.25576123483E+03  0.00000000000E+00 0. -1.
          1    1    1    2  501    0  0.16487642304E+03 -0.19459532264E+03 -0.67205286797E+03  0.71882308798E+03  0.00000000000E+00 0.  1.
<mgrwt>
<rscale>  4 0.28453721E+03</rscale>
<asrwt>0</asrwt>
<pdfrwt beam="1">  1       21 0.54750765E-02 0.28453721E+03</pdfrwt>
<pdfrwt beam="2">  1        1 0.41698438E+00 0.28453721E+03</pdfrwt>
<totfact> 0.29251746E+03</totfact>
</mgrwt>
</event>
<event>
 5    0  0.1014204E+000  0.2562535E+03  0.7546771E-02  0.1109415E+00
         21   -1    0    0  501  502  0.00000000000E+00  0.00000000000E+00  0.93226841778E+03  0.93226841778E+03  0.00000000000E+00 0. -1.
          2   -1    0    0  503    0 -0.00000000000E+00 -0.00000000000E+00 -0.12604464220E+04  0.12604464220E+04  0.00000000000E+00 0.  1.
         25    1    1    2    0    0 -0.21475109609E+03 -0.58856683893E+02  0.87738228672E+03  0.91378707561E+03  0.12500000000E+03 0.  0.
         21    1    1    2  503  502 -0.80050082286E+02  0.52050308904E+02 -0.11638760567E+03  0.15054343255E+03  0.00000000000E+00 0.  1.
          2    1    1    2  501    0  0.29480117838E+03  0.68063749889E+01 -0.10891726852E+04  0.11283843316E+04  0.00000000000E+00 0.  1.
<mgrwt>
<rscale>  4 0.25625354E+03</rscale>
<asrwt>0</asrwt>
<pdfrwt beam="1">  1       21 0.14342591E+00 0.25625354E+03</pdfrwt>
<pdfrwt beam="2">  1        2 0.19391483E+00 0.25625354E+03</pdfrwt>
<totfact> 0.75079347E+01</totfact>
</mgrwt>
</event>
<event>
 5    0  0.1014204E+000  0.2225521E+03  0.7546771E-02  0.1131995E+00
         21   -1    0    0  501  502  0.00000000000E+00  0.00000000000E+00  0.36599513351E+02  0.36599513351E+02  0.00000000000E+00 0. -1.
          2   -1    0    0  503    0 -0.00000000000E+00 -0.00000000000E+00 -0.24433197188E+04  0.24433197188E+04  0.00000000000E+00 0. -1.
         25    1    1    2    0    0  0.46223392581E+02  0.19502377641E+03 -0.50890166031E+03  0.56104970836E+03  0.12500000000E+03 0.  0.
         21    1    1    2  503  502 -0.91694904535E+02 -0.29988337875E+02 -0.10173479972E+04  0.10219120331E+04  0.00000000000E+00 0. -1.
          2    1    1    2  501    0  0.45471511954E+02 -0.16503543853E+03 -0.88047054798E+03  0.89695749076E+03  0.00000000000E+00 0. -1.
<mgrwt>
<rscale>  4 0.22255208E+03</rscale>
<asrwt>0</asrwt>
<pdfrwt beam="1">  1       21 0.56306945E-02 0.22255208E+03</pdfrwt>
<pdfrwt beam="2">  1        2 0.37589533E+00 0.22255208E+03</pdfrwt>
<totfact> 0.12208945E+04</totfact>
</mgrwt>
</event>
<event>
 5    0  0.1014204E+000  0.3224684E+03  0.7546771E-02  0.1074519E+00
         21   -1    0    0  501  502  0.00000000000E+00  0.00000000000E+00  0.11096484875E+03  0.11096484875E+03  0.00000000000E+00 0.  1.
          1   -1    0    0  503    0 -0.00000000000E+00 -0.00000000000E+00 -0.18180734857E+04  0.18180734857E+04  0.00000000000E+00 0. -1.
         25    1    1    2    0    0  0.25626993194E+03 -0.15062065381E+03 -0.17332478507E+03  0.36609744671E+03  0.12500000000E+03 0.  0.
         21    1    1    2  503  502 -0.27963724175E+02  0.21215455421E+01 -0.13249403961E+03  0.13542947005E+03  0.00000000000E+00 0.  1.
          1    1    1    2  501    0 -0.22830620777E+03  0.14849910827E+03 -0.14012898122E+04  0.14275114176E+04  0.00000000000E+00 0. -1.
<mgrwt>
<rscale>  4 0.32246839E+03</rscale>
<asrwt>0</asrwt>
<pdfrwt beam="1">  1       21 0.17071516E-01 0.32246839E+03</pdfrwt>
<pdfrwt beam="2">  1        1 0.27970359E+00 0.32246839E+03</pdfrwt>
<totfact> 0.14735994E+03</totfact>
</mgrwt>
</event>
<event>
 5    0  0.1014204E+000  0.2595475E+03  0.7546771E-02  0.1107415E+00
         21   -1    0    0  501  502  0.00000000000E+00  0.00000000000E+00  0.92069071728E+02  0.92069071728E+02  0.00000000000E+00 0.  1.
          2   -1    0    0  503    0 -0.00000000000E+00 -0.00000000000E+00 -0.20495784789E+04  0.20495784789E+04  0.00000000000E+00 0.  1.
         25    1    1    2    0    0  0.44308265620E+02 -0.22250601872E+03 -0.12230285374E+03  0.28645268161E+03  0.12500000000E+03 0.  0.
         21    1    1    2  503  502 -0.32136947975E+02 -0.11682807616E+02 -0.15680819101E+03  0.16049324032E+03  0.00000000000E+00 0.  1.
          2    1    1    2  501    0 -0.12171317645E+02  0.23418882633E+03 -0.16783983624E+04  0.16947016287E+04  0.00000000000E+00 0.  1.
<mgrwt>
<rscale>  4 0.25954754E+03</rscale>
<asrwt>0</asrwt>
<pdfrwt beam="1">  1       21 0.14164473E-01 0.25954754E+03</pdfrwt>
<pdfrwt beam="2">  1        2 0.31531976E+00 0.25954754E+03</pdfrwt>
<totfact> 0.38278866E+03</totfact>
</mgrwt>
</event>
<event>
 5    0  0.1014204E+000  0.2872146E+03  0.7546771E-02  0.1091812E+00
          1   -1    0    0  503    0 -0.00000000000E+00  0.00000000000E+00  0.23217563369E+04  0.23217563369E+04  0.00000000000E+00 0.  1.
         21   -1    0    0  501  502  0.00000000000E+00 -0.00000000000E+00 -0.47066710992E+02  0.47066710992E+02  0.00000000000E+00 0.  1.
         25    1    1    2    0    0 -0.25202835843E+03  0.57869771997E+02  0.53184984721E+03  0.60444723834E+03  0.12500000000E+03 0.  0.
         21    1    1    2  503  502  0.75990877668E+02 -0.59578290722E+02  0.72861074698E+03  0.73498150101E+03  0.00000000000E+00 0. -1.
          1    1    1    2  501    0  0.17603748076E+03  0.17085187256E+01  0.10142290318E+04  0.10293943086E+04  0.00000000000E+00 0.  1.
<mgrwt>
<rscale>  4 0.28721456E+03</rscale>
<asrwt>0</asrwt>
<pdfrwt beam="1">  1       21 0.72410343E-02 0.28721456E+03</pdfrwt>
<pdfrwt beam="2">  1        1 0.35719319E+00 0.28721456E+03</pdfrwt>
<totfact> 0.32730944E+03</totfact>
</mgrwt>
</event>
<event>
 5    0  0.1014204E+000  0.3154416E+03  0.7546771E-02  0.1077767E+00
          2   -1    0    0  503    0 -0.00000000000E+00  0.00000000000E+00  0.51906007018E+03  0.51906007018E+03  0.00000000000E+00 0.  1.
         21   -1    0    0  501  502  0.00000000000E+00 -0.00000000000E+00 -0.24492556247E+03  0.24492556247E+03  0.00000000000E+00 0.  1.
         25    1    1    2    0    0 -0.31651520117E+03 -0.22902780874E+02  0.16247486052E+03  0.37779556674E+03  0.12500000000E+03 0.  0.
         21    1    1    2  503  502  0.45230236118E+02  0.75351529935E+02  0.56356135233E+02  0.10440134722E+03  0.00000000000E+00 0.  1.
          2    1    1    2  501    0  0.27128496506E+03 -0.52448749061E+02  0.55303511965E+02  0.28178871869E+03  0.00000000000E+00 0.  1.
<mgrwt>
<rscale>  4 0.31544164E+03</rscale>
<asrwt>0</asrwt>
<pdfrwt beam="1">  1       21 0.37680856E-01 0.31544164E+03</pdfrwt>
<pdfrwt beam="2">  1        2 0.79855395E-01 0.31544164E+03</pdfrwt>
<totfact> 0.49120845E+03</totfact>
</mgrwt>
</event>
<event>
 5    0  0.1014204E+000  0.2199517E+03  0.7546771E-02  0.1133919E+00
         21   -1    0    0  501  502  0.00000000000E+00  0.00000000000E+00  0.93092362307E+02  0.93092362307E+02  0.00000000000E+00 0.  1.
          2   -1    0    0  503    0 -0.00000000000E+00 -0.00000000000E+00 -0.12730167916E+04  0.12730167916E+04  0.00000000000E+00 0. -1.
         25    1    1    2    0    0 -0.19573792132E+03 -0.41962709226E+02 -0.95178228032E+02  0.25447612442E+03  0.12500000000E+03 0.  0.
         21    1    1    2  503  502  0.28958508066E+02 -0.23995767894E+02 -0.56561473018E+02  0.67923429656E+02  0.00000000000E+00 0. -1.
          2    1    1    2  501    0  0.16677941325E+03  0.65958477120E+02 -0.10281847282E+04  0.10437095998E+04  0.00000000000E+00 0. -1.
<mgrwt>
<rscale>  4 0.21995165E+03</rscale>
<asrwt>0</asrwt>
<pdfrwt beam="1">  1       21 0.14321903E-01 0.21995165E+03</pdfrwt>
<pdfrwt beam="2">  1        2 0.19584873E+00 0.21995165E+03</pdfrwt>
<totfact> 0.98327169E+03</totfact>
</mgrwt>
</event>
<event>
 5    0  0.1014204E+000  0.4061550E+03  0.7546771E-02  0.1041669E+00
         21   -1    0    0  501  502  0.00000000000E+00  0.00000000000E+00  0.19520740918E+03  0.19520740918E+03  0.00000000000E+00 0. -1.
          2   -1    0    0  503    0 -0.00000000000E+00 -0.00000000000E+00 -0.32714025226E+04  0.32714025226E+04  0.00000000000E+00 0. -1.
         25    1    1    2    0    0  0.25442579184E+03 -0.31579912958E+03 -0.83834625086E+02  0.43256770356E+03  0.12500000000E+03 0.  0.
         21    1    1    2  503  502 -0.20407802868E+03  0.25350422150E+02 -0.13128330060E+04  0.13288419723E+04  0.00000000000E+00 0. -1.
          2    1    1    2  501    0 -0.50347763165E+02  0.29044870743E+03 -0.16795274823E+04  0.17052002559E+04  0.00000000000E+00 0. -1.
<mgrwt>
<rscale>  4 0.40615499E+03</rscale>
<asrwt>0</asrwt>
<pdfrwt beam="1">  1       21 0.30031912E-01 0.40615499E+03</pdfrwt>
<pdfrwt beam="2">  1        2 0.50329265E+00 0.40615499E+03</pdfrwt>
<totfact> 0.17329977E+02</totfact>
</mgrwt>
</event>
<event>
 5    0  0.1014204E+000  0.3004468E+03  0.7546771E-02  0.1085017E+00
          1   -1    0    0  503    0 -0.00000000000E+00  0.00000000000E+00  0.11835685378E+04  0.11835685378E+04  0.00000000000E+00 0. -1.
         21   -1    0    0  501  502  0.00000000000E+00 -0.00000000000E+00 -0.27313984202E+03  0.27313984202E+03  0.00000000000E+00 0. -1.
         25    1    1    2    0    0  0.27028595913E+03 -0.52174279185E+02 -0.15408820966E+03  0.33932997432E+03  0.12500000000E+03 0.  0.
         21    1    1    2  503  502 -0.85202568457E+01  0.75276982697E+02  0.20301274850E+03  0.21668732071E+03  0.00000000000E+00 0. -1.
          1    1    1    2  501    0 -0.26176570229E+03 -0.23102703513E+02  0.86150415692E+03  0.90069108478E+03  0.00000000000E+00 0. -1.
<mgrwt>
<rscale>  4 0.30044683E+03</rscale>
<asrwt>0</asrwt>
<pdfrwt beam="1">  1       21 0.42021515E-01 0.30044683E+03</pdfrwt>
<pdfrwt beam="2">  1        1 0.18208747E+00 0.30044683E+03</pdfrwt>
<totfact> 0.68429010E+02</totfact>
</mgrwt>
</event>
<event>
 5    0  0.1014204E+000  0.2547050E+03  0.7546771E-02  0.1110367E+00
         -2   -1    0    0    0  501 -0.00000000000E+00  0.00000000000E+00  0.13987746204E+04  0.13987746204E+04  0.00000000000E+00 0. -1.
         21   -1    0    0  503  502  0.00000000000E+00 -0.00000000000E+00 -0.12658868101E+03  0.12658868101E+03  0.00000000000E+00 0. -1.
         25    1    1    2    0    0  0.22026704842E+03 -0.31692597191E+02  0.30743252218E+02  0.25708391800E+03  0.12500000000E+03 0.  0.
         21    1    1    2  503  501 -0.10284393237E+02 -0.34737266239E+02  0.25421440993E+03  0.25678281217E+03  0.00000000000E+00 0. -1.
         -2    1    1    2    0  502 -0.20998265518E+03  0.66429863430E+02  0.98722827723E+03  0.10114965712E+04  0.00000000000E+00 0. -1.
<mgrwt>
<rscale>  4 0.25470501E+03</rscale>
<asrwt>0</asrwt>
<pdfrwt beam="1">  1       21 0.19475183E-01 0.25470501E+03</pdfrwt>
<pdfrwt beam="2">  1       -2 0.21519608E+00 0.25470501E+03</pdfrwt>
<totfact> 0.22834032E+02</totfact>
</mgrwt>
</event>
<event>
 5    0  0.1014204E+000  0.6463823E+03  0.7546771E-02  0.9813591E-01
         21   -1    0    0  501  502  0.00000000000E+00  0.00000000000E+00  0.57970780728E+03  0.57970780728E+03  0.00000000000E+00 0.  1.
          2   -1    0    0  503    0 -0.00000000000E+00 -0.00000000000E+00 -0.18393456666E+04  0.18393456666E+04  0.00000000000E+00 0. -1.
         25    1    1    2    0    0  0.33024557288E+03 -0.53819102203E+03  0.30255094396E+03  0.71124804976E+03  0.12500000000E+03 0.  0.
         21    1    1    2  503  502  0.32067144914E+02 -0.83005791465E+01 -0.55603770104E+02  0.64722334993E+02  0.00000000000E+00 0. -1.
          2    1    1    2  501    0 -0.36231271780E+03  0.54649160117E+03 -0.15065850332E+04  0.16430830892E+04  0.00000000000E+00 0. -1.
<mgrwt>
<rscale>  4 0.64638225E+03</rscale>
<asrwt>0</asrwt>
<pdfrwt beam="1">  1       21 0.89185818E-01 0.64638225E+03</pdfrwt>
<pdfrwt beam="2">  1        2 0.28297625E+00 0.64638225E+03</pdfrwt>
<totfact> 0.10036757E+02</totfact>
</mgrwt>
</event>
<event>
 5    0  0.1014204E+000  0.4522064E+03  0.7546771E-02  0.1027066E+00
         21   -1    0    0  503  502  0.00000000000E+00  0.00000000000E+00  0.23473533665E+03  0.23473533665E+03  0.00000000000E+00 0.  1.
         -3   -1    0    0    0  501 -0.00000000000E+00 -0.00000000000E+00 -0.95307842109E+03  0.95307842109E+03  0.00000000000E+00 0.  1.
         25    1    1    2    0    0  0.31347621249E+02  0.42177212772E+03 -0.22900422226E+03  0.49693292796E+03  0.12500000000E+03 0.  0.
         21    1    1    2  503  501 -0.17890517166E+02  0.30259569593E+02 -0.42142710652E+02  0.54879141917E+02  0.00000000000E+00 0.  1.
         -3    1    1    2    0  502 -0.13457104083E+02 -0.45203169732E+03 -0.44719615152E+03  0.63600168786E+03  0.00000000000E+00 0.  1.
<mgrwt>
<rscale>  4 0.45220639E+03</rscale>
<asrwt>0</asrwt>
<pdfrwt beam="1">  1       21 0.36113129E-01 0.45220639E+03</pdfrwt>
<pdfrwt beam="2">  1       -3 0.14662745E+00 0.45220639E+03</pdfrwt>
<totfact> 0.12501860E+02</totfact>
</mgrwt>
</event>
<event>
 5    0  0.1014204E+000  0.2595589E+03  0.7546771E-02  0.1107409E+00
         21   -1    0    0  501  502  0.00000000000E+00  0.00000000000E+00  0.28729854607E+03  0.28729854607E+03  0.00000000000E+00 0. -1.
          2   -1    0    0  503    0 -0.00000000000E+00 -0.00000000000E+00 -0.59640410206E+03  0.59640410206E+03  0.00000000000E+00 0. -1.
         25    1    1    2    0    0  0.30968505856E+02 -0.21605900442E+03  0.14472623948E+03  0.29019170584E+03  0.12500000000E+03 0.  0.
         21    1    1    2  503  502 -0.57981408450E+02 -0.52495336187E+02 -0.22977516547E+03  0.24272253853E+03  0.00000000000E+00 0. -1.
          2    1    1    2  501    0  0.27012902594E+02  0.26855434060E+03 -0.22405663001E+03  0.35078840376E+03  0.00000000000E+00 0. -1.
<mgrwt>
<rscale>  4 0.25955892E+03</rscale>
<asrwt>0</asrwt>
<pdfrwt beam="1">  1       21 0.44199777E-01 0.25955892E+03</pdfrwt>
<pdfrwt beam="2">  1        2 0.91754476E-01 0.25955892E+03</pdfrwt>
<totfact> 0.30650315E+03</totfact>
</mgrwt>
</event>
<event>
 5    0  0.1014204E+000  0.3670186E+03  0.7546771E-02  0.1055839E+00
          1   -1    0    0  503    0 -0.00000000000E+00  0.00000000000E+00  0.14505808437E+04  0.14505808437E+04  0.00000000000E+00 0. -1.
         21   -1    0    0  501  502  0.00000000000E+00 -0.00000000000E+00 -0.17021036334E+03  0.17021036334E+03  0.00000000000E+00 0.  1.
         25    1    1    2    0    0  0.26846172521E+03 -0.23742780883E+03  0.13460471436E+03  0.40272458509E+03  0.12500000000E+03 0.  0.
         21    1    1    2  503  502 -0.44736493759E+02  0.21452810549E+02  0.48782190669E+03  0.49033844394E+03  0.00000000000E+00 0.  1.
          1    1    1    2  501    0 -0.22372523145E+03  0.21597499828E+03  0.65794385927E+03  0.72772817798E+03  0.00000000000E+00 0. -1.
<mgrwt>
<rscale>  4 0.36701858E+03</rscale>
<asrwt>0</asrwt>
<pdfrwt beam="1">  1       21 0.26186211E-01 0.36701858E+03</pdfrwt>
<pdfrwt beam="2">  1        1 0.22316628E+00 0.36701858E+03</pdfrwt>
<totfact> 0.11259178E+03</totfact>
</mgrwt>
</event>
<event>
 5    0  0.1014204E+000  0.3804005E+03  0.7546771E-02  0.1050786E+00
         21   -1    0    0  501  502  0.00000000000E+00  0.00000000000E+00  0.81854790864E+03  0.81854790864E+03  0.00000000000E+00 0.  1.
          3   -1    0    0  503    0 -0.00000000000E+00 -0.00000000000E+00 -0.25460921147E+03  0.25460921147E+03  0.00000000000E+00 0.  1.
         25    1    1    2    0    0  0.51519624818E+02 -0.32267605663E+03  0.21634743041E+03  0.41134574254E+03  0.12500000000E+03 0.  0.
         21    1    1    2  503  502 -0.97851320361E+01 -0.59470684697E+02 -0.71234634421E+02  0.93310686893E+02  0.00000000000E+00 0.  1.
          3    1    1    2  501    0 -0.41734492782E+02  0.38214674132E+03  0.41882590118E+03  0.56850069067E+03  0.00000000000E+00 0.  1.
<mgrwt>
<rscale>  4 0.38040047E+03</rscale>
<asrwt>0</asrwt>
<pdfrwt beam="1">  1       21 0.12593045E+00 0.38040047E+03</pdfrwt>
<pdfrwt beam="2">  1        3 0.39170648E-01 0.38040047E+03</pdfrwt>
<totfact> 0.14133290E+02</totfact>
</mgrwt>
</event>
<event>
 5    0  0.1014204E+000  0.2520649E+03  0.7546771E-02  0.1112007E+00
          1   -1    0    0  503    0 -0.00000000000E+00  0.00000000000E+00  0.22811194247E+04  0.22811194247E+04  0.00000000000E+00 0.  1.
         21   -1    0    0  501  502  0.00000000000E+00 -0.00000000000E+00 -0.47062105172E+03  0.47062105172E+03  0.00000000000E+00 0.  1.
         25    1    1    2    0    0  0.16945010463E+03 -0.14047389548E+03 -0.42506924241E+03  0.49472731289E+03  0.12500000000E+03 0.  0.
         21    1    1    2  503  502 -0.40028718769E+02  0.66442585038E+02  0.17945846051E+03  0.19550512649E+03  0.00000000000E+00 0.  1.
          1    1    1    2  501    0 -0.12942138586E+03  0.74031310442E+02  0.20561091549E+04  0.20615080371E+04  0.00000000000E+00 0.  1.
<mgrwt>
<rscale>  4 0.25206489E+03</rscale>
<asrwt>0</asrwt>
<pdfrwt beam="1">  1       21 0.72403240E-01 0.25206489E+03</pdfrwt>
<pdfrwt beam="2">  1        1 0.35094144E+00 0.25206489E+03</pdfrwt>
<totfact> 0.41341532E+01</totfact>
</mgrwt>
</event>
<event>
 5    0  0.1014204E+000  0.3454032E+03  0.7546771E-02  0.1064518E+00
         21   -1    0    0  501  502  0.00000000000E+00  0.00000000000E+00  0.35215648544E+03  0.35215648544E+03  0.00000000000E+00 0. -1.
          2   -1    0    0  503    0 -0.00000000000E+00 -0.00000000000E+00 -0.25837612244E+04  0.25837612244E+04  0.00000000000E+00 0.  1.
         25    1    1    2    0    0 -0.22915517083E+03 -0.23193741641E+03  0.24807652126E+03  0.42833867191E+03  0.12500000000E+03 0.  0.
         21    1    1    2  503  502  0.14303834560E+01  0.10137051738E+03 -0.96598873227E+03  0.97129411542E+03  0.00000000000E+00 0.  1.
          2    1    1    2  501    0  0.22772478737E+03  0.13056689903E+03 -0.15136925280E+04  0.15362849225E+04  0.00000000000E+00 0.  1.
<mgrwt>
<rscale>  4 0.34540320E+03</rscale>
<asrwt>0</asrwt>
<pdfrwt beam="1">  1       21 0.54177918E-01 0.34540320E+03</pdfrwt>
<pdfrwt beam="2">  1        2 0.39750175E+00 0.34540320E+03</pdfrwt>
<totfact> 0.13581501E+02</totfact>
</mgrwt>
</event>
<event>
 5    0  0.1014204E+000  0.4377270E+03  0.7546771E-02  0.1031447E+00
         -2   -1    0    0    0  501 -0.00000000000E+00  0.00000000000E+00  0.28579436106E+03  0.28579436106E+03  0.00000000000E+00 0. -1.
         21   -1    0    0  503  502  0.00000000000E+00 -0.00000000000E+00 -0.15189494376E+04  0.15189494376E+04  0.00000000000E+00 0. -1.
         25    1    1    2    0    0  0.58309395863E+02  0.42259392635E+03 -0.12419626846E+04  0.13191216480E+04  0.12500000000E+03 0.  0.
         21    1    1    2  503  501  0.48533466617E+02 -0.57085339853E+02 -0.63256244664E+02  0.98059093903E+02  0.00000000000E+00 0. -1.
         -2    1    1    2    0  502 -0.10684286248E+03 -0.36550858649E+03  0.72063852770E+02  0.38756305673E+03  0.00000000000E+00 0. -1.
<mgrwt>
<rscale>  4 0.43772699E+03</rscale>
<asrwt>0</asrwt>
<pdfrwt beam="1">  1       21 0.23368454E+00 0.43772699E+03</pdfrwt>
<pdfrwt beam="2">  1       -2 0.43968362E-01 0.43772699E+03</pdfrwt>
<totfact> 0.28405372E+01</totfact>
</mgrwt>
</event>
<event>
 5    0  0.1014204E+000  0.2701981E+03  0.7546771E-02  0.1101166E+00
          2   -1    0    0  503    0 -0.00000000000E+00  0.00000000000E+00  0.30561693014E+03  0.30561693014E+03  0.00000000000E+00 0.  1.
         21   -1    0    0  501  502  0.00000000000E+00 -0.00000000000E+00 -0.24432538016E+03  0.24432538016E+03  0.00000000000E+00 0. -1.
         25    1    1    2    0    0 -0.21550984623E+03  0.85558533898E+02  0.17955067554E+02  0.26403056830E+03  0.12500000000E+03 0.  0.
         21    1    1    2  503  502 -0.23586915345E+02 -0.24547554297E+02 -0.51637044688E+01  0.34432380709E+02  0.00000000000E+00 0.  1.
          2    1    1    2  501    0  0.23909676157E+03 -0.61010979600E+02  0.48500186899E+02  0.25147936129E+03  0.00000000000E+00 0.  1.
<mgrwt>
<rscale>  4 0.27019809E+03</rscale>
<asrwt>0</asrwt>
<pdfrwt beam="1">  1       21 0.37588520E-01 0.27019809E+03</pdfrwt>
<pdfrwt beam="2">  1        2 0.47017989E-01 0.27019809E+03</pdfrwt>
<totfact> 0.89269586E+03</totfact>
</mgrwt>
</event>
<event>
 5    0  0.1014204E+000  0.2307102E+03  0.7546771E-02  0.1126141E+00
          2   -1    0    0  503    0 -0.00000000000E+00  0.00000000000E+00  0.56969905793E+03  0.56969905793E+03  0.00000000000E+00 0. -1.
         21   -1    0    0  501  502  0.00000000000E+00 -0.00000000000E+00 -0.19184831853E+03  0.19184831853E+03  0.00000000000E+00 0.  1.
         25    1    1    2    0    0 -0.11598557015E+03  0.19080984718E+03 -0.49565739345E+02  0.26065842166E+03  0.12500000000E+03 0.  0.
         21    1    1    2  503  502 -0.14291676378E+01 -0.41199967461E+02  0.10345336022E+02  0.42503009497E+02  0.00000000000E+00 0.  1.
          2    1    1    2  501    0  0.11741473779E+03 -0.14960987972E+03  0.41707114272E+03  0.45838594530E+03  0.00000000000E+00 0. -1.
<mgrwt>
<rscale>  4 0.23071022E+03</rscale>
<asrwt>0</asrwt>
<pdfrwt beam="1">  1       21 0.29515126E-01 0.23071022E+03</pdfrwt>
<pdfrwt beam="2">  1        2 0.87646008E-01 0.23071022E+03</pdfrwt>
<totfact> 0.73250880E+03</totfact>
</mgrwt>
</event>
<event>
 5    0  0.1014204E+000  0.5422777E+03  0.7546771E-02  0.1003297E+00
          3   -1    0    0  503    0 -0.00000000000E+00  0.00000000000E+00  0.57804376538E+03  0.57804376538E+03  0.00000000000E+00 0.  1.
         21   -1    0    0  501  502  0.00000000000E+00 -0.00000000000E+00 -0.13716328549E+04  0.13716328549E+04  0.00000000000E+00 0.  1.
         25    1    1    2    0    0  0.94808961810E+02  0.51797511113E+03 -0.11549792357E+04  0.12754955860E+04  0.12500000000E+03 0.  0.
         21    1    1    2  503  502  0.26930619472E+02  0.54012898220E+01  0.16208443414E+01  0.27514711216E+02  0.00000000000E+00 0.  1.
          3    1    1    2  501    0 -0.12173958128E+03 -0.52337640095E+03  0.35976930190E+03  0.64666632301E+03  0.00000000000E+00 0.  1.
<mgrwt>
<rscale>  4 0.54227766E+03</rscale>
<asrwt>0</asrwt>
<pdfrwt beam="1">  1       21 0.21102044E+00 0.54227766E+03</pdfrwt>
<pdfrwt beam="2">  1        3 0.88929811E-01 0.54227766E+03</pdfrwt>
<totfact> 0.55921248E+00</totfact>
</mgrwt>
</event>
<event>
 5    0  0.1014204E+000  0.3034645E+03  0.7546771E-02  0.1083521E+00
         21   -1    0    0  501  502  0.00000000000E+00  0.00000000000E+00  0.80024586893E+03  0.80024586893E+03  0.00000000000E+00 0. -1.
          1   -1    0    0  503    0 -0.00000000000E+00 -0.00000000000E+00 -0.13909151956E+03  0.13909151956E+03  0.00000000000E+00 0. -1.
         25    1    1    2    0    0 -0.26143767766E+03  0.30927494303E+00  0.35761659247E+03  0.46028728220E+03  0.12500000000E+03 0.  0.
         21    1    1    2  503  502 -0.31371259321E+02 -0.23486525026E+02 -0.18366059459E+02  0.43279150977E+02  0.00000000000E+00 0. -1.
          1    1    1    2  501    0  0.29280893698E+03  0.23177250083E+02  0.32190381636E+03  0.43577095530E+03  0.00000000000E+00 0. -1.
<mgrwt>
<rscale>  4 0.30346447E+03</rscale>
<asrwt>0</asrwt>
<pdfrwt beam="1">  1       21 0.12311475E+00 0.30346447E+03</pdfrwt>
<pdfrwt beam="2">  1        1 0.21398696E-01 0.30346447E+03</pdfrwt>
<totfact> 0.11940524E+03</totfact>
</mgrwt>
</event>
<event>
 5    0  0.1014204E+000  0.4049428E+03  0.7546771E-02  0.1042081E+00
         21   -1    0    0  501  502  0.00000000000E+00  0.00000000000E+00  0.79651496217E+03  0.79651496217E+03  0.00000000000E+00 0. -1.
          1   -1    0    0  503    0 -0.00000000000E+00 -0.00000000000E+00 -0.23595207282E+03  0.23595207282E+03  0.00000000000E+00 0. -1.
         25    1    1    2    0    0 -0.34872801011E+03  0.87994214610E+02  0.16034022827E+03  0.41314427945E+03  0.12500000000E+03 0.  0.
         21    1    1    2  503  502 -0.34608716436E+02  0.33583688140E+02 -0.49181169093E+01  0.48474892846E+02  0.00000000000E+00 0. -1.
          1    1    1    2  501    0  0.38333672655E+03 -0.12157790275E+03  0.40514077798E+03  0.57084786269E+03  0.00000000000E+00 0. -1.
<mgrwt>
<rscale>  4 0.40494283E+03</rscale>
<asrwt>0</asrwt>
<pdfrwt beam="1">  1       21 0.12254076E+00 0.40494283E+03</pdfrwt>
<pdfrwt beam="2">  1        1 0.36300319E-01 0.40494283E+03</pdfrwt>
<totfact> 0.59517005E+02</totfact>
</mgrwt>
</event>
<event>
 5    0  0.1014204E+000  0.3225943E+03  0.7546771E-02  0.1074461E+00
         21   -1    0    0  501  502  0.00000000000E+00  0.00000000000E+00  0.23277814674E+03  0.23277814674E+03  0.00000000000E+00 0. -1.
          2   -1    0    0  503    0 -0.00000000000E+00 -0.00000000000E+00 -0.24481602332E+04  0.24481602332E+04  0.00000000000E+00 0. -1.
         25    1    1    2    0    0 -0.29224591338E+03  0.27053065437E+02  0.90293960663E+02  0.33153814496E+03  0.12500000000E+03 0.  0.
         21    1    1    2  503  502 -0.46502916598E+02  0.36870946102E+02 -0.90435683240E+03  0.90630197408E+03  0.00000000000E+00 0. -1.
          2    1    1    2  501    0  0.33874882997E+03 -0.63924011539E+02 -0.14013192147E+04  0.14430982609E+04  0.00000000000E+00 0. -1.
<mgrwt>
<rscale>  4 0.32259430E+03</rscale>
<asrwt>0</asrwt>
<pdfrwt beam="1">  1       21 0.35812025E-01 0.32259430E+03</pdfrwt>
<pdfrwt beam="2">  1        2 0.37664001E+00 0.32259430E+03</pdfrwt>
<totfact> 0.38585022E+02</totfact>
</mgrwt>
</event>
<event>
 5    0  0.1014204E+000  0.3574298E+03  0.7546771E-02  0.1059606E+00
         21   -1    0    0  503  502  0.00000000000E+00  0.00000000000E+00  0.17250351573E+04  0.17250351573E+04  0.00000000000E+00 0.  1.
         -3   -1    0    0    0  501 -0.00000000000E+00 -0.00000000000E+00 -0.10028822356E+03  0.10028822356E+03  0.00000000000E+00 0.  1.
         25    1    1    2    0    0 -0.18707226651E+03 -0.28996825881E+03  0.10349018940E+04  0.10980548958E+04  0.12500000000E+03 0.  0.
         21    1    1    2  503  501  0.10540347270E+02  0.20627903473E+02 -0.24448843954E+02  0.33680191403E+02  0.00000000000E+00 0. -1.
         -3    1    1    2    0  502  0.17653191924E+03  0.26934035533E+03  0.61429388368E+03  0.69358829362E+03  0.00000000000E+00 0.  1.
<mgrwt>
<rscale>  4 0.35742982E+03</rscale>
<asrwt>0</asrwt>
<pdfrwt beam="1">  1       21 0.26539000E+00 0.35742982E+03</pdfrwt>
<pdfrwt beam="2">  1       -3 0.15428959E-01 0.35742982E+03</pdfrwt>
<totfact> 0.86069968E+01</totfact>
</mgrwt>
</event>
<event>
 5    0  0.1014204E+000  0.3815568E+03  0.7546771E-02  0.1050360E+00
          2   -1    0    0  503    0 -0.00000000000E+00  0.00000000000E+00  0.16972704480E+04  0.16972704480E+04  0.00000000000E+00 0.  1.
         21   -1    0    0  501  502  0.00000000000E+00 -0.00000000000E+00 -0.22709259848E+03  0.22709259848E+03  0.00000000000E+00 0.  1.
         25    1    1    2    0    0  0.11711275239E+03  0.32245480770E+03 -0.32926254413E+02  0.36660828961E+03  0.12500000000E+03 0.  0.
         21    1    1    2  503  502 -0.13815759294E+02  0.24997917717E+02  0.33103863590E+02  0.43722269836E+02  0.00000000000E+00 0.  1.
          2    1    1    2  501    0 -0.10329699310E+03 -0.34745272541E+03  0.14700002404E+04  0.15140324871E+04  0.00000000000E+00 0.  1.
<mgrwt>
<rscale>  4 0.38155685E+03</rscale>
<asrwt>0</asrwt>
<pdfrwt beam="1">  1       21 0.34937324E-01 0.38155685E+03</pdfrwt>
<pdfrwt beam="2">  1        2 0.26111852E+00 0.38155685E+03</pdfrwt>
<totfact> 0.99946465E+02</totfact>
</mgrwt>
</event>
<event>
 5    0  0.1014204E+000  0.2600134E+03  0.7546771E-02  0.1107135E+00
         21   -1    0    0  501  502  0.00000000000E+00  0.00000000000E+00  0.11057755238E+03  0.11057755238E+03  0.00000000000E+00 0.  1.
          2   -1    0    0  503    0 -0.00000000000E+00 -0.00000000000E+00 -0.32148756665E+04  0.32148756665E+04  0.00000000000E+00 0. -1.
         25    1    1    2    0    0 -0.29660784880E+02  0.22256202626E+03 -0.63814881934E+02  0.26478473682E+03  0.12500000000E+03 0.  0.
         21    1    1    2  503  502 -0.43677534966E+02  0.40330015044E+02 -0.10340287190E+04  0.10357362738E+04  0.00000000000E+00 0. -1.
          2    1    1    2  501    0  0.73338319846E+02 -0.26289204131E+03 -0.20064545133E+04  0.20249322083E+04  0.00000000000E+00 0. -1.
<mgrwt>
<rscale>  4 0.26001337E+03</rscale>
<asrwt>0</asrwt>
<pdfrwt beam="1">  1       21 0.17011928E-01 0.26001337E+03</pdfrwt>
<pdfrwt beam="2">  1        2 0.49459635E+00 0.26001337E+03</pdfrwt>
<totfact> 0.60481501E+02</totfact>
</mgrwt>
</event>
<event>
 5    0  0.1014204E+000  0.2609866E+03  0.7546771E-02  0.1106552E+00
         21   -1    0    0  501  502  0.00000000000E+00  0.00000000000E+00  0.19026810368E+03  0.19026810368E+03  0.00000000000E+00 0.  1.
          2   -1    0    0  503    0 -0.00000000000E+00 -0.00000000000E+00 -0.20796123076E+04  0.20796123076E+04  0.00000000000E+00 0.  1.
         25    1    1    2    0    0  0.16994414236E+03 -0.15553591401E+03  0.88292560034E+02  0.27657369403E+03  0.12500000000E+03 0.  0.
         21    1    1    2  503  502  0.42374783043E+01  0.38980603974E+02 -0.36803070400E+03  0.37011355392E+03  0.00000000000E+00 0. -1.
          2    1    1    2  501    0 -0.17418162066E+03  0.11655531004E+03 -0.16096060600E+04  0.16231931634E+04  0.00000000000E+00 0.  1.
<mgrwt>
<rscale>  4 0.26098660E+03</rscale>
<asrwt>0</asrwt>
<pdfrwt beam="1">  1       21 0.29272016E-01 0.26098660E+03</pdfrwt>
<pdfrwt beam="2">  1        2 0.31994036E+00 0.26098660E+03</pdfrwt>
<totfact> 0.93800670E+02</totfact>
</mgrwt>
</event>
<event>
 5    0  0.1014204E+000  0.2114189E+03  0.7546771E-02  0.1140447E+00
         21   -1    0    0  501  502  0.00000000000E+00  0.00000000000E+00  0.67489248489E+02  0.67489248489E+02  0.00000000000E+00 0. -1.
          2   -1    0    0  503    0 -0.00000000000E+00 -0.00000000000E+00 -0.11927632292E+04  0.11927632292E+04  0.00000000000E+00 0. -1.
         25    1    1    2    0    0  0.19165629153E+03 -0.11052549962E+03 -0.32862178732E+03  0.41540979677E+03  0.12500000000E+03 0.  0.
         21    1    1    2  503  502 -0.63066848008E+02  0.56366347527E+02 -0.58662781883E+03  0.59269451683E+03  0.00000000000E+00 0. -1.
          2    1    1    2  501    0 -0.12858944352E+03  0.54159152095E+02 -0.21002437452E+03  0.25214816405E+03  0.00000000000E+00 0. -1.
<mgrwt>
<rscale>  4 0.21141889E+03</rscale>
<asrwt>0</asrwt>
<pdfrwt beam="1">  1       21 0.10382962E-01 0.21141889E+03</pdfrwt>
<pdfrwt beam="2">  1        2 0.18350202E+00 0.21141889E+03</pdfrwt>
<totfact> 0.19478671E+04</totfact>
</mgrwt>
</event>
<event>
 5    0  0.1014204E+000  0.4751157E+03  0.7546771E-02  0.1020486E+00
          3   -1    0    0  503    0 -0.00000000000E+00  0.00000000000E+00  0.12043001752E+04  0.12043001752E+04  0.00000000000E+00 0.  1.
         21   -1    0    0  501  502  0.00000000000E+00 -0.00000000000E+00 -0.31850384545E+03  0.31850384545E+03  0.00000000000E+00 0.  1.
         25    1    1    2    0    0  0.24621067660E+03  0.32899710948E+03 -0.33333332408E+02  0.43080727288E+03  0.12500000000E+03 0.  0.
         21    1    1    2  503  502 -0.50669341881E+01  0.75227656857E+02  0.21432192887E+02  0.78385030907E+02  0.00000000000E+00 0.  1.
          3    1    1    2  501    0 -0.24114374241E+03 -0.40422476634E+03  0.89769746924E+03  0.10136117168E+04  0.00000000000E+00 0.  1.
<mgrwt>
<rscale>  4 0.47511568E+03</rscale>
<asrwt>0</asrwt>
<pdfrwt beam="1">  1       21 0.49000592E-01 0.47511568E+03</pdfrwt>
<pdfrwt beam="2">  1        3 0.18527695E+00 0.47511568E+03</pdfrwt>
<totfact> 0.35690389E+01</totfact>
</mgrwt>
</event>
