<LesHouchesEvents version="3.0">
  <!--
  <scalesfunctionalform>
    muR  H_T/2 := sum_i mT(i)/2, i=final state
    muF1 H_T/2 := sum_i mT(i)/2, i=final state
    muF2 H_T/2 := sum_i mT(i)/2, i=final state
    QES  H_T/2 := sum_i mT(i)/2, i=final state
  </scalesfunctionalform>
HERWIG6   
  -->
  <header>
       29
  </header>
  <init>
   2212   2212 0.65000000D+04 0.65000000D+04 -1 -1   244800   244800 -4   1
 0.22867625D-04 0.10393390D-05 0.16122213D-05     66
  </init>
  <event>
  6     66 -.16122213E-05 0.19612971E+03 0.75467711E-02 0.92878359E-01
       -1 -1    0    0    0  501 0.00000000E+00 0.00000000E+00 0.40218608E+03 0.40218620E+03 0.32000000E+00 0.0000E+00 0.9000E+01
        3 -1    0    0  502    0 -.00000000E+00 -.00000000E+00 -.10466738E+04 0.10466739E+04 0.50000000E+00 0.0000E+00 0.9000E+01
       25  1    1    2    0    0 -.56042951E+03 -.21962059E+02 -.16988897E+03 0.59920850E+03 0.12500000E+03 0.0000E+00 0.9000E+01
       -1  1    1    2    0  503 0.19153977E+03 0.73438554E+02 0.33684961E+02 0.20788334E+03 0.32000000E+00 0.0000E+00 0.9000E+01
        3  1    1    2  502    0 0.36710787E+03 -.68351080E+02 -.49578821E+03 0.62068210E+03 0.50000000E+00 0.0000E+00 0.9000E+01
       21  1    1    2  503  501 0.17818732E+01 0.16874586E+02 -.12495479E+02 0.21086162E+02 0.75000000E+00 0.0000E+00 0.9000E+01
#aMCatNLO 2  0  0  4  1 0.16446979D+02 0.00000000D+00  -5  6  0 0.00000000D+00 0.00000000D+00 0.00000000D+00 0.00000000D+00 0.00000000D+00
  <mgrwgt>
 -.3451370198D-06    3    2    0
 0.648812606311505D+03 0.000000000000000D+00 0.000000000000000D+00 0.648812606311505D+03
 0.648812606311505D+03 -.000000000000000D+00 -.000000000000000D+00 -.648812606311505D+03
 0.588387280174398D+03 -.564691289475119D+03 -.237563824574524D+02 0.105517644754265D+03
 0.263082707368416D+03 0.200409893372069D+03 0.936245247574332D+02 0.142417814611923D+03
 0.446155225080197D+03 0.364281396103050D+03 -.698681422999809D+02 -.247935459366189D+03
 0.000000000000000D+00 0.000000000000000D+00 0.000000000000000D+00 0.000000000000000D+00
 0.648812606311505D+03 0.000000000000000D+00 0.000000000000000D+00 0.648812606311505D+03
 0.648812606311505D+03 -.000000000000000D+00 -.000000000000000D+00 -.648812606311505D+03
 0.584748648515292D+03 -.560397827872107D+03 -.217506266767232D+02 0.108568718772283D+03
 0.248230411638463D+03 0.191074580501333D+03 0.732065147400299D+02 0.140533441386947D+03
 0.447313687421849D+03 0.367551327894840D+03 -.683405440120703D+02 -.245611739055375D+03
 0.173324650474060D+02 0.177191947593426D+01 0.168846559487636D+02 -.349042110385520D+01
-.108848920124D-05 0.000000000000D+00 0.000000000000D+00 0.115964652180D-07 0.000000000000D+00  6 -1 3 25 -1 3 21 2 0.61874800D-01 0.16102675D+00 0.34224137D+06 0.34224137D+06 0.34224137D+06 0.10803443D+01  1  2 13  3  6  4       -1 -.578262752597D-06 0.100000000000D+01
-.405683685832D-05 0.000000000000D+00 0.000000000000D+00 0.115964652180D-07 0.000000000000D+00  6 -1 3 25 -1 3 21 2 0.61874800D-01 0.16102675D+00 0.34279280D+06 0.34279280D+06 0.34279280D+06 0.10802932D+01  1  2  8  3  6  4       -1 -.215484873278D-05 0.100000000000D+01
0.449498849261D-05 0.000000000000D+00 0.000000000000D+00 0.115964652180D-07 0.130155145039D-09  6 -1 3 25 -1 3 21 2 0.61874800D-01 0.16102675D+00 0.34224137D+06 0.34224137D+06 0.34224137D+06 0.10803443D+01  1  2  1  3  6  4       -1 0.238797446559D-05 0.100000000000D+01
  </mgrwgt>
  </event>
  <event>
  5     66 0.16122213E-05 0.28491465E+02 0.75467711E-02 0.94290610E-01
       -3 -1    0    0    0  501 0.00000000E+00 0.00000000E+00 0.82496942E+03 0.82496958E+03 0.50000000E+00 0.0000E+00 0.9000E+01
        1 -1    0    0  502    0 -.00000000E+00 -.00000000E+00 -.17004758E+04 0.17004758E+04 0.32000000E+00 0.0000E+00 0.9000E+01
       25  1    1    2    0    0 0.45850930E+03 0.87147971E+02 -.42898792E+03 0.64612784E+03 0.12500000E+03 0.0000E+00 0.9000E+01
       -3  1    1    2    0  501 -.47738969E+03 -.65815330E+02 0.63514912E+03 0.79727487E+03 0.50000000E+00 0.0000E+00 0.9000E+01
        1  1    1    2  502    0 0.18880388E+02 -.21332641E+02 -.10816676E+04 0.10820427E+04 0.32000000E+00 0.0000E+00 0.9000E+01
#aMCatNLO 1  0  0  5  4 0.21432989D+02 0.00000000D+00  -5  6  0 0.00000000D+00 0.00000000D+00 0.00000000D+00 0.00000000D+00 0.00000000D+00
  <mgrwgt>
 0.6297780600D-03    6    2    0
 0.118441579125522D+04 0.000000000000000D+00 0.000000000000000D+00 0.118441579125522D+04
 0.118441579125522D+04 -.000000000000000D+00 -.000000000000000D+00 -.118441579125522D+04
 0.530241797969885D+03 0.458495866897590D+03 0.871493679024674D+02 -.218444253818598D+03
 0.108470828848309D+04 -.477378586383775D+03 -.658137997394784D+02 0.971787168123761D+03
 0.753881496057456D+03 0.188827194861832D+02 -.213355681629877D+02 -.753342914305163D+03
 0.000000000000000D+00 0.000000000000000D+00 0.000000000000000D+00 -.000000000000000D+00
 0.118441579125522D+04 0.000000000000000D+00 0.000000000000000D+00 0.118441579125522D+04
 0.118441579125522D+04 -.000000000000000D+00 -.000000000000000D+00 -.118441579125522D+04
 0.530669770598582D+03 0.458520828070404D+03 0.871211642952288D+02 -.219440102042966D+03
 0.108286685748937D+04 -.477327587582926D+03 -.658714232397664D+02 0.969752525535017D+03
 0.697442910205876D+03 0.385184196359481D+02 -.236713321476769D+02 -.695976014227175D+03
 0.578520442166004D+02 -.197116601234274D+02 0.242159109221585D+01 -.543364092648757D+02
0.865617368793D-03 0.000000000000D+00 0.000000000000D+00 0.119198109352D-03 0.000000000000D+00  6 -3 1 25 -3 1 21 0 0.12691839D+00 0.26161167D+00 0.24678049D+06 0.24678049D+06 0.24678049D+06 0.10908828D+01  1  2  2  4  6  5        1 0.129274369790D-03 0.100000000000D+01
0.530221843114D-03 0.000000000000D+00 -.332419861845D-05 0.119198109352D-03 0.000000000000D+00  6 -3 1 25 -3 1 21 2 0.12691839D+00 0.26161167D+00 0.24678049D+06 0.24678049D+06 0.24678049D+06 0.10908828D+01  1  2  3  4  6  5        1 0.942324112387D-04 0.100000000000D+01
-.600164444567D-03 0.000000000000D+00 0.000000000000D+00 0.119198109352D-03 0.000000000000D+00  6 -3 1 25 -3 1 21 2 0.12691839D+00 0.26161167D+00 0.24678049D+06 0.24678049D+06 0.24678049D+06 0.10908828D+01  1  2 15  4  6  5        1 -.106662793104D-03 0.100000000000D+01
-.154432179531D-03 0.000000000000D+00 0.000000000000D+00 0.119198109352D-03 0.000000000000D+00  6 -3 1 25 -3 1 21 2 0.12691839D+00 0.26161167D+00 0.24678049D+06 0.24678049D+06 0.24678049D+06 0.10908828D+01  1  2  4  4  6  5        1 -.274460904224D-04 0.100000000000D+01
-.381627970842D-01 0.000000000000D+00 0.000000000000D+00 0.119198109352D-03 0.000000000000D+00  6 -3 1 25 -3 1 21 2 0.12691839D+00 0.26161167D+00 0.24678049D+06 0.24678049D+06 0.24678049D+06 0.10908828D+01  1  2  5  4  6  5        1 -.678239200357D-02 0.100000000000D+01
0.412033790025D-01 0.000000000000D+00 -.000000000000D+00 0.119198109352D-03 0.000000000000D+00  6 -3 1 25 -3 1 21 2 0.12691839D+00 0.26161167D+00 0.24678049D+06 0.24678049D+06 0.24678049D+06 0.10908828D+01  1  2  6  4  6  5        1 0.732277216606D-02 0.100000000000D+01
  </mgrwgt>
  </event>
  <event>
  6     66 0.16122213E-05 0.15944090E+03 0.75467711E-02 0.94774582E-01
       21 -1    0    0  503  501 0.00000000E+00 0.00000000E+00 0.14196282E+04 0.14196284E+04 0.75000000E+00 0.0000E+00 0.9000E+01
        1 -1    0    0  502    0 0.00000000E+00 0.00000000E+00 -.71478873E+03 0.71478880E+03 0.32000000E+00 0.0000E+00 0.9000E+01
       25  1    1    2    0    0 -.39120221E+03 -.22445962E+03 0.38647635E+02 0.46961679E+03 0.12500000E+03 0.0000E+00 0.9000E+01
       -3  1    1    2    0  501 0.88683047E+02 0.17047324E+03 0.71047788E+03 0.73600603E+03 0.50000000E+00 0.0000E+00 0.9000E+01
        1  1    1    2  502    0 0.24630012E+03 0.87341723E+02 -.44863389E+03 0.51919630E+03 0.32000000E+00 0.0000E+00 0.9000E+01
        3  1    1    2  503    0 0.56219045E+02 -.33355338E+02 0.40434786E+03 0.40959810E+03 0.50000000E+00 0.0000E+00 0.9000E+01
#aMCatNLO 2  0  0  1  4 0.42945457D+02 0.00000000D+00  -5  6  0 0.00000000D+00 0.00000000D+00 0.00000000D+00 0.00000000D+00 0.00000000D+00
  <mgrwgt>
 0.2262346351D-03    1    2    0
 0.848591862876800D+03 0.000000000000000D+00 0.000000000000000D+00 0.848591862876800D+03
 0.848591862876800D+03 0.000000000000000D+00 0.000000000000000D+00 -.848591862876800D+03
 0.461904467517488D+03 -.375829027452409D+03 -.233614308883778D+03 -.436764687394183D+02
 0.621671042789614D+03 0.109251130861839D+03 0.158229014287170D+03 0.591187495542866D+03
 0.613608215446497D+03 0.266577896590569D+03 0.753852945966081D+02 -.547511026803448D+03
 0.000000000000000D+00 0.000000000000000D+00 -.000000000000000D+00 0.000000000000000D+00
 0.119051169839277D+04 0.000000000000000D+00 0.000000000000000D+00 0.119051169839277D+04
 0.852351225445677D+03 0.000000000000000D+00 0.000000000000000D+00 -.852351225445677D+03
 0.470104958208917D+03 -.391259667187884D+03 -.224459151390822D+03 -.436764687394183D+02
 0.621622796960985D+03 0.886667689477148D+02 0.170441928232829D+03 0.591187495542866D+03
 0.606714401206914D+03 0.246373853435152D+03 0.873725615053851D+02 -.547511026803448D+03
 0.344420767461633D+03 0.562190448050171D+02 -.333553383473914D+02 0.338160472947094D+03
0.879517570796D-04 0.000000000000D+00 0.000000000000D+00 0.370421727734D-05 0.262228524173D-09  6 21 1 25 -3 1 3 2 0.21840432D+00 0.10996749D+00 0.24352963D+06 0.24352963D+06 0.24352963D+06 0.10913169D+01  1  2  1  5  6  1       -3 0.226234635136D-03 0.100000000000D+01
  </mgrwgt>
  </event>
  <event>
  6     66 0.16122213E-05 0.17118171E+02 0.75467711E-02 0.92250391E-01
       -3 -1    0    0    0  501 0.00000000E+00 0.00000000E+00 0.80094589E+03 0.80094604E+03 0.50000000E+00 0.0000E+00 0.9000E+01
        1 -1    0    0  502    0 -.00000000E+00 -.00000000E+00 -.15141114E+04 0.15141115E+04 0.32000000E+00 0.0000E+00 0.9000E+01
       25  1    1    2    0    0 0.41192427E+03 0.45095232E+03 0.35844304E+03 0.71912865E+03 0.12500000E+03 0.0000E+00 0.9000E+01
       -3  1    1    2    0  501 -.48912374E+01 -.17905455E+02 0.19456991E+03 0.19545391E+03 0.50000000E+00 0.0000E+00 0.9000E+01
        1  1    1    2  503    0 -.33894019E+02 -.65938427E+02 -.18293490E+03 0.19738785E+03 0.32000000E+00 0.0000E+00 0.9000E+01
       21  1    1    2  502  503 -.37313901E+03 -.36710844E+03 -.10832436E+04 0.12030871E+04 0.75000000E+00 0.0000E+00 0.9000E+01
#aMCatNLO 2  0  0  5  5 0.14132783D+03 0.00000000D+00  -5  6  0 0.00000000D+00 0.00000000D+00 0.00000000D+00 0.00000000D+00 0.00000000D+00
  <mgrwgt>
 0.1417821091D-03    1    2    0
 0.110123637299124D+04 0.000000000000000D+00 0.000000000000000D+00 0.110123637299124D+04
 0.110123637299124D+04 -.000000000000000D+00 -.000000000000000D+00 -.110123637299124D+04
 0.873156944516858D+03 0.412360936545653D+03 0.451401946612247D+03 0.610714982920742D+03
 0.268308102801663D+03 -.477623387678180D+01 -.177659670602436D+02 0.267676663221500D+03
 0.106100769866395D+04 -.407584702668871D+03 -.433635979552004D+03 -.878391646142242D+03
 0.000000000000000D+00 -.000000000000000D+00 0.000000000000000D+00 0.000000000000000D+00
 0.110123637299124D+04 0.000000000000000D+00 0.000000000000000D+00 0.110123637299124D+04
 0.110123637299124D+04 -.000000000000000D+00 -.000000000000000D+00 -.110123637299124D+04
 0.872268131097774D+03 0.412009566769340D+03 0.451028118605115D+03 0.609957740869706D+03
 0.268085523402748D+03 -.488421474120738D+01 -.178808496542454D+02 0.267443952109838D+03
 0.147944746994137D+03 -.338562757678459D+02 -.658132558322467D+02 -.128101585123096D+03
 0.914174344487814D+03 -.373269076260287D+03 -.367334013118623D+03 -.749300107856448D+03
0.580426522290D-03 0.000000000000D+00 0.000000000000D+00 0.152108151625D-04 0.107756665467D-07  6 -3 1 25 -3 1 21 2 0.12322246D+00 0.23294024D+00 0.38426989D+06 0.38426989D+06 0.38426989D+06 0.10766859D+01  1  2  1  4  6  5        1 0.141782109062D-03 0.100000000000D+01
  </mgrwgt>
  </event>
  <event>
  5     66 -.16122213E-05 0.85712935E+02 0.75467711E-02 0.94158465E-01
       -3 -1    0    0    0  501 0.00000000E+00 0.00000000E+00 0.36968681E+03 0.36968715E+03 0.50000000E+00 0.0000E+00 0.9000E+01
        1 -1    0    0  502    0 -.00000000E+00 -.00000000E+00 -.15647617E+04 0.15647617E+04 0.32000000E+00 0.0000E+00 0.9000E+01
       25  1    1    2    0    0 0.49872234E+03 0.10952918E+03 -.30350646E+03 0.60701054E+03 0.12500000E+03 0.0000E+00 0.9000E+01
       -3  1    1    2    0  501 -.85127582E+02 0.10478848E+02 0.16528252E+03 0.18621244E+03 0.50000000E+00 0.0000E+00 0.9000E+01
        1  1    1    2  502    0 -.41359476E+03 -.12000803E+03 -.10568509E+04 0.11412259E+04 0.32000000E+00 0.0000E+00 0.9000E+01
#aMCatNLO 1  0  0  4  1 0.10237224D+02 0.00000000D+00  -5  6  0 0.00000000D+00 0.00000000D+00 0.00000000D+00 0.00000000D+00 0.00000000D+00
  <mgrwgt>
 -.2238879203D-02    7    2    0
 0.760573546383053D+03 0.000000000000000D+00 0.000000000000000D+00 0.760573546383053D+03
 0.760573546383053D+03 -.000000000000000D+00 -.000000000000000D+00 -.760573546383053D+03
 0.533627540558875D+03 0.498815554855864D+03 0.109572199709106D+03 0.911609967456358D+02
 0.366415010528076D+03 -.850708368362701D+02 0.104718628501400D+02 0.356248863505155D+03
 0.621104541679155D+03 -.413744718019594D+03 -.120044062559246D+03 -.447409860250791D+03
 0.000000000000000D+00 0.000000000000000D+00 0.000000000000000D+00 0.000000000000000D+00
 0.760573546383053D+03 0.000000000000000D+00 0.000000000000000D+00 0.760573546383053D+03
 0.760573546383053D+03 -.000000000000000D+00 -.000000000000000D+00 -.760573546383053D+03
 0.533618156456462D+03 0.498766996489502D+03 0.109578177040136D+03 0.913643433150762D+02
 0.219850462677585D+03 -.605640746945637D+02 0.901229930105687D+01 0.211151597808891D+03
 0.620970400906702D+03 -.413801230901566D+03 -.120037106060741D+03 -.447173202769511D+03
 0.146708072725356D+03 -.244016908933722D+02 0.144662971954802D+01 0.144657261645544D+03
0.681402529715D-05 0.000000000000D+00 0.000000000000D+00 0.203053944314D-05 0.000000000000D+00  6 -3 1 25 -3 1 21 0 0.56874923D-01 0.24073260D+00 0.27159934D+06 0.27159934D+06 0.27159934D+06 0.10877620D+01  1  2  2  3  6  4       -3 0.910452836029D-05 0.100000000000D+01
0.134315757540D-05 0.000000000000D+00 -.261676513151D-07 0.203053944314D-05 0.000000000000D+00  6 -3 1 25 -3 1 21 2 0.56874923D-01 0.24073260D+00 0.27159934D+06 0.27159934D+06 0.27159934D+06 0.10877620D+01  1  2  3  3  6  4       -3 0.212348122043D-05 0.100000000000D+01
-.401201844610D-05 0.000000000000D+00 0.000000000000D+00 0.203053944314D-05 0.000000000000D+00  6 -3 1 25 -3 1 21 2 0.56874923D-01 0.24073260D+00 0.27159934D+06 0.27159934D+06 0.27159934D+06 0.10877620D+01  1  2 15  3  6  4       -3 -.634284910596D-05 0.100000000000D+01
0.480911505460D-03 0.000000000000D+00 0.000000000000D+00 0.203053944314D-05 0.000000000000D+00  6 -3 1 25 -3 1 21 2 0.56874923D-01 0.24073260D+00 0.27158374D+06 0.27158374D+06 0.27158374D+06 0.10877638D+01  1  2 12  3  6  4       -3 0.760307383797D-03 0.100000000000D+01
-.214586174972D-02 0.000000000000D+00 0.000000000000D+00 0.203053944314D-05 0.000000000000D+00  6 -3 1 25 -3 1 21 2 0.56874923D-01 0.24073260D+00 0.27159934D+06 0.27159934D+06 0.27159934D+06 0.10877620D+01  1  2  4  3  6  4       -3 -.339252609718D-02 0.100000000000D+01
-.498414589756D-03 0.000000000000D+00 0.000000000000D+00 0.203053944314D-05 0.000000000000D+00  6 -3 1 25 -3 1 21 2 0.56874923D-01 0.24073260D+00 0.27159934D+06 0.27159934D+06 0.27159934D+06 0.10877620D+01  1  2  5  3  6  4       -3 -.787974576264D-03 0.100000000000D+01
0.744122155804D-03 0.000000000000D+00 -.000000000000D+00 0.203053944314D-05 0.000000000000D+00  6 -3 1 25 -3 1 21 2 0.56874923D-01 0.24073260D+00 0.27159934D+06 0.27159934D+06 0.27159934D+06 0.10877620D+01  1  2  6  3  6  4       -3 0.117642892576D-02 0.100000000000D+01
  </mgrwgt>
  </event>
  <event>
  5     66 -.16122213E-05 0.21189962E+02 0.75467711E-02 0.92300421E-01
       -1 -1    0    0    0  501 0.00000000E+00 0.00000000E+00 0.16333609E+04 0.16333609E+04 0.32000000E+00 0.0000E+00 0.9000E+01
        3 -1    0    0  502    0 0.00000000E+00 0.00000000E+00 -.15741455E+04 0.15741456E+04 0.50000000E+00 0.0000E+00 0.9000E+01
       25  1    1    2    0    0 0.40265232E+03 -.45779558E+03 -.66379204E+03 0.90991788E+03 0.12500000E+03 0.0000E+00 0.9000E+01
       -1  1    1    2    0  501 -.39659131E+03 0.43748995E+03 0.14524207E+04 0.15678674E+04 0.32000000E+00 0.0000E+00 0.9000E+01
        3  1    1    2  502    0 -.60610101E+01 0.20305630E+02 -.72941330E+03 0.72972123E+03 0.50000000E+00 0.0000E+00 0.9000E+01
#aMCatNLO 1  0  0  5  1 0.37168004D+02 0.00000000D+00  -5  6  0 0.00000000D+00 0.00000000D+00 0.00000000D+00 0.00000000D+00 0.00000000D+00
  <mgrwgt>
 -.6164462896D-04    1    2    0
 0.160347993752941D+04 0.000000000000000D+00 0.000000000000000D+00 0.160347993752941D+04
 0.160347993752941D+04 -.000000000000000D+00 -.000000000000000D+00 -.160347993752941D+04
 0.922371025535707D+03 0.402653965177341D+03 -.457796589284822D+03 -.680760880128948D+03
 0.154132307156777D+04 -.396593083503144D+03 0.437491904914335D+03 0.142372454154552D+04
 0.743265777955349D+03 -.606088167419741D+01 0.203046843704883D+02 -.742963661416571D+03
 0.000000000000000D+00 0.000000000000000D+00 0.000000000000000D+00 0.000000000000000D+00
 0.160347993752941D+04 0.000000000000000D+00 0.000000000000000D+00 0.160347993752941D+04
 0.160347993752941D+04 -.000000000000000D+00 -.000000000000000D+00 -.160347993752941D+04
 0.978107022826851D+03 0.402039102225203D+03 -.455736724260990D+03 -.756132889474477D+03
 0.143428371777920D+04 -.397555783586145D+03 0.440717066265362D+03 0.130571346379142D+04
 0.255558170606990D+03 -.315193541929012D+02 -.241806237744400D+03 -.764607890565629D+02
 0.539010963845786D+03 0.270360355538422D+02 0.256825895740029D+03 -.473119785260378D+03
-.276100976986D-01 0.000000000000D+00 0.000000000000D+00 0.169613919461D-03 0.000000000000D+00  6 -1 3 25 -1 3 21 2 0.25128630D+00 0.24217624D+00 0.38071769D+06 0.38071769D+06 0.38071769D+06 0.10769779D+01  1  2 14  4  6  5        3 -.616446289561D-04 0.100000000000D+01
  </mgrwgt>
  </event>
  <event>
  5     66 -.16122213E-05 0.28276515E+02 0.75467711E-02 0.92733335E-01
       -3 -1    0    0    0  501 0.00000000E+00 0.00000000E+00 0.29912021E+03 0.29912063E+03 0.50000000E+00 0.0000E+00 0.9000E+01
        1 -1    0    0  502    0 0.00000000E+00 0.00000000E+00 -.18676418E+04 0.18676418E+04 0.32000000E+00 0.0000E+00 0.9000E+01
       25  1    1    2    0    0 -.34235954E+03 -.39255996E+03 -.53651589E+03 0.75814753E+03 0.12500000E+03 0.0000E+00 0.9000E+01
       -3  1    1    2    0  501 0.35155552E+03 0.36582875E+03 -.15409941E+03 0.53025356E+03 0.50000000E+00 0.0000E+00 0.9000E+01
        1  1    1    2  502    0 -.91959749E+01 0.26731209E+02 -.87790629E+03 0.87836136E+03 0.32000000E+00 0.0000E+00 0.9000E+01
#aMCatNLO 1  0  0  1  2 0.13522297D+03 0.00000000D+00  -5  6  0 0.00000000D+00 0.00000000D+00 0.00000000D+00 0.00000000D+00 0.00000000D+00
  <mgrwgt>
 -.4881277520D-03    7    2    0
 0.747428850106152D+03 0.000000000000000D+00 0.000000000000000D+00 0.747428850106152D+03
 0.747428850106152D+03 0.000000000000000D+00 0.000000000000000D+00 -.747428850106152D+03
 0.535916448155592D+03 -.342317386363624D+03 -.392525744579788D+03 0.179940612138019D+02
 0.606828038651178D+03 0.351515456585847D+03 0.365787068642025D+03 0.332981940484396D+03
 0.352113213405533D+03 -.919807022222392D+01 0.267386759377626D+02 -.350976001698197D+03
 0.000000000000000D+00 -.000000000000000D+00 0.000000000000000D+00 0.000000000000000D+00
 0.120311942737849D+04 0.000000000000000D+00 0.000000000000000D+00 0.120311942737849D+04
 0.760579896044534D+03 0.000000000000000D+00 0.000000000000000D+00 -.760579896044534D+03
 0.559781913588507D+03 -.324179884560798D+03 -.438536665500152D+03 0.179940612138019D+02
 0.590183827322940D+03 0.371330038440794D+03 0.315521758198004D+03 0.332981940484396D+03
 0.350995549238393D+03 0.244075018245139D+01 -.278649522789468D+01 -.350976001698197D+03
 0.462738033273184D+03 -.495909040624469D+02 0.125801402530043D+03 0.442539531333956D+03
0.629374242615D-04 0.000000000000D+00 0.000000000000D+00 0.404115161258D-05 0.000000000000D+00  6 -3 1 25 -3 1 21 0 0.46018528D-01 0.28732954D+00 0.28686771D+06 0.28686771D+06 0.28686771D+06 0.10859930D+01  1  2  2  1  6  1       -3 0.825412031205D-04 0.100000000000D+01
0.337031586859D-04 0.000000000000D+00 -.241696280969D-06 0.404115161258D-05 0.000000000000D+00  6 -3 1 25 -3 1 21 2 0.46018528D-01 0.28732954D+00 0.28686771D+06 0.28686771D+06 0.28686771D+06 0.10859930D+01  1  2  3  1  6  1       -3 0.521298540473D-04 0.100000000000D+01
-.383740422897D-04 0.000000000000D+00 0.000000000000D+00 0.404115161258D-05 0.000000000000D+00  6 -3 1 25 -3 1 21 2 0.46018528D-01 0.28732954D+00 0.28686771D+06 0.28686771D+06 0.28686771D+06 0.10859930D+01  1  2 15  1  6  1       -3 -.593544730454D-04 0.100000000000D+01
-.539007980279D-03 0.000000000000D+00 0.000000000000D+00 0.404115161258D-05 0.000000000000D+00  6 -3 1 25 -3 1 21 2 0.46018528D-01 0.28732954D+00 0.28686771D+06 0.28686771D+06 0.28686771D+06 0.10859930D+01  1  2  4  1  6  1       -3 -.833702490741D-03 0.100000000000D+01
-.550509164931D-03 0.000000000000D+00 -.376238197979D-04 0.404115161258D-05 0.000000000000D+00  6 -3 1 25 -3 1 21 2 0.74672077D-01 0.28732954D+00 0.28686771D+06 0.28686771D+06 0.28686771D+06 0.10859930D+01  1  2  5  1  6  1       -3 -.295133897473D-03 0.100000000000D+01
0.511616829037D-03 0.000000000000D+00 0.336087898740D-04 0.404115161258D-05 0.000000000000D+00  6 -3 1 25 -3 1 21 2 0.46018528D-01 0.28732954D+00 0.28686771D+06 0.28686771D+06 0.28686771D+06 0.10859930D+01  1  2  6  1  6  1       -3 0.791335639319D-03 0.100000000000D+01
-.286232350633D-04 0.000000000000D+00 -.206796505358D-05 0.404115161258D-05 0.000000000000D+00  6 21 1 25 -3 1 3 2 0.74672077D-01 0.28732954D+00 0.28686771D+06 0.28686771D+06 0.28686771D+06 0.10859930D+01  1  2  5  5  6  1       -3 -.225943587180D-03 0.100000000000D+01
  </mgrwgt>
  </event>
  <event>
  5     66 0.16122213E-05 0.10343785E+03 0.75467711E-02 0.94048721E-01
       -3 -1    0    0    0  501 0.00000000E+00 0.00000000E+00 0.24536835E+03 0.24536886E+03 0.50000000E+00 0.0000E+00 0.9000E+01
        1 -1    0    0  502    0 0.00000000E+00 0.00000000E+00 -.24544028E+04 0.24544029E+04 0.32000000E+00 0.0000E+00 0.9000E+01
       25  1    1    2    0    0 -.16486054E+03 -.45392295E+03 -.41033589E+03 0.64593002E+03 0.12500000E+03 0.0000E+00 0.9000E+01
       -3  1    1    2    0  501 -.70571139E+02 0.75743117E+02 0.75049211E+02 0.12786688E+03 0.50000000E+00 0.0000E+00 0.9000E+01
        1  1    1    2  502    0 0.23543168E+03 0.37817984E+03 -.18737478E+04 0.19259748E+04 0.32000000E+00 0.0000E+00 0.9000E+01
#aMCatNLO 1  0  0  2  5 0.44125896D+01 0.00000000D+00  -5  6  0 0.00000000D+00 0.00000000D+00 0.00000000D+00 0.00000000D+00 0.00000000D+00
  <mgrwgt>
 0.4996833450D-03   11    2    0
 0.776037043652681D+03 0.000000000000000D+00 0.000000000000000D+00 0.776037043652681D+03
 0.776037043652681D+03 0.000000000000000D+00 0.000000000000000D+00 -.776037043652681D+03
 0.539738285863553D+03 -.164979167128076D+03 -.453994661429585D+03 0.205823077020264D+03
 0.328959676407542D+03 -.705121261519712D+02 0.756797791141022D+02 0.312274045993137D+03
 0.683376125034267D+03 0.235491293280047D+03 0.378314882315483D+03 -.518097123013401D+03
 0.000000000000000D+00 -.000000000000000D+00 -.000000000000000D+00 -.000000000000000D+00
 0.776397316389114D+03 0.000000000000000D+00 0.000000000000000D+00 0.776397316389114D+03
 0.789670086741110D+03 0.000000000000000D+00 0.000000000000000D+00 -.789670086741110D+03
 0.538998721605368D+03 -.163483369673979D+03 -.453656996747733D+03 0.205823077020264D+03
 0.328812836974964D+03 -.696000461509328D+02 0.758856741051188D+02 0.312274045993137D+03
 0.684268801269531D+03 0.237387696003518D+03 0.378742980531942D+03 -.518097123013401D+03
 0.139870432803604D+02 -.430428017860676D+01 -.971657889327795D+00 -.132727703519964D+02
0.412280342588D-04 0.000000000000D+00 0.000000000000D+00 0.108258149389D-05 0.000000000000D+00  6 -3 1 25 -3 1 21 0 0.37749018D-01 0.37760048D+00 0.27458244D+06 0.27458244D+06 0.27458244D+06 0.10874080D+01  1  2  2  2  6  2        1 0.325734649777D-04 0.100000000000D+01
0.571231708617D-05 0.000000000000D+00 -.158326507145D-06 0.108258149389D-05 0.000000000000D+00  6 -3 1 25 -3 1 21 2 0.37749018D-01 0.37760048D+00 0.27458244D+06 0.27458244D+06 0.27458244D+06 0.10874080D+01  1  2  3  2  6  2        1 0.533664923184D-05 0.100000000000D+01
-.240864889448D-04 0.000000000000D+00 0.000000000000D+00 0.108258149389D-05 0.000000000000D+00  6 -3 1 25 -3 1 21 2 0.37749018D-01 0.37760048D+00 0.27458244D+06 0.27458244D+06 0.27458244D+06 0.10874080D+01  1  2 15  2  6  2        1 -.225024522949D-04 0.100000000000D+01
0.636716830001D-04 0.000000000000D+00 0.000000000000D+00 0.108258149389D-05 0.000000000000D+00  6 -3 1 25 -3 1 21 2 0.37749018D-01 0.38506090D+00 0.27695199D+06 0.27695199D+06 0.27695199D+06 0.10871297D+01  1  2 12  2  6  2        1 0.550148571927D-04 0.100000000000D+01
-.350544977582D-02 0.000000000000D+00 0.000000000000D+00 0.108258149389D-05 0.000000000000D+00  6 -3 1 25 -3 1 21 2 0.37749018D-01 0.37760048D+00 0.27458244D+06 0.27458244D+06 0.27458244D+06 0.10874080D+01  1  2  4  2  6  2        1 -.327491551522D-02 0.100000000000D+01
-.102315576939D-01 0.000000000000D+00 -.422447538037D-03 0.108258149389D-05 0.000000000000D+00  6 -3 1 25 -3 1 21 2 0.37749018D-01 0.38428925D+00 0.27458244D+06 0.27458244D+06 0.27458244D+06 0.10874080D+01  1  2  5  2  6  2        1 -.892024431937D-02 0.100000000000D+01
0.102374622828D-01 0.000000000000D+00 0.422382423493D-03 0.108258149389D-05 0.000000000000D+00  6 -3 1 25 -3 1 21 2 0.37749018D-01 0.37760048D+00 0.27458244D+06 0.27458244D+06 0.27458244D+06 0.10874080D+01  1  2  6  2  6  2        1 0.956420037673D-02 0.100000000000D+01
0.351758979252D-02 0.000000000000D+00 0.000000000000D+00 0.108258149389D-05 0.196391876828D-06  6 -3 1 25 -3 1 21 2 0.37766543D-01 0.38423398D+00 0.27695199D+06 0.27695199D+06 0.27695199D+06 0.10871297D+01  1  2 11  2  6  2        1 0.306268078090D-02 0.100000000000D+01
0.511808891290D-05 0.000000000000D+00 0.000000000000D+00 0.108258149389D-05 0.000000000000D+00  6 -3 21 25 -3 1 -1 2 0.37749018D-01 0.38506090D+00 0.27695199D+06 0.27695199D+06 0.27695199D+06 0.10871297D+01  1  2 12  6  6  2        1 0.150257056837D-05 0.100000000000D+01
-.349995204137D-04 0.000000000000D+00 -.135489578376D-05 0.108258149389D-05 0.000000000000D+00  6 -3 21 25 -3 1 -1 2 0.37749018D-01 0.38428925D+00 0.27458244D+06 0.27458244D+06 0.27458244D+06 0.10874080D+01  1  2  5  6  6  2        1 -.104143210315D-04 0.100000000000D+01
0.217132406447D-04 0.000000000000D+00 0.000000000000D+00 0.108258149389D-05 0.113046606162D-08  6 -3 21 25 -3 1 -1 2 0.37766543D-01 0.38423398D+00 0.27695199D+06 0.27695199D+06 0.27695199D+06 0.10871297D+01  1  2 11  6  6  2        1 0.645125330003D-05 0.100000000000D+01
  </mgrwgt>
  </event>
  <event>
  6     66 -.16122213E-05 0.64263627E+02 0.75467711E-02 0.95019212E-01
       -1 -1    0    0    0  501 0.00000000E+00 0.00000000E+00 0.36485411E+03 0.36485425E+03 0.32000000E+00 0.0000E+00 0.9000E+01
        3 -1    0    0  502    0 -.00000000E+00 -.00000000E+00 -.70095906E+03 0.70095923E+03 0.50000000E+00 0.0000E+00 0.9000E+01
       25  1    1    2    0    0 0.39468244E+03 -.23983527E+03 -.13329167E+03 0.49667581E+03 0.12500000E+03 0.0000E+00 0.9000E+01
       -1  1    1    2    0  503 -.68656561E+02 0.43783975E+02 0.25734260E+02 0.85399733E+02 0.32000000E+00 0.0000E+00 0.9000E+01
        3  1    1    2  502    0 -.32405098E+03 0.21373680E+03 -.24537055E+03 0.45923787E+03 0.50000000E+00 0.0000E+00 0.9000E+01
       21  1    1    2  503  501 -.19748994E+01 -.17685507E+02 0.16823021E+02 0.24500080E+02 0.75000000E+00 0.0000E+00 0.9000E+01
#aMCatNLO 2  0  0  4  1 0.26964246D+02 0.00000000D+00  -5  6  0 0.00000000D+00 0.00000000D+00 0.00000000D+00 0.00000000D+00 0.00000000D+00
  <mgrwgt>
 -.3409410258D-04    3    2    0
 0.505715298702263D+03 0.000000000000000D+00 0.000000000000000D+00 0.505715298702263D+03
 0.505715298702263D+03 -.000000000000000D+00 -.000000000000000D+00 -.505715298702263D+03
 0.484833549733600D+03 0.400589861341326D+03 -.242119222148787D+03 0.185638413020430D+02
 0.126897372438655D+03 -.808478950292262D+02 0.298734606631838D+02 0.931350489836301D+02
 0.399699675232270D+03 -.319741966312099D+03 0.212245761485603D+03 -.111698890285673D+03
 0.000000000000000D+00 0.000000000000000D+00 0.000000000000000D+00 0.000000000000000D+00
 0.505715298702263D+03 0.000000000000000D+00 0.000000000000000D+00 0.505715298702263D+03
 0.505715298702263D+03 -.000000000000000D+00 -.000000000000000D+00 -.505715298702263D+03
 0.479237456542466D+03 0.394744349164900D+03 -.239959293581748D+03 0.252977465285057D+02
 0.977169183411705D+02 -.681089053213861D+02 0.435789185266447D+02 0.548693995416890D+02
 0.403040442319326D+03 -.324609270796008D+03 0.214044240332619D+03 -.106091859436408D+03
 0.314357802015627D+02 -.202617304750621D+01 -.176638652775154D+02 0.259247133662131D+02
-.283992148976D-04 0.000000000000D+00 0.000000000000D+00 0.331681799793D-07 0.000000000000D+00  6 -1 3 25 -1 3 21 2 0.56131426D-01 0.10783988D+00 0.23330500D+06 0.23330500D+06 0.23330500D+06 0.10927244D+01  1  2 13  3  6  4       -1 -.564359598230D-04 0.100000000000D+01
-.874442411847D-05 0.000000000000D+00 0.000000000000D+00 0.331681799793D-07 0.000000000000D+00  6 -1 3 25 -1 3 21 2 0.56131426D-01 0.10783988D+00 0.22774058D+06 0.22774058D+06 0.22774058D+06 0.10935190D+01  1  2  8  3  6  4       -1 -.174141726323D-04 0.100000000000D+01
0.200056850167D-04 0.000000000000D+00 0.000000000000D+00 0.331681799793D-07 0.137739608097D-09  6 -1 3 25 -1 3 21 2 0.56131426D-01 0.10783988D+00 0.23330500D+06 0.23330500D+06 0.23330500D+06 0.10927244D+01  1  2  1  3  6  4       -1 0.397560298730D-04 0.100000000000D+01
  </mgrwgt>
  </event>
  <event>
  6     66 0.16122213E-05 0.91475531E+02 0.75467711E-02 0.94037453E-01
       -3 -1    0    0    0  501 0.00000000E+00 0.00000000E+00 0.10222953E+04 0.10222954E+04 0.50000000E+00 0.0000E+00 0.9000E+01
        1 -1    0    0  502    0 0.00000000E+00 0.00000000E+00 -.61393955E+03 0.61393963E+03 0.32000000E+00 0.0000E+00 0.9000E+01
       25  1    1    2    0    0 0.17538595E+03 -.43788967E+03 0.25731993E+03 0.55167576E+03 0.12500000E+03 0.0000E+00 0.9000E+01
       -3  1    1    2    0  501 -.17967083E+03 0.30190895E+03 0.51211718E+03 0.62104338E+03 0.50000000E+00 0.0000E+00 0.9000E+01
        1  1    1    2  503    0 -.73376173E+02 0.11020926E+03 -.35792204E+03 0.38162604E+03 0.32000000E+00 0.0000E+00 0.9000E+01
       21  1    1    2  502  503 0.77661056E+02 0.25771455E+02 -.31593261E+01 0.81889873E+02 0.75000000E+00 0.0000E+00 0.9000E+01
#aMCatNLO 2  0  0  5  1 0.79659115D+02 0.00000000D+00  -5  6  0 0.00000000D+00 0.00000000D+00 0.00000000D+00 0.00000000D+00 0.00000000D+00
  <mgrwgt>
 0.1401634073D-04    1    2    0
 0.792229561024262D+03 0.000000000000000D+00 0.000000000000000D+00 0.792229561024262D+03
 0.792229561024262D+03 -.000000000000000D+00 -.000000000000000D+00 -.792229561024262D+03
 0.512970508876748D+03 0.175181189361898D+03 -.443165471529843D+03 0.142932357130049D+03
 0.520479304987465D+03 -.179801096171174D+03 0.296469251732014D+03 0.388170394947036D+03
 0.551009308184312D+03 0.461990680927543D+01 0.146696219797829D+03 -.531102752077086D+03
 0.000000000000000D+00 0.000000000000000D+00 0.000000000000000D+00 0.000000000000000D+00
 0.792229561024262D+03 0.000000000000000D+00 0.000000000000000D+00 0.792229561024262D+03
 0.792229561024262D+03 -.000000000000000D+00 -.000000000000000D+00 -.792229561024262D+03
 0.503378913376624D+03 0.175348467289492D+03 -.437853883948827D+03 0.123702149384657D+03
 0.509226648795945D+03 -.179631619931794D+03 0.301850642458923D+03 0.368687470104102D+03
 0.486353367575211D+03 -.734840736258344D+02 0.110189975953516D+03 -.467972069972626D+03
 0.855001923007447D+02 0.777672262681360D+02 0.258132655363870D+02 -.244175495161335D+02
0.237009611752D-04 0.000000000000D+00 0.000000000000D+00 0.156155279323D-05 0.628352328548D-10  6 -3 1 25 -3 1 21 2 0.15727622D+00 0.94452254D-01 0.27750989D+06 0.27750989D+06 0.27750989D+06 0.10870646D+01  1  2  1  4  6  5        1 0.140163407287D-04 0.100000000000D+01
  </mgrwgt>
  </event>
  <event>
  6     66 0.16122213E-05 0.12171588E+03 0.75467711E-02 0.94176880E-01
       -3 -1    0    0    0  503 0.00000000E+00 0.00000000E+00 0.58654835E+03 0.58654856E+03 0.50000000E+00 0.0000E+00 0.9000E+01
        1 -1    0    0  502    0 0.00000000E+00 0.00000000E+00 -.12134255E+04 0.12134256E+04 0.32000000E+00 0.0000E+00 0.9000E+01
       25  1    1    2    0    0 0.16487403E+03 -.45347453E+03 0.39687009E+02 0.50002265E+03 0.12500000E+03 0.0000E+00 0.9000E+01
       -3  1    1    2    0  501 -.15577259E+03 0.29041037E+03 -.43876747E+03 0.54874441E+03 0.50000000E+00 0.0000E+00 0.9000E+01
        1  1    1    2  502    0 0.55205135E+02 0.25249474E+02 -.46526805E+03 0.46921168E+03 0.32000000E+00 0.0000E+00 0.9000E+01
       21  1    1    2  501  503 -.64306579E+02 0.13781469E+03 0.23747131E+03 0.28199541E+03 0.75000000E+00 0.0000E+00 0.9000E+01
#aMCatNLO 2  0  0  1  5 0.14507402D+03 0.00000000D+00  -5  6  0 0.00000000D+00 0.00000000D+00 0.00000000D+00 0.00000000D+00 0.00000000D+00
  <mgrwgt>
 0.1353415979D-03    1    2    0
 0.619280405964744D+03 0.000000000000000D+00 0.000000000000000D+00 0.619280405964744D+03
 0.619280405964744D+03 0.000000000000000D+00 0.000000000000000D+00 -.619280405964744D+03
 0.581492089388403D+03 0.133314443583761D+03 -.385907545978788D+03 0.394728609439286D+03
 0.406594756544674D+03 -.175632891309355D+03 0.332988408991950D+03 -.153593955014345D+03
 0.250473965996411D+03 0.423184477255940D+02 0.529191369868382D+02 -.241134654424941D+03
 0.000000000000000D+00 -.000000000000000D+00 0.000000000000000D+00 0.000000000000000D+00
 0.111979460308066D+04 0.000000000000000D+00 0.000000000000000D+00 0.111979460308066D+04
 0.635591892612178D+03 0.000000000000000D+00 0.000000000000000D+00 -.635591892612178D+03
 0.635720874680631D+03 0.164795325145048D+03 -.453373859199195D+03 0.394728609439286D+03
 0.363477795360298D+03 -.155716439944035D+03 0.290305692390262D+03 -.153593955014345D+03
 0.248663945979157D+03 0.552276936451597D+02 0.252534813426926D+02 -.241134654424941D+03
 0.507523879672750D+03 -.643065788461725D+02 0.137814685466241D+03 0.484202710468480D+03
0.143286479498D-03 0.000000000000D+00 0.000000000000D+00 0.466283402579D-07 0.286551399719D-10  6 -3 1 25 -3 1 21 2 0.90238188D-01 0.18668079D+00 0.27069446D+06 0.27069446D+06 0.27069446D+06 0.10878702D+01  1  2  1  1  6  1       -3 0.135341597876D-03 0.100000000000D+01
  </mgrwgt>
  </event>
  <event>
  5     66 -.16122213E-05 0.46154727E+02 0.75467711E-02 0.92861102E-01
       -3 -1    0    0    0  501 0.00000000E+00 0.00000000E+00 0.59816119E+03 0.59816140E+03 0.50000000E+00 0.0000E+00 0.9000E+01
        1 -1    0    0  502    0 0.00000000E+00 0.00000000E+00 -.12330348E+04 0.12330349E+04 0.32000000E+00 0.0000E+00 0.9000E+01
       25  1    1    2    0    0 0.35901022E+03 -.40187240E+03 -.45886177E+03 0.71872727E+03 0.12500000E+03 0.0000E+00 0.9000E+01
       -3  1    1    2    0  501 -.34993647E+03 0.44712085E+03 0.29456014E+03 0.63963936E+03 0.50000000E+00 0.0000E+00 0.9000E+01
        1  1    1    2  502    0 -.90737460E+01 -.45248448E+02 -.47057202E+03 0.47282965E+03 0.32000000E+00 0.0000E+00 0.9000E+01
#aMCatNLO 1  0  0  2  5 0.47899672D+01 0.00000000D+00  -5  6  0 0.00000000D+00 0.00000000D+00 0.00000000D+00 0.00000000D+00 0.00000000D+00
  <mgrwgt>
 -.1544398956D-02   11    2    0
 0.858809534758046D+03 0.000000000000000D+00 0.000000000000000D+00 0.858809534758046D+03
 0.858809534758046D+03 0.000000000000000D+00 0.000000000000000D+00 -.858809534758046D+03
 0.596610846080050D+03 0.359005131832865D+03 -.401858436776051D+03 -.223482916058316D+03
 0.790796322515648D+03 -.349929626285215D+03 0.447112100352110D+03 0.550453313252711D+03
 0.330211900920395D+03 -.907550554764998D+01 -.452536635760583D+02 -.326970397194395D+03
 0.000000000000000D+00 0.000000000000000D+00 -.000000000000000D+00 -.000000000000000D+00
 0.858824646284084D+03 0.000000000000000D+00 0.000000000000000D+00 0.858824646284084D+03
 0.134606385212723D+04 0.000000000000000D+00 0.000000000000000D+00 -.134606385212723D+04
 0.595114286303923D+03 0.357989737584666D+03 -.400543066070505D+03 -.223482916058316D+03
 0.792382709803939D+03 -.351278553852153D+03 0.448859539643401D+03 0.550453313252711D+03
 0.330128752345791D+03 -.963814040610665D+01 -.445248103133519D+02 -.326970397194395D+03
 0.487262749957662D+03 0.292695667359327D+01 -.379166325954395D+01 -.487239205843147D+03
0.295229929324D-05 0.000000000000D+00 0.000000000000D+00 0.365650000580D-05 0.000000000000D+00  6 -3 1 25 -3 1 21 0 0.92024818D-01 0.18969769D+00 0.34052758D+06 0.34052758D+06 0.34052758D+06 0.10805038D+01  1  2  2  2  6  2        1 0.214921120460D-05 0.100000000000D+01
0.101604747330D-05 0.000000000000D+00 -.113376066443D-07 0.365650000580D-05 0.000000000000D+00  6 -3 1 25 -3 1 21 2 0.92024818D-01 0.18969769D+00 0.34052758D+06 0.34052758D+06 0.34052758D+06 0.10805038D+01  1  2  3  2  6  2        1 0.863545603629D-06 0.100000000000D+01
-.169511749997D-05 0.000000000000D+00 0.000000000000D+00 0.365650000580D-05 0.000000000000D+00  6 -3 1 25 -3 1 21 2 0.92024818D-01 0.18969769D+00 0.34052758D+06 0.34052758D+06 0.34052758D+06 0.10805038D+01  1  2 15  2  6  2        1 -.144069180152D-05 0.100000000000D+01
0.871331887811D-02 0.000000000000D+00 0.000000000000D+00 0.365650000580D-05 0.000000000000D+00  6 -3 1 25 -3 1 21 2 0.92024818D-01 0.29839933D+00 0.34332520D+06 0.34332520D+06 0.34332520D+06 0.10802440D+01  1  2 12  2  6  2        1 0.246622548541D-02 0.100000000000D+01
-.279133452112D-01 0.000000000000D+00 0.000000000000D+00 0.365650000580D-05 0.000000000000D+00  6 -3 1 25 -3 1 21 2 0.92024818D-01 0.18969769D+00 0.34052758D+06 0.34052758D+06 0.34052758D+06 0.10805038D+01  1  2  4  2  6  2        1 -.237237404484D-01 0.100000000000D+01
-.275693041984D-01 0.000000000000D+00 -.208785042742D-05 0.365650000580D-05 0.000000000000D+00  6 -3 1 25 -3 1 21 2 0.92024818D-01 0.29732603D+00 0.34052758D+06 0.34052758D+06 0.34052758D+06 0.10805038D+01  1  2  5  2  6  2        1 -.789502694606D-02 0.100000000000D+01
0.250028891129D-01 0.000000000000D+00 0.189341550497D-05 0.365650000580D-05 0.000000000000D+00  6 -3 1 25 -3 1 21 2 0.92024818D-01 0.18969769D+00 0.34052758D+06 0.34052758D+06 0.34052758D+06 0.10805038D+01  1  2  6  2  6  2        1 0.212501241713D-01 0.100000000000D+01
0.221831038487D-01 0.000000000000D+00 0.000000000000D+00 0.365650000580D-05 0.128884828681D-05  6 -3 1 25 -3 1 21 2 0.92026437D-01 0.29732460D+00 0.34332520D+06 0.34332520D+06 0.34332520D+06 0.10802440D+01  1  2 11  2  6  2        1 0.634607113075D-02 0.100000000000D+01
0.452339199624D-03 0.000000000000D+00 0.000000000000D+00 0.365650000580D-05 0.000000000000D+00  6 -3 21 25 -3 1 -1 2 0.92024818D-01 0.29839933D+00 0.34332520D+06 0.34332520D+06 0.34332520D+06 0.10802440D+01  1  2 12  6  6  2        1 0.673957945371D-04 0.100000000000D+01
-.143110629371D-02 0.000000000000D+00 -.108385363771D-06 0.365650000580D-05 0.000000000000D+00  6 -3 21 25 -3 1 -1 2 0.92024818D-01 0.29732603D+00 0.34052758D+06 0.34052758D+06 0.34052758D+06 0.10805038D+01  1  2  5  6  6  2        1 -.217044045932D-03 0.100000000000D+01
0.105660479367D-02 0.000000000000D+00 0.000000000000D+00 0.365650000580D-05 0.612215213188D-07  6 -3 21 25 -3 1 -1 2 0.92026437D-01 0.29732460D+00 0.34332520D+06 0.34332520D+06 0.34332520D+06 0.10802440D+01  1  2 11  6  6  2        1 0.160023837645D-03 0.100000000000D+01
  </mgrwgt>
  </event>
  <event>
  5     66 0.16122213E-05 0.73195131E+02 0.75467711E-02 0.92605943E-01
       -3 -1    0    0    0  501 0.00000000E+00 0.00000000E+00 0.82880689E+03 0.82880704E+03 0.50000000E+00 0.0000E+00 0.9000E+01
        1 -1    0    0  502    0 -.00000000E+00 -.00000000E+00 -.25078793E+04 0.25078793E+04 0.32000000E+00 0.0000E+00 0.9000E+01
       25  1    1    2    0    0 0.54379627E+03 -.29150459E+02 -.17313903E+03 0.58494979E+03 0.12500000E+03 0.0000E+00 0.9000E+01
       -3  1    1    2    0  501 -.55876691E+03 0.10078681E+03 0.49270672E+03 0.75175701E+03 0.50000000E+00 0.0000E+00 0.9000E+01
        1  1    1    2  502    0 0.14970639E+02 -.71636348E+02 -.19986401E+04 0.19999795E+04 0.32000000E+00 0.0000E+00 0.9000E+01
#aMCatNLO 1  0  0  4  1 0.51102758D+01 0.00000000D+00  -5  6  0 0.00000000D+00 0.00000000D+00 0.00000000D+00 0.00000000D+00 0.00000000D+00
  <mgrwgt>
 0.2596758572D-03    8    2    0
 0.144171699616166D+04 0.000000000000000D+00 0.000000000000000D+00 0.144171699616166D+04
 0.144171699616166D+04 -.000000000000000D+00 -.000000000000000D+00 -.144171699616166D+04
 0.576075088653586D+03 0.543752450326033D+03 -.291318350026527D+02 0.140435453931867D+03
 0.115675159753733D+04 -.558724970060561D+03 0.100779241658038D+03 0.100784136186545D+04
 0.115060730613241D+04 0.149725197345276D+02 -.716474066553850D+02 -.114827681579732D+04
 0.000000000000000D+00 -.000000000000000D+00 0.000000000000000D+00 0.000000000000000D+00
 0.144171699616166D+04 0.000000000000000D+00 0.000000000000000D+00 0.144171699616166D+04
 0.144171699616166D+04 -.000000000000000D+00 -.000000000000000D+00 -.144171699616166D+04
 0.576059661275786D+03 0.543722387563023D+03 -.291264124734645D+02 0.140489681857300D+03
 0.111317113283323D+04 -.533596534428764D+03 0.993107505440329D+02 0.971885839101077D+03
 0.115049776438568D+04 0.149124767782663D+02 -.716365764904145D+02 -.114816850888775D+04
 0.437054338286278D+02 -.250383299125253D+02 0.145223841984608D+01 0.357929879293700D+02
0.167590297580D-03 0.000000000000D+00 0.000000000000D+00 0.458336064427D-04 0.000000000000D+00  6 -3 1 25 -3 1 21 0 0.12750877D+00 0.38582759D+00 0.35977898D+06 0.35977898D+06 0.35977898D+06 0.10787613D+01  1  2  2  3  6  4       -3 0.686762838385D-05 0.100000000000D+01
0.668323408352D-04 0.000000000000D+00 -.643590870246D-06 0.458336064427D-04 0.000000000000D+00  6 -3 1 25 -3 1 21 2 0.12750877D+00 0.38582759D+00 0.35977898D+06 0.35977898D+06 0.35977898D+06 0.10787613D+01  1  2  3  3  6  4       -3 0.318709694767D-05 0.100000000000D+01
-.117737652176D-03 0.000000000000D+00 0.000000000000D+00 0.458336064427D-04 0.000000000000D+00  6 -3 1 25 -3 1 21 2 0.12750877D+00 0.38582759D+00 0.35977898D+06 0.35977898D+06 0.35977898D+06 0.10787613D+01  1  2 15  3  6  4       -3 -.561466659984D-05 0.100000000000D+01
0.115901961430D-01 0.000000000000D+00 0.000000000000D+00 0.458336064427D-04 0.000000000000D+00  6 -3 1 25 -3 1 21 2 0.12750877D+00 0.38582759D+00 0.35980677D+06 0.35980677D+06 0.35980677D+06 0.10787588D+01  1  2 12  3  6  4       -3 0.552706520548D-03 0.100000000000D+01
-.766372006805D-01 0.000000000000D+00 0.000000000000D+00 0.458336064427D-04 0.000000000000D+00  6 -3 1 25 -3 1 21 2 0.12750877D+00 0.38582759D+00 0.35977898D+06 0.35977898D+06 0.35977898D+06 0.10787613D+01  1  2  4  3  6  4       -3 -.365467055790D-02 0.100000000000D+01
-.105751297009D+00 0.000000000000D+00 0.000000000000D+00 0.458336064427D-04 0.000000000000D+00  6 -3 1 25 -3 1 21 2 0.12750877D+00 0.38582759D+00 0.35977898D+06 0.35977898D+06 0.35977898D+06 0.10787613D+01  1  2  5  3  6  4       -3 -.504306196217D-02 0.100000000000D+01
0.109822314608D+00 0.000000000000D+00 -.000000000000D+00 0.458336064427D-04 0.000000000000D+00  6 -3 1 25 -3 1 21 2 0.12750877D+00 0.38582759D+00 0.35977898D+06 0.35977898D+06 0.35977898D+06 0.10787613D+01  1  2  6  3  6  4       -3 0.523720042271D-02 0.100000000000D+01
0.663290559989D-01 0.000000000000D+00 0.000000000000D+00 0.458336064427D-04 0.714522114252D-05  6 -3 1 25 -3 1 21 2 0.12750877D+00 0.38582759D+00 0.35980677D+06 0.35980677D+06 0.35980677D+06 0.10787588D+01  1  2 11  3  6  4       -3 0.316306137532D-02 0.100000000000D+01
  </mgrwgt>
  </event>
  <event>
  6     66 0.16122213E-05 0.29143013E+03 0.75467711E-02 0.90388481E-01
       -3 -1    0    0    0  501 0.00000000E+00 0.00000000E+00 0.36116295E+03 0.36116330E+03 0.50000000E+00 0.0000E+00 0.9000E+01
       21 -1    0    0  502  503 0.00000000E+00 0.00000000E+00 -.18911032E+04 0.18911034E+04 0.75000000E+00 0.0000E+00 0.9000E+01
       25  1    1    2    0    0 0.47162335E+03 0.36467274E+02 -.10212927E+03 0.49981380E+03 0.12500000E+03 0.0000E+00 0.9000E+01
       -3  1    1    2    0  501 -.58371112E+03 -.32937019E+03 -.11025728E+04 0.12902986E+04 0.50000000E+00 0.0000E+00 0.9000E+01
        1  1    1    2  502    0 0.72392419E+02 0.25392052E+03 -.30386163E+03 0.40255221E+03 0.32000000E+00 0.0000E+00 0.9000E+01
       -1  1    1    2    0  503 0.39695347E+02 0.38982405E+02 -.21376585E+02 0.59602092E+02 0.32000000E+00 0.0000E+00 0.9000E+01
#aMCatNLO 2  0  0  2  1 0.55635856D+02 0.00000000D+00  -5  6  0 0.00000000D+00 0.00000000D+00 0.00000000D+00 0.00000000D+00 0.00000000D+00
  <mgrwgt>
 0.3202085278D-03    1    2    0
 0.795128641962641D+03 0.000000000000000D+00 0.000000000000000D+00 0.795128641962641D+03
 0.795128641962641D+03 0.000000000000000D+00 0.000000000000000D+00 -.795128641962641D+03
 0.604926132887842D+03 0.486543032193598D+03 0.510845659444215D+02 0.333131912606355D+03
 0.710473782253073D+03 -.565682290721518D+03 -.311674682153875D+03 -.296032825438876D+03
 0.274857368784367D+03 0.791392585279202D+02 0.260590116209454D+03 -.370990871674791D+02
 0.000000000000000D+00 0.000000000000000D+00 0.000000000000000D+00 0.000000000000000D+00
 0.840071266571707D+03 0.000000000000000D+00 0.000000000000000D+00 0.840071266571707D+03
 0.813021850556645D+03 0.000000000000000D+00 0.000000000000000D+00 -.813021850556645D+03
 0.591899092314937D+03 0.471610271008900D+03 0.364200022705896D+02 0.333131912606355D+03
 0.732668946363751D+03 -.583688349808564D+03 -.329357346245989D+03 -.296032825438876D+03
 0.266662170181748D+03 0.723827315246907D+02 0.253954938747809D+03 -.370990871674791D+02
 0.618629082679167D+02 0.396953472749740D+02 0.389824052275896D+02 0.270494160150619D+02
0.638298004410D-03 0.000000000000D+00 0.000000000000D+00 0.493655282697D-10 0.208963440379D-10  6 -3 21 25 -3 1 -1 2 0.55563541D-01 0.29093885D+00 0.54697644D+06 0.54697644D+06 0.54697644D+06 0.10657651D+01  1  2  1  6  6  2        1 0.320208527773D-03 0.100000000000D+01
  </mgrwgt>
  </event>
  <event>
  6     66 0.16122213E-05 0.12381455E+02 0.75467711E-02 0.91520905E-01
       21 -1    0    0  503  501 0.00000000E+00 0.00000000E+00 0.75133056E+03 0.75133093E+03 0.75000000E+00 0.0000E+00 0.9000E+01
        1 -1    0    0  502    0 0.00000000E+00 0.00000000E+00 -.17840252E+04 0.17840253E+04 0.32000000E+00 0.0000E+00 0.9000E+01
       25  1    1    2    0    0 0.64910821E+03 -.10121288E+03 -.62417139E+03 0.91476797E+03 0.12500000E+03 0.0000E+00 0.9000E+01
       -3  1    1    2    0  501 -.27384862E+01 -.22942348E+01 0.24399014E+02 0.24664239E+02 0.50000000E+00 0.0000E+00 0.9000E+01
        1  1    1    2  502    0 -.63265998E+03 0.99984936E+02 -.91320266E+03 0.11154348E+04 0.32000000E+00 0.0000E+00 0.9000E+01
        3  1    1    2  503    0 -.13709746E+02 0.35221775E+01 0.48028036E+03 0.48048917E+03 0.50000000E+00 0.0000E+00 0.9000E+01
#aMCatNLO 2  0  0  1  2 0.69837098D+01 0.00000000D+00  -5  6  0 0.00000000D+00 0.00000000D+00 0.00000000D+00 0.00000000D+00 0.00000000D+00
  <mgrwgt>
 0.9585477118D-03    1    2    0
 0.695195056986934D+03 0.000000000000000D+00 0.000000000000000D+00 0.695195056986934D+03
 0.695195056986934D+03 0.000000000000000D+00 0.000000000000000D+00 -.695195056986934D+03
 0.666331256124557D+03 0.642726945098953D+03 -.995627723770454D+02 0.732234340146263D+02
 0.625707856451497D+02 -.333578444535456D+01 -.211937502420183D+01 0.624458486041482D+02
 0.661488072204161D+03 -.639391160653598D+03 0.101682147401247D+03 -.135669282618774D+03
 0.000000000000000D+00 -.000000000000000D+00 0.000000000000000D+00 0.000000000000000D+00
 0.192786928278285D+04 0.000000000000000D+00 0.000000000000000D+00 0.192786928278285D+04
 0.695271719433940D+03 0.000000000000000D+00 0.000000000000000D+00 -.695271719433940D+03
 0.672955519989980D+03 0.649329698615806D+03 -.101259088933276D+03 0.732234340146263D+02
 0.625465049322400D+02 -.271894969038470D+01 -.227784633539692D+01 0.624458486041482D+02
 0.654960139942111D+03 -.632901002445869D+03 0.100014757759604D+03 -.135669282618774D+03
 0.123267883735246D+04 -.137097464795527D+02 0.352217750906915D+01 0.123259756334891D+04
0.347393749281D-03 0.000000000000D+00 0.000000000000D+00 0.233894765724D-06 0.409813414507D-07  6 21 1 25 -3 1 3 2 0.11558934D+00 0.27446543D+00 0.44050877D+06 0.44050877D+06 0.44050877D+06 0.10724204D+01  1  2  1  5  6  1       -3 0.958547711760D-03 0.100000000000D+01
  </mgrwgt>
  </event>
  <event>
  5     66 0.16122213E-05 0.33184044E+02 0.75467711E-02 0.93641132E-01
       -3 -1    0    0    0  501 0.00000000E+00 0.00000000E+00 0.44298684E+03 0.44298712E+03 0.50000000E+00 0.0000E+00 0.9000E+01
        1 -1    0    0  502    0 -.00000000E+00 -.00000000E+00 -.34342143E+04 0.34342143E+04 0.32000000E+00 0.0000E+00 0.9000E+01
       25  1    1    2    0    0 0.49230554E+03 -.99859975E+02 0.10630368E+03 0.52845268E+03 0.12500000E+03 0.0000E+00 0.9000E+01
       -3  1    1    2    0  501 0.31855547E+02 0.94492111E+01 0.10098264E+03 0.10630995E+03 0.50000000E+00 0.0000E+00 0.9000E+01
        1  1    1    2  502    0 -.52416109E+03 0.90410764E+02 -.31985137E+04 0.32424388E+04 0.32000000E+00 0.0000E+00 0.9000E+01
#aMCatNLO 1  0  0  4  1 0.16591514D+02 0.00000000D+00  -5  6  0 0.00000000D+00 0.00000000D+00 0.00000000D+00 0.00000000D+00 0.00000000D+00
  <mgrwgt>
 0.9137261532D-03    7    2    0
 0.123341489654561D+04 0.000000000000000D+00 0.000000000000000D+00 0.123341489654561D+04
 0.123341489654561D+04 -.000000000000000D+00 -.000000000000000D+00 -.123341489654561D+04
 0.959852025922199D+03 0.492449887264109D+03 -.998668083749697D+02 0.808214476971004D+03
 0.289161825616799D+03 0.318139326717314D+02 0.943686703518797D+01 0.287251424056625D+03
 0.121781594155222D+04 -.524263819935841D+03 0.904299413397816D+02 -.109546590102763D+04
 0.000000000000000D+00 0.000000000000000D+00 0.000000000000000D+00 0.000000000000000D+00
 0.123341489654561D+04 0.000000000000000D+00 0.000000000000000D+00 0.123341489654561D+04
 0.123341489654561D+04 -.000000000000000D+00 -.000000000000000D+00 -.123341489654561D+04
 0.960519121662963D+03 0.492532391291208D+03 -.998423354642599D+02 0.808959414716336D+03
 0.158183613002629D+03 0.332584838932879D+02 0.867641198836164D+00 0.154645322821078D+03
 0.121692367839541D+04 -.524159217331372D+03 0.904609692821642D+02 -.109452143284749D+04
 0.131203380030208D+03 -.163165785312390D+01 0.851372498325946D+01 0.130916695310075D+03
0.127703382190D-02 0.000000000000D+00 0.000000000000D+00 0.238678756991D-04 0.000000000000D+00  6 -3 1 25 -3 1 21 0 0.68151845D-01 0.52834068D+00 0.29321068D+06 0.29321068D+06 0.29321068D+06 0.10852881D+01  1  2  2  3  6  4       -3 0.541022685141D-04 0.100000000000D+01
0.367192088564D-03 0.000000000000D+00 -.490414612682D-05 0.238678756991D-04 0.000000000000D+00  6 -3 1 25 -3 1 21 2 0.68151845D-01 0.52834068D+00 0.29321068D+06 0.29321068D+06 0.29321068D+06 0.10852881D+01  1  2  3  3  6  4       -3 0.183229970076D-04 0.100000000000D+01
-.856952085978D-03 0.000000000000D+00 0.000000000000D+00 0.238678756991D-04 0.000000000000D+00  6 -3 1 25 -3 1 21 2 0.68151845D-01 0.52834068D+00 0.29321068D+06 0.29321068D+06 0.29321068D+06 0.10852881D+01  1  2 15  3  6  4       -3 -.427621699816D-04 0.100000000000D+01
0.140572878113D-01 0.000000000000D+00 0.000000000000D+00 0.238678756991D-04 0.000000000000D+00  6 -3 1 25 -3 1 21 2 0.68151845D-01 0.52834068D+00 0.29795713D+06 0.29795713D+06 0.29795713D+06 0.10847715D+01  1  2 12  3  6  4       -3 0.699820923843D-03 0.100000000000D+01
-.176055206373D-01 0.000000000000D+00 0.000000000000D+00 0.238678756991D-04 0.000000000000D+00  6 -3 1 25 -3 1 21 2 0.68151845D-01 0.52834068D+00 0.29321068D+06 0.29321068D+06 0.29321068D+06 0.10852881D+01  1  2  4  3  6  4       -3 -.878520839639D-03 0.100000000000D+01
-.199096748302D-01 0.000000000000D+00 0.000000000000D+00 0.238678756991D-04 0.000000000000D+00  6 -3 1 25 -3 1 21 2 0.68151845D-01 0.52834068D+00 0.29321068D+06 0.29321068D+06 0.29321068D+06 0.10852881D+01  1  2  5  3  6  4       -3 -.993498835346D-03 0.100000000000D+01
0.412074000725D-01 0.000000000000D+00 -.000000000000D+00 0.238678756991D-04 0.000000000000D+00  6 -3 1 25 -3 1 21 2 0.68151845D-01 0.52834068D+00 0.29321068D+06 0.29321068D+06 0.29321068D+06 0.10852881D+01  1  2  6  3  6  4       -3 0.205626180883D-02 0.100000000000D+01
  </mgrwgt>
  </event>
  <event>
  5     66 0.16122213E-05 0.18435969E+03 0.75467711E-02 0.94844287E-01
       -1 -1    0    0    0  501 0.00000000E+00 0.00000000E+00 0.43569440E+03 0.43569452E+03 0.32000000E+00 0.0000E+00 0.9000E+01
        3 -1    0    0  502    0 0.00000000E+00 0.00000000E+00 -.77817639E+03 0.77817655E+03 0.50000000E+00 0.0000E+00 0.9000E+01
       25  1    1    2    0    0 -.45010847E+02 -.46913184E+03 0.10607982E+03 0.49898756E+03 0.12500000E+03 0.0000E+00 0.9000E+01
       -1  1    1    2    0  501 0.97434735E+02 0.25305837E+03 -.77019390E+02 0.28189388E+03 0.32000000E+00 0.0000E+00 0.9000E+01
        3  1    1    2  502    0 -.52423888E+02 0.21607347E+03 -.37154241E+03 0.43298963E+03 0.50000000E+00 0.0000E+00 0.9000E+01
#aMCatNLO 1  0  0  1  4 0.44988933D+01 0.00000000D+00  -5  6  0 0.00000000D+00 0.00000000D+00 0.00000000D+00 0.00000000D+00 0.00000000D+00
  <mgrwgt>
 0.1678394477D-05    1    2    0
 0.582277653181868D+03 0.000000000000000D+00 0.000000000000000D+00 0.582277653181868D+03
 0.582277653181868D+03 0.000000000000000D+00 0.000000000000000D+00 -.582277653181868D+03
 0.551316625407573D+03 -.449533670368830D+02 -.469067765829706D+03 0.257448339094215D+03
 0.271036814098827D+03 0.973830609697705D+02 0.252924164883981D+03 0.261932257283100D+01
 0.342201866857336D+03 -.524296939328876D+02 0.216143600945725D+03 -.260067661667046D+03
 0.000000000000000D+00 0.000000000000000D+00 0.000000000000000D+00 0.000000000000000D+00
 0.110002172989751D+04 0.000000000000000D+00 0.000000000000000D+00 0.110002172989751D+04
 0.593601290853076D+03 0.000000000000000D+00 0.000000000000000D+00 -.593601290853076D+03
 0.576860822198697D+03 -.102606447747270D+03 -.490240428530812D+03 0.257448339094215D+03
 0.253143902602662D+03 0.705959334385999D+02 0.243086792640198D+03 0.261932257283100D+01
 0.341473900694568D+03 -.873674728169076D+02 0.203312962951667D+03 -.260067661667046D+03
 0.522144395254654D+03 0.119377987125578D+03 0.438406729389472D+02 0.506420439044431D+03
0.154386298395D-05 0.000000000000D+00 0.000000000000D+00 0.937578758272D-08 0.000000000000D+00  6 -1 3 25 -1 3 21 2 0.67029930D-01 0.11971947D+00 0.24056586D+06 0.24056586D+06 0.24056586D+06 0.10917181D+01  1  2 14  1  6  1       -1 0.167839447724D-05 0.100000000000D+01
  </mgrwgt>
  </event>
  <event>
  5     66 -.16122213E-05 0.10840308E+03 0.75467711E-02 0.93187769E-01
       -3 -1    0    0    0  501 0.00000000E+00 0.00000000E+00 0.53364752E+03 0.53364775E+03 0.50000000E+00 0.0000E+00 0.9000E+01
        1 -1    0    0  502    0 0.00000000E+00 0.00000000E+00 -.14292582E+04 0.14292582E+04 0.32000000E+00 0.0000E+00 0.9000E+01
       25  1    1    2    0    0 -.20576971E+03 -.42600557E+03 -.18260912E+03 0.52229591E+03 0.12500000E+03 0.0000E+00 0.9000E+01
       -3  1    1    2    0  501 -.12611092E+03 0.71739955E+02 0.29113762E+03 0.32528748E+03 0.50000000E+00 0.0000E+00 0.9000E+01
        1  1    1    2  502    0 0.33188063E+03 0.35426562E+03 -.10041392E+04 0.11153226E+04 0.32000000E+00 0.0000E+00 0.9000E+01
#aMCatNLO 1  0  0  1  4 0.21476124D+02 0.00000000D+00  -5  6  0 0.00000000D+00 0.00000000D+00 0.00000000D+00 0.00000000D+00 0.00000000D+00
  <mgrwgt>
 -.1246232774D-02    9    2    0
 0.873338626227490D+03 0.000000000000000D+00 0.000000000000000D+00 0.873338626227490D+03
 0.873338626227490D+03 0.000000000000000D+00 0.000000000000000D+00 -.873338626227490D+03
 0.493457168002610D+03 -.205886818399474D+03 -.426086703657158D+03 0.627352821710023D+02
 0.514647067019720D+03 -.126064359882055D+03 0.717134714282512D+02 0.493787969451704D+03
 0.738573017432650D+03 0.331951178281530D+03 0.354373232228906D+03 -.556523251622706D+03
 0.000000000000000D+00 -.000000000000000D+00 0.000000000000000D+00 0.000000000000000D+00
 0.113319292588998D+04 0.000000000000000D+00 0.000000000000000D+00 0.113319292588998D+04
 0.873848484150782D+03 0.000000000000000D+00 0.000000000000000D+00 -.873848484150782D+03
 0.494749660659164D+03 -.201115914023764D+03 -.429847531363935D+03 0.627352821710023D+02
 0.512922822068370D+03 -.121103416951882D+03 0.678028393647529D+02 0.493787969451704D+03
 0.739136793683624D+03 0.339085324696438D+03 0.348749498574132D+03 -.556523251622706D+03
 0.260232133629603D+03 -.168659937207925D+02 0.132951934250499D+02 0.259344441739198D+03
0.924699653581D-05 0.000000000000D+00 0.000000000000D+00 0.897857001649D-06 0.000000000000D+00  6 -3 1 25 -3 1 21 0 0.82099639D-01 0.21988590D+00 0.31362868D+06 0.31362868D+06 0.31362868D+06 0.10831273D+01  1  2  2  1  6  1       -3 0.655471789094D-05 0.100000000000D+01
0.118172351964D-05 0.000000000000D+00 -.355109014876D-07 0.897857001649D-06 0.000000000000D+00  6 -3 1 25 -3 1 21 2 0.82099639D-01 0.21988590D+00 0.31362868D+06 0.31362868D+06 0.31362868D+06 0.10831273D+01  1  2  3  1  6  1       -3 0.982716292667D-06 0.100000000000D+01
-.491850586618D-05 0.000000000000D+00 0.000000000000D+00 0.897857001649D-06 0.000000000000D+00  6 -3 1 25 -3 1 21 2 0.82099639D-01 0.21988590D+00 0.31362868D+06 0.31362868D+06 0.31362868D+06 0.10831273D+01  1  2 15  1  6  1       -3 -.409020872474D-05 0.100000000000D+01
0.168199977593D-02 0.000000000000D+00 0.000000000000D+00 0.897857001649D-06 0.000000000000D+00  6 -3 1 25 -3 1 21 2 0.10874006D+00 0.21988590D+00 0.32344529D+06 0.32344529D+06 0.32344529D+06 0.10821423D+01  1  2 12  1  6  1       -3 0.679518585069D-03 0.100000000000D+01
-.311666173819D-02 0.000000000000D+00 0.000000000000D+00 0.897857001649D-06 0.000000000000D+00  6 -3 1 25 -3 1 21 2 0.82099639D-01 0.21988590D+00 0.31362868D+06 0.31362868D+06 0.31362868D+06 0.10831273D+01  1  2  4  1  6  1       -3 -.259180275076D-02 0.100000000000D+01
-.186703100169D-02 0.000000000000D+00 -.821588712768D-05 0.897857001649D-06 0.000000000000D+00  6 -3 1 25 -3 1 21 2 0.10655206D+00 0.21988590D+00 0.31362868D+06 0.31362868D+06 0.31362868D+06 0.10831273D+01  1  2  5  1  6  1       -3 -.799688494460D-03 0.100000000000D+01
0.180766705272D-02 0.000000000000D+00 0.794438635815D-05 0.897857001649D-06 0.000000000000D+00  6 -3 1 25 -3 1 21 2 0.82099639D-01 0.21988590D+00 0.31362868D+06 0.31362868D+06 0.31362868D+06 0.10831273D+01  1  2  6  1  6  1       -3 0.150324829361D-02 0.100000000000D+01
0.620125398247D-04 0.000000000000D+00 0.000000000000D+00 0.897857001649D-06 0.000000000000D+00  6 21 1 25 -3 1 3 2 0.10874006D+00 0.21988590D+00 0.32344529D+06 0.32344529D+06 0.32344529D+06 0.10821423D+01  1  2 12  5  6  1       -3 0.366269886725D-03 0.100000000000D+01
-.650168332295D-04 0.000000000000D+00 -.286755896204D-06 0.897857001649D-06 0.000000000000D+00  6 21 1 25 -3 1 3 2 0.10655206D+00 0.21988590D+00 0.31362868D+06 0.31362868D+06 0.31362868D+06 0.10831273D+01  1  2  5  5  6  1       -3 -.407225519442D-03 0.100000000000D+01
  </mgrwgt>
  </event>
  <event>
  5     66 -.16122213E-05 0.47444090E+02 0.75467711E-02 0.95590937E-01
       -3 -1    0    0    0  501 0.00000000E+00 0.00000000E+00 0.12084455E+04 0.12084456E+04 0.50000000E+00 0.0000E+00 0.9000E+01
        1 -1    0    0  502    0 0.00000000E+00 0.00000000E+00 -.39373163E+03 0.39373176E+03 0.32000000E+00 0.0000E+00 0.9000E+01
       25  1    1    2    0    0 -.33379794E+03 0.30181985E+03 0.40729146E+02 0.46882849E+03 0.12500000E+03 0.0000E+00 0.9000E+01
       -3  1    1    2    0  501 0.42351702E+02 -.21429288E+02 0.72433343E+03 0.72588708E+03 0.50000000E+00 0.0000E+00 0.9000E+01
        1  1    1    2  502    0 0.29144624E+03 -.28039056E+03 0.49651308E+02 0.40746182E+03 0.32000000E+00 0.0000E+00 0.9000E+01
#aMCatNLO 1  0  0  2  5 0.57295750D+02 0.00000000D+00  -5  6  0 0.00000000D+00 0.00000000D+00 0.00000000D+00 0.00000000D+00 0.00000000D+00
  <mgrwgt>
 -.7715678011D-03    5    2    0
 0.689785047469943D+03 0.000000000000000D+00 0.000000000000000D+00 0.689785047469943D+03
 0.689785047469943D+03 0.000000000000000D+00 0.000000000000000D+00 -.689785047469943D+03
 0.520487574174764D+03 -.333893901626671D+03 0.301913565776589D+03 -.229445802155791D+03
 0.415077355891151D+03 0.423334686203852D+02 -.214200623779566D+02 0.412356968821772D+03
 0.444005164873971D+03 0.291560433006286D+03 -.280493503398633D+03 -.182911166665981D+03
 0.000000000000000D+00 -.000000000000000D+00 0.000000000000000D+00 -.000000000000000D+00
 0.691326470878446D+03 0.000000000000000D+00 0.000000000000000D+00 0.691326470878446D+03
 0.210730919740492D+04 0.000000000000000D+00 0.000000000000000D+00 -.210730919740492D+04
 0.499771716238003D+03 -.314285359655321D+03 0.287621461179255D+03 -.229445802155791D+03
 0.417775771677242D+03 0.583402187292603D+02 -.330869240525105D+02 0.412356968821772D+03
 0.463584085663387D+03 0.309003549750372D+03 -.293207291571880D+03 -.182911166665981D+03
 0.141750409470473D+04 -.530584088243119D+02 0.386727544451356D+02 -.141598272652647D+04
0.315910612852D-04 0.000000000000D+00 0.000000000000D+00 0.238407450984D-05 0.000000000000D+00  6 -3 1 25 -3 1 21 0 0.18591471D+00 0.60574115D-01 0.21123589D+06 0.21123589D+06 0.21123589D+06 0.10960069D+01  1  2  2  2  6  2        1 0.158524196383D-04 0.100000000000D+01
0.113108979284D-04 0.000000000000D+00 -.121317993453D-06 0.238407450984D-05 0.000000000000D+00  6 -3 1 25 -3 1 21 2 0.18591471D+00 0.60574115D-01 0.21123589D+06 0.21123589D+06 0.21123589D+06 0.10960069D+01  1  2  3  2  6  2        1 0.681796878634D-05 0.100000000000D+01
-.201793244545D-04 0.000000000000D+00 0.000000000000D+00 0.238407450984D-05 0.000000000000D+00  6 -3 1 25 -3 1 21 2 0.18591471D+00 0.60574115D-01 0.21123589D+06 0.21123589D+06 0.21123589D+06 0.10960069D+01  1  2 15  2  6  2        1 -.121636677415D-04 0.100000000000D+01
-.649444714779D-02 0.000000000000D+00 -.213800774222D-04 0.238407450984D-05 0.000000000000D+00  6 -3 1 25 -3 1 21 2 0.18591471D+00 0.18514006D+00 0.21123589D+06 0.21123589D+06 0.21123589D+06 0.10960069D+01  1  2  5  2  6  2        1 -.688970151142D-03 0.100000000000D+01
-.827460911691D-03 0.000000000000D+00 -.272743773558D-05 0.238407450984D-05 0.000000000000D+00  6 -3 21 25 -3 1 -1 2 0.18591471D+00 0.18514006D+00 0.21123589D+06 0.21123589D+06 0.21123589D+06 0.10960069D+01  1  2  5  6  6  2        1 -.931043706272D-04 0.100000000000D+01
  </mgrwgt>
  </event>
  <event>
  5     66 0.16122213E-05 0.22911508E+02 0.75467711E-02 0.91151432E-01
       -3 -1    0    0    0  501 0.00000000E+00 0.00000000E+00 0.63418958E+03 0.63418978E+03 0.50000000E+00 0.0000E+00 0.9000E+01
        1 -1    0    0  502    0 -.00000000E+00 -.00000000E+00 -.20742567E+04 0.20742567E+04 0.32000000E+00 0.0000E+00 0.9000E+01
       25  1    1    2    0    0 0.26379460E+03 0.44027298E+03 -.10327136E+04 0.11599785E+04 0.12500000E+03 0.0000E+00 0.9000E+01
       -3  1    1    2    0  501 -.28432125E+03 -.43009715E+03 0.45389883E+03 0.68691086E+03 0.50000000E+00 0.0000E+00 0.9000E+01
        1  1    1    2  502    0 0.20526647E+02 -.10175826E+02 -.86125239E+03 0.86155712E+03 0.32000000E+00 0.0000E+00 0.9000E+01
#aMCatNLO 1  0  0  4  1 0.66095952D+02 0.00000000D+00  -5  6  0 0.00000000D+00 0.00000000D+00 0.00000000D+00 0.00000000D+00 0.00000000D+00
  <mgrwgt>
 0.6752267938D-03    6    2    0
 0.114694040806608D+04 0.000000000000000D+00 0.000000000000000D+00 0.114694040806608D+04
 0.114694040806608D+04 -.000000000000000D+00 -.000000000000000D+00 -.114694040806608D+04
 0.721274062912806D+03 0.263792786768012D+03 0.440272126404640D+03 -.491105990791244D+03
 0.109600145223804D+04 -.284320213712884D+03 -.430095586637424D+03 0.967160268899195D+03
 0.476605300981318D+03 0.205274269448714D+02 -.101765397672161D+02 -.476054278107950D+03
 0.000000000000000D+00 0.000000000000000D+00 0.000000000000000D+00 0.000000000000000D+00
 0.114694040806608D+04 0.000000000000000D+00 0.000000000000000D+00 0.114694040806608D+04
 0.114694040806608D+04 -.000000000000000D+00 -.000000000000000D+00 -.114694040806608D+04
 0.621365697880696D+03 0.235753888086355D+03 0.397857250516384D+03 -.395727233036183D+03
 0.712324835191772D+03 -.386621992297972D+03 -.513686751846590D+03 0.306685550490778D+03
 0.414529808761399D+03 0.191748570569931D+01 -.383280858357362D+02 -.412749613490430D+03
 0.545660474298298D+03 0.148950618505918D+03 0.154157587165942D+03 0.501791296035835D+03
0.344807864311D-02 0.000000000000D+00 0.000000000000D+00 0.585264314636D-04 0.000000000000D+00  6 -3 1 25 -3 1 21 0 0.97567645D-01 0.31911643D+00 0.28448462D+06 0.28448462D+06 0.28448462D+06 0.10862623D+01  1  2  2  3  6  4       -3 0.593089189150D-03 0.100000000000D+01
0.197658321040D-02 0.000000000000D+00 -.132415298895D-04 0.585264314636D-04 0.000000000000D+00  6 -3 1 25 -3 1 21 2 0.97567645D-01 0.31911643D+00 0.28448462D+06 0.28448462D+06 0.28448462D+06 0.10862623D+01  1  2  3  3  6  4       -3 0.401168967852D-03 0.100000000000D+01
-.227449587484D-02 0.000000000000D+00 0.000000000000D+00 0.585264314636D-04 0.000000000000D+00  6 -3 1 25 -3 1 21 2 0.97567645D-01 0.31911643D+00 0.28448462D+06 0.28448462D+06 0.28448462D+06 0.10862623D+01  1  2 15  3  6  4       -3 -.461633569330D-03 0.100000000000D+01
-.874114386378D-04 0.000000000000D+00 0.000000000000D+00 0.585264314636D-04 0.000000000000D+00  6 -3 1 25 -3 1 21 2 0.97567645D-01 0.31911643D+00 0.28448462D+06 0.28448462D+06 0.28448462D+06 0.10862623D+01  1  2  4  3  6  4       -3 -.177410980890D-04 0.100000000000D+01
-.132272943981D-02 0.000000000000D+00 0.000000000000D+00 0.585264314636D-04 0.000000000000D+00  6 -3 1 25 -3 1 21 2 0.97567645D-01 0.31911643D+00 0.28448462D+06 0.28448462D+06 0.28448462D+06 0.10862623D+01  1  2  5  3  6  4       -3 -.268462264237D-03 0.100000000000D+01
0.211275037459D-02 0.000000000000D+00 -.000000000000D+00 0.585264314636D-04 0.000000000000D+00  6 -3 1 25 -3 1 21 2 0.97567645D-01 0.31911643D+00 0.28448462D+06 0.28448462D+06 0.28448462D+06 0.10862623D+01  1  2  6  3  6  4       -3 0.428805568441D-03 0.100000000000D+01
  </mgrwgt>
  </event>
  <event>
  6     66 0.16122213E-05 0.13615999E+03 0.75467711E-02 0.92041881E-01
       -3 -1    0    0    0  501 0.00000000E+00 0.00000000E+00 0.37220990E+03 0.37221024E+03 0.50000000E+00 0.0000E+00 0.9000E+01
        1 -1    0    0  503    0 0.00000000E+00 0.00000000E+00 -.30143649E+04 0.30143649E+04 0.32000000E+00 0.0000E+00 0.9000E+01
       25  1    1    2    0    0 -.58421276E+03 0.19212512E+03 -.28927390E+03 0.69102895E+03 0.12500000E+03 0.0000E+00 0.9000E+01
       -3  1    1    2    0  501 0.13057058E+02 -.43986095E+02 0.11597208E+03 0.12471984E+03 0.50000000E+00 0.0000E+00 0.9000E+01
        1  1    1    2  502    0 0.41521911E+03 -.11671226E+03 -.94596974E+03 0.10396574E+04 0.32000000E+00 0.0000E+00 0.9000E+01
       21  1    1    2  503  502 0.15593660E+03 -.31426761E+02 -.15228834E+04 0.15311690E+04 0.75000000E+00 0.0000E+00 0.9000E+01
#aMCatNLO 2  0  0  2  1 0.15907188D+03 0.00000000D+00  -5  6  0 0.00000000D+00 0.00000000D+00 0.00000000D+00 0.00000000D+00 0.00000000D+00
  <mgrwgt>
 0.1766172613D-03    1    2    0
 0.735605094907647D+03 0.000000000000000D+00 0.000000000000000D+00 0.735605094907647D+03
 0.735605094907647D+03 0.000000000000000D+00 0.000000000000000D+00 -.735605094907647D+03
 0.585575891252250D+03 -.519183705875151D+03 0.178993308088451D+03 0.160261659885217D+03
 0.247521306734602D+03 0.390015690154407D+02 -.491613019458932D+02 0.239434419607799D+03
 0.638112991828442D+03 0.480182136859710D+03 -.129832006142558D+03 -.399696079493016D+03
 0.000000000000000D+00 0.000000000000000D+00 -.000000000000000D+00 -.000000000000000D+00
 0.748220078594127D+03 0.000000000000000D+00 0.000000000000000D+00 0.748220078594127D+03
 0.149952739408669D+04 0.000000000000000D+00 0.000000000000000D+00 -.149952739408669D+04
 0.647841672310965D+03 -.584360005429677D+03 0.192128646504706D+03 0.160261659885217D+03
 0.243779941721128D+03 0.130402090617543D+02 -.439291661684918D+02 0.239434419607799D+03
 0.588163264407265D+03 0.415383198548722D+03 -.116772719414922D+03 -.399696079493016D+03
 0.767962594241463D+03 0.155936597819201D+03 -.314267609212916D+02 -.751307315492567D+03
0.118243781351D-02 0.000000000000D+00 0.000000000000D+00 0.990501171434D-06 0.105603720285D-08  6 -3 1 25 -3 1 21 2 0.57263075D-01 0.46374836D+00 0.39947871D+06 0.39947871D+06 0.39947871D+06 0.10754685D+01  1  2  1  2  6  2        1 0.176617261314D-03 0.100000000000D+01
  </mgrwgt>
  </event>
  <event>
  5     66 0.16122213E-05 0.72589319E+02 0.75467711E-02 0.91235580E-01
       -3 -1    0    0    0  501 0.00000000E+00 0.00000000E+00 0.68972260E+03 0.68972278E+03 0.50000000E+00 0.0000E+00 0.9000E+01
        1 -1    0    0  502    0 0.00000000E+00 0.00000000E+00 -.22132370E+04 0.22132370E+04 0.32000000E+00 0.0000E+00 0.9000E+01
       25  1    1    2    0    0 -.29120419E+03 0.50209669E+03 -.82291572E+03 0.10147494E+04 0.12500000E+03 0.0000E+00 0.9000E+01
       -3  1    1    2    0  501 -.68047126E+02 0.25299922E+02 0.51244361E+03 0.51756082E+03 0.50000000E+00 0.0000E+00 0.9000E+01
        1  1    1    2  502    0 0.35925131E+03 -.52739661E+03 -.12130423E+04 0.13706496E+04 0.32000000E+00 0.0000E+00 0.9000E+01
#aMCatNLO 1  0  0  2  4 0.81269192D+02 0.00000000D+00  -5  6  0 0.00000000D+00 0.00000000D+00 0.00000000D+00 0.00000000D+00 0.00000000D+00
  <mgrwgt>
 0.6328097950D-03    7    2    0
 0.123552411814017D+04 0.000000000000000D+00 0.000000000000000D+00 0.123552411814017D+04
 0.123552411814017D+04 0.000000000000000D+00 0.000000000000000D+00 -.123552411814017D+04
 0.684826643471750D+03 -.291269688478230D+03 0.502193946849805D+03 -.341065594761467D+03
 0.923856544843896D+03 -.680388098502722D+02 0.252968302556588D+02 0.921000383378898D+03
 0.862365047964696D+03 0.359308498328502D+03 -.527490777105464D+03 -.579934788617431D+03
 0.000000000000000D+00 -.000000000000000D+00 0.000000000000000D+00 -.000000000000000D+00
 0.126988662676452D+04 0.000000000000000D+00 0.000000000000000D+00 0.126988662676452D+04
 0.128519632056547D+04 0.000000000000000D+00 0.000000000000000D+00 -.128519632056547D+04
 0.668431852460361D+03 -.272259276278765D+03 0.490637634037341D+03 -.341065594761467D+03
 0.922011771406975D+03 -.421082742849362D+02 0.953381695307626D+01 0.921000383378898D+03
 0.881940664133764D+03 0.383812294675283D+03 -.542386484400242D+03 -.579934788617431D+03
 0.826986593288829D+02 -.694447441115823D+02 0.422150334098247D+02 -.153096938009511D+02
0.137136222613D-02 0.000000000000D+00 0.000000000000D+00 0.662157311040D-05 0.000000000000D+00  6 -3 1 25 -3 1 21 0 0.10611118D+00 0.34049801D+00 0.42554861D+06 0.42554861D+06 0.42554861D+06 0.10734946D+01  1  2  2  2  6  2        1 0.148155027842D-03 0.100000000000D+01
0.545223305013D-03 0.000000000000D+00 -.526639203630D-05 0.662157311040D-05 0.000000000000D+00  6 -3 1 25 -3 1 21 2 0.10611118D+00 0.34049801D+00 0.42554861D+06 0.42554861D+06 0.42554861D+06 0.10734946D+01  1  2  3  2  6  2        1 0.678794502707D-04 0.100000000000D+01
-.975874851727D-03 0.000000000000D+00 0.000000000000D+00 0.662157311040D-05 0.000000000000D+00  6 -3 1 25 -3 1 21 2 0.10611118D+00 0.34049801D+00 0.42554861D+06 0.42554861D+06 0.42554861D+06 0.10734946D+01  1  2 15  2  6  2        1 -.121494895503D-03 0.100000000000D+01
-.320174577876D-03 0.000000000000D+00 0.000000000000D+00 0.662157311040D-05 0.000000000000D+00  6 -3 1 25 -3 1 21 2 0.10611118D+00 0.34049801D+00 0.42554861D+06 0.42554861D+06 0.42554861D+06 0.10734946D+01  1  2  4  2  6  2        1 -.398612350886D-04 0.100000000000D+01
-.267322550557D-01 0.000000000000D+00 -.516387909424D-02 0.662157311040D-05 0.000000000000D+00  6 -3 1 25 -3 1 21 2 0.10611118D+00 0.35851178D+00 0.42554861D+06 0.42554861D+06 0.42554861D+06 0.10734946D+01  1  2  5  2  6  2        1 -.277024748106D-02 0.100000000000D+01
0.269694734501D-01 0.000000000000D+00 0.515702483384D-02 0.662157311040D-05 0.000000000000D+00  6 -3 1 25 -3 1 21 2 0.10611118D+00 0.34049801D+00 0.42554861D+06 0.42554861D+06 0.42554861D+06 0.10734946D+01  1  2  6  2  6  2        1 0.335765733976D-02 0.100000000000D+01
-.234723553148D-03 0.000000000000D+00 -.462729007664D-04 0.662157311040D-05 0.000000000000D+00  6 -3 21 25 -3 1 -1 2 0.10611118D+00 0.35851178D+00 0.42554861D+06 0.42554861D+06 0.42554861D+06 0.10734946D+01  1  2  5  6  6  2        1 -.927841121342D-05 0.100000000000D+01
  </mgrwgt>
  </event>
  <event>
  5     66 0.16122213E-05 0.24253179E+02 0.75467711E-02 0.94869635E-01
       -3 -1    0    0    0  501 0.00000000E+00 0.00000000E+00 0.12622959E+04 0.12622960E+04 0.50000000E+00 0.0000E+00 0.9000E+01
        1 -1    0    0  502    0 0.00000000E+00 0.00000000E+00 -.16111350E+04 0.16111351E+04 0.32000000E+00 0.0000E+00 0.9000E+01
       25  1    1    2    0    0 -.35819358E+03 0.30524235E+03 0.36297577E+03 0.60733182E+03 0.12500000E+03 0.0000E+00 0.9000E+01
       -3  1    1    2    0  501 0.18428108E+02 0.15776555E+02 0.74025276E+03 0.74065032E+03 0.50000000E+00 0.0000E+00 0.9000E+01
        1  1    1    2  502    0 0.33976548E+03 -.32101891E+03 -.14520677E+04 0.15254489E+04 0.32000000E+00 0.0000E+00 0.9000E+01
#aMCatNLO 1  0  0  2  5 0.38193168D+02 0.00000000D+00  -5  6  0 0.00000000D+00 0.00000000D+00 0.00000000D+00 0.00000000D+00 0.00000000D+00
  <mgrwgt>
 0.5133243433D-02    5    2    0
 0.142608881222333D+04 0.000000000000000D+00 0.000000000000000D+00 0.142608881222333D+04
 0.142608881222333D+04 0.000000000000000D+00 0.000000000000000D+00 -.142608881222333D+04
 0.656432849063978D+03 -.358247325926428D+03 0.305300029900342D+03 0.440147509977809D+03
 0.836508998822321D+03 0.184237525133513D+02 0.157728257089992D+02 0.836157334730255D+03
 0.135923577656036D+04 0.339823573413077D+03 -.321072855609341D+03 -.127630484470806D+04
 0.000000000000000D+00 -.000000000000000D+00 0.000000000000000D+00 -.000000000000000D+00
 0.304299773167363D+04 0.000000000000000D+00 0.000000000000000D+00 0.304299773167363D+04
 0.461902019219703D+04 0.000000000000000D+00 0.000000000000000D+00 -.461902019219703D+04
 0.565517588693672D+03 0.175426598521686D+03 0.282277914675149D+03 0.440147509977809D+03
 0.125090435605670D+04 0.930079448703405D+03 -.235550138610060D+02 0.836157334730255D+03
 0.238335869466396D+04 0.197436210898683D+04 -.391585078114706D+03 -.127630484470806D+04
 0.346223728445632D+04 -.307986815621192D+04 0.132862177300562D+03 -.157602246052340D+04
0.134237342259D+00 0.000000000000D+00 0.000000000000D+00 0.330258329112D-03 0.000000000000D+00  6 -3 1 25 -3 1 21 0 0.19419938D+00 0.24786694D+00 0.23949815D+06 0.23949815D+06 0.23949815D+06 0.10918640D+01  1  2  2  2  6  2        1 0.513478516906D-02 0.100000000000D+01
0.858915586782D-01 0.000000000000D+00 -.515506739777D-03 0.330258329112D-03 0.000000000000D+00  6 -3 1 25 -3 1 21 2 0.19419938D+00 0.24786694D+00 0.23949815D+06 0.23949815D+06 0.23949815D+06 0.10918640D+01  1  2  3  2  6  2        1 0.391684614031D-02 0.100000000000D+01
-.859466111307D-01 0.000000000000D+00 0.000000000000D+00 0.330258329112D-03 0.000000000000D+00  6 -3 1 25 -3 1 21 2 0.19419938D+00 0.24786694D+00 0.23949815D+06 0.23949815D+06 0.23949815D+06 0.10918640D+01  1  2 15  2  6  2        1 -.391935665461D-02 0.100000000000D+01
0.190535640082D+00 0.000000000000D+00 -.764699578296D-01 0.330258329112D-03 0.000000000000D+00  6 -3 1 25 -3 1 21 2 0.19419938D+00 0.86282895D+00 0.23949815D+06 0.23949815D+06 0.23949815D+06 0.10918640D+01  1  2  5  2  6  2        1 0.965558347451D-06 0.100000000000D+01
0.302787133176D-01 0.000000000000D+00 -.111488984122D-01 0.330258329112D-03 0.000000000000D+00  6 -3 21 25 -3 1 -1 2 0.19419938D+00 0.86282895D+00 0.23949815D+06 0.23949815D+06 0.23949815D+06 0.10918640D+01  1  2  5  6  6  2        1 0.321994140750D-08 0.100000000000D+01
  </mgrwgt>
  </event>
  <event>
  5     66 0.16122213E-05 0.23132796E+02 0.75467711E-02 0.90002674E-01
       -3 -1    0    0    0  501 0.00000000E+00 0.00000000E+00 0.40807777E+03 0.40807807E+03 0.50000000E+00 0.0000E+00 0.9000E+01
        1 -1    0    0  502    0 0.00000000E+00 0.00000000E+00 -.23569752E+04 0.23569752E+04 0.32000000E+00 0.0000E+00 0.9000E+01
       25  1    1    2    0    0 0.63558662E+03 -.29105063E+03 -.11614251E+04 0.13613280E+04 0.12500000E+03 0.0000E+00 0.9000E+01
       -3  1    1    2    0  501 -.65865944E+03 0.28941518E+03 -.11229409E+03 0.72815082E+03 0.50000000E+00 0.0000E+00 0.9000E+01
        1  1    1    2  502    0 0.23072815E+02 0.16354449E+01 -.67517828E+03 0.67557445E+03 0.32000000E+00 0.0000E+00 0.9000E+01
#aMCatNLO 1  0  0  2  2 0.86182027D+02 0.00000000D+00  -5  6  0 0.00000000D+00 0.00000000D+00 0.00000000D+00 0.00000000D+00 0.00000000D+00
  <mgrwgt>
 0.7638105466D-03    7    2    0
 0.980729134486978D+03 0.000000000000000D+00 0.000000000000000D+00 0.980729134486978D+03
 0.980729134486978D+03 0.000000000000000D+00 0.000000000000000D+00 -.980729134486978D+03
 0.765037710614116D+03 0.635575574215635D+03 -.291047045280638D+03 -.284592701163549D+03
 0.914881274759229D+03 -.658650460819009D+03 0.289411239331461D+03 0.565180017265833D+03
 0.281539283600611D+03 0.230748866033744D+02 0.163580594917738D+01 -.280587316102284D+03
 0.000000000000000D+00 0.000000000000000D+00 0.000000000000000D+00 -.000000000000000D+00
 0.993335441626882D+03 0.000000000000000D+00 0.000000000000000D+00 0.993335441626882D+03
 0.114092225630843D+04 0.000000000000000D+00 0.000000000000000D+00 -.114092225630843D+04
 0.750200014451765D+03 0.608295378644023D+03 -.310094805580790D+03 -.284592701163549D+03
 0.932212174808501D+03 -.691905355222499D+03 0.266191784920228D+03 0.565180017265833D+03
 0.280938488205255D+03 0.129480904144258D+02 -.543499330184830D+01 -.280587316102284D+03
 0.170907020469794D+03 0.706618861640499D+02 0.493380139624101D+02 -.147586814681551D+03
0.355565193486D-03 0.000000000000D+00 0.000000000000D+00 0.307731355001D-05 0.000000000000D+00  6 -3 1 25 -3 1 21 0 0.62781220D-01 0.36261160D+00 0.52758157D+06 0.52758157D+06 0.52758157D+06 0.10668662D+01  1  2  2  2  6  2        1 0.108549923794D-03 0.100000000000D+01
0.208400927463D-03 0.000000000000D+00 -.136546396545D-05 0.307731355001D-05 0.000000000000D+00  6 -3 1 25 -3 1 21 2 0.62781220D-01 0.36261160D+00 0.52758157D+06 0.52758157D+06 0.52758157D+06 0.10668662D+01  1  2  3  2  6  2        1 0.724152158065D-04 0.100000000000D+01
-.241836726040D-03 0.000000000000D+00 0.000000000000D+00 0.307731355001D-05 0.000000000000D+00  6 -3 1 25 -3 1 21 2 0.62781220D-01 0.36261160D+00 0.52758157D+06 0.52758157D+06 0.52758157D+06 0.10668662D+01  1  2 15  2  6  2        1 -.840334969682D-04 0.100000000000D+01
-.128400165606D-04 0.000000000000D+00 0.000000000000D+00 0.307731355001D-05 0.000000000000D+00  6 -3 1 25 -3 1 21 2 0.62781220D-01 0.36261160D+00 0.52758157D+06 0.52758157D+06 0.52758157D+06 0.10668662D+01  1  2  4  2  6  2        1 -.446165274558D-05 0.100000000000D+01
-.406053757896D-02 0.000000000000D+00 -.457904562309D-03 0.307731355001D-05 0.000000000000D+00  6 -3 1 25 -3 1 21 2 0.62781220D-01 0.42336746D+00 0.52758157D+06 0.52758157D+06 0.52758157D+06 0.10668662D+01  1  2  5  2  6  2        1 -.744570601482D-03 0.100000000000D+01
0.408776611287D-02 0.000000000000D+00 0.452464898417D-03 0.307731355001D-05 0.000000000000D+00  6 -3 1 25 -3 1 21 2 0.62781220D-01 0.36261160D+00 0.52758157D+06 0.52758157D+06 0.52758157D+06 0.10668662D+01  1  2  6  2  6  2        1 0.142041817584D-02 0.100000000000D+01
-.916965518863D-04 0.000000000000D+00 -.107202556825D-04 0.307731355001D-05 0.000000000000D+00  6 -3 21 25 -3 1 -1 2 0.62781220D-01 0.42336746D+00 0.52758157D+06 0.52758157D+06 0.52758157D+06 0.10668662D+01  1  2  5  6  6  2        1 -.450701763554D-05 0.100000000000D+01
  </mgrwgt>
  </event>
  <event>
  5     66 -.16122213E-05 0.15961099E+02 0.75467711E-02 0.91254040E-01
       -1 -1    0    0    0  501 0.00000000E+00 0.00000000E+00 0.78364131E+03 0.78364138E+03 0.32000000E+00 0.0000E+00 0.9000E+01
        3 -1    0    0  502    0 0.00000000E+00 0.00000000E+00 -.96412921E+03 0.96412934E+03 0.50000000E+00 0.0000E+00 0.9000E+01
       25  1    1    2    0    0 -.28721700E+03 0.59661177E+03 0.35549673E+03 0.76186753E+03 0.12500000E+03 0.0000E+00 0.9000E+01
       -1  1    1    2    0  501 0.79962222E+01 0.13874857E+02 0.75901649E+02 0.77573282E+02 0.32000000E+00 0.0000E+00 0.9000E+01
        3  1    1    2  502    0 0.27922077E+03 -.61048663E+03 -.61188628E+03 0.90832991E+03 0.50000000E+00 0.0000E+00 0.9000E+01
#aMCatNLO 1  0  0  2  2 0.86182027D+02 0.00000000D+00  -5  6  0 0.00000000D+00 0.00000000D+00 0.00000000D+00 0.00000000D+00 0.00000000D+00
  <mgrwgt>
 -.2302445378D-05    1    2    0
 0.869213238927459D+03 0.000000000000000D+00 0.000000000000000D+00 0.869213238927459D+03
 0.869213238927459D+03 0.000000000000000D+00 0.000000000000000D+00 -.869213238927459D+03
 0.803106403747625D+03 -.287247742373282D+03 0.596759806230063D+03 0.436716571600108D+03
 0.855857858106843D+02 0.796976031643921D+01 0.138289410110864D+02 0.840843031953214D+02
 0.849734288296608D+03 0.279277982056842D+03 -.610588747241150D+03 -.520800874795430D+03
 0.000000000000000D+00 0.000000000000000D+00 0.000000000000000D+00 -.000000000000000D+00
 0.874397207119476D+03 0.000000000000000D+00 0.000000000000000D+00 0.874397207119476D+03
 0.881379429512599D+03 0.000000000000000D+00 0.000000000000000D+00 -.881379429512599D+03
 0.798001698320113D+03 -.287973551811058D+03 0.589518091383933D+03 0.436716571600108D+03
 0.854569994003324D+02 0.789222372312026D+01 0.130553248665010D+02 0.840843031953214D+02
 0.855039622011959D+03 0.278505179151293D+03 -.618299336251119D+03 -.520800874795430D+03
 0.172783168996713D+02 0.157614893664474D+01 0.157259200006854D+02 -.698222239312253D+01
-.145864387187D-04 0.000000000000D+00 0.000000000000D+00 0.841401119701D-06 0.000000000000D+00  6 -1 3 25 -1 3 21 2 0.12056022D+00 0.14832759D+00 0.46333587D+06 0.46333587D+06 0.46333587D+06 0.10708558D+01  1  2 14  2  6  2        3 -.230244537832D-05 0.100000000000D+01
  </mgrwgt>
  </event>
  <event>
  6     66 -.16122213E-05 0.15626340E+03 0.75467711E-02 0.92904344E-01
       -3 -1    0    0    0  503 0.00000000E+00 0.00000000E+00 0.12817385E+04 0.12817386E+04 0.50000000E+00 0.0000E+00 0.9000E+01
        1 -1    0    0  502    0 0.00000000E+00 0.00000000E+00 -.36410644E+03 0.36410658E+03 0.32000000E+00 0.0000E+00 0.9000E+01
       25  1    1    2    0    0 -.54235615E+03 0.76264254E+02 0.65299326E+03 0.86138936E+03 0.12500000E+03 0.0000E+00 0.9000E+01
       -3  1    1    2    0  501 0.16437667E+03 0.42199318E+02 0.15128188E+03 0.22734759E+03 0.50000000E+00 0.0000E+00 0.9000E+01
        1  1    1    2  502    0 0.39722625E+03 -.10071577E+03 -.30459738E+02 0.41092610E+03 0.32000000E+00 0.0000E+00 0.9000E+01
       21  1    1    2  501  503 -.19246765E+02 -.17747800E+02 0.14381670E+03 0.14618218E+03 0.75000000E+00 0.0000E+00 0.9000E+01
#aMCatNLO 2  0  0  1  4 0.26180572D+02 0.00000000D+00  -5  6  0 0.00000000D+00 0.00000000D+00 0.00000000D+00 0.00000000D+00 0.00000000D+00
  <mgrwgt>
 -.2638377771D-05    2    2    0
 0.642166950783611D+03 0.000000000000000D+00 0.000000000000000D+00 0.642166950783611D+03
 0.642166950783611D+03 0.000000000000000D+00 0.000000000000000D+00 -.642166950783611D+03
 0.619490695394970D+03 -.551477205096574D+03 0.678604210905744D+02 0.243744901873301D+03
 0.170912704126101D+03 0.161450932075291D+03 0.397291560823089D+02 0.395770529562700D+02
 0.493930502046150D+03 0.390026273021283D+03 -.107589577172883D+03 -.283321954829571D+03
 0.000000000000000D+00 -.000000000000000D+00 -.000000000000000D+00 0.000000000000000D+00
 0.724228612283720D+03 0.000000000000000D+00 0.000000000000000D+00 0.724228612283720D+03
 0.644391889036906D+03 0.000000000000000D+00 0.000000000000000D+00 -.644391889036906D+03
 0.612292807274253D+03 -.542248535765467D+03 0.763703483740109D+02 0.243744901873301D+03
 0.173916685298869D+03 0.164034435104642D+03 0.421114521780428D+02 0.395770529562700D+02
 0.498391220911097D+03 0.397460866057642D+03 -.100734000940663D+03 -.283321954829571D+03
 0.840197878364054D+02 -.192467653968175D+02 -.177477996113910D+02 0.798367232468139D+02
-.162056325678D-04 0.000000000000D+00 0.000000000000D+00 0.514964665521D-08 0.000000000000D+00  6 -3 1 25 -3 1 21 2 0.20024088D+00 0.55822838D-01 0.34061665D+06 0.34061665D+06 0.34061665D+06 0.10804955D+01  1  2 13  1  6  1       -3 -.744744076254D-05 0.100000000000D+01
0.979078642351D-05 0.000000000000D+00 0.000000000000D+00 0.514964665521D-08 0.271712308710D-10  6 -3 1 25 -3 1 21 2 0.19719005D+00 0.56016249D-01 0.34061665D+06 0.34061665D+06 0.34061665D+06 0.10804955D+01  1  2  1  1  6  1       -3 0.480906299116D-05 0.100000000000D+01
  </mgrwgt>
  </event>
  <event>
  5     66 0.16122213E-05 0.78163371E+02 0.75467711E-02 0.91930603E-01
       -3 -1    0    0    0  501 0.00000000E+00 0.00000000E+00 0.19547168E+03 0.19547232E+03 0.50000000E+00 0.0000E+00 0.9000E+01
        1 -1    0    0  502    0 -.00000000E+00 -.00000000E+00 -.28094506E+04 0.28094506E+04 0.32000000E+00 0.0000E+00 0.9000E+01
       25  1    1    2    0    0 -.29288455E+03 0.48192824E+03 -.83363519E+03 0.10142035E+04 0.12500000E+03 0.0000E+00 0.9000E+01
       -3  1    1    2    0  501 -.67466108E+02 -.39681318E+02 0.36540498E+02 0.86381368E+02 0.50000000E+00 0.0000E+00 0.9000E+01
        1  1    1    2  502    0 0.36035066E+03 -.44224692E+03 -.18168842E+04 0.19043380E+04 0.32000000E+00 0.0000E+00 0.9000E+01
#aMCatNLO 1  0  0  4  5 0.42246575D+02 0.00000000D+00  -5  6  0 0.00000000D+00 0.00000000D+00 0.00000000D+00 0.00000000D+00 0.00000000D+00
  <mgrwgt>
 0.7618590078D-04    6    2    0
 0.741059384604401D+03 0.000000000000000D+00 0.000000000000000D+00 0.741059384604401D+03
 0.741059384604401D+03 -.000000000000000D+00 -.000000000000000D+00 -.741059384604401D+03
 0.586202703216286D+03 -.293060151446685D+03 0.482043833096575D+03 0.987830950400373D+02
 0.239250955812631D+03 -.673737037309225D+02 -.396269689749511D+02 0.226122770265831D+03
 0.656665110179884D+03 0.360433855177608D+03 -.442416864121624D+03 -.324905865305868D+03
 0.000000000000000D+00 0.000000000000000D+00 -.000000000000000D+00 0.000000000000000D+00
 0.741059384604401D+03 0.000000000000000D+00 0.000000000000000D+00 0.741059384604401D+03
 0.741059384604401D+03 -.000000000000000D+00 -.000000000000000D+00 -.741059384604401D+03
 0.588308991766581D+03 -.296471545993111D+03 0.480037364424577D+03 0.110232576701135D+03
 0.476054147095075D+02 -.666083266799895D+01 0.379994577226543D+02 0.278917556029972D+02
 0.649887376069999D+03 0.356638945305487D+03 -.444648903737047D+03 -.312169211601625D+03
 0.196316986662713D+03 -.535065666443777D+02 -.733879184101843D+02 0.174044879297493D+03
0.242755631074D-03 0.000000000000D+00 0.000000000000D+00 0.250127302656D-06 0.000000000000D+00  6 -3 1 25 -3 1 21 0 0.30072617D-01 0.43222322D+00 0.37615918D+06 0.37615918D+06 0.37615918D+06 0.10773569D+01  1  2  2  3  6  4       -3 0.164631468281D-03 0.100000000000D+01
0.454315939533D-04 0.000000000000D+00 -.932245542349D-06 0.250127302656D-06 0.000000000000D+00  6 -3 1 25 -3 1 21 2 0.30072617D-01 0.43222322D+00 0.37615918D+06 0.37615918D+06 0.37615918D+06 0.10773569D+01  1  2  3  3  6  4       -3 0.357619074315D-04 0.100000000000D+01
-.174613785868D-03 0.000000000000D+00 0.000000000000D+00 0.250127302656D-06 0.000000000000D+00  6 -3 1 25 -3 1 21 2 0.30072617D-01 0.43222322D+00 0.37615918D+06 0.37615918D+06 0.37615918D+06 0.10773569D+01  1  2 15  3  6  4       -3 -.137448887505D-03 0.100000000000D+01
-.813317740894D-04 0.000000000000D+00 0.000000000000D+00 0.250127302656D-06 0.000000000000D+00  6 -3 1 25 -3 1 21 2 0.30072617D-01 0.43222322D+00 0.37615918D+06 0.37615918D+06 0.37615918D+06 0.10773569D+01  1  2  4  3  6  4       -3 -.640210726309D-04 0.100000000000D+01
-.601041574628D-04 0.000000000000D+00 0.000000000000D+00 0.250127302656D-06 0.000000000000D+00  6 -3 1 25 -3 1 21 2 0.30072617D-01 0.43222322D+00 0.37615918D+06 0.37615918D+06 0.37615918D+06 0.10773569D+01  1  2  5  3  6  4       -3 -.473115541057D-04 0.100000000000D+01
0.158257698690D-03 0.000000000000D+00 -.000000000000D+00 0.250127302656D-06 0.000000000000D+00  6 -3 1 25 -3 1 21 2 0.30072617D-01 0.43222322D+00 0.37615918D+06 0.37615918D+06 0.37615918D+06 0.10773569D+01  1  2  6  3  6  4       -3 0.124574039306D-03 0.100000000000D+01
  </mgrwgt>
  </event>
  <event>
  5     66 0.16122213E-05 0.42495509E+02 0.75467711E-02 0.93980777E-01
       -3 -1    0    0    0  501 0.00000000E+00 0.00000000E+00 0.53959323E+03 0.53959346E+03 0.50000000E+00 0.0000E+00 0.9000E+01
        1 -1    0    0  502    0 0.00000000E+00 0.00000000E+00 -.19979728E+04 0.19979728E+04 0.32000000E+00 0.0000E+00 0.9000E+01
       25  1    1    2    0    0 -.37839214E+03 0.31962997E+03 0.31930930E+03 0.60243453E+03 0.12500000E+03 0.0000E+00 0.9000E+01
       -3  1    1    2    0  501 -.33344756E+02 -.26688400E+02 0.33810017E+02 0.54474863E+02 0.50000000E+00 0.0000E+00 0.9000E+01
        1  1    1    2  502    0 0.41173690E+03 -.29294157E+03 -.18114989E+04 0.18806569E+04 0.32000000E+00 0.0000E+00 0.9000E+01
#aMCatNLO 1  0  0  1  5 0.67946625D+00 0.00000000D+00  -5  6  0 0.00000000D+00 0.00000000D+00 0.00000000D+00 0.00000000D+00 0.00000000D+00
  <mgrwgt>
 0.1062728752D-03    3    2    0
 0.103831253686823D+04 0.000000000000000D+00 0.000000000000000D+00 0.103831253686823D+04
 0.103831253686823D+04 0.000000000000000D+00 0.000000000000000D+00 -.103831253686823D+04
 0.960809586950211D+03 -.378646910179447D+03 0.319576581162584D+03 0.813650655109075D+03
 0.898557735091254D+02 -.331773037049120D+02 -.265543752629002D+02 0.791719123565443D+02
 0.102595971327713D+04 0.411824213884359D+03 -.293022205899684D+03 -.892822567465619D+03
 0.000000000000000D+00 -.000000000000000D+00 0.000000000000000D+00 -.000000000000000D+00
 0.116507145115829D+04 0.000000000000000D+00 0.000000000000000D+00 0.116507145115829D+04
 0.227959847851551D+04 0.000000000000000D+00 0.000000000000000D+00 -.227959847851551D+04
 0.862357568381890D+03 -.240417903710117D+03 0.905948053793993D+02 0.813650655109075D+03
 0.954841238355199D+02 -.191251912619303D+02 -.498322511797244D+02 0.791719123565443D+02
 0.121013846720160D+04 0.581360851790249D+03 -.573866302226276D+03 -.892822567465619D+03
 0.127668977025479D+04 -.321817756818202D+03 0.533103748026601D+03 -.111452702735722D+04
0.135864631814D-02 0.000000000000D+00 0.000000000000D+00 0.891111575286D-06 0.000000000000D+00  6 -3 1 25 -3 1 21 0 0.83014363D-01 0.30738045D+00 0.28033516D+06 0.28033516D+06 0.28033516D+06 0.10867370D+01  1  2  2  1  6  1       -3 0.393770729926D-03 0.100000000000D+01
0.227476178622D-03 0.000000000000D+00 -.521755960146D-05 0.891111575286D-06 0.000000000000D+00  6 -3 1 25 -3 1 21 2 0.83014363D-01 0.30738045D+00 0.28033516D+06 0.28033516D+06 0.28033516D+06 0.10867370D+01  1  2  3  1  6  1       -3 0.778613324685D-04 0.100000000000D+01
-.106741702308D-02 0.000000000000D+00 0.000000000000D+00 0.891111575286D-06 0.000000000000D+00  6 -3 1 25 -3 1 21 2 0.83014363D-01 0.30738045D+00 0.28033516D+06 0.28033516D+06 0.28033516D+06 0.10867370D+01  1  2 15  1  6  1       -3 -.365359187148D-03 0.100000000000D+01
  </mgrwgt>
  </event>
  <event>
  5     66 0.16122213E-05 0.32207606E+02 0.75467711E-02 0.94125263E-01
       -3 -1    0    0    0  501 0.00000000E+00 0.00000000E+00 0.26616752E+03 0.26616799E+03 0.50000000E+00 0.0000E+00 0.9000E+01
        1 -1    0    0  502    0 0.00000000E+00 0.00000000E+00 -.12157423E+04 0.12157423E+04 0.32000000E+00 0.0000E+00 0.9000E+01
       25  1    1    2    0    0 -.50442757E+03 0.10145422E+03 -.35794360E+03 0.63913125E+03 0.12500000E+03 0.0000E+00 0.9000E+01
       -3  1    1    2    0  501 0.47235257E+03 -.10426301E+03 -.34522900E+03 0.59428195E+03 0.50000000E+00 0.0000E+00 0.9000E+01
        1  1    1    2  502    0 0.32075001E+02 0.28087911E+01 -.24640217E+03 0.24849714E+03 0.32000000E+00 0.0000E+00 0.9000E+01
#aMCatNLO 1  0  0  2  5 0.29508361D+02 0.00000000D+00  -5  6  0 0.00000000D+00 0.00000000D+00 0.00000000D+00 0.00000000D+00 0.00000000D+00
  <mgrwgt>
 0.2274367162D-03    7    2    0
 0.568851032188026D+03 0.000000000000000D+00 0.000000000000000D+00 0.568851032188026D+03
 0.568851032188026D+03 0.000000000000000D+00 0.000000000000000D+00 -.568851032188026D+03
 0.533724565352086D+03 -.504401367301064D+03 0.101445807148452D+03 0.672675295896074D+02
 0.485899898635825D+03 0.472316510240606D+03 -.104255051082290D+03 0.463326016134487D+02
 0.118077600388141D+03 0.320848570604589D+02 0.280924393383800D+01 -.113600131203056D+03
 0.000000000000000D+00 -.000000000000000D+00 0.000000000000000D+00 -.000000000000000D+00
 0.614753253880118D+03 0.000000000000000D+00 0.000000000000000D+00 0.614753253880118D+03
 0.103209722132118D+04 0.000000000000000D+00 0.000000000000000D+00 -.103209722132118D+04
 0.435604963329015D+03 -.403987751869736D+03 0.799728696435262D+02 0.672675295896074D+02
 0.600566258033219D+03 0.584864401960522D+03 -.128322841439522D+03 0.463326016134487D+02
 0.127354716634169D+03 0.575093856306660D+02 -.262766131785689D+01 -.113600131203056D+03
 0.483324537204897D+03 -.238386035721452D+03 0.509776331138529D+02 -.417343967441064D+03
0.166409500417D-04 0.000000000000D+00 0.000000000000D+00 0.162562999916D-06 0.000000000000D+00  6 -3 1 25 -3 1 21 0 0.40948889D-01 0.18703732D+00 0.27319545D+06 0.27319545D+06 0.27319545D+06 0.10875720D+01  1  2  2  2  6  2        1 0.764128413275D-04 0.100000000000D+01
0.492956691681D-05 0.000000000000D+00 -.639056298228D-07 0.162562999916D-06 0.000000000000D+00  6 -3 1 25 -3 1 21 2 0.40948889D-01 0.18703732D+00 0.27319545D+06 0.27319545D+06 0.27319545D+06 0.10875720D+01  1  2  3  2  6  2        1 0.267739880078D-04 0.100000000000D+01
-.108943300333D-04 0.000000000000D+00 0.000000000000D+00 0.162562999916D-06 0.000000000000D+00  6 -3 1 25 -3 1 21 2 0.40948889D-01 0.18703732D+00 0.27319545D+06 0.27319545D+06 0.27319545D+06 0.10875720D+01  1  2 15  2  6  2        1 -.591704436894D-04 0.100000000000D+01
-.116122846737D-05 0.000000000000D+00 0.000000000000D+00 0.162562999916D-06 0.000000000000D+00  6 -3 1 25 -3 1 21 2 0.40948889D-01 0.18703732D+00 0.27319545D+06 0.27319545D+06 0.27319545D+06 0.10875720D+01  1  2  4  2  6  2        1 -.630698752735D-05 0.100000000000D+01
-.449172210134D-04 0.000000000000D+00 -.100592848607D-04 0.162562999916D-06 0.000000000000D+00  6 -3 1 25 -3 1 21 2 0.40948889D-01 0.34734336D+00 0.27319545D+06 0.27319545D+06 0.27319545D+06 0.10875720D+01  1  2  5  2  6  2        1 -.486108595007D-04 0.100000000000D+01
0.440857112531D-04 0.000000000000D+00 0.839827370187D-05 0.162562999916D-06 0.000000000000D+00  6 -3 1 25 -3 1 21 2 0.40948889D-01 0.18703732D+00 0.27319545D+06 0.27319545D+06 0.27319545D+06 0.10875720D+01  1  2  6  2  6  2        1 0.239443002666D-03 0.100000000000D+01
-.247232246895D-05 0.000000000000D+00 -.678808931229D-06 0.162562999916D-06 0.000000000000D+00  6 -3 21 25 -3 1 -1 2 0.40948889D-01 0.34734336D+00 0.27319545D+06 0.27319545D+06 0.27319545D+06 0.10875720D+01  1  2  5  6  6  2        1 -.110482511098D-05 0.100000000000D+01
  </mgrwgt>
  </event>
</LesHouchesEvents>
