<event>
 5    0  0.2105422E+000  0.2418505E+03  0.7546771E-02  0.1118566E+00
         21   -1    0    0  502  501  0.00000000000E+00  0.00000000000E+00  0.80543946579E+02  0.80543946579E+02  0.00000000000E+00 0.  1.
         21   -1    0    0  503  502 -0.00000000000E+00 -0.00000000000E+00 -0.65138563906E+03  0.65138563906E+03  0.00000000000E+00 0.  1.
         25    1    1    2    0    0  0.11338829965E+03  0.17323329108E+03 -0.25169724373E+03  0.34906042763E+03  0.12500000000E+03 0.  0.
         21    1    1    2  503  504 -0.22479908319E+02 -0.99918403298E+01 -0.40116012417E+02  0.47058236297E+02  0.00000000000E+00 0.  1.
         21    1    1    2  504  501 -0.90908391334E+02 -0.16324145075E+03 -0.27902843633E+03  0.33581092171E+03  0.00000000000E+00 0.  1.
<mgrwt>
<rscale>  4 0.24185053E+03</rscale>
<asrwt>0</asrwt>
<pdfrwt beam="1">  1       21 0.12391376E-01 0.24185053E+03</pdfrwt>
<pdfrwt beam="2">  1       21 0.10021318E+00 0.24185053E+03</pdfrwt>
<totfact> 0.44178709E+04</totfact>
</mgrwt>
</event>
<event>
 5    0  0.1856407E+000  0.2350939E+03  0.7546771E-02  0.1123105E+00
         21   -1    0    0  502  501  0.00000000000E+00  0.00000000000E+00  0.72612837884E+03  0.72612837884E+03  0.00000000000E+00 0.  1.
         21   -1    0    0  503  502 -0.00000000000E+00 -0.00000000000E+00 -0.45633194548E+03  0.45633194548E+03  0.00000000000E+00 0. -1.
         25    1    1    2    0    0  0.49200770095E+02 -0.19523853618E+03  0.67582259533E+03  0.71617035833E+03  0.12500000000E+03 0.  0.
         21    1    1    2  503  504  0.27202103277E+02  0.41563117523E+02 -0.15045038417E+03  0.15843852202E+03  0.00000000000E+00 0. -1.
         21    1    1    2  504  501 -0.76402873373E+02  0.15367541866E+03 -0.25557577780E+03  0.30785144397E+03  0.00000000000E+00 0. -1.
<mgrwt>
<rscale>  4 0.23509392E+03</rscale>
<asrwt>0</asrwt>
<pdfrwt beam="1">  1       21 0.11171206E+00 0.23509392E+03</pdfrwt>
<pdfrwt beam="2">  1       21 0.70204915E-01 0.23509392E+03</pdfrwt>
<totfact> 0.11136776E+03</totfact>
</mgrwt>
</event>
<event>
 5    0  0.1856407E+000  0.2403956E+03  0.7546771E-02  0.1119530E+00
         21   -1    0    0  502  501  0.00000000000E+00  0.00000000000E+00  0.11712061799E+04  0.11712061799E+04  0.00000000000E+00 0. -1.
         21   -1    0    0  503  502 -0.00000000000E+00 -0.00000000000E+00 -0.11367755800E+03  0.11367755800E+03  0.00000000000E+00 0. -1.
         25    1    1    2    0    0 -0.43534971548E+01 -0.20529518767E+03  0.10442561388E+04  0.10715693867E+04  0.12500000000E+03 0.  0.
         21    1    1    2  503  504  0.22880311549E+02  0.12706340288E+03 -0.10346975399E+02  0.12952095162E+03  0.00000000000E+00 0. -1.
         21    1    1    2  504  501 -0.18526814394E+02  0.78231784789E+02  0.23619458542E+02  0.83793399648E+02  0.00000000000E+00 0. -1.
<mgrwt>
<rscale>  4 0.24039565E+03</rscale>
<asrwt>0</asrwt>
<pdfrwt beam="1">  1       21 0.18018556E+00 0.24039565E+03</pdfrwt>
<pdfrwt beam="2">  1       21 0.17488856E-01 0.24039565E+03</pdfrwt>
<totfact> 0.51677975E+03</totfact>
</mgrwt>
</event>
<event>
 5    0  0.1856407E+000  0.2529835E+03  0.7546771E-02  0.1111434E+00
         21   -1    0    0  502  501  0.00000000000E+00  0.00000000000E+00  0.16113138243E+03  0.16113138243E+03  0.00000000000E+00 0.  1.
         21   -1    0    0  503  502 -0.00000000000E+00 -0.00000000000E+00 -0.71712724993E+03  0.71712724993E+03  0.00000000000E+00 0.  1.
         25    1    1    2    0    0 -0.20317987431E+03  0.12400194708E+03 -0.51034808231E+02  0.27365689441E+03  0.12500000000E+03 0.  0.
         21    1    1    2  503  504  0.11622418153E+03 -0.16733574528E+03 -0.20386483561E+03  0.28821898483E+03  0.00000000000E+00 0.  1.
         21    1    1    2  504  501  0.86955692777E+02  0.43333798195E+02 -0.30109622366E+03  0.31638275312E+03  0.00000000000E+00 0.  1.
<mgrwt>
<rscale>  4 0.25298345E+03</rscale>
<asrwt>0</asrwt>
<pdfrwt beam="1">  1       21 0.24789444E-01 0.25298345E+03</pdfrwt>
<pdfrwt beam="2">  1       21 0.11032727E+00 0.25298345E+03</pdfrwt>
<totfact> 0.96002916E+03</totfact>
</mgrwt>
</event>
<event>
 5    0  0.1856407E+000  0.3062623E+03  0.7546771E-02  0.1082151E+00
         21   -1    0    0  502  501  0.00000000000E+00  0.00000000000E+00  0.15430395094E+04  0.15430395094E+04  0.00000000000E+00 0. -1.
         21   -1    0    0  503  502 -0.00000000000E+00 -0.00000000000E+00 -0.12438234797E+03  0.12438234797E+03  0.00000000000E+00 0. -1.
         25    1    1    2    0    0 -0.12902247500E+02  0.27929400258E+03  0.13392842489E+04  0.13738554899E+04  0.12500000000E+03 0.  0.
         21    1    1    2  503  504 -0.11471470549E+02 -0.37973238336E+02  0.56987246025E+01  0.40075390558E+02  0.00000000000E+00 0.  1.
         21    1    1    2  504  501  0.24373718049E+02 -0.24132076425E+03  0.73674187913E+02  0.25349097687E+03  0.00000000000E+00 0. -1.
<mgrwt>
<rscale>  4 0.30626232E+03</rscale>
<asrwt>0</asrwt>
<pdfrwt beam="1">  1       21 0.23739068E+00 0.30626232E+03</pdfrwt>
<pdfrwt beam="2">  1       21 0.19135747E-01 0.30626232E+03</pdfrwt>
<totfact> 0.17883018E+03</totfact>
</mgrwt>
</event>
<event>
 5    0  0.1856407E+000  0.3029238E+03  0.7546771E-02  0.1083788E+00
         21   -1    0    0  502  501  0.00000000000E+00  0.00000000000E+00  0.14451317692E+04  0.14451317692E+04  0.00000000000E+00 0. -1.
         21   -1    0    0  503  502 -0.00000000000E+00 -0.00000000000E+00 -0.27114911876E+03  0.27114911876E+03  0.00000000000E+00 0. -1.
         25    1    1    2    0    0 -0.14218942296E-01  0.27754426849E+03  0.13458841020E+04  0.13798767471E+04  0.12500000000E+03 0.  0.
         21    1    1    2  503  504 -0.13808710394E+02 -0.21485432129E+02 -0.41478257354E+02  0.48710882866E+02  0.00000000000E+00 0. -1.
         21    1    1    2  504  501  0.13822929337E+02 -0.25605883636E+03 -0.13042319427E+03  0.28769325793E+03  0.00000000000E+00 0. -1.
<mgrwt>
<rscale>  4 0.30292381E+03</rscale>
<asrwt>0</asrwt>
<pdfrwt beam="1">  1       21 0.22232796E+00 0.30292381E+03</pdfrwt>
<pdfrwt beam="2">  1       21 0.41715250E-01 0.30292381E+03</pdfrwt>
<totfact> 0.48235455E+02</totfact>
</mgrwt>
</event>
<event>
 5    0  0.2584259E+000  0.2397998E+03  0.7546771E-02  0.1119926E+00
         21   -1    0    0  502  501  0.00000000000E+00  0.00000000000E+00  0.16434679802E+03  0.16434679802E+03  0.00000000000E+00 0.  1.
         21   -1    0    0  503  502 -0.00000000000E+00 -0.00000000000E+00 -0.42657570692E+03  0.42657570692E+03  0.00000000000E+00 0.  1.
         25    1    1    2    0    0 -0.21818701510E+03  0.39550196245E+02 -0.29767971094E+02  0.25628289776E+03  0.12500000000E+03 0.  0.
         21    1    1    2  503  504  0.28744082505E+02  0.22407448186E+02 -0.14336747393E+02  0.39164503560E+02  0.00000000000E+00 0.  1.
         21    1    1    2  504  501  0.18944293260E+03 -0.61957644431E+02 -0.21812419041E+03  0.29547510362E+03  0.00000000000E+00 0.  1.
<mgrwt>
<rscale>  4 0.23979980E+03</rscale>
<asrwt>0</asrwt>
<pdfrwt beam="1">  1       21 0.25284123E-01 0.23979980E+03</pdfrwt>
<pdfrwt beam="2">  1       21 0.65627031E-01 0.23979980E+03</pdfrwt>
<totfact> 0.30883988E+04</totfact>
</mgrwt>
</event>
<event>
 5    0  0.1856407E+000  0.3020204E+03  0.7546771E-02  0.1084235E+00
         21   -1    0    0  502  501  0.00000000000E+00  0.00000000000E+00  0.18696899702E+03  0.18696899702E+03  0.00000000000E+00 0. -1.
         21   -1    0    0  503  502 -0.00000000000E+00 -0.00000000000E+00 -0.14369267637E+04  0.14369267637E+04  0.00000000000E+00 0.  1.
         25    1    1    2    0    0 -0.27551478784E+03 -0.43674287575E+01  0.18946832173E+02  0.30316902085E+03  0.12500000000E+03 0.  0.
         21    1    1    2  503  504  0.27014726982E+03 -0.75689671903E+02 -0.10719683057E+04  0.11080724355E+04  0.00000000000E+00 0.  1.
         21    1    1    2  504  501  0.53675180159E+01  0.80057100661E+02 -0.19693629313E+03  0.21265430437E+03  0.00000000000E+00 0.  1.
<mgrwt>
<rscale>  4 0.30202042E+03</rscale>
<asrwt>0</asrwt>
<pdfrwt beam="1">  1       21 0.28764462E-01 0.30202042E+03</pdfrwt>
<pdfrwt beam="2">  1       21 0.22106565E+00 0.30202042E+03</pdfrwt>
<totfact> 0.10356748E+03</totfact>
</mgrwt>
</event>
<event>
 5    0  0.1856407E+000  0.2777171E+03  0.7546771E-02  0.1096942E+00
         21   -1    0    0  502  501  0.00000000000E+00  0.00000000000E+00  0.29847774960E+03  0.29847774960E+03  0.00000000000E+00 0. -1.
         21   -1    0    0  503  502 -0.00000000000E+00 -0.00000000000E+00 -0.13296433182E+04  0.13296433182E+04  0.00000000000E+00 0. -1.
         25    1    1    2    0    0 -0.22536503050E+03 -0.10757027691E+03  0.20782110355E+03  0.34810253163E+03  0.12500000000E+03 0.  0.
         21    1    1    2  503  504  0.93354448711E+00  0.67754292231E+02 -0.11781278082E+03  0.13590940713E+03  0.00000000000E+00 0. -1.
         21    1    1    2  504  501  0.22443148601E+03  0.39815984678E+02 -0.11211738914E+04  0.11441091291E+04  0.00000000000E+00 0. -1.
<mgrwt>
<rscale>  4 0.27771711E+03</rscale>
<asrwt>0</asrwt>
<pdfrwt beam="1">  1       21 0.45919653E-01 0.27771711E+03</pdfrwt>
<pdfrwt beam="2">  1       21 0.20456051E+00 0.27771711E+03</pdfrwt>
<totfact> 0.52344506E+02</totfact>
</mgrwt>
</event>
<event>
 5    0  0.1856407E+000  0.3087074E+03  0.7546771E-02  0.1080967E+00
         21   -1    0    0  502  501  0.00000000000E+00  0.00000000000E+00  0.33949944288E+03  0.33949944288E+03  0.00000000000E+00 0. -1.
         21   -1    0    0  503  502 -0.00000000000E+00 -0.00000000000E+00 -0.47342864171E+03  0.47342864171E+03  0.00000000000E+00 0. -1.
         25    1    1    2    0    0 -0.10913362571E+03  0.26031737090E+03  0.20393707857E+03  0.36998731582E+03  0.12500000000E+03 0.  0.
         21    1    1    2  503  504  0.87177260334E+00 -0.26043148727E+02 -0.16782951913E+02  0.30994726293E+02  0.00000000000E+00 0.  1.
         21    1    1    2  504  501  0.10826185311E+03 -0.23427422217E+03 -0.32108332548E+03  0.41194604248E+03  0.00000000000E+00 0. -1.
<mgrwt>
<rscale>  4 0.30870744E+03</rscale>
<asrwt>0</asrwt>
<pdfrwt beam="1">  1       21 0.52230684E-01 0.30870744E+03</pdfrwt>
<pdfrwt beam="2">  1       21 0.72835176E-01 0.30870744E+03</pdfrwt>
<totfact> 0.54965606E+03</totfact>
</mgrwt>
</event>
