<event>
 5    0  0.1911311E+001  0.2363323E+03  0.7546771E-02  0.1122261E+00
         21   -1    0    0  504  501  0.00000000000E+00  0.00000000000E+00  0.22700848208E+03  0.22700848208E+03  0.00000000000E+00 0. -1.
         21   -1    0    0  503  502 -0.00000000000E+00 -0.00000000000E+00 -0.33609072821E+03  0.33609072821E+03  0.00000000000E+00 0. -1.
         25    1    1    2    0    0  0.19588996013E+02 -0.22184618724E+03 -0.15838123167E+03  0.30051468201E+03  0.12500000000E+03 0.  0.
         21    1    1    2  503  501  0.10432047721E+02  0.17628564072E+03 -0.16201677965E+02  0.17733569610E+03  0.00000000000E+00 0. -1.
         21    1    1    2  504  502 -0.30021043734E+02  0.45560546526E+02  0.65500663515E+02  0.85248832177E+02  0.00000000000E+00 0. -1.
<mgrwt>
<rscale>  4 0.23633232E+03</rscale>
<asrwt>0</asrwt>
<pdfrwt beam="1">  1       21 0.34924382E-01 0.23633232E+03</pdfrwt>
<pdfrwt beam="2">  1       21 0.51706266E-01 0.23633232E+03</pdfrwt>
<totfact> 0.27436825E+04</totfact>
</mgrwt>
</event>
<event>
 5    0  0.1911311E+001  0.5351056E+03  0.7546771E-02  0.1005001E+00
         21   -1    0    0  504  501  0.00000000000E+00  0.00000000000E+00  0.26550277137E+03  0.26550277137E+03  0.00000000000E+00 0. -1.
         21   -1    0    0  501  502 -0.00000000000E+00 -0.00000000000E+00 -0.15321076838E+04  0.15321076838E+04  0.00000000000E+00 0. -1.
         25    1    1    2    0    0  0.28442995495E+03 -0.40549209342E+03 -0.16612630621E+03  0.53716588379E+03  0.12500000000E+03 0.  0.
         21    1    1    2  503  502  0.89659426373E+01 -0.33976288606E+02  0.46892204542E+01  0.35450882969E+02  0.00000000000E+00 0. -1.
         21    1    1    2  504  503 -0.29339589759E+03  0.43946838202E+03 -0.11051678267E+04  0.12249936884E+04  0.00000000000E+00 0. -1.
<mgrwt>
<rscale>  4 0.53510558E+03</rscale>
<asrwt>0</asrwt>
<pdfrwt beam="1">  1       21 0.40846581E-01 0.53510558E+03</pdfrwt>
<pdfrwt beam="2">  1       21 0.23570887E+00 0.53510558E+03</pdfrwt>
<totfact> 0.36271193E+02</totfact>
</mgrwt>
</event>
<event>
 5    0  0.1911311E+001  0.2337735E+03  0.7546771E-02  0.1124012E+00
         21   -1    0    0  503  501  0.00000000000E+00  0.00000000000E+00  0.30597727539E+03  0.30597727539E+03  0.00000000000E+00 0. -1.
         21   -1    0    0  504  502 -0.00000000000E+00 -0.00000000000E+00 -0.34999297719E+03  0.34999297719E+03  0.00000000000E+00 0. -1.
         25    1    1    2    0    0 -0.79432375582E+02  0.20815859796E+03  0.51227966029E+02  0.26055480939E+03  0.12500000000E+03 0.  0.
         21    1    1    2  503  502  0.10060379613E+03 -0.16360795844E+03 -0.20143659466E+03  0.27832604896E+03  0.00000000000E+00 0. -1.
         21    1    1    2  504  501 -0.21171420548E+02 -0.44550639521E+02  0.10619292684E+03  0.11708939423E+03  0.00000000000E+00 0.  1.
<mgrwt>
<rscale>  4 0.23377347E+03</rscale>
<asrwt>0</asrwt>
<pdfrwt beam="1">  1       21 0.47073427E-01 0.23377347E+03</pdfrwt>
<pdfrwt beam="2">  1       21 0.53845073E-01 0.23377347E+03</pdfrwt>
<totfact> 0.13739600E+04</totfact>
</mgrwt>
</event>
<event>
 5    0  0.1911311E+001  0.3196274E+03  0.7546771E-02  0.1075821E+00
         21   -1    0    0  502  501  0.00000000000E+00  0.00000000000E+00  0.87525792023E+03  0.87525792023E+03  0.00000000000E+00 0. -1.
         21   -1    0    0  504  502 -0.00000000000E+00 -0.00000000000E+00 -0.24453619579E+03  0.24453619579E+03  0.00000000000E+00 0. -1.
         25    1    1    2    0    0 -0.20189514132E+03  0.16584128675E+03 -0.88157172605E+02  0.30275677955E+03  0.12500000000E+03 0.  0.
         21    1    1    2  503  501  0.21457052629E+03 -0.20878231420E+03  0.71115464032E+03  0.77160319331E+03  0.00000000000E+00 0. -1.
         21    1    1    2  504  503 -0.12675384970E+02  0.42941027448E+02  0.77242567271E+01  0.45434143157E+02  0.00000000000E+00 0.  1.
<mgrwt>
<rscale>  4 0.31962740E+03</rscale>
<asrwt>0</asrwt>
<pdfrwt beam="1">  1       21 0.13465506E+00 0.31962740E+03</pdfrwt>
<pdfrwt beam="2">  1       21 0.37620954E-01 0.31962740E+03</pdfrwt>
<totfact> 0.24622570E+03</totfact>
</mgrwt>
</event>
<event>
 5    0  0.1911311E+001  0.2801673E+03  0.7546771E-02  0.1095598E+00
         21   -1    0    0  504  501  0.00000000000E+00  0.00000000000E+00  0.41342243373E+03  0.41342243373E+03  0.00000000000E+00 0.  1.
         21   -1    0    0  503  502 -0.00000000000E+00 -0.00000000000E+00 -0.72466112161E+03  0.72466112161E+03  0.00000000000E+00 0.  1.
         25    1    1    2    0    0  0.11362148157E+02 -0.27217966643E+03 -0.53408774126E+03  0.61244231124E+03  0.12500000000E+03 0.  0.
         21    1    1    2  503  501  0.28765198319E+01  0.23422069993E+02 -0.10851477777E+03  0.11105100055E+03  0.00000000000E+00 0. -1.
         21    1    1    2  504  502 -0.14238667989E+02  0.24875759644E+03  0.33136383115E+03  0.41459024355E+03  0.00000000000E+00 0.  1.
<mgrwt>
<rscale>  4 0.28016731E+03</rscale>
<asrwt>0</asrwt>
<pdfrwt beam="1">  1       21 0.63603452E-01 0.28016731E+03</pdfrwt>
<pdfrwt beam="2">  1       21 0.11148633E+00 0.28016731E+03</pdfrwt>
<totfact> 0.13451225E+03</totfact>
</mgrwt>
</event>
<event>
 5    0  0.1911311E+001  0.2567506E+03  0.7546771E-02  0.1109111E+00
         21   -1    0    0  504  501  0.00000000000E+00  0.00000000000E+00  0.12171313782E+03  0.12171313782E+03  0.00000000000E+00 0. -1.
         21   -1    0    0  501  502 -0.00000000000E+00 -0.00000000000E+00 -0.49641793280E+03  0.49641793280E+03  0.00000000000E+00 0. -1.
         25    1    1    2    0    0 -0.14109708392E+02 -0.22382312656E+03 -0.23647678638E+03  0.34905894395E+03  0.12500000000E+03 0.  0.
         21    1    1    2  503  502  0.18356365550E+02  0.20969316460E+02 -0.14346596901E+02  0.31344748071E+02  0.00000000000E+00 0.  1.
         21    1    1    2  504  503 -0.42466571580E+01  0.20285381010E+03 -0.12388141171E+03  0.23772737860E+03  0.00000000000E+00 0. -1.
<mgrwt>
<rscale>  4 0.25675061E+03</rscale>
<asrwt>0</asrwt>
<pdfrwt beam="1">  1       21 0.18725098E-01 0.25675061E+03</pdfrwt>
<pdfrwt beam="2">  1       21 0.76371990E-01 0.25675061E+03</pdfrwt>
<totfact> 0.38649064E+04</totfact>
</mgrwt>
</event>
