<event>
 5    0  0.1856407E+000  0.2907701E+03  0.7546771E-02  0.1089948E+00
         21   -1    0    0  502  501  0.00000000000E+00  0.00000000000E+00  0.17047553994E+04  0.17047553994E+04  0.00000000000E+00 0. -1.
         21   -1    0    0  503  502 -0.00000000000E+00 -0.00000000000E+00 -0.30960535260E+03  0.30960535260E+03  0.00000000000E+00 0. -1.
         25    1    1    2    0    0  0.69707899420E+02 -0.25310684395E+03  0.16319478455E+04  0.16576492500E+04  0.12500000000E+03 0.  0.
         21    1    1    2  503  504 -0.37568370305E+01  0.40991119161E+02 -0.18027614405E+02  0.44937518353E+02  0.00000000000E+00 0.  1.
         21    1    1    2  504  501 -0.65951062389E+02  0.21211572478E+03 -0.21877018429E+03  0.31177398363E+03  0.00000000000E+00 0. -1.
<mgrwt>
<rscale>  4 0.29077013E+03</rscale>
<asrwt>0</asrwt>
<pdfrwt beam="1">  1       21 0.26227006E+00 0.29077013E+03</pdfrwt>
<pdfrwt beam="2">  1       21 0.47631594E-01 0.29077013E+03</pdfrwt>
<totfact> 0.21168566E+02</totfact>
</mgrwt>
</event>
<event>
 5    0  0.1856407E+000  0.2361539E+03  0.7546771E-02  0.1122382E+00
         21   -1    0    0  502  501  0.00000000000E+00  0.00000000000E+00  0.24083498601E+03  0.24083498601E+03  0.00000000000E+00 0. -1.
         21   -1    0    0  503  502 -0.00000000000E+00 -0.00000000000E+00 -0.32407584312E+03  0.32407584312E+03  0.00000000000E+00 0. -1.
         25    1    1    2    0    0  0.18482689707E+03 -0.77347865269E+02  0.13012871693E+03  0.26963337537E+03  0.12500000000E+03 0.  0.
         21    1    1    2  503  504 -0.15005532596E+03  0.62113999654E+02 -0.14820929709E+03  0.21986528954E+03  0.00000000000E+00 0. -1.
         21    1    1    2  504  501 -0.34771571106E+02  0.15233865615E+02 -0.65160276958E+02  0.75412164217E+02  0.00000000000E+00 0.  1.
<mgrwt>
<rscale>  4 0.23615392E+03</rscale>
<asrwt>0</asrwt>
<pdfrwt beam="1">  1       21 0.37051536E-01 0.23615392E+03</pdfrwt>
<pdfrwt beam="2">  1       21 0.49857822E-01 0.23615392E+03</pdfrwt>
<totfact> 0.26313993E+04</totfact>
</mgrwt>
</event>
<event>
 5    0  0.1856407E+000  0.3646600E+03  0.7546771E-02  0.1056754E+00
         21   -1    0    0  502  501  0.00000000000E+00  0.00000000000E+00  0.36998234847E+03  0.36998234847E+03  0.00000000000E+00 0. -1.
         21   -1    0    0  503  502 -0.00000000000E+00 -0.00000000000E+00 -0.45301695261E+03  0.45301695261E+03  0.00000000000E+00 0. -1.
         25    1    1    2    0    0 -0.25262421491E+03  0.23137179646E+03  0.15947627680E+03  0.39800701630E+03  0.12500000000E+03 0.  0.
         21    1    1    2  503  504  0.51273342002E+02 -0.25847531685E+02 -0.65838980249E+02  0.87360298846E+02  0.00000000000E+00 0. -1.
         21    1    1    2  504  501  0.20135087291E+03 -0.20552426477E+03 -0.17667190069E+03  0.33763198594E+03  0.00000000000E+00 0. -1.
<mgrwt>
<rscale>  4 0.36465998E+03</rscale>
<asrwt>0</asrwt>
<pdfrwt beam="1">  1       21 0.56920362E-01 0.36465998E+03</pdfrwt>
<pdfrwt beam="2">  1       21 0.69694915E-01 0.36465998E+03</pdfrwt>
<totfact> 0.49227718E+03</totfact>
</mgrwt>
</event>
<event>
 5    0  0.1856407E+000  0.2685724E+03  0.7546771E-02  0.1102099E+00
         21   -1    0    0  502  501  0.00000000000E+00  0.00000000000E+00  0.11967429656E+03  0.11967429656E+03  0.00000000000E+00 0.  1.
         21   -1    0    0  503  502 -0.00000000000E+00 -0.00000000000E+00 -0.66077648491E+03  0.66077648491E+03  0.00000000000E+00 0. -1.
         25    1    1    2    0    0 -0.16559314429E+03 -0.17054341131E+03 -0.11739718412E+03  0.29310960990E+03  0.12500000000E+03 0.  0.
         21    1    1    2  503  504  0.23739847004E+02  0.30068073005E+02 -0.99237330890E+02  0.10637535989E+03  0.00000000000E+00 0. -1.
         21    1    1    2  504  501  0.14185329729E+03  0.14047533830E+03 -0.32446767334E+03  0.38096581167E+03  0.00000000000E+00 0. -1.
<mgrwt>
<rscale>  4 0.26857242E+03</rscale>
<asrwt>0</asrwt>
<pdfrwt beam="1">  1       21 0.18411430E-01 0.26857242E+03</pdfrwt>
<pdfrwt beam="2">  1       21 0.10165792E+00 0.26857242E+03</pdfrwt>
<totfact> 0.20399827E+04</totfact>
</mgrwt>
</event>
<event>
 5    0  0.1856407E+000  0.3528358E+03  0.7546771E-02  0.1061457E+00
         21   -1    0    0  502  501  0.00000000000E+00  0.00000000000E+00  0.36389381872E+03  0.36389381872E+03  0.00000000000E+00 0. -1.
         21   -1    0    0  503  502 -0.00000000000E+00 -0.00000000000E+00 -0.79023400300E+03  0.79023400300E+03  0.00000000000E+00 0.  1.
         25    1    1    2    0    0 -0.25146906467E+03 -0.21361508968E+03  0.22473645884E+03  0.41832950286E+03  0.12500000000E+03 0.  0.
         21    1    1    2  503  504  0.18378655819E+03  0.20371281189E+03 -0.51868955916E+03  0.58678383369E+03  0.00000000000E+00 0.  1.
         21    1    1    2  504  501  0.67682506487E+02  0.99022777874E+01 -0.13238708396E+03  0.14901448517E+03  0.00000000000E+00 0. -1.
<mgrwt>
<rscale>  4 0.35283579E+03</rscale>
<asrwt>0</asrwt>
<pdfrwt beam="1">  1       21 0.55983665E-01 0.35283579E+03</pdfrwt>
<pdfrwt beam="2">  1       21 0.12157446E+00 0.35283579E+03</pdfrwt>
<totfact> 0.13703038E+03</totfact>
</mgrwt>
</event>
<event>
 5    0  0.1856407E+000  0.4138760E+03  0.7546771E-02  0.1039078E+00
         21   -1    0    0  502  501  0.00000000000E+00  0.00000000000E+00  0.67351245278E+03  0.67351245278E+03  0.00000000000E+00 0.  1.
         21   -1    0    0  503  502 -0.00000000000E+00 -0.00000000000E+00 -0.56671636384E+03  0.56671636384E+03  0.00000000000E+00 0. -1.
         25    1    1    2    0    0  0.41312407334E+03 -0.26130634146E+02  0.48142698519E+03  0.64710992273E+03  0.12500000000E+03 0.  0.
         21    1    1    2  503  504 -0.11826044852E+03 -0.49762580274E+02 -0.27204204909E+02  0.13115607818E+03  0.00000000000E+00 0.  1.
         21    1    1    2  504  501 -0.29486362483E+03  0.75893214420E+02 -0.34742669135E+03  0.46196281571E+03  0.00000000000E+00 0. -1.
<mgrwt>
<rscale>  4 0.41387599E+03</rscale>
<asrwt>0</asrwt>
<pdfrwt beam="1">  1       21 0.10361730E+00 0.41387599E+03</pdfrwt>
<pdfrwt beam="2">  1       21 0.87187133E-01 0.41387599E+03</pdfrwt>
<totfact> 0.73120301E+02</totfact>
</mgrwt>
</event>
<event>
 5    0  0.1856407E+000  0.2869057E+03  0.7546771E-02  0.1091976E+00
         21   -1    0    0  502  501  0.00000000000E+00  0.00000000000E+00  0.52819595119E+03  0.52819595119E+03  0.00000000000E+00 0. -1.
         21   -1    0    0  503  502 -0.00000000000E+00 -0.00000000000E+00 -0.16497152971E+03  0.16497152971E+03  0.00000000000E+00 0. -1.
         25    1    1    2    0    0  0.19947189208E+03  0.16401472652E+03  0.30864619000E+03  0.42139926062E+03  0.12500000000E+03 0.  0.
         21    1    1    2  503  504 -0.13697543831E+03 -0.12735652270E+03  0.11307001764E+02  0.18737610003E+03  0.00000000000E+00 0. -1.
         21    1    1    2  504  501 -0.62496453774E+02 -0.36658203818E+02  0.43271229715E+02  0.84392120263E+02  0.00000000000E+00 0. -1.
<mgrwt>
<rscale>  4 0.28690567E+03</rscale>
<asrwt>0</asrwt>
<pdfrwt beam="1">  1       21 0.81260915E-01 0.28690567E+03</pdfrwt>
<pdfrwt beam="2">  1       21 0.25380235E-01 0.28690567E+03</pdfrwt>
<totfact> 0.18601051E+04</totfact>
</mgrwt>
</event>
<event>
 5    0  0.1996876E+000  0.2661031E+03  0.7546771E-02  0.1103531E+00
         21   -1    0    0  502  501  0.00000000000E+00  0.00000000000E+00  0.25566224400E+04  0.25566224400E+04  0.00000000000E+00 0. -1.
         21   -1    0    0  503  502 -0.00000000000E+00 -0.00000000000E+00 -0.57095083430E+02  0.57095083430E+02  0.00000000000E+00 0. -1.
         25    1    1    2    0    0  0.23186420221E+03 -0.37747218845E+02  0.22467754562E+04  0.22624789085E+04  0.12500000000E+03 0.  0.
         21    1    1    2  503  504 -0.21209480694E+03  0.43504511528E+02  0.20054890687E+03  0.29512152361E+03  0.00000000000E+00 0. -1.
         21    1    1    2  504  501 -0.19769395279E+02 -0.57572926828E+01  0.52202993561E+02  0.56117091384E+02  0.00000000000E+00 0. -1.
<mgrwt>
<rscale>  4 0.26610310E+03</rscale>
<asrwt>0</asrwt>
<pdfrwt beam="1">  1       21 0.39332644E+00 0.26610310E+03</pdfrwt>
<pdfrwt beam="2">  1       21 0.87838610E-02 0.26610310E+03</pdfrwt>
<totfact> 0.88745034E+02</totfact>
</mgrwt>
</event>
<event>
 5    0  0.1856407E+000  0.3861266E+03  0.7546771E-02  0.1048692E+00
         21   -1    0    0  502  501  0.00000000000E+00  0.00000000000E+00  0.11907067776E+04  0.11907067776E+04  0.00000000000E+00 0. -1.
         21   -1    0    0  503  502 -0.00000000000E+00 -0.00000000000E+00 -0.18612025462E+03  0.18612025462E+03  0.00000000000E+00 0. -1.
         25    1    1    2    0    0 -0.66601058898E+02  0.36623060778E+03  0.85844297453E+03  0.94398617556E+03  0.12500000000E+03 0.  0.
         21    1    1    2  503  504  0.42893743495E+01 -0.23647112469E+02 -0.33341027663E+02  0.41099985232E+02  0.00000000000E+00 0. -1.
         21    1    1    2  504  501  0.62311684548E+02 -0.34258349531E+03  0.17948457614E+03  0.39174087145E+03  0.00000000000E+00 0. -1.
<mgrwt>
<rscale>  4 0.38612658E+03</rscale>
<asrwt>0</asrwt>
<pdfrwt beam="1">  1       21 0.18318565E+00 0.38612658E+03</pdfrwt>
<pdfrwt beam="2">  1       21 0.28633886E-01 0.38612658E+03</pdfrwt>
<totfact> 0.17618072E+03</totfact>
</mgrwt>
</event>
<event>
 5    0  0.1858508E+000  0.2585559E+03  0.7546771E-02  0.1108014E+00
         21   -1    0    0  502  501  0.00000000000E+00  0.00000000000E+00  0.61267222118E+03  0.61267222118E+03  0.00000000000E+00 0.  1.
         21   -1    0    0  503  502 -0.00000000000E+00 -0.00000000000E+00 -0.23982220301E+03  0.23982220301E+03  0.00000000000E+00 0.  1.
         25    1    1    2    0    0 -0.13553400978E+03  0.18126417800E+03  0.51500750653E+03  0.57626721390E+03  0.12500000000E+03 0.  0.
         21    1    1    2  503  504  0.86750976089E+02 -0.16068842788E+03 -0.97763663642E+02  0.20713337885E+03  0.00000000000E+00 0.  1.
         21    1    1    2  504  501  0.48783033695E+02 -0.20575750122E+02 -0.44393824723E+02  0.69093831440E+02  0.00000000000E+00 0. -1.
<mgrwt>
<rscale>  4 0.25855593E+03</rscale>
<asrwt>0</asrwt>
<pdfrwt beam="1">  1       21 0.94257264E-01 0.25855593E+03</pdfrwt>
<pdfrwt beam="2">  1       21 0.36895724E-01 0.25855593E+03</pdfrwt>
<totfact> 0.63955947E+03</totfact>
</mgrwt>
</event>
<event>
 5    0  0.2527284E+000  0.2745423E+03  0.7546771E-02  0.1098708E+00
         21   -1    0    0  502  501  0.00000000000E+00  0.00000000000E+00  0.30647736899E+03  0.30647736899E+03  0.00000000000E+00 0.  1.
         21   -1    0    0  503  502 -0.00000000000E+00 -0.00000000000E+00 -0.35691200422E+03  0.35691200422E+03  0.00000000000E+00 0.  1.
         25    1    1    2    0    0  0.29331048414E+03  0.55510994908E+02  0.28045510174E+02  0.32484467258E+03  0.12500000000E+03 0.  0.
         21    1    1    2  503  504 -0.22225487368E+03 -0.26623576079E+02 -0.11714866443E+03  0.25264570698E+03  0.00000000000E+00 0.  1.
         21    1    1    2  504  501 -0.71055610462E+02 -0.28887418829E+02  0.38668519034E+02  0.85898993644E+02  0.00000000000E+00 0.  1.
<mgrwt>
<rscale>  4 0.27454233E+03</rscale>
<asrwt>0</asrwt>
<pdfrwt beam="1">  1       21 0.47150365E-01 0.27454233E+03</pdfrwt>
<pdfrwt beam="2">  1       21 0.54909539E-01 0.27454233E+03</pdfrwt>
<totfact> 0.12863487E+04</totfact>
</mgrwt>
</event>
<event>
 5    0  0.1856407E+000  0.2584257E+03  0.7546771E-02  0.1108093E+00
         21   -1    0    0  502  501  0.00000000000E+00  0.00000000000E+00  0.31034313938E+03  0.31034313938E+03  0.00000000000E+00 0. -1.
         21   -1    0    0  503  502 -0.00000000000E+00 -0.00000000000E+00 -0.25277075193E+03  0.25277075193E+03  0.00000000000E+00 0. -1.
         25    1    1    2    0    0 -0.20876651724E+03  0.87036578827E+02 -0.10461572837E+03  0.27879791139E+03  0.12500000000E+03 0.  0.
         21    1    1    2  503  504  0.74802601742E+02 -0.60405628917E+02  0.55624369241E+02  0.11107807923E+03  0.00000000000E+00 0. -1.
         21    1    1    2  504  501  0.13396391550E+03 -0.26630949910E+02  0.10656374658E+03  0.17323790068E+03  0.00000000000E+00 0. -1.
<mgrwt>
<rscale>  4 0.25842567E+03</rscale>
<asrwt>0</asrwt>
<pdfrwt beam="1">  1       21 0.47745098E-01 0.25842567E+03</pdfrwt>
<pdfrwt beam="2">  1       21 0.38887808E-01 0.25842567E+03</pdfrwt>
<totfact> 0.25862695E+04</totfact>
</mgrwt>
</event>
<event>
 5    0  0.2286579E+000  0.2735653E+03  0.7546771E-02  0.1099256E+00
         21   -1    0    0  502  501  0.00000000000E+00  0.00000000000E+00  0.13809475193E+03  0.13809475193E+03  0.00000000000E+00 0. -1.
         21   -1    0    0  503  502 -0.00000000000E+00 -0.00000000000E+00 -0.95356471676E+03  0.95356471676E+03  0.00000000000E+00 0. -1.
         25    1    1    2    0    0  0.18630688613E+03  0.19196765305E+03 -0.72841981790E+03  0.78599126379E+03  0.12500000000E+03 0.  0.
         21    1    1    2  503  504 -0.17101154087E+03 -0.16702107809E+03 -0.29174555298E+02  0.24081557739E+03  0.00000000000E+00 0. -1.
         21    1    1    2  504  501 -0.15295345253E+02 -0.24946574960E+02 -0.57875591629E+02  0.64852627511E+02  0.00000000000E+00 0. -1.
<mgrwt>
<rscale>  4 0.27356533E+03</rscale>
<asrwt>0</asrwt>
<pdfrwt beam="1">  1       21 0.21245347E-01 0.27356533E+03</pdfrwt>
<pdfrwt beam="2">  1       21 0.14670226E+00 0.27356533E+03</pdfrwt>
<totfact> 0.61741864E+03</totfact>
</mgrwt>
</event>
<event>
 5    0  0.1856407E+000  0.3626190E+03  0.7546771E-02  0.1057552E+00
         21   -1    0    0  502  501  0.00000000000E+00  0.00000000000E+00  0.19563580633E+04  0.19563580633E+04  0.00000000000E+00 0. -1.
         21   -1    0    0  503  502 -0.00000000000E+00 -0.00000000000E+00 -0.48820821008E+03  0.48820821008E+03  0.00000000000E+00 0.  1.
         25    1    1    2    0    0 -0.90079966250E+01  0.33071779760E+03  0.15190651578E+04  0.15596920720E+04  0.12500000000E+03 0.  0.
         21    1    1    2  503  504  0.20008911583E+03  0.19009382578E+03  0.12487856936E+03  0.30292899161E+03  0.00000000000E+00 0.  1.
         21    1    1    2  504  501 -0.19108111920E+03 -0.52081162338E+03 -0.17579387391E+03  0.58194520985E+03  0.00000000000E+00 0.  1.
<mgrwt>
<rscale>  4 0.36261902E+03</rscale>
<asrwt>0</asrwt>
<pdfrwt beam="1">  1       21 0.30097816E+00 0.36261902E+03</pdfrwt>
<pdfrwt beam="2">  1       21 0.75108957E-01 0.36261902E+03</pdfrwt>
<totfact> 0.43355658E+01</totfact>
</mgrwt>
</event>
<event>
 5    0  0.1856407E+000  0.2404604E+03  0.7546771E-02  0.1119487E+00
         21   -1    0    0  502  501  0.00000000000E+00  0.00000000000E+00  0.33824538638E+03  0.33824538638E+03  0.00000000000E+00 0. -1.
         21   -1    0    0  503  502 -0.00000000000E+00 -0.00000000000E+00 -0.27457709063E+03  0.27457709063E+03  0.00000000000E+00 0. -1.
         25    1    1    2    0    0 -0.20820825486E+03 -0.61807132160E+02  0.21359632138E+03  0.32927069029E+03  0.12500000000E+03 0.  0.
         21    1    1    2  503  504  0.17867037889E+03  0.12308407144E+02 -0.90127549840E+02  0.20049333261E+03  0.00000000000E+00 0. -1.
         21    1    1    2  504  501  0.29537875975E+02  0.49498725016E+02 -0.59800475792E+02  0.83058454117E+02  0.00000000000E+00 0.  1.
<mgrwt>
<rscale>  4 0.24046037E+03</rscale>
<asrwt>0</asrwt>
<pdfrwt beam="1">  1       21 0.52037751E-01 0.24046037E+03</pdfrwt>
<pdfrwt beam="2">  1       21 0.42242630E-01 0.24046037E+03</pdfrwt>
<totfact> 0.18396553E+04</totfact>
</mgrwt>
</event>
