<event>
 5    0  0.1257040E+001  0.1934251E+03  0.7546771E-02  0.1155408E+00
         21   -1    0    0  504  501  0.00000000000E+00  0.00000000000E+00  0.15228781127E+03  0.15228781127E+03  0.00000000000E+00 0.  1.
         21   -1    0    0  503  502 -0.00000000000E+00 -0.00000000000E+00 -0.49024968646E+03  0.49024968646E+03  0.00000000000E+00 0.  1.
         25    1    1    2    0    0  0.11399317366E+03 -0.18281005009E+03 -0.19053753292E+03  0.31359768734E+03  0.12500000000E+03 0.  0.
         21    1    1    2  503  501 -0.49420435185E+02  0.11684469753E+03 -0.18905484596E+03  0.22767695873E+03  0.00000000000E+00 0.  1.
         21    1    1    2  504  502 -0.64572738475E+02  0.65965352553E+02  0.41630503686E+02  0.10126285167E+03  0.00000000000E+00 0.  1.
<mgrwt>
<rscale>  4 0.19342514E+03</rscale>
<asrwt>0</asrwt>
<pdfrwt beam="1">  1       21 0.23428894E-01 0.19342514E+03</pdfrwt>
<pdfrwt beam="2">  1       21 0.75423030E-01 0.19342514E+03</pdfrwt>
<totfact> 0.26897622E+04</totfact>
</mgrwt>
</event>
<event>
 5    0  0.1257040E+001  0.2401871E+03  0.7546771E-02  0.1119668E+00
         21   -1    0    0  504  501  0.00000000000E+00  0.00000000000E+00  0.45634294134E+02  0.45634294134E+02  0.00000000000E+00 0.  1.
         21   -1    0    0  501  502 -0.00000000000E+00 -0.00000000000E+00 -0.14897338503E+04  0.14897338503E+04  0.00000000000E+00 0.  1.
         25    1    1    2    0    0  0.21288344950E+03 -0.22003981730E+02 -0.92180186192E+03  0.95454031393E+03  0.12500000000E+03 0.  0.
         21    1    1    2  503  502 -0.20200157926E+03 -0.43874951400E-01 -0.32965631784E+03  0.38662375489E+03  0.00000000000E+00 0.  1.
         21    1    1    2  504  503 -0.10881870248E+02  0.22047856681E+02 -0.19264137644E+03  0.19420407566E+03  0.00000000000E+00 0.  1.
<mgrwt>
<rscale>  4 0.24018710E+03</rscale>
<asrwt>0</asrwt>
<pdfrwt beam="1">  1       21 0.70206612E-02 0.24018710E+03</pdfrwt>
<pdfrwt beam="2">  1       21 0.22918980E+00 0.24018710E+03</pdfrwt>
<totfact> 0.12811991E+04</totfact>
</mgrwt>
</event>
<event>
 5    0  0.1257040E+001  0.2951385E+03  0.7546771E-02  0.1087696E+00
         21   -1    0    0  502  501  0.00000000000E+00  0.00000000000E+00  0.24287883667E+04  0.24287883667E+04  0.00000000000E+00 0. -1.
         21   -1    0    0  504  502 -0.00000000000E+00 -0.00000000000E+00 -0.58472512528E+02  0.58472512528E+02  0.00000000000E+00 0. -1.
         25    1    1    2    0    0 -0.15594643892E+03  0.24615193933E+03  0.12019622587E+04  0.12430801826E+04  0.12500000000E+03 0.  0.
         21    1    1    2  503  501  0.73605436371E+02 -0.24393277737E+03  0.11201047121E+04  0.11487190807E+04  0.00000000000E+00 0. -1.
         21    1    1    2  504  503  0.82341002544E+02 -0.22191619550E+01  0.48248883358E+02  0.95461615978E+02  0.00000000000E+00 0. -1.
<mgrwt>
<rscale>  4 0.29513845E+03</rscale>
<asrwt>0</asrwt>
<pdfrwt beam="1">  1       21 0.37365967E+00 0.29513845E+03</pdfrwt>
<pdfrwt beam="2">  1       21 0.89957730E-02 0.29513845E+03</pdfrwt>
<totfact> 0.10938464E+03</totfact>
</mgrwt>
</event>
<event>
 5    0  0.1257040E+001  0.2447949E+03  0.7546771E-02  0.1116639E+00
         21   -1    0    0  504  501  0.00000000000E+00  0.00000000000E+00  0.18134839145E+03  0.18134839145E+03  0.00000000000E+00 0.  1.
         21   -1    0    0  503  502 -0.00000000000E+00 -0.00000000000E+00 -0.57423923656E+03  0.57423923656E+03  0.00000000000E+00 0.  1.
         25    1    1    2    0    0  0.11701108691E+03  0.17931579119E+03 -0.42542326103E+03  0.49239790664E+03  0.12500000000E+03 0.  0.
         21    1    1    2  503  501 -0.51373684935E+02  0.11000199019E+02 -0.18160992709E+02  0.55588501855E+02  0.00000000000E+00 0.  1.
         21    1    1    2  504  502 -0.65637401974E+02 -0.19031599021E+03  0.50693408636E+02  0.20760121952E+03  0.00000000000E+00 0.  1.
<mgrwt>
<rscale>  4 0.24479494E+03</rscale>
<asrwt>0</asrwt>
<pdfrwt beam="1">  1       21 0.27899752E-01 0.24479494E+03</pdfrwt>
<pdfrwt beam="2">  1       21 0.88344498E-01 0.24479494E+03</pdfrwt>
<totfact> 0.13032692E+04</totfact>
</mgrwt>
</event>
<event>
 5    0  0.1257040E+001  0.4544127E+03  0.7546771E-02  0.1026414E+00
         21   -1    0    0  504  501  0.00000000000E+00  0.00000000000E+00  0.11356948378E+03  0.11356948378E+03  0.00000000000E+00 0. -1.
         21   -1    0    0  503  502 -0.00000000000E+00 -0.00000000000E+00 -0.20112304907E+04  0.20112304907E+04  0.00000000000E+00 0. -1.
         25    1    1    2    0    0  0.23772698535E+03 -0.38036762300E+03 -0.11672881110E+04  0.12567339345E+04  0.12500000000E+03 0.  0.
         21    1    1    2  503  501 -0.21391405707E+03  0.36388847416E+03 -0.72453359447E+03  0.83852428406E+03  0.00000000000E+00 0. -1.
         21    1    1    2  504  502 -0.23812928282E+02  0.16479148836E+02 -0.58393014769E+01  0.29541755897E+02  0.00000000000E+00 0. -1.
<mgrwt>
<rscale>  4 0.45441272E+03</rscale>
<asrwt>0</asrwt>
<pdfrwt beam="1">  1       21 0.17472228E-01 0.45441272E+03</pdfrwt>
<pdfrwt beam="2">  1       21 0.30942007E+00 0.45441272E+03</pdfrwt>
<totfact> 0.71315948E+02</totfact>
</mgrwt>
</event>
<event>
 5    0  0.1257040E+001  0.2550328E+03  0.7546771E-02  0.1110165E+00
         21   -1    0    0  502  501  0.00000000000E+00  0.00000000000E+00  0.66084624721E+03  0.66084624721E+03  0.00000000000E+00 0. -1.
         21   -1    0    0  504  502 -0.00000000000E+00 -0.00000000000E+00 -0.19682930189E+03  0.19682930189E+03  0.00000000000E+00 0. -1.
         25    1    1    2    0    0 -0.18227467737E+03 -0.16975173793E+03  0.49878441428E+03  0.57135855858E+03  0.12500000000E+03 0.  0.
         21    1    1    2  503  501  0.80924262889E+02  0.84924388390E+02  0.51894712016E+02  0.12827294806E+03  0.00000000000E+00 0. -1.
         21    1    1    2  504  503  0.10135041449E+03  0.84827349536E+02 -0.86662180974E+02  0.15804404246E+03  0.00000000000E+00 0. -1.
<mgrwt>
<rscale>  4 0.25503276E+03</rscale>
<asrwt>0</asrwt>
<pdfrwt beam="1">  1       21 0.10166865E+00 0.25503276E+03</pdfrwt>
<pdfrwt beam="2">  1       21 0.30281431E-01 0.25503276E+03</pdfrwt>
<totfact> 0.79269772E+03</totfact>
</mgrwt>
</event>
<event>
 5    0  0.1257040E+001  0.2136444E+03  0.7546771E-02  0.1138712E+00
         21   -1    0    0  504  501  0.00000000000E+00  0.00000000000E+00  0.10328502768E+04  0.10328502768E+04  0.00000000000E+00 0. -1.
         21   -1    0    0  503  502 -0.00000000000E+00 -0.00000000000E+00 -0.12234546824E+03  0.12234546824E+03  0.00000000000E+00 0. -1.
         25    1    1    2    0    0 -0.18082115641E+03  0.17099717755E+03  0.23184503414E+03  0.36237197075E+03  0.12500000000E+03 0.  0.
         21    1    1    2  503  501  0.55853683247E+02 -0.67364959206E+02 -0.73967572290E+01  0.87820178083E+02  0.00000000000E+00 0. -1.
         21    1    1    2  504  502  0.12496747316E+03 -0.10363221834E+03  0.68605653162E+03  0.70500359616E+03  0.00000000000E+00 0. -1.
<mgrwt>
<rscale>  4 0.21364435E+03</rscale>
<asrwt>0</asrwt>
<pdfrwt beam="1">  1       21 0.15890004E+00 0.21364435E+03</pdfrwt>
<pdfrwt beam="2">  1       21 0.18822380E-01 0.21364435E+03</pdfrwt>
<totfact> 0.65165831E+03</totfact>
</mgrwt>
</event>
<event>
 5    0  0.1257040E+001  0.2394000E+03  0.7546771E-02  0.1120193E+00
         21   -1    0    0  503  501  0.00000000000E+00  0.00000000000E+00  0.73537478668E+03  0.73537478668E+03  0.00000000000E+00 0.  1.
         21   -1    0    0  504  502 -0.00000000000E+00 -0.00000000000E+00 -0.20521121172E+03  0.20521121172E+03  0.00000000000E+00 0. -1.
         25    1    1    2    0    0 -0.16206574677E+03  0.15496591191E+03  0.34187221153E+03  0.42752935472E+03  0.12500000000E+03 0.  0.
         21    1    1    2  503  502  0.15567250288E+03 -0.12716776551E+03 -0.99197959923E+02  0.22415575833E+03  0.00000000000E+00 0. -1.
         21    1    1    2  504  501  0.63932438892E+01 -0.27798146395E+02  0.28748932336E+03  0.28890088535E+03  0.00000000000E+00 0.  1.
<mgrwt>
<rscale>  4 0.23940002E+03</rscale>
<asrwt>0</asrwt>
<pdfrwt beam="1">  1       21 0.11313458E+00 0.23940002E+03</pdfrwt>
<pdfrwt beam="2">  1       21 0.31570956E-01 0.23940002E+03</pdfrwt>
<totfact> 0.56874855E+03</totfact>
</mgrwt>
</event>
<event>
 5    0  0.1257040E+001  0.2892432E+03  0.7546771E-02  0.1090745E+00
         21   -1    0    0  504  501  0.00000000000E+00  0.00000000000E+00  0.34002424779E+03  0.34002424779E+03  0.00000000000E+00 0. -1.
         21   -1    0    0  503  502 -0.00000000000E+00 -0.00000000000E+00 -0.26325944371E+04  0.26325944371E+04  0.00000000000E+00 0. -1.
         25    1    1    2    0    0 -0.24095188500E+03 -0.20553187346E+03  0.79962464062E+02  0.34974298785E+03  0.12500000000E+03 0.  0.
         21    1    1    2  503  501  0.12527505253E+03  0.22747355443E+03 -0.24615889814E+04  0.24752491531E+04  0.00000000000E+00 0. -1.
         21    1    1    2  504  502  0.11567683247E+03 -0.21941680972E+02  0.89056327967E+02  0.14762654397E+03  0.00000000000E+00 0. -1.
<mgrwt>
<rscale>  4 0.28924320E+03</rscale>
<asrwt>0</asrwt>
<pdfrwt beam="1">  1       21 0.52311423E-01 0.28924320E+03</pdfrwt>
<pdfrwt beam="2">  1       21 0.40501453E+00 0.28924320E+03</pdfrwt>
<totfact> 0.24061151E+01</totfact>
</mgrwt>
</event>
<event>
 5    0  0.1257040E+001  0.2360259E+03  0.7546771E-02  0.1122469E+00
         21   -1    0    0  502  501  0.00000000000E+00  0.00000000000E+00  0.12844717402E+03  0.12844717402E+03  0.00000000000E+00 0. -1.
         21   -1    0    0  504  502 -0.00000000000E+00 -0.00000000000E+00 -0.47808988919E+03  0.47808988919E+03  0.00000000000E+00 0. -1.
         25    1    1    2    0    0  0.28851256570E+01  0.20018717069E+03 -0.58399576198E+02  0.24314345099E+03  0.12500000000E+03 0.  0.
         21    1    1    2  503  501  0.23183854887E+02 -0.38044500531E+02 -0.26459972844E+02  0.51817036879E+02  0.00000000000E+00 0. -1.
         21    1    1    2  504  503 -0.26068980544E+02 -0.16214267016E+03 -0.26478316613E+03  0.31157657534E+03  0.00000000000E+00 0. -1.
<mgrwt>
<rscale>  4 0.23602590E+03</rscale>
<asrwt>0</asrwt>
<pdfrwt beam="1">  1       21 0.19761104E-01 0.23602590E+03</pdfrwt>
<pdfrwt beam="2">  1       21 0.73552290E-01 0.23602590E+03</pdfrwt>
<totfact> 0.38366084E+04</totfact>
</mgrwt>
</event>
<event>
 5    0  0.1257040E+001  0.2627608E+03  0.7546771E-02  0.1105496E+00
         21   -1    0    0  504  501  0.00000000000E+00  0.00000000000E+00  0.18897070151E+03  0.18897070151E+03  0.00000000000E+00 0. -1.
         21   -1    0    0  503  502 -0.00000000000E+00 -0.00000000000E+00 -0.13422904798E+04  0.13422904798E+04  0.00000000000E+00 0.  1.
         25    1    1    2    0    0 -0.36261600872E+02  0.20290623927E+03  0.87139251847E+01  0.24121935686E+03  0.12500000000E+03 0.  0.
         21    1    1    2  503  501  0.12208543197E+03 -0.20037094800E+03 -0.11793396073E+04  0.12024538573E+04  0.00000000000E+00 0.  1.
         21    1    1    2  504  502 -0.85823831097E+02 -0.25352912674E+01  0.17305903833E+02  0.87587967173E+02  0.00000000000E+00 0. -1.
<mgrwt>
<rscale>  4 0.26276082E+03</rscale>
<asrwt>0</asrwt>
<pdfrwt beam="1">  1       21 0.29072416E-01 0.26276082E+03</pdfrwt>
<pdfrwt beam="2">  1       21 0.20650622E+00 0.26276082E+03</pdfrwt>
<totfact> 0.12930075E+03</totfact>
</mgrwt>
</event>
<event>
 5    0  0.1257040E+001  0.2532312E+03  0.7546771E-02  0.1111280E+00
         21   -1    0    0  502  501  0.00000000000E+00  0.00000000000E+00  0.24203857584E+03  0.24203857584E+03  0.00000000000E+00 0.  1.
         21   -1    0    0  504  502 -0.00000000000E+00 -0.00000000000E+00 -0.29044606379E+03  0.29044606379E+03  0.00000000000E+00 0.  1.
         25    1    1    2    0    0 -0.43201623080E+01  0.22380482400E+03 -0.11144692391E+03  0.27955800811E+03  0.12500000000E+03 0.  0.
         21    1    1    2  503  501 -0.18533134126E+02 -0.97460889012E+01  0.27772451031E+02  0.34781781807E+02  0.00000000000E+00 0. -1.
         21    1    1    2  504  503  0.22853296434E+02 -0.21405873510E+03  0.35266984923E+02  0.21814484971E+03  0.00000000000E+00 0.  1.
<mgrwt>
<rscale>  4 0.25323121E+03</rscale>
<asrwt>0</asrwt>
<pdfrwt beam="1">  1       21 0.37236704E-01 0.25323121E+03</pdfrwt>
<pdfrwt beam="2">  1       21 0.44684010E-01 0.25323121E+03</pdfrwt>
<totfact> 0.32466792E+04</totfact>
</mgrwt>
</event>
<event>
 5    0  0.1257040E+001  0.2344738E+03  0.7546771E-02  0.1123530E+00
         21   -1    0    0  502  501  0.00000000000E+00  0.00000000000E+00  0.21053041287E+03  0.21053041287E+03  0.00000000000E+00 0.  1.
         21   -1    0    0  504  502 -0.00000000000E+00 -0.00000000000E+00 -0.35179796030E+03  0.35179796030E+03  0.00000000000E+00 0.  1.
         25    1    1    2    0    0 -0.24574010922E+02  0.22512819825E+03 -0.12802770933E+03  0.28862204008E+03  0.12500000000E+03 0.  0.
         21    1    1    2  503  501  0.42752180611E+02 -0.18409548693E+03  0.50617869218E+02  0.19565547766E+03  0.00000000000E+00 0.  1.
         21    1    1    2  504  503 -0.18178169689E+02 -0.41032711323E+02 -0.63857707315E+02  0.78050855442E+02  0.00000000000E+00 0.  1.
<mgrwt>
<rscale>  4 0.23447380E+03</rscale>
<asrwt>0</asrwt>
<pdfrwt beam="1">  1       21 0.32389295E-01 0.23447380E+03</pdfrwt>
<pdfrwt beam="2">  1       21 0.54122762E-01 0.23447380E+03</pdfrwt>
<totfact> 0.28956929E+04</totfact>
</mgrwt>
</event>
<event>
 5    0  0.1257040E+001  0.2637047E+03  0.7546771E-02  0.1104938E+00
         21   -1    0    0  504  501  0.00000000000E+00  0.00000000000E+00  0.48924898318E+03  0.48924898318E+03  0.00000000000E+00 0. -1.
         21   -1    0    0  501  502 -0.00000000000E+00 -0.00000000000E+00 -0.34500193342E+03  0.34500193342E+03  0.00000000000E+00 0.  1.
         25    1    1    2    0    0 -0.22791204112E+03  0.44399126297E+02 -0.25584781773E+03  0.36742112996E+03  0.12500000000E+03 0.  0.
         21    1    1    2  503  502  0.20062538218E+03 -0.27945108631E+02  0.37522372473E+03  0.42640862641E+03  0.00000000000E+00 0. -1.
         21    1    1    2  504  503  0.27286658940E+02 -0.16454017666E+02  0.24871142748E+02  0.40421160239E+02  0.00000000000E+00 0.  1.
<mgrwt>
<rscale>  4 0.26370472E+03</rscale>
<asrwt>0</asrwt>
<pdfrwt beam="1">  1       21 0.75269074E-01 0.26370472E+03</pdfrwt>
<pdfrwt beam="2">  1       21 0.53077221E-01 0.26370472E+03</pdfrwt>
<totfact> 0.50526805E+03</totfact>
</mgrwt>
</event>
<event>
 5    0  0.1257040E+001  0.2945219E+03  0.7546771E-02  0.1088012E+00
         21   -1    0    0  502  501  0.00000000000E+00  0.00000000000E+00  0.76996365949E+03  0.76996365949E+03  0.00000000000E+00 0.  1.
         21   -1    0    0  504  502 -0.00000000000E+00 -0.00000000000E+00 -0.22266417686E+03  0.22266417686E+03  0.00000000000E+00 0.  1.
         25    1    1    2    0    0  0.15847968734E+03 -0.21813956398E+03  0.58593327801E+03  0.65699580437E+03  0.12500000000E+03 0.  0.
         21    1    1    2  503  501 -0.18358162541E+03  0.18318612352E+03  0.23109748045E+02  0.26037171408E+03  0.00000000000E+00 0.  1.
         21    1    1    2  504  503  0.25101938075E+02  0.34953440462E+02 -0.61743543426E+02  0.75260317898E+02  0.00000000000E+00 0.  1.
<mgrwt>
<rscale>  4 0.29452186E+03</rscale>
<asrwt>0</asrwt>
<pdfrwt beam="1">  1       21 0.11845595E+00 0.29452186E+03</pdfrwt>
<pdfrwt beam="2">  1       21 0.34256028E-01 0.29452186E+03</pdfrwt>
<totfact> 0.41786065E+03</totfact>
</mgrwt>
</event>
<event>
 5    0  0.1257040E+001  0.2569677E+03  0.7546771E-02  0.1108979E+00
         21   -1    0    0  503  501  0.00000000000E+00  0.00000000000E+00  0.54513845162E+03  0.54513845162E+03  0.00000000000E+00 0.  1.
         21   -1    0    0  504  502 -0.00000000000E+00 -0.00000000000E+00 -0.10324618448E+04  0.10324618448E+04  0.00000000000E+00 0. -1.
         25    1    1    2    0    0 -0.82867932498E+02  0.20157947380E+03  0.47917205558E+03  0.54104735222E+03  0.12500000000E+03 0.  0.
         21    1    1    2  503  502  0.10407163300E+03 -0.19914738082E+03 -0.98376361517E+03  0.10090993185E+04  0.00000000000E+00 0. -1.
         21    1    1    2  504  501 -0.21203700503E+02 -0.24320929823E+01  0.17268166426E+02  0.27453625681E+02  0.00000000000E+00 0.  1.
<mgrwt>
<rscale>  4 0.25696766E+03</rscale>
<asrwt>0</asrwt>
<pdfrwt beam="1">  1       21 0.83867455E-01 0.25696766E+03</pdfrwt>
<pdfrwt beam="2">  1       21 0.15884028E+00 0.25696766E+03</pdfrwt>
<totfact> 0.29608390E+02</totfact>
</mgrwt>
</event>
<event>
 5    0  0.1257040E+001  0.2613220E+03  0.7546771E-02  0.1106352E+00
         21   -1    0    0  502  501  0.00000000000E+00  0.00000000000E+00  0.61304952920E+03  0.61304952920E+03  0.00000000000E+00 0. -1.
         21   -1    0    0  504  502 -0.00000000000E+00 -0.00000000000E+00 -0.12325694402E+03  0.12325694402E+03  0.00000000000E+00 0. -1.
         25    1    1    2    0    0  0.61437132282E+02 -0.22111008053E+03  0.10381020541E+03  0.28118632201E+03  0.12500000000E+03 0.  0.
         21    1    1    2  503  501 -0.68809611142E+02  0.12015608521E+03  0.24732141918E+03  0.28344334846E+03  0.00000000000E+00 0. -1.
         21    1    1    2  504  503  0.73724788600E+01  0.10095399532E+03  0.13866096058E+03  0.17167680276E+03  0.00000000000E+00 0. -1.
<mgrwt>
<rscale>  4 0.26132200E+03</rscale>
<asrwt>0</asrwt>
<pdfrwt beam="1">  1       21 0.94315311E-01 0.26132200E+03</pdfrwt>
<pdfrwt beam="2">  1       21 0.18962607E-01 0.26132200E+03</pdfrwt>
<totfact> 0.23155857E+04</totfact>
</mgrwt>
</event>
<event>
 5    0  0.1257040E+001  0.4262909E+03  0.7546771E-02  0.1035038E+00
         21   -1    0    0  503  501  0.00000000000E+00  0.00000000000E+00  0.27665831811E+04  0.27665831811E+04  0.00000000000E+00 0. -1.
         21   -1    0    0  504  502 -0.00000000000E+00 -0.00000000000E+00 -0.13891235745E+03  0.13891235745E+03  0.00000000000E+00 0. -1.
         25    1    1    2    0    0  0.27736673501E+03 -0.11581803894E+03  0.19000735944E+03  0.37692694316E+03  0.12500000000E+03 0.  0.
         21    1    1    2  503  502  0.12257409157E+03 -0.43326040546E+02  0.14048127675E+03  0.19140674709E+03  0.00000000000E+00 0. -1.
         21    1    1    2  504  501 -0.39994082659E+03  0.15914407949E+03  0.22971821874E+04  0.23371618483E+04  0.00000000000E+00 0. -1.
<mgrwt>
<rscale>  4 0.42629088E+03</rscale>
<asrwt>0</asrwt>
<pdfrwt beam="1">  1       21 0.42562814E+00 0.42629088E+03</pdfrwt>
<pdfrwt beam="2">  1       21 0.21371134E-01 0.42629088E+03</pdfrwt>
<totfact> 0.93250885E+01</totfact>
</mgrwt>
</event>
<event>
 5    0  0.1257040E+001  0.2777995E+03  0.7546771E-02  0.1096897E+00
         21   -1    0    0  504  501  0.00000000000E+00  0.00000000000E+00  0.11515558245E+03  0.11515558245E+03  0.00000000000E+00 0. -1.
         21   -1    0    0  503  502 -0.00000000000E+00 -0.00000000000E+00 -0.87163986052E+03  0.87163986052E+03  0.00000000000E+00 0. -1.
         25    1    1    2    0    0 -0.19025059055E+03 -0.14645488967E+03 -0.19611351652E+03  0.33426012816E+03  0.12500000000E+03 0.  0.
         21    1    1    2  503  501  0.21608416681E+03  0.12896683896E+03 -0.56727429007E+03  0.62058434791E+03  0.00000000000E+00 0. -1.
         21    1    1    2  504  502 -0.25833576260E+02  0.17488050705E+02  0.69035285245E+01  0.31950966901E+02  0.00000000000E+00 0. -1.
<mgrwt>
<rscale>  4 0.27779953E+03</rscale>
<asrwt>0</asrwt>
<pdfrwt beam="1">  1       21 0.17716243E-01 0.27779953E+03</pdfrwt>
<pdfrwt beam="2">  1       21 0.13409844E+00 0.27779953E+03</pdfrwt>
<totfact> 0.10959300E+04</totfact>
</mgrwt>
</event>
<event>
 5    0  0.1257040E+001  0.3264671E+03  0.7546771E-02  0.1072711E+00
         21   -1    0    0  504  501  0.00000000000E+00  0.00000000000E+00  0.21503713672E+03  0.21503713672E+03  0.00000000000E+00 0. -1.
         21   -1    0    0  503  502 -0.00000000000E+00 -0.00000000000E+00 -0.72390830625E+03  0.72390830625E+03  0.00000000000E+00 0.  1.
         25    1    1    2    0    0  0.32295061758E+03 -0.11804627165E+03 -0.85628907341E+02  0.37575169117E+03  0.12500000000E+03 0.  0.
         21    1    1    2  503  501 -0.27734917755E+03  0.79483285834E+02 -0.41112026452E+03  0.50225494613E+03  0.00000000000E+00 0.  1.
         21    1    1    2  504  502 -0.45601440031E+02  0.38562985816E+02 -0.12121997661E+02  0.60938805660E+02  0.00000000000E+00 0. -1.
<mgrwt>
<rscale>  4 0.32646708E+03</rscale>
<asrwt>0</asrwt>
<pdfrwt beam="1">  1       21 0.33082637E-01 0.32646708E+03</pdfrwt>
<pdfrwt beam="2">  1       21 0.11137051E+00 0.32646708E+03</pdfrwt>
<totfact> 0.51341650E+03</totfact>
</mgrwt>
</event>
<event>
 5    0  0.1257040E+001  0.2313421E+03  0.7546771E-02  0.1125699E+00
         21   -1    0    0  503  501  0.00000000000E+00  0.00000000000E+00  0.44197564144E+03  0.44197564144E+03  0.00000000000E+00 0.  1.
         21   -1    0    0  504  502 -0.00000000000E+00 -0.00000000000E+00 -0.39542359280E+03  0.39542359280E+03  0.00000000000E+00 0.  1.
         25    1    1    2    0    0 -0.13906908008E+03  0.14646059807E+03 -0.29410018162E+03  0.37803549125E+03  0.12500000000E+03 0.  0.
         21    1    1    2  503  502  0.12979643021E+03 -0.11423173270E+03  0.69830235860E+02  0.18647322567E+03  0.00000000000E+00 0.  1.
         21    1    1    2  504  501  0.92726498719E+01 -0.32228865370E+02  0.27082199440E+03  0.27289051733E+03  0.00000000000E+00 0.  1.
<mgrwt>
<rscale>  4 0.23134214E+03</rscale>
<asrwt>0</asrwt>
<pdfrwt beam="1">  1       21 0.67996253E-01 0.23134214E+03</pdfrwt>
<pdfrwt beam="2">  1       21 0.60834399E-01 0.23134214E+03</pdfrwt>
<totfact> 0.48282872E+03</totfact>
</mgrwt>
</event>
<event>
 5    0  0.1257040E+001  0.2560896E+03  0.7546771E-02  0.1109516E+00
         21   -1    0    0  502  501  0.00000000000E+00  0.00000000000E+00  0.98325065920E+02  0.98325065920E+02  0.00000000000E+00 0. -1.
         21   -1    0    0  504  502 -0.00000000000E+00 -0.00000000000E+00 -0.10156821325E+04  0.10156821325E+04  0.00000000000E+00 0. -1.
         25    1    1    2    0    0 -0.26205514428E+02 -0.21877409123E+03 -0.53374806875E+03  0.59081370404E+03  0.12500000000E+03 0.  0.
         21    1    1    2  503  501 -0.47653191755E+02  0.22278920290E+03 -0.13726463417E+03  0.26598390065E+03  0.00000000000E+00 0. -1.
         21    1    1    2  504  503  0.73858706183E+02 -0.40151116734E+01 -0.24634436364E+03  0.25720959371E+03  0.00000000000E+00 0. -1.
<mgrwt>
<rscale>  4 0.25608960E+03</rscale>
<asrwt>0</asrwt>
<pdfrwt beam="1">  1       21 0.15126933E-01 0.25608960E+03</pdfrwt>
<pdfrwt beam="2">  1       21 0.15625880E+00 0.25608960E+03</pdfrwt>
<totfact> 0.99221479E+03</totfact>
</mgrwt>
</event>
<event>
 5    0  0.1257040E+001  0.5751716E+03  0.7546771E-02  0.9958299E-01
         21   -1    0    0  503  501  0.00000000000E+00  0.00000000000E+00  0.49966026369E+03  0.49966026369E+03  0.00000000000E+00 0.  1.
         21   -1    0    0  501  502 -0.00000000000E+00 -0.00000000000E+00 -0.11814555074E+04  0.11814555074E+04  0.00000000000E+00 0.  1.
         25    1    1    2    0    0 -0.85363288706E+02  0.52689683050E+03 -0.86385720395E+03  0.10231233698E+04  0.12500000000E+03 0.  0.
         21    1    1    2  503  504 -0.23331363007E+02  0.29791312776E+02 -0.34158431735E+02  0.50977183870E+02  0.00000000000E+00 0.  1.
         21    1    1    2  504  502  0.10869465171E+03 -0.55668814328E+03  0.21622039201E+03  0.60701521735E+03  0.00000000000E+00 0.  1.
<mgrwt>
<rscale>  4 0.57517164E+03</rscale>
<asrwt>0</asrwt>
<pdfrwt beam="1">  1       21 0.76870810E-01 0.57517164E+03</pdfrwt>
<pdfrwt beam="2">  1       21 0.18176239E+00 0.57517164E+03</pdfrwt>
<totfact> 0.20452772E+02</totfact>
</mgrwt>
</event>
<event>
 5    0  0.1257040E+001  0.2894349E+03  0.7546771E-02  0.1090645E+00
         21   -1    0    0  502  501  0.00000000000E+00  0.00000000000E+00  0.13217280786E+03  0.13217280786E+03  0.00000000000E+00 0.  1.
         21   -1    0    0  504  502 -0.00000000000E+00 -0.00000000000E+00 -0.60876113967E+03  0.60876113967E+03  0.00000000000E+00 0.  1.
         25    1    1    2    0    0  0.87504321400E+02 -0.24594822769E+03 -0.17067489184E+03  0.33600960652E+03  0.12500000000E+03 0.  0.
         21    1    1    2  503  501 -0.78941258312E+02  0.21409559354E+03 -0.28783457245E+03  0.36731102152E+03  0.00000000000E+00 0.  1.
         21    1    1    2  504  503 -0.85630630880E+01  0.31852634154E+02 -0.18078867525E+02  0.37613319490E+02  0.00000000000E+00 0. -1.
<mgrwt>
<rscale>  4 0.28943486E+03</rscale>
<asrwt>0</asrwt>
<pdfrwt beam="1">  1       21 0.20334278E-01 0.28943486E+03</pdfrwt>
<pdfrwt beam="2">  1       21 0.93655560E-01 0.28943486E+03</pdfrwt>
<totfact> 0.20390981E+04</totfact>
</mgrwt>
</event>
<event>
 5    0  0.1257040E+001  0.2294889E+03  0.7546771E-02  0.1127000E+00
         21   -1    0    0  502  501  0.00000000000E+00  0.00000000000E+00  0.19088488083E+03  0.19088488083E+03  0.00000000000E+00 0. -1.
         21   -1    0    0  504  502 -0.00000000000E+00 -0.00000000000E+00 -0.49002822506E+03  0.49002822506E+03  0.00000000000E+00 0. -1.
         25    1    1    2    0    0  0.20142777920E+03  0.45060579808E+02 -0.84760520701E+02  0.25575955887E+03  0.12500000000E+03 0.  0.
         21    1    1    2  503  501 -0.18658642182E+03 -0.64684353245E+01  0.19435576656E+02  0.18770741888E+03  0.00000000000E+00 0. -1.
         21    1    1    2  504  503 -0.14841357376E+02 -0.38592144483E+02 -0.23381840018E+03  0.23744612814E+03  0.00000000000E+00 0. -1.
<mgrwt>
<rscale>  4 0.22948890E+03</rscale>
<asrwt>0</asrwt>
<pdfrwt beam="1">  1       21 0.29366905E-01 0.22948890E+03</pdfrwt>
<pdfrwt beam="2">  1       21 0.75388957E-01 0.22948890E+03</pdfrwt>
<totfact> 0.17079465E+04</totfact>
</mgrwt>
</event>
<event>
 5    0  0.1257040E+001  0.1051347E+04  0.7546771E-02  0.9253954E-01
         21   -1    0    0  502  501  0.00000000000E+00  0.00000000000E+00  0.18175601333E+04  0.18175601333E+04  0.00000000000E+00 0. -1.
         21   -1    0    0  504  502 -0.00000000000E+00 -0.00000000000E+00 -0.64282810540E+03  0.64282810540E+03  0.00000000000E+00 0. -1.
         25    1    1    2    0    0  0.10456807083E+04  0.13025764114E+03  0.45974360602E+03  0.11564620098E+04  0.12500000000E+03 0.  0.
         21    1    1    2  503  501 -0.18539685637E+02 -0.21880554072E+02  0.95124056280E+02  0.99353231821E+02  0.00000000000E+00 0. -1.
         21    1    1    2  504  503 -0.10271410227E+04 -0.10837708707E+03  0.61986436558E+03  0.12045729971E+04  0.00000000000E+00 0. -1.
<mgrwt>
<rscale>  4 0.10513471E+04</rscale>
<asrwt>0</asrwt>
<pdfrwt beam="1">  1       21 0.27962463E+00 0.10513471E+04</pdfrwt>
<pdfrwt beam="2">  1       21 0.98896632E-01 0.10513471E+04</pdfrwt>
<totfact> 0.22106558E+01</totfact>
</mgrwt>
</event>
<event>
 5    0  0.1257040E+001  0.1877645E+03  0.7546771E-02  0.1160493E+00
         21   -1    0    0  502  501  0.00000000000E+00  0.00000000000E+00  0.45075291083E+03  0.45075291083E+03  0.00000000000E+00 0.  1.
         21   -1    0    0  504  502 -0.00000000000E+00 -0.00000000000E+00 -0.29812902132E+03  0.29812902132E+03  0.00000000000E+00 0.  1.
         25    1    1    2    0    0  0.17423108582E+03 -0.10474403481E+03  0.25497040778E+02  0.24000600656E+03  0.12500000000E+03 0.  0.
         21    1    1    2  503  501 -0.41779434109E+02  0.10236135160E+03  0.28328607955E+03  0.30409598860E+03  0.00000000000E+00 0.  1.
         21    1    1    2  504  503 -0.13245165171E+03  0.23826832141E+01 -0.15615923083E+03  0.20477993699E+03  0.00000000000E+00 0.  1.
<mgrwt>
<rscale>  4 0.18776451E+03</rscale>
<asrwt>0</asrwt>
<pdfrwt beam="1">  1       21 0.69346602E-01 0.18776451E+03</pdfrwt>
<pdfrwt beam="2">  1       21 0.45866003E-01 0.18776451E+03</pdfrwt>
<totfact> 0.86489609E+03</totfact>
</mgrwt>
</event>
<event>
 5    0  0.1257040E+001  0.2660371E+03  0.7546771E-02  0.1103569E+00
         21   -1    0    0  502  501  0.00000000000E+00  0.00000000000E+00  0.12159072872E+03  0.12159072872E+03  0.00000000000E+00 0.  1.
         21   -1    0    0  504  502 -0.00000000000E+00 -0.00000000000E+00 -0.67774849620E+03  0.67774849620E+03  0.00000000000E+00 0.  1.
         25    1    1    2    0    0 -0.24565192426E+03 -0.31957827077E+02 -0.16492436856E+03  0.32278664462E+03  0.12500000000E+03 0.  0.
         21    1    1    2  503  501  0.21819724698E+03  0.23328058819E+02 -0.25101291587E+03  0.33340923930E+03  0.00000000000E+00 0.  1.
         21    1    1    2  504  503  0.27454677273E+02  0.86297682586E+01 -0.14022048305E+03  0.14314334100E+03  0.00000000000E+00 0. -1.
<mgrwt>
<rscale>  4 0.26603706E+03</rscale>
<asrwt>0</asrwt>
<pdfrwt beam="1">  1       21 0.18706267E-01 0.26603706E+03</pdfrwt>
<pdfrwt beam="2">  1       21 0.10426900E+00 0.26603706E+03</pdfrwt>
<totfact> 0.18648605E+04</totfact>
</mgrwt>
</event>
<event>
 5    0  0.1257040E+001  0.2777338E+03  0.7546771E-02  0.1096933E+00
         21   -1    0    0  504  501  0.00000000000E+00  0.00000000000E+00  0.70676254156E+03  0.70676254156E+03  0.00000000000E+00 0.  1.
         21   -1    0    0  501  502 -0.00000000000E+00 -0.00000000000E+00 -0.10545721289E+03  0.10545721289E+03  0.00000000000E+00 0.  1.
         25    1    1    2    0    0 -0.37528005326E+02 -0.24515855093E+03  0.27967643790E+03  0.39415095610E+03  0.12500000000E+03 0.  0.
         21    1    1    2  503  502 -0.21243366734E+02  0.10551412495E+03  0.18511441654E+03  0.21413047051E+03  0.00000000000E+00 0.  1.
         21    1    1    2  504  503  0.58771372059E+02  0.13964442598E+03  0.13651447424E+03  0.20393832783E+03  0.00000000000E+00 0.  1.
<mgrwt>
<rscale>  4 0.27773380E+03</rscale>
<asrwt>0</asrwt>
<pdfrwt beam="1">  1       21 0.10873270E+00 0.27773380E+03</pdfrwt>
<pdfrwt beam="2">  1       21 0.16224187E-01 0.27773380E+03</pdfrwt>
<totfact> 0.21823116E+04</totfact>
</mgrwt>
</event>
<event>
 5    0  0.1257040E+001  0.3801696E+03  0.7546771E-02  0.1050871E+00
         21   -1    0    0  503  501  0.00000000000E+00  0.00000000000E+00  0.49982134624E+03  0.49982134624E+03  0.00000000000E+00 0.  1.
         21   -1    0    0  504  502 -0.00000000000E+00 -0.00000000000E+00 -0.30960480434E+03  0.30960480434E+03  0.00000000000E+00 0.  1.
         25    1    1    2    0    0 -0.34716213880E+03  0.53467792678E+02  0.77171520864E+02  0.38073717851E+03  0.12500000000E+03 0.  0.
         21    1    1    2  503  502  0.35695786380E+03 -0.86073802923E+02  0.69990165467E+02  0.37379973160E+03  0.00000000000E+00 0.  1.
         21    1    1    2  504  501 -0.97957250032E+01  0.32606010245E+02  0.43054855562E+02  0.54889240475E+02  0.00000000000E+00 0.  1.
<mgrwt>
<rscale>  4 0.38016957E+03</rscale>
<asrwt>0</asrwt>
<pdfrwt beam="1">  1       21 0.76895591E-01 0.38016957E+03</pdfrwt>
<pdfrwt beam="2">  1       21 0.47631509E-01 0.38016957E+03</pdfrwt>
<totfact> 0.57269714E+03</totfact>
</mgrwt>
</event>
<event>
 5    0  0.1257040E+001  0.2433811E+03  0.7546771E-02  0.1117561E+00
         21   -1    0    0  503  501  0.00000000000E+00  0.00000000000E+00  0.30745575381E+03  0.30745575381E+03  0.00000000000E+00 0. -1.
         21   -1    0    0  504  502 -0.00000000000E+00 -0.00000000000E+00 -0.32781998218E+03  0.32781998218E+03  0.00000000000E+00 0. -1.
         25    1    1    2    0    0  0.18812385361E+03  0.10867735615E+03  0.18649678885E+03  0.31242183708E+03  0.12500000000E+03 0.  0.
         21    1    1    2  503  502 -0.16608336334E+03 -0.12457839464E+03 -0.21023273067E+03  0.29546786803E+03  0.00000000000E+00 0. -1.
         21    1    1    2  504  501 -0.22040490265E+02  0.15901038488E+02  0.33717134560E+01  0.27386030887E+02  0.00000000000E+00 0.  1.
<mgrwt>
<rscale>  4 0.24338107E+03</rscale>
<asrwt>0</asrwt>
<pdfrwt beam="1">  1       21 0.47300885E-01 0.24338107E+03</pdfrwt>
<pdfrwt beam="2">  1       21 0.50433843E-01 0.24338107E+03</pdfrwt>
<totfact> 0.15536544E+04</totfact>
</mgrwt>
</event>
<event>
 5    0  0.1257040E+001  0.2326824E+03  0.7546771E-02  0.1124766E+00
         21   -1    0    0  503  501  0.00000000000E+00  0.00000000000E+00  0.12680024433E+04  0.12680024433E+04  0.00000000000E+00 0.  1.
         21   -1    0    0  504  502 -0.00000000000E+00 -0.00000000000E+00 -0.16744559060E+03  0.16744559060E+03  0.00000000000E+00 0. -1.
         25    1    1    2    0    0  0.20793777853E+03 -0.95170212549E+02  0.10218066310E+04  0.10545185063E+04  0.12500000000E+03 0.  0.
         21    1    1    2  503  502 -0.18084765402E+03  0.71033753466E+02 -0.85820076263E+02  0.21240704693E+03  0.00000000000E+00 0. -1.
         21    1    1    2  504  501 -0.27090124516E+02  0.24136459083E+02  0.16457029795E+03  0.16852248061E+03  0.00000000000E+00 0.  1.
<mgrwt>
<rscale>  4 0.23268241E+03</rscale>
<asrwt>0</asrwt>
<pdfrwt beam="1">  1       21 0.19507729E+00 0.23268241E+03</pdfrwt>
<pdfrwt beam="2">  1       21 0.25760861E-01 0.23268241E+03</pdfrwt>
<totfact> 0.19885131E+03</totfact>
</mgrwt>
</event>
<event>
 5    0  0.1257040E+001  0.4403469E+03  0.7546771E-02  0.1030640E+00
         21   -1    0    0  503  501  0.00000000000E+00  0.00000000000E+00  0.16756104070E+04  0.16756104070E+04  0.00000000000E+00 0.  1.
         21   -1    0    0  504  502 -0.00000000000E+00 -0.00000000000E+00 -0.17705412701E+03  0.17705412701E+03  0.00000000000E+00 0.  1.
         25    1    1    2    0    0 -0.37616040127E+03 -0.15216937517E+03  0.11638227295E+04  0.12388545160E+04  0.12500000000E+03 0.  0.
         21    1    1    2  503  502  0.40304296794E+03  0.14058633299E+03  0.19190446766E+03  0.46801226024E+03  0.00000000000E+00 0.  1.
         21    1    1    2  504  501 -0.26882566674E+02  0.11583042179E+02  0.14282908283E+03  0.14579775773E+03  0.00000000000E+00 0. -1.
<mgrwt>
<rscale>  4 0.44034691E+03</rscale>
<asrwt>0</asrwt>
<pdfrwt beam="1">  1       21 0.25778621E+00 0.44034691E+03</pdfrwt>
<pdfrwt beam="2">  1       21 0.27239098E-01 0.44034691E+03</pdfrwt>
<totfact> 0.62777449E+02</totfact>
</mgrwt>
</event>
<event>
 5    0  0.1257040E+001  0.2762251E+03  0.7546771E-02  0.1097769E+00
         21   -1    0    0  502  501  0.00000000000E+00  0.00000000000E+00  0.39742658762E+03  0.39742658762E+03  0.00000000000E+00 0. -1.
         21   -1    0    0  504  502 -0.00000000000E+00 -0.00000000000E+00 -0.46855287515E+03  0.46855287515E+03  0.00000000000E+00 0.  1.
         25    1    1    2    0    0 -0.52084998932E+02  0.23326916920E+03  0.22963600566E+03  0.35423868720E+03  0.12500000000E+03 0.  0.
         21    1    1    2  503  501 -0.20124662260E+02  0.33065367166E+01  0.66159795619E+02  0.69231884075E+02  0.00000000000E+00 0.  1.
         21    1    1    2  504  503  0.72209661192E+02 -0.23657570592E+03 -0.36692208881E+03  0.44250889150E+03  0.00000000000E+00 0.  1.
<mgrwt>
<rscale>  4 0.27622512E+03</rscale>
<asrwt>0</asrwt>
<pdfrwt beam="1">  1       21 0.61142552E-01 0.27622512E+03</pdfrwt>
<pdfrwt beam="2">  1       21 0.72085058E-01 0.27622512E+03</pdfrwt>
<totfact> 0.40797445E+03</totfact>
</mgrwt>
</event>
<event>
 5    0  0.1257040E+001  0.3207870E+03  0.7546771E-02  0.1075288E+00
         21   -1    0    0  502  501  0.00000000000E+00  0.00000000000E+00  0.58495360759E+03  0.58495360759E+03  0.00000000000E+00 0. -1.
         21   -1    0    0  504  502 -0.00000000000E+00 -0.00000000000E+00 -0.44630390207E+03  0.44630390207E+03  0.00000000000E+00 0. -1.
         25    1    1    2    0    0  0.30043413157E+03 -0.15649233561E+03 -0.72235470842E+02  0.36823020214E+03  0.12500000000E+03 0.  0.
         21    1    1    2  503  501 -0.20438850893E+03  0.20355579868E+03  0.37132520310E+03  0.47020424521E+03  0.00000000000E+00 0. -1.
         21    1    1    2  504  503 -0.96045622644E+02 -0.47063463063E+02 -0.16044002673E+03  0.19282306232E+03  0.00000000000E+00 0. -1.
<mgrwt>
<rscale>  4 0.32078701E+03</rscale>
<asrwt>0</asrwt>
<pdfrwt beam="1">  1       21 0.89992863E-01 0.32078701E+03</pdfrwt>
<pdfrwt beam="2">  1       21 0.68662139E-01 0.32078701E+03</pdfrwt>
<totfact> 0.18546706E+03</totfact>
</mgrwt>
</event>
<event>
 5    0  0.1257040E+001  0.2104683E+03  0.7546771E-02  0.1141196E+00
         21   -1    0    0  502  501  0.00000000000E+00  0.00000000000E+00  0.25048740360E+03  0.25048740360E+03  0.00000000000E+00 0. -1.
         21   -1    0    0  504  502 -0.00000000000E+00 -0.00000000000E+00 -0.69129269527E+03  0.69129269527E+03  0.00000000000E+00 0. -1.
         25    1    1    2    0    0 -0.24106059766E+03  0.12651967578E+03 -0.34741033823E+03  0.45873345552E+03  0.12500000000E+03 0.  0.
         21    1    1    2  503  501  0.10744156847E+03 -0.12033222462E+03  0.14028981370E+03  0.21378673192E+03  0.00000000000E+00 0. -1.
         21    1    1    2  504  503  0.13361902919E+03 -0.61874511583E+01 -0.23368476714E+03  0.26925991144E+03  0.00000000000E+00 0. -1.
<mgrwt>
<rscale>  4 0.21046826E+03</rscale>
<asrwt>0</asrwt>
<pdfrwt beam="1">  1       21 0.38536524E-01 0.21046826E+03</pdfrwt>
<pdfrwt beam="2">  1       21 0.10635272E+00 0.21046826E+03</pdfrwt>
<totfact> 0.45355891E+03</totfact>
</mgrwt>
</event>
<event>
 5    0  0.1257040E+001  0.2323489E+03  0.7546771E-02  0.1124997E+00
         21   -1    0    0  502  501  0.00000000000E+00  0.00000000000E+00  0.20205926186E+04  0.20205926186E+04  0.00000000000E+00 0.  1.
         21   -1    0    0  504  502 -0.00000000000E+00 -0.00000000000E+00 -0.20310360579E+03  0.20310360579E+03  0.00000000000E+00 0.  1.
         25    1    1    2    0    0  0.18067182585E+03  0.97718404904E+02 -0.83567461318E+02  0.25455788321E+03  0.12500000000E+03 0.  0.
         21    1    1    2  503  501 -0.13179926813E+03 -0.14494678756E+03  0.18901853242E+04  0.19003108109E+04  0.00000000000E+00 0.  1.
         21    1    1    2  504  503 -0.48872557719E+02  0.47228382661E+02  0.10871149986E+02  0.68827530311E+02  0.00000000000E+00 0.  1.
<mgrwt>
<rscale>  4 0.23234891E+03</rscale>
<asrwt>0</asrwt>
<pdfrwt beam="1">  1       21 0.31086039E+00 0.23234891E+03</pdfrwt>
<pdfrwt beam="2">  1       21 0.31246710E-01 0.23234891E+03</pdfrwt>
<totfact> 0.27499843E+02</totfact>
</mgrwt>
</event>
<event>
 5    0  0.1257040E+001  0.3084073E+03  0.7546771E-02  0.1081112E+00
         21   -1    0    0  503  501  0.00000000000E+00  0.00000000000E+00  0.14374174898E+03  0.14374174898E+03  0.00000000000E+00 0. -1.
         21   -1    0    0  504  502 -0.00000000000E+00 -0.00000000000E+00 -0.77678793291E+03  0.77678793291E+03  0.00000000000E+00 0. -1.
         25    1    1    2    0    0 -0.23317553682E+03 -0.14743360548E+03 -0.14028759812E+03  0.33378602305E+03  0.12500000000E+03 0.  0.
         21    1    1    2  503  502  0.24341767884E+03  0.16699429688E+03 -0.47016547153E+03  0.55515298089E+03  0.00000000000E+00 0. -1.
         21    1    1    2  504  501 -0.10242142019E+02 -0.19560691404E+02 -0.22593114279E+02  0.31590677963E+02  0.00000000000E+00 0. -1.
<mgrwt>
<rscale>  4 0.30840734E+03</rscale>
<asrwt>0</asrwt>
<pdfrwt beam="1">  1       21 0.22114115E-01 0.30840734E+03</pdfrwt>
<pdfrwt beam="2">  1       21 0.11950584E+00 0.30840734E+03</pdfrwt>
<totfact> 0.95322231E+03</totfact>
</mgrwt>
</event>
<event>
 5    0  0.1257040E+001  0.2843236E+03  0.7546771E-02  0.1093351E+00
         21   -1    0    0  503  501  0.00000000000E+00  0.00000000000E+00  0.96104338789E+03  0.96104338789E+03  0.00000000000E+00 0.  1.
         21   -1    0    0  504  502 -0.00000000000E+00 -0.00000000000E+00 -0.11635582432E+04  0.11635582432E+04  0.00000000000E+00 0. -1.
         25    1    1    2    0    0 -0.33917279798E+03  0.14165748695E+02 -0.75006108608E+03  0.83273974817E+03  0.12500000000E+03 0.  0.
         21    1    1    2  503  502  0.86568576090E+02 -0.36195498119E+02 -0.34835436669E+03  0.36077000602E+03  0.00000000000E+00 0. -1.
         21    1    1    2  504  501  0.25260422189E+03  0.22029749424E+02  0.89590059744E+03  0.93109187692E+03  0.00000000000E+00 0.  1.
<mgrwt>
<rscale>  4 0.28432362E+03</rscale>
<asrwt>0</asrwt>
<pdfrwt beam="1">  1       21 0.14785283E+00 0.28432362E+03</pdfrwt>
<pdfrwt beam="2">  1       21 0.17900896E+00 0.28432362E+03</pdfrwt>
<totfact> 0.51130486E+01</totfact>
</mgrwt>
</event>
<event>
 5    0  0.1257040E+001  0.2215280E+03  0.7546771E-02  0.1132749E+00
         21   -1    0    0  504  501  0.00000000000E+00  0.00000000000E+00  0.17948586039E+03  0.17948586039E+03  0.00000000000E+00 0. -1.
         21   -1    0    0  503  502 -0.00000000000E+00 -0.00000000000E+00 -0.65042494105E+03  0.65042494105E+03  0.00000000000E+00 0.  1.
         25    1    1    2    0    0  0.18525774260E+03 -0.94419672488E+02 -0.32036253281E+03  0.40186149128E+03  0.12500000000E+03 0.  0.
         21    1    1    2  503  501 -0.17278701314E+02  0.32461377435E+02 -0.22946911057E+03  0.23239700353E+03  0.00000000000E+00 0.  1.
         21    1    1    2  504  502 -0.16797904129E+03  0.61958295052E+02  0.78892562722E+02  0.19565230663E+03  0.00000000000E+00 0. -1.
<mgrwt>
<rscale>  4 0.22152797E+03</rscale>
<asrwt>0</asrwt>
<pdfrwt beam="1">  1       21 0.27613210E-01 0.22152797E+03</pdfrwt>
<pdfrwt beam="2">  1       21 0.10006537E+00 0.22152797E+03</pdfrwt>
<totfact> 0.10059543E+04</totfact>
</mgrwt>
</event>
<event>
 5    0  0.1257040E+001  0.2494139E+03  0.7546771E-02  0.1113676E+00
         21   -1    0    0  503  501  0.00000000000E+00  0.00000000000E+00  0.30582101115E+03  0.30582101115E+03  0.00000000000E+00 0. -1.
         21   -1    0    0  504  502 -0.00000000000E+00 -0.00000000000E+00 -0.22013068857E+03  0.22013068857E+03  0.00000000000E+00 0. -1.
         25    1    1    2    0    0 -0.16971785869E+03  0.11639311069E+03  0.82965505307E+02  0.25467583875E+03  0.12500000000E+03 0.  0.
         21    1    1    2  503  502 -0.23998110379E+02  0.25561720202E+01 -0.33292004313E+02  0.41119349075E+02  0.00000000000E+00 0. -1.
         21    1    1    2  504  501  0.19371596907E+03 -0.11894928271E+03  0.36016821588E+02  0.23015651189E+03  0.00000000000E+00 0. -1.
<mgrwt>
<rscale>  4 0.24941391E+03</rscale>
<asrwt>0</asrwt>
<pdfrwt beam="1">  1       21 0.47049386E-01 0.24941391E+03</pdfrwt>
<pdfrwt beam="2">  1       21 0.33866260E-01 0.24941391E+03</pdfrwt>
<totfact> 0.35332729E+04</totfact>
</mgrwt>
</event>
