<event>
 5    0  0.2396052E+000  0.6103994E+03  0.7546771E-02  0.9884062E-01
         21   -1    0    0  501  502  0.00000000000E+00  0.00000000000E+00  0.82043908192E+03  0.82043908192E+03  0.00000000000E+00 0. -1.
          2   -1    0    0  503    0 -0.00000000000E+00 -0.00000000000E+00 -0.17502928778E+03  0.17502928778E+03  0.00000000000E+00 0. -1.
         25    1    1    2    0    0 -0.58677879507E+01  0.27291329981E+03  0.50029861773E+03  0.58347219904E+03  0.12500000000E+03 0.  0.
         21    1    1    2  503  502 -0.25129468995E+02 -0.28100301020E+03  0.20180941077E+03  0.34687349312E+03  0.00000000000E+00 0. -1.
          2    1    1    2  501    0  0.30997256946E+02  0.80897103891E+01 -0.56698234354E+02  0.65122677550E+02  0.00000000000E+00 0. -1.
<mgrwt>
<rscale>  4 0.61039940E+03</rscale>
<asrwt>0</asrwt>
<pdfrwt beam="1">  1       21 0.12622139E+00 0.61039940E+03</pdfrwt>
<pdfrwt beam="2">  1        2 0.26927583E-01 0.61039940E+03</pdfrwt>
<totfact> 0.10053293E+03</totfact>
</mgrwt>
</event>
<event>
 5    0  0.2396052E+000  0.4097037E+03  0.7546771E-02  0.1040470E+00
         21   -1    0    0  501  502  0.00000000000E+00  0.00000000000E+00  0.43693268272E+02  0.43693268272E+02  0.00000000000E+00 0. -1.
          1   -1    0    0  503    0 -0.00000000000E+00 -0.00000000000E+00 -0.17704769007E+04  0.17704769007E+04  0.00000000000E+00 0.  1.
         25    1    1    2    0    0  0.82483653045E+00 -0.20142731047E+03 -0.47683587912E+03  0.53251394102E+03  0.12500000000E+03 0.  0.
         21    1    1    2  503  502  0.28383193358E+02  0.16672064161E+03 -0.45497216246E+03  0.48538752210E+03  0.00000000000E+00 0.  1.
          1    1    1    2  501    0 -0.29208029888E+02  0.34706668861E+02 -0.79497559088E+03  0.79626870589E+03  0.00000000000E+00 0.  1.
<mgrwt>
<rscale>  4 0.40970375E+03</rscale>
<asrwt>0</asrwt>
<pdfrwt beam="1">  1       21 0.67220424E-02 0.40970375E+03</pdfrwt>
<pdfrwt beam="2">  1        1 0.27238102E+00 0.40970375E+03</pdfrwt>
<totfact> 0.82974377E+03</totfact>
</mgrwt>
</event>
<event>
 5    0  0.2396052E+000  0.5533767E+03  0.7546771E-02  0.1000715E+00
         21   -1    0    0  501  502  0.00000000000E+00  0.00000000000E+00  0.12540976679E+03  0.12540976679E+03  0.00000000000E+00 0.  1.
          1   -1    0    0  503    0 -0.00000000000E+00 -0.00000000000E+00 -0.20759335993E+04  0.20759335993E+04  0.00000000000E+00 0.  1.
         25    1    1    2    0    0 -0.38516039140E+03  0.88623189004E+02 -0.92057923590E+03  0.10096007757E+04  0.12500000000E+03 0.  0.
         21    1    1    2  503  502 -0.36398385052E+02 -0.11890214408E+03 -0.49285617227E+03  0.50830086450E+03  0.00000000000E+00 0. -1.
          1    1    1    2  501    0  0.42155877646E+03  0.30278955072E+02 -0.53708842436E+03  0.68344172591E+03  0.00000000000E+00 0.  1.
<mgrwt>
<rscale>  4 0.55337667E+03</rscale>
<asrwt>0</asrwt>
<pdfrwt beam="1">  1       21 0.19293811E-01 0.55337667E+03</pdfrwt>
<pdfrwt beam="2">  1        1 0.31937439E+00 0.55337667E+03</pdfrwt>
<totfact> 0.74082084E+02</totfact>
</mgrwt>
</event>
<event>
 5    0  0.2396052E+000  0.3887219E+03  0.7546771E-02  0.1047756E+00
          2   -1    0    0  503    0 -0.00000000000E+00  0.00000000000E+00  0.69319400617E+03  0.69319400617E+03  0.00000000000E+00 0. -1.
         21   -1    0    0  501  502  0.00000000000E+00 -0.00000000000E+00 -0.25894762302E+03  0.25894762302E+03  0.00000000000E+00 0.  1.
         25    1    1    2    0    0 -0.13983485520E+03 -0.14538518187E+03  0.13365205394E+02  0.23768522578E+03  0.12500000000E+03 0.  0.
         21    1    1    2  503  502  0.74464142708E+02  0.85412709580E+02 -0.12075927393E+03  0.16559903909E+03  0.00000000000E+00 0.  1.
          2    1    1    2  501    0  0.65370712496E+02  0.59972472287E+02  0.54164045168E+03  0.54885736433E+03  0.00000000000E+00 0. -1.
<mgrwt>
<rscale>  4 0.38872190E+03</rscale>
<asrwt>0</asrwt>
<pdfrwt beam="1">  1       21 0.39838096E-01 0.38872190E+03</pdfrwt>
<pdfrwt beam="2">  1        2 0.10664523E+00 0.38872190E+03</pdfrwt>
<totfact> 0.30677353E+03</totfact>
</mgrwt>
</event>
<event>
 5    0  0.2396052E+000  0.7197524E+03  0.7546771E-02  0.9684037E-01
          2   -1    0    0  503    0 -0.00000000000E+00  0.00000000000E+00  0.53605331332E+03  0.53605331332E+03  0.00000000000E+00 0. -1.
         21   -1    0    0  501  502  0.00000000000E+00 -0.00000000000E+00 -0.90917801501E+03  0.90917801501E+03  0.00000000000E+00 0. -1.
         25    1    1    2    0    0  0.16471393624E+02  0.24310800384E+03 -0.63000288802E+02  0.28101039968E+03  0.12500000000E+03 0.  0.
         21    1    1    2  503  502  0.28893423779E+02 -0.31510122192E+03 -0.69839618201E+03  0.76673387628E+03  0.00000000000E+00 0. -1.
          2    1    1    2  501    0 -0.45364817403E+02  0.71993218087E+02  0.38827176912E+03  0.39748705238E+03  0.00000000000E+00 0. -1.
<mgrwt>
<rscale>  4 0.71975238E+03</rscale>
<asrwt>0</asrwt>
<pdfrwt beam="1">  1       21 0.13987354E+00 0.71975238E+03</pdfrwt>
<pdfrwt beam="2">  1        2 0.82469741E-01 0.71975238E+03</pdfrwt>
<totfact> 0.21334960E+02</totfact>
</mgrwt>
</event>
<event>
 5    0  0.2396052E+000  0.5348996E+03  0.7546771E-02  0.1005051E+00
          2   -1    0    0  503    0 -0.00000000000E+00  0.00000000000E+00  0.55972764050E+03  0.55972764050E+03  0.00000000000E+00 0.  1.
         21   -1    0    0  501  502  0.00000000000E+00 -0.00000000000E+00 -0.28811960058E+03  0.28811960058E+03  0.00000000000E+00 0. -1.
         25    1    1    2    0    0 -0.16636397747E+03  0.12009781369E+03  0.21658691383E+02  0.24123547991E+03  0.12500000000E+03 0.  0.
         21    1    1    2  503  502  0.13711150915E+03 -0.25809008162E+03 -0.29342774794E+02  0.29371934666E+03  0.00000000000E+00 0. -1.
          2    1    1    2  501    0  0.29252468321E+02  0.13799226792E+03  0.27929212333E+03  0.31289241452E+03  0.00000000000E+00 0.  1.
<mgrwt>
<rscale>  4 0.53489964E+03</rscale>
<asrwt>0</asrwt>
<pdfrwt beam="1">  1       21 0.44326093E-01 0.53489964E+03</pdfrwt>
<pdfrwt beam="2">  1        2 0.86111944E-01 0.53489964E+03</pdfrwt>
<totfact> 0.30979522E+03</totfact>
</mgrwt>
</event>
<event>
 5    0  0.2396052E+000  0.9152198E+03  0.7546771E-02  0.9406753E-01
          1   -1    0    0  503    0 -0.00000000000E+00  0.00000000000E+00  0.22835103655E+04  0.22835103655E+04  0.00000000000E+00 0.  1.
         21   -1    0    0  501  502  0.00000000000E+00 -0.00000000000E+00 -0.10461685075E+03  0.10461685075E+03  0.00000000000E+00 0.  1.
         25    1    1    2    0    0  0.33990565457E+03 -0.35904405038E+02  0.16868644569E+04  0.17256771645E+04  0.12500000000E+03 0.  0.
         21    1    1    2  503  502 -0.32417154606E+03  0.10359998822E+02  0.22736885292E+03  0.39609483224E+03  0.00000000000E+00 0.  1.
          1    1    1    2  501    0 -0.15734108512E+02  0.25544406216E+02  0.26466020500E+03  0.26635521953E+03  0.00000000000E+00 0.  1.
<mgrwt>
<rscale>  4 0.91521978E+03</rscale>
<asrwt>0</asrwt>
<pdfrwt beam="1">  1       21 0.16094902E-01 0.91521978E+03</pdfrwt>
<pdfrwt beam="2">  1        1 0.35130925E+00 0.91521978E+03</pdfrwt>
<totfact> 0.71117334E+02</totfact>
</mgrwt>
</event>
<event>
 5    0  0.2396052E+000  0.6082002E+03  0.7546771E-02  0.9888538E-01
         21   -1    0    0  501  502  0.00000000000E+00  0.00000000000E+00  0.65508155086E+03  0.65508155086E+03  0.00000000000E+00 0.  1.
          2   -1    0    0  503    0 -0.00000000000E+00 -0.00000000000E+00 -0.17422496745E+04  0.17422496745E+04  0.00000000000E+00 0. -1.
         25    1    1    2    0    0 -0.45046488894E+03  0.29439184917E+02  0.47052550014E+03  0.66393111695E+03  0.12500000000E+03 0.  0.
         21    1    1    2  503  502 -0.20414203279E+02 -0.10279108655E+03 -0.37765507876E+00  0.10479928336E+03  0.00000000000E+00 0. -1.
          2    1    1    2  501    0  0.47087909222E+03  0.73351901632E+02 -0.15573159687E+04  0.16286008250E+04  0.00000000000E+00 0. -1.
<mgrwt>
<rscale>  4 0.60820016E+03</rscale>
<asrwt>0</asrwt>
<pdfrwt beam="1">  1       21 0.10078178E+00 0.60820016E+03</pdfrwt>
<pdfrwt beam="2">  1        2 0.26803841E+00 0.60820016E+03</pdfrwt>
<totfact> 0.85225066E+01</totfact>
</mgrwt>
</event>
<event>
 5    0  0.2396052E+000  0.4091486E+03  0.7546771E-02  0.1040657E+00
         -3   -1    0    0    0  501 -0.00000000000E+00  0.00000000000E+00  0.51646169536E+03  0.51646169536E+03  0.00000000000E+00 0.  1.
         21   -1    0    0  501  502  0.00000000000E+00 -0.00000000000E+00 -0.20196753275E+03  0.20196753275E+03  0.00000000000E+00 0.  1.
         25    1    1    2    0    0 -0.52756134450E+02 -0.19360097105E+03  0.79069333412E+01  0.23654188912E+03  0.12500000000E+03 0.  0.
         21    1    1    2  503  502  0.79549634973E+02  0.15329253027E+03  0.12204358306E+01  0.17270852245E+03  0.00000000000E+00 0.  1.
         -3    1    1    2    0  503 -0.26793500522E+02  0.40308440780E+02  0.30536679343E+03  0.30917881654E+03  0.00000000000E+00 0.  1.
<mgrwt>
<rscale>  4 0.40914862E+03</rscale>
<asrwt>0</asrwt>
<pdfrwt beam="1">  1       21 0.31071928E-01 0.40914862E+03</pdfrwt>
<pdfrwt beam="2">  1       -3 0.79455645E-01 0.40914862E+03</pdfrwt>
<totfact> 0.72675500E+02</totfact>
</mgrwt>
</event>
<event>
 5    0  0.2396052E+000  0.9055909E+03  0.7546771E-02  0.9418619E-01
          1   -1    0    0  503    0 -0.00000000000E+00  0.00000000000E+00  0.58225079869E+03  0.58225079869E+03  0.00000000000E+00 0. -1.
         21   -1    0    0  501  502  0.00000000000E+00 -0.00000000000E+00 -0.95313736314E+03  0.95313736314E+03  0.00000000000E+00 0.  1.
         25    1    1    2    0    0  0.18709229973E+03  0.78098269797E+02  0.13285602979E+03  0.27272439021E+03  0.12500000000E+03 0.  0.
         21    1    1    2  503  502 -0.17703043036E+03 -0.11334663812E+03 -0.86976707208E+03  0.89480835564E+03  0.00000000000E+00 0.  1.
          1    1    1    2  501    0 -0.10061869372E+02  0.35248368322E+02  0.36602447785E+03  0.36785541598E+03  0.00000000000E+00 0. -1.
<mgrwt>
<rscale>  4 0.90559087E+03</rscale>
<asrwt>0</asrwt>
<pdfrwt beam="1">  1       21 0.14663651E+00 0.90559087E+03</pdfrwt>
<pdfrwt beam="2">  1        1 0.89577048E-01 0.90559087E+03</pdfrwt>
<totfact> 0.10063232E+02</totfact>
</mgrwt>
</event>
<event>
 5    0  0.2396052E+000  0.4124561E+03  0.7546771E-02  0.1039550E+00
          2   -1    0    0  503    0 -0.00000000000E+00  0.00000000000E+00  0.26140919102E+04  0.26140919102E+04  0.00000000000E+00 0.  1.
         21   -1    0    0  501  502  0.00000000000E+00 -0.00000000000E+00 -0.83504398391E+02  0.83504398391E+02  0.00000000000E+00 0. -1.
         25    1    1    2    0    0  0.22182825677E+03  0.13169056621E+03  0.31455488054E+03  0.42558189999E+03  0.12500000000E+03 0.  0.
         21    1    1    2  503  502 -0.12549128370E+03  0.86965311001E+01  0.13688284711E+03  0.18590482988E+03  0.00000000000E+00 0.  1.
          2    1    1    2  501    0 -0.96336973062E+02 -0.14038709731E+03  0.20791497842E+04  0.20861095787E+04  0.00000000000E+00 0.  1.
<mgrwt>
<rscale>  4 0.41245606E+03</rscale>
<asrwt>0</asrwt>
<pdfrwt beam="1">  1       21 0.12846833E-01 0.41245606E+03</pdfrwt>
<pdfrwt beam="2">  1        2 0.40216792E+00 0.41245606E+03</pdfrwt>
<totfact> 0.21383680E+03</totfact>
</mgrwt>
</event>
<event>
 5    0  0.2396052E+000  0.4350282E+03  0.7546771E-02  0.1032283E+00
          2   -1    0    0  503    0 -0.00000000000E+00  0.00000000000E+00  0.12172344692E+04  0.12172344692E+04  0.00000000000E+00 0. -1.
         21   -1    0    0  501  502  0.00000000000E+00 -0.00000000000E+00 -0.18799435840E+03  0.18799435840E+03  0.00000000000E+00 0. -1.
         25    1    1    2    0    0  0.25137764615E+02  0.21738625730E+03  0.29185491846E+02  0.25370353763E+03  0.12500000000E+03 0.  0.
         21    1    1    2  503  502 -0.11053645476E+01 -0.18268386424E+03  0.35570512463E+02  0.18611791274E+03  0.00000000000E+00 0. -1.
          2    1    1    2  501    0 -0.24032400067E+02 -0.34702393057E+02  0.96448410649E+03  0.96540737722E+03  0.00000000000E+00 0. -1.
<mgrwt>
<rscale>  4 0.43502824E+03</rscale>
<asrwt>0</asrwt>
<pdfrwt beam="1">  1       21 0.28922210E-01 0.43502824E+03</pdfrwt>
<pdfrwt beam="2">  1        2 0.18726684E+00 0.43502824E+03</pdfrwt>
<totfact> 0.26395381E+03</totfact>
</mgrwt>
</event>
<event>
 5    0  0.2396052E+000  0.4796751E+03  0.7546771E-02  0.1019225E+00
         21   -1    0    0  501  502  0.00000000000E+00  0.00000000000E+00  0.23482938888E+03  0.23482938888E+03  0.00000000000E+00 0. -1.
          1   -1    0    0  503    0 -0.00000000000E+00 -0.00000000000E+00 -0.90232582656E+03  0.90232582656E+03  0.00000000000E+00 0.  1.
         25    1    1    2    0    0 -0.24792919341E+02  0.27509703254E+03  0.13109849916E+02  0.30346323389E+03  0.12500000000E+03 0.  0.
         21    1    1    2  503  502 -0.66979940838E+02 -0.15867172912E+03 -0.40881825427E+02  0.17701512293E+03  0.00000000000E+00 0.  1.
          1    1    1    2  501    0  0.91772860179E+02 -0.11642530342E+03 -0.63972446217E+03  0.65667685862E+03  0.00000000000E+00 0.  1.
<mgrwt>
<rscale>  4 0.47967507E+03</rscale>
<asrwt>0</asrwt>
<pdfrwt beam="1">  1       21 0.36127598E-01 0.47967507E+03</pdfrwt>
<pdfrwt beam="2">  1        1 0.13881936E+00 0.47967507E+03</pdfrwt>
<totfact> 0.14364848E+03</totfact>
</mgrwt>
</event>
<event>
 5    0  0.2396052E+000  0.3790533E+03  0.7546771E-02  0.1051284E+00
          2   -1    0    0  503    0 -0.00000000000E+00  0.00000000000E+00  0.10464125581E+04  0.10464125581E+04  0.00000000000E+00 0. -1.
         21   -1    0    0  501  502  0.00000000000E+00 -0.00000000000E+00 -0.15756102248E+03  0.15756102248E+03  0.00000000000E+00 0. -1.
         25    1    1    2    0    0 -0.13292311094E+03  0.15904724843E+03  0.10527707188E+03  0.26395613749E+03  0.12500000000E+03 0.  0.
         21    1    1    2  503  502  0.70300193361E+02 -0.96336091682E+02 -0.28910388277E+02  0.12271336642E+03  0.00000000000E+00 0. -1.
          2    1    1    2  501    0  0.62622917575E+02 -0.62711156749E+02  0.81248485198E+03  0.81730407663E+03  0.00000000000E+00 0. -1.
<mgrwt>
<rscale>  4 0.37905334E+03</rscale>
<asrwt>0</asrwt>
<pdfrwt beam="1">  1       21 0.24240158E-01 0.37905334E+03</pdfrwt>
<pdfrwt beam="2">  1        2 0.16098654E+00 0.37905334E+03</pdfrwt>
<totfact> 0.47636353E+03</totfact>
</mgrwt>
</event>
<event>
 5    0  0.2396052E+000  0.4573484E+03  0.7546771E-02  0.1025553E+00
         21   -1    0    0  501  502  0.00000000000E+00  0.00000000000E+00  0.10802280177E+03  0.10802280177E+03  0.00000000000E+00 0.  1.
          4   -1    0    0  503    0 -0.00000000000E+00 -0.00000000000E+00 -0.71017061201E+03  0.71017061201E+03  0.00000000000E+00 0.  1.
         25    1    1    2    0    0 -0.21806435680E+03  0.42296850947E+02 -0.28566607624E+03  0.38284617593E+03  0.12500000000E+03 0.  0.
         21    1    1    2  503  502  0.16585601454E+03 -0.10943800351E+03 -0.15200132518E+03  0.25017853031E+03  0.00000000000E+00 0.  1.
          4    1    1    2  501    0  0.52208342263E+02  0.67141152559E+02 -0.16448040882E+03  0.18516870754E+03  0.00000000000E+00 0.  1.
<mgrwt>
<rscale>  4 0.45734836E+03</rscale>
<asrwt>0</asrwt>
<pdfrwt beam="1">  1       21 0.16618893E-01 0.45734836E+03</pdfrwt>
<pdfrwt beam="2">  1        4 0.10925702E+00 0.45734836E+03</pdfrwt>
<totfact> 0.94601944E+02</totfact>
</mgrwt>
</event>
<event>
 5    0  0.2396052E+000  0.4934118E+03  0.7546771E-02  0.1015513E+00
         21   -1    0    0  501  502  0.00000000000E+00  0.00000000000E+00  0.44910911585E+02  0.44910911585E+02  0.00000000000E+00 0. -1.
          2   -1    0    0  503    0 -0.00000000000E+00 -0.00000000000E+00 -0.26720529057E+04  0.26720529057E+04  0.00000000000E+00 0. -1.
         25    1    1    2    0    0  0.14291059454E+03  0.17525171770E+03 -0.11580592452E+04  0.11865339515E+04  0.12500000000E+03 0.  0.
         21    1    1    2  503  502 -0.10602748003E+03 -0.11772586474E+03 -0.18104007662E+03  0.24057579906E+03  0.00000000000E+00 0. -1.
          2    1    1    2  501    0 -0.36883114512E+02 -0.57525852961E+02 -0.12880426723E+04  0.12898540667E+04  0.00000000000E+00 0. -1.
<mgrwt>
<rscale>  4 0.49341184E+03</rscale>
<asrwt>0</asrwt>
<pdfrwt beam="1">  1       21 0.69093695E-02 0.49341184E+03</pdfrwt>
<pdfrwt beam="2">  1        2 0.41108515E+00 0.49341184E+03</pdfrwt>
<totfact> 0.58995742E+03</totfact>
</mgrwt>
</event>
<event>
 5    0  0.2396052E+000  0.4139109E+03  0.7546771E-02  0.1039067E+00
         21   -1    0    0  501  502  0.00000000000E+00  0.00000000000E+00  0.10857865113E+04  0.10857865113E+04  0.00000000000E+00 0. -1.
          1   -1    0    0  503    0 -0.00000000000E+00 -0.00000000000E+00 -0.60151199593E+03  0.60151199593E+03  0.00000000000E+00 0.  1.
         25    1    1    2    0    0  0.26992001017E+03  0.11710906840E+03  0.97783913738E+03  0.10287690335E+04  0.12500000000E+03 0.  0.
         21    1    1    2  503  502 -0.42200902148E+02  0.34782576751E+02  0.33847758999E+02  0.64314963864E+02  0.00000000000E+00 0.  1.
          1    1    1    2  501    0 -0.22771910802E+03 -0.15189164515E+03 -0.52741238101E+03  0.59421450981E+03  0.00000000000E+00 0.  1.
<mgrwt>
<rscale>  4 0.41391092E+03</rscale>
<asrwt>0</asrwt>
<pdfrwt beam="1">  1       21 0.16704408E+00 0.41391092E+03</pdfrwt>
<pdfrwt beam="2">  1        1 0.92540307E-01 0.41391092E+03</pdfrwt>
<totfact> 0.75882342E+01</totfact>
</mgrwt>
</event>
<event>
 5    0  0.2396052E+000  0.9211600E+03  0.7546771E-02  0.9399510E-01
          2   -1    0    0  503    0 -0.00000000000E+00  0.00000000000E+00  0.16403931404E+04  0.16403931404E+04  0.00000000000E+00 0. -1.
         21   -1    0    0  501  502  0.00000000000E+00 -0.00000000000E+00 -0.54212966214E+03  0.54212966214E+03  0.00000000000E+00 0. -1.
         25    1    1    2    0    0 -0.28227077493E+03 -0.29498337889E+02 -0.45788688083E+03  0.55302110082E+03  0.12500000000E+03 0.  0.
         21    1    1    2  503  502  0.22031015887E+03  0.30205002883E+02  0.30837918811E+03  0.38019288784E+03  0.00000000000E+00 0.  1.
          2    1    1    2  501    0  0.61960616062E+02 -0.70666499429E+00  0.12477711710E+04  0.12493088139E+04  0.00000000000E+00 0. -1.
<mgrwt>
<rscale>  4 0.92116003E+03</rscale>
<asrwt>0</asrwt>
<pdfrwt beam="1">  1       21 0.83404564E-01 0.92116003E+03</pdfrwt>
<pdfrwt beam="2">  1        2 0.25236817E+00 0.92116003E+03</pdfrwt>
<totfact> 0.14258036E+02</totfact>
</mgrwt>
</event>
<event>
 5    0  0.2396052E+000  0.6247356E+03  0.7546771E-02  0.9855376E-01
          1   -1    0    0  503    0 -0.00000000000E+00  0.00000000000E+00  0.12000127527E+04  0.12000127527E+04  0.00000000000E+00 0.  1.
         21   -1    0    0  501  502  0.00000000000E+00 -0.00000000000E+00 -0.31602869173E+03  0.31602869173E+03  0.00000000000E+00 0.  1.
         25    1    1    2    0    0  0.29222584754E+03 -0.36094729544E+02 -0.95125776221E+02  0.33372546917E+03  0.12500000000E+03 0.  0.
         21    1    1    2  503  502 -0.27702072912E+03  0.13349729286E+02  0.88261692452E+02  0.29104780705E+03  0.00000000000E+00 0.  1.
          1    1    1    2  501    0 -0.15205118413E+02  0.22745000258E+02  0.89084814471E+03  0.89126816817E+03  0.00000000000E+00 0.  1.
<mgrwt>
<rscale>  4 0.62473557E+03</rscale>
<asrwt>0</asrwt>
<pdfrwt beam="1">  1       21 0.48619799E-01 0.62473557E+03</pdfrwt>
<pdfrwt beam="2">  1        1 0.18461734E+00 0.62473557E+03</pdfrwt>
<totfact> 0.44753128E+02</totfact>
</mgrwt>
</event>
<event>
 5    0  0.2396052E+000  0.6159671E+03  0.7546771E-02  0.9872822E-01
         21   -1    0    0  501  502  0.00000000000E+00  0.00000000000E+00  0.38291953628E+03  0.38291953628E+03  0.00000000000E+00 0. -1.
          2   -1    0    0  503    0 -0.00000000000E+00 -0.00000000000E+00 -0.23085363566E+04  0.23085363566E+04  0.00000000000E+00 0. -1.
         25    1    1    2    0    0 -0.38531160094E+03  0.27324873651E+03  0.11013621721E+03  0.50088410652E+03  0.12500000000E+03 0.  0.
         21    1    1    2  503  502 -0.91682385980E+02 -0.71082270593E+02 -0.31168677878E+02  0.12012425056E+03  0.00000000000E+00 0.  1.
          2    1    1    2  501    0  0.47699398692E+03 -0.20216646592E+03 -0.20045843596E+04  0.20704475358E+04  0.00000000000E+00 0. -1.
<mgrwt>
<rscale>  4 0.61596713E+03</rscale>
<asrwt>0</asrwt>
<pdfrwt beam="1">  1       21 0.58910697E-01 0.61596713E+03</pdfrwt>
<pdfrwt beam="2">  1        2 0.35515945E+00 0.61596713E+03</pdfrwt>
<totfact> 0.14496467E+02</totfact>
</mgrwt>
</event>
<event>
 5    0  0.2396052E+000  0.7989556E+03  0.7546771E-02  0.9561530E-01
          2   -1    0    0  503    0 -0.00000000000E+00  0.00000000000E+00  0.38171029628E+04  0.38171029628E+04  0.00000000000E+00 0. -1.
         21   -1    0    0  501  502  0.00000000000E+00 -0.00000000000E+00 -0.91909347282E+02  0.91909347282E+02  0.00000000000E+00 0. -1.
         25    1    1    2    0    0 -0.31890448078E+03  0.19057894017E+03  0.75600017001E+03  0.85157598449E+03  0.12500000000E+03 0.  0.
         21    1    1    2  503  502  0.34831619104E+03 -0.20783498846E+03  0.89118067427E+03  0.97914378187E+03  0.00000000000E+00 0. -1.
          2    1    1    2  501    0 -0.29411710256E+02  0.17256048292E+02  0.20780127712E+04  0.20782925437E+04  0.00000000000E+00 0. -1.
<mgrwt>
<rscale>  4 0.79895565E+03</rscale>
<asrwt>0</asrwt>
<pdfrwt beam="1">  1       21 0.14139903E-01 0.79895565E+03</pdfrwt>
<pdfrwt beam="2">  1        2 0.58724649E+00 0.79895565E+03</pdfrwt>
<totfact> 0.27443328E+02</totfact>
</mgrwt>
</event>
<event>
 5    0  0.2396052E+000  0.7739563E+03  0.7546771E-02  0.9598499E-01
         21   -1    0    0  501  502  0.00000000000E+00  0.00000000000E+00  0.12677886420E+04  0.12677886420E+04  0.00000000000E+00 0.  1.
          2   -1    0    0  503    0 -0.00000000000E+00 -0.00000000000E+00 -0.64991805026E+03  0.64991805026E+03  0.00000000000E+00 0.  1.
         25    1    1    2    0    0  0.56342820465E+02 -0.20236021007E+03  0.24899069150E+02  0.24570130582E+03  0.12500000000E+03 0.  0.
         21    1    1    2  503  502 -0.46750483137E+01  0.18834715941E+03  0.11232955647E+04  0.11389861431E+04  0.00000000000E+00 0.  1.
          2    1    1    2  501    0 -0.51667772152E+02  0.14013050666E+02 -0.53032404204E+03  0.53301924340E+03  0.00000000000E+00 0.  1.
<mgrwt>
<rscale>  4 0.77395634E+03</rscale>
<asrwt>0</asrwt>
<pdfrwt beam="1">  1       21 0.19504441E+00 0.77395634E+03</pdfrwt>
<pdfrwt beam="2">  1        2 0.99987393E-01 0.77395634E+03</pdfrwt>
<totfact> 0.64275572E+01</totfact>
</mgrwt>
</event>
<event>
 5    0  0.2396052E+000  0.3753578E+03  0.7546771E-02  0.1052663E+00
          1   -1    0    0  503    0 -0.00000000000E+00  0.00000000000E+00  0.79953045502E+03  0.79953045502E+03  0.00000000000E+00 0. -1.
         21   -1    0    0  501  502  0.00000000000E+00 -0.00000000000E+00 -0.34520078907E+03  0.34520078907E+03  0.00000000000E+00 0. -1.
         25    1    1    2    0    0 -0.16610816160E+03  0.11757695573E+03 -0.84438733207E+02  0.25332027462E+03  0.12500000000E+03 0.  0.
         21    1    1    2  503  502  0.75417906796E+02 -0.84719486272E+02 -0.15438820896E+03  0.19157497510E+03  0.00000000000E+00 0. -1.
          1    1    1    2  501    0  0.90690254803E+02 -0.32857469459E+02  0.69315660812E+03  0.69983599436E+03  0.00000000000E+00 0. -1.
<mgrwt>
<rscale>  4 0.37535780E+03</rscale>
<asrwt>0</asrwt>
<pdfrwt beam="1">  1       21 0.53107814E-01 0.37535780E+03</pdfrwt>
<pdfrwt beam="2">  1        1 0.12300469E+00 0.37535780E+03</pdfrwt>
<totfact> 0.80247429E+02</totfact>
</mgrwt>
</event>
<event>
 5    0  0.2396052E+000  0.8974080E+03  0.7546771E-02  0.9428827E-01
         21   -1    0    0  501  502  0.00000000000E+00  0.00000000000E+00  0.27204279717E+03  0.27204279717E+03  0.00000000000E+00 0.  1.
          2   -1    0    0  503    0 -0.00000000000E+00 -0.00000000000E+00 -0.19995943105E+04  0.19995943105E+04  0.00000000000E+00 0. -1.
         25    1    1    2    0    0 -0.43321751966E+03 -0.47518033886E+03 -0.35933029988E+03  0.74713923614E+03  0.12500000000E+03 0.  0.
         21    1    1    2  503  502  0.37024173287E+02  0.16004459688E+03 -0.38570886295E+03  0.41923309668E+03  0.00000000000E+00 0. -1.
          2    1    1    2  501    0  0.39619334637E+03  0.31513574198E+03 -0.98251235047E+03  0.11052647748E+04  0.00000000000E+00 0. -1.
<mgrwt>
<rscale>  4 0.89740797E+03</rscale>
<asrwt>0</asrwt>
<pdfrwt beam="1">  1       21 0.41852739E-01 0.89740797E+03</pdfrwt>
<pdfrwt beam="2">  1        2 0.30762989E+00 0.89740797E+03</pdfrwt>
<totfact> 0.42111722E+02</totfact>
</mgrwt>
</event>
<event>
 5    0  0.2396052E+000  0.6447694E+03  0.7546771E-02  0.9816644E-01
         -1   -1    0    0    0  501 -0.00000000000E+00  0.00000000000E+00  0.37283771425E+03  0.37283771425E+03  0.00000000000E+00 0. -1.
         21   -1    0    0  501  502  0.00000000000E+00 -0.00000000000E+00 -0.59852292382E+03  0.59852292382E+03  0.00000000000E+00 0.  1.
         25    1    1    2    0    0  0.27845995839E+03  0.57158173252E+02 -0.43391435098E+03  0.53358567183E+03  0.12500000000E+03 0.  0.
         21    1    1    2  503  502 -0.22181296055E+03 -0.77250096508E+02  0.14937895217E+02  0.23535442973E+03  0.00000000000E+00 0. -1.
         -1    1    1    2    0  503 -0.56646997836E+02  0.20091923257E+02  0.19329124619E+03  0.20242053650E+03  0.00000000000E+00 0. -1.
<mgrwt>
<rscale>  4 0.64476942E+03</rscale>
<asrwt>0</asrwt>
<pdfrwt beam="1">  1       21 0.92080450E-01 0.64476942E+03</pdfrwt>
<pdfrwt beam="2">  1       -1 0.57359648E-01 0.64476942E+03</pdfrwt>
<totfact> 0.25522476E+02</totfact>
</mgrwt>
</event>
<event>
 5    0  0.2396052E+000  0.7028241E+03  0.7546771E-02  0.9712415E-01
         21   -1    0    0  501  502  0.00000000000E+00  0.00000000000E+00  0.19628620232E+03  0.19628620232E+03  0.00000000000E+00 0. -1.
          2   -1    0    0  503    0 -0.00000000000E+00 -0.00000000000E+00 -0.21189952480E+04  0.21189952480E+04  0.00000000000E+00 0.  1.
         25    1    1    2    0    0 -0.38563102902E+03  0.19770715988E+03 -0.18215687066E+03  0.48642115203E+03  0.12500000000E+03 0.  0.
         21    1    1    2  503  502  0.47524620700E+02  0.97354607905E+02 -0.43700814115E+03  0.45023618767E+03  0.00000000000E+00 0.  1.
          2    1    1    2  501    0  0.33810640832E+03 -0.29506176778E+03 -0.13035440339E+04  0.13786241106E+04  0.00000000000E+00 0.  1.
<mgrwt>
<rscale>  4 0.70282406E+03</rscale>
<asrwt>0</asrwt>
<pdfrwt beam="1">  1       21 0.30197876E-01 0.70282406E+03</pdfrwt>
<pdfrwt beam="2">  1        2 0.32599928E+00 0.70282406E+03</pdfrwt>
<totfact> 0.73222150E+02</totfact>
</mgrwt>
</event>
<event>
 5    0  0.2396052E+000  0.7884530E+03  0.7546771E-02  0.9576883E-01
          2   -1    0    0  503    0 -0.00000000000E+00  0.00000000000E+00  0.31213238959E+03  0.31213238959E+03  0.00000000000E+00 0. -1.
         21   -1    0    0  501  502  0.00000000000E+00 -0.00000000000E+00 -0.58560231403E+03  0.58560231403E+03  0.00000000000E+00 0. -1.
         25    1    1    2    0    0 -0.19369816111E+03  0.26810205132E+03 -0.34729249409E+03  0.49561554050E+03  0.12500000000E+03 0.  0.
         21    1    1    2  503  502  0.20891056866E+03 -0.28401482718E+03  0.30955538888E+02  0.35392978561E+03  0.00000000000E+00 0. -1.
          2    1    1    2  501    0 -0.15212407556E+02  0.15912775861E+02  0.42867030748E+02  0.48189377506E+02  0.00000000000E+00 0. -1.
<mgrwt>
<rscale>  4 0.78845304E+03</rscale>
<asrwt>0</asrwt>
<pdfrwt beam="1">  1       21 0.90092662E-01 0.78845304E+03</pdfrwt>
<pdfrwt beam="2">  1        2 0.48020368E-01 0.78845304E+03</pdfrwt>
<totfact> 0.11903778E+03</totfact>
</mgrwt>
</event>
<event>
 5    0  0.2396052E+000  0.9069827E+03  0.7546771E-02  0.9416895E-01
         21   -1    0    0  501  502  0.00000000000E+00  0.00000000000E+00  0.63205613730E+03  0.63205613730E+03  0.00000000000E+00 0. -1.
          2   -1    0    0  503    0 -0.00000000000E+00 -0.00000000000E+00 -0.73752881567E+03  0.73752881567E+03  0.00000000000E+00 0.  1.
         25    1    1    2    0    0 -0.28913290061E+02 -0.45704507325E+03  0.16284268463E+03  0.50186543741E+03  0.12500000000E+03 0.  0.
         21    1    1    2  503  502  0.22441715828E+02  0.43167411366E+03  0.14320942138E+03  0.45536261308E+03  0.00000000000E+00 0. -1.
          2    1    1    2  501    0  0.64715742330E+01  0.25370959592E+02 -0.41152478438E+03  0.41235690248E+03  0.00000000000E+00 0.  1.
<mgrwt>
<rscale>  4 0.90698272E+03</rscale>
<asrwt>0</asrwt>
<pdfrwt beam="1">  1       21 0.97239406E-01 0.90698272E+03</pdfrwt>
<pdfrwt beam="2">  1        2 0.11346597E+00 0.90698272E+03</pdfrwt>
<totfact> 0.35547273E+02</totfact>
</mgrwt>
</event>
<event>
 5    0  0.2396052E+000  0.4628525E+03  0.7546771E-02  0.1023957E+00
          2   -1    0    0  503    0 -0.00000000000E+00  0.00000000000E+00  0.74707596155E+03  0.74707596155E+03  0.00000000000E+00 0.  1.
         21   -1    0    0  501  502  0.00000000000E+00 -0.00000000000E+00 -0.13015970022E+03  0.13015970022E+03  0.00000000000E+00 0.  1.
         25    1    1    2    0    0  0.31274588902E+02  0.23006814189E+03  0.15112801136E+03  0.30393111989E+03  0.12500000000E+03 0.  0.
         21    1    1    2  503  502 -0.20443763393E+02 -0.19769329460E+03  0.13385414241E+03  0.23961952681E+03  0.00000000000E+00 0.  1.
          2    1    1    2  501    0 -0.10830825510E+02 -0.32374847291E+02  0.33193410756E+03  0.33368501507E+03  0.00000000000E+00 0.  1.
<mgrwt>
<rscale>  4 0.46285254E+03</rscale>
<asrwt>0</asrwt>
<pdfrwt beam="1">  1       21 0.20024570E-01 0.46285254E+03</pdfrwt>
<pdfrwt beam="2">  1        2 0.11493476E+00 0.46285254E+03</pdfrwt>
<totfact> 0.10721772E+04</totfact>
</mgrwt>
</event>
<event>
 5    0  0.2396052E+000  0.4298794E+03  0.7546771E-02  0.1033898E+00
          1   -1    0    0  503    0 -0.00000000000E+00  0.00000000000E+00  0.97078558885E+03  0.97078558885E+03  0.00000000000E+00 0.  1.
         21   -1    0    0  501  502  0.00000000000E+00 -0.00000000000E+00 -0.10045990629E+03  0.10045990629E+03  0.00000000000E+00 0. -1.
         25    1    1    2    0    0 -0.19531640603E+03  0.46826294330E+02  0.11707157403E+03  0.26395445393E+03  0.12500000000E+03 0.  0.
         21    1    1    2  503  502  0.16812957325E+03 -0.11675286742E+01  0.25024114284E+03  0.30147893143E+03  0.00000000000E+00 0. -1.
          1    1    1    2  501    0  0.27186832777E+02 -0.45658765655E+02  0.50301296568E+03  0.50581210978E+03  0.00000000000E+00 0.  1.
<mgrwt>
<rscale>  4 0.42987938E+03</rscale>
<asrwt>0</asrwt>
<pdfrwt beam="1">  1       21 0.15455371E-01 0.42987938E+03</pdfrwt>
<pdfrwt beam="2">  1        1 0.14935162E+00 0.42987938E+03</pdfrwt>
<totfact> 0.66445024E+03</totfact>
</mgrwt>
</event>
<event>
 5    0  0.2396052E+000  0.4050442E+03  0.7546771E-02  0.1042047E+00
         21   -1    0    0  501  502  0.00000000000E+00  0.00000000000E+00  0.98477930274E+03  0.98477930274E+03  0.00000000000E+00 0. -1.
         -3   -1    0    0    0  501 -0.00000000000E+00 -0.00000000000E+00 -0.66212581831E+02  0.66212581831E+02  0.00000000000E+00 0.  1.
         25    1    1    2    0    0 -0.11930066359E+03  0.16084635273E+03  0.41211693082E+03  0.47494164082E+03  0.12500000000E+03 0.  0.
         21    1    1    2  503  502  0.89398504255E+02 -0.12386379283E+03  0.50593060244E+03  0.52848851097E+03  0.00000000000E+00 0. -1.
         -3    1    1    2    0  503  0.29902159339E+02 -0.36982559896E+02  0.51918765197E+00  0.47561732784E+02  0.00000000000E+00 0.  1.
<mgrwt>
<rscale>  4 0.40504419E+03</rscale>
<asrwt>0</asrwt>
<pdfrwt beam="1">  1       21 0.15150450E+00 0.40504419E+03</pdfrwt>
<pdfrwt beam="2">  1       -3 0.10186552E-01 0.40504419E+03</pdfrwt>
<totfact> 0.98622061E+02</totfact>
</mgrwt>
</event>
<event>
 5    0  0.2396052E+000  0.7233388E+03  0.7546771E-02  0.9678132E-01
         21   -1    0    0  501  502  0.00000000000E+00  0.00000000000E+00  0.33239055345E+03  0.33239055345E+03  0.00000000000E+00 0.  1.
          1   -1    0    0  503    0 -0.00000000000E+00 -0.00000000000E+00 -0.77723849064E+03  0.77723849064E+03  0.00000000000E+00 0.  1.
         25    1    1    2    0    0 -0.13596870748E+03  0.19986399842E+03 -0.19558729147E+03  0.33513056540E+03  0.12500000000E+03 0.  0.
         21    1    1    2  503  502  0.21323747954E+03 -0.31368547396E+03  0.10574855434E+03  0.39376586444E+03  0.00000000000E+00 0.  1.
          1    1    1    2  501    0 -0.77268772059E+02  0.11382147554E+03 -0.35500920006E+03  0.38073261426E+03  0.00000000000E+00 0.  1.
<mgrwt>
<rscale>  4 0.72333879E+03</rscale>
<asrwt>0</asrwt>
<pdfrwt beam="1">  1       21 0.51137009E-01 0.72333879E+03</pdfrwt>
<pdfrwt beam="2">  1        1 0.11957515E+00 0.72333879E+03</pdfrwt>
<totfact> 0.84712441E+02</totfact>
</mgrwt>
</event>
<event>
 5    0  0.2396052E+000  0.3849278E+03  0.7546771E-02  0.1049127E+00
          1   -1    0    0  503    0 -0.00000000000E+00  0.00000000000E+00  0.28264673539E+04  0.28264673539E+04  0.00000000000E+00 0.  1.
         21   -1    0    0  501  502  0.00000000000E+00 -0.00000000000E+00 -0.57066628880E+02  0.57066628880E+02  0.00000000000E+00 0.  1.
         25    1    1    2    0    0 -0.14704047449E+03 -0.17284221079E+03  0.27727040565E+03  0.37947227674E+03  0.12500000000E+03 0.  0.
         21    1    1    2  503  502  0.43092778376E+02  0.47392440200E+02  0.35516602771E+03  0.36089602128E+03  0.00000000000E+00 0. -1.
          1    1    1    2  501    0  0.10394769611E+03  0.12544977059E+03  0.21369642916E+04  0.21431656847E+04  0.00000000000E+00 0.  1.
<mgrwt>
<rscale>  4 0.38492775E+03</rscale>
<asrwt>0</asrwt>
<pdfrwt beam="1">  1       21 0.87794835E-02 0.38492775E+03</pdfrwt>
<pdfrwt beam="2">  1        1 0.43484102E+00 0.38492775E+03</pdfrwt>
<totfact> 0.10290444E+03</totfact>
</mgrwt>
</event>
<event>
 5    0  0.2396052E+000  0.5660883E+03  0.7546771E-02  0.9978372E-01
          2   -1    0    0  503    0 -0.00000000000E+00  0.00000000000E+00  0.16964361587E+04  0.16964361587E+04  0.00000000000E+00 0. -1.
         21   -1    0    0  501  502  0.00000000000E+00 -0.00000000000E+00 -0.15579605767E+04  0.15579605767E+04  0.00000000000E+00 0.  1.
         25    1    1    2    0    0 -0.21300393676E+03 -0.80907461969E+02 -0.34505941944E+03  0.43198113086E+03  0.12500000000E+03 0.  0.
         21    1    1    2  503  502  0.18616163888E+03  0.51144424433E+02 -0.11612266184E+04  0.11771657348E+04  0.00000000000E+00 0.  1.
          2    1    1    2  501    0  0.26842297880E+02  0.29763037536E+02  0.16447616199E+04  0.16452498697E+04  0.00000000000E+00 0. -1.
<mgrwt>
<rscale>  4 0.56608834E+03</rscale>
<asrwt>0</asrwt>
<pdfrwt beam="1">  1       21 0.23968624E+00 0.56608834E+03</pdfrwt>
<pdfrwt beam="2">  1        2 0.26099018E+00 0.56608834E+03</pdfrwt>
<totfact> 0.78619396E+00</totfact>
</mgrwt>
</event>
<event>
 5    0  0.2396052E+000  0.6032645E+03  0.7546771E-02  0.9898656E-01
          2   -1    0    0  503    0 -0.00000000000E+00  0.00000000000E+00  0.87800419989E+03  0.87800419989E+03  0.00000000000E+00 0.  1.
         21   -1    0    0  501  502  0.00000000000E+00 -0.00000000000E+00 -0.19688864555E+03  0.19688864555E+03  0.00000000000E+00 0.  1.
         25    1    1    2    0    0 -0.24401845272E+03 -0.74722555858E+02  0.38626598548E+03  0.47953610621E+03  0.12500000000E+03 0.  0.
         21    1    1    2  503  502  0.15253202285E+03  0.42296718159E+02 -0.10100992954E+03  0.18777123376E+03  0.00000000000E+00 0.  1.
          2    1    1    2  501    0  0.91486429862E+02  0.32425837698E+02  0.39585949840E+03  0.40758550547E+03  0.00000000000E+00 0.  1.
<mgrwt>
<rscale>  4 0.60326451E+03</rscale>
<asrwt>0</asrwt>
<pdfrwt beam="1">  1       21 0.30290561E-01 0.60326451E+03</pdfrwt>
<pdfrwt beam="2">  1        2 0.13507757E+00 0.60326451E+03</pdfrwt>
<totfact> 0.37959356E+03</totfact>
</mgrwt>
</event>
<event>
 5    0  0.2396052E+000  0.5380340E+03  0.7546771E-02  0.1004302E+00
          2   -1    0    0  503    0 -0.00000000000E+00  0.00000000000E+00  0.16847528191E+04  0.16847528191E+04  0.00000000000E+00 0. -1.
         21   -1    0    0  501  502  0.00000000000E+00 -0.00000000000E+00 -0.78032527923E+02  0.78032527923E+02  0.00000000000E+00 0. -1.
         25    1    1    2    0    0  0.11939862437E+03  0.18018780093E+03  0.59852101369E+03  0.64851837209E+03  0.12500000000E+03 0.  0.
         21    1    1    2  503  502 -0.14008032422E+03 -0.21332558959E+03  0.25746427068E+03  0.36251642043E+03  0.00000000000E+00 0. -1.
          2    1    1    2  501    0  0.20681699843E+02  0.33137788659E+02  0.75073500678E+03  0.75175055447E+03  0.00000000000E+00 0. -1.
<mgrwt>
<rscale>  4 0.53803396E+03</rscale>
<asrwt>0</asrwt>
<pdfrwt beam="1">  1       21 0.12005006E-01 0.53803396E+03</pdfrwt>
<pdfrwt beam="2">  1        2 0.25919271E+00 0.53803396E+03</pdfrwt>
<totfact> 0.75527888E+03</totfact>
</mgrwt>
</event>
<event>
 5    0  0.2396052E+000  0.4639602E+03  0.7546771E-02  0.1023639E+00
         21   -1    0    0  501  502  0.00000000000E+00  0.00000000000E+00  0.72202143553E+02  0.72202143553E+02  0.00000000000E+00 0.  1.
          1   -1    0    0  503    0 -0.00000000000E+00 -0.00000000000E+00 -0.18364141771E+04  0.18364141771E+04  0.00000000000E+00 0.  1.
         25    1    1    2    0    0  0.23904939657E+03 -0.99522245112E+01 -0.30007979345E+03  0.40362921501E+03  0.12500000000E+03 0.  0.
         21    1    1    2  503  502 -0.17688977151E+03 -0.10426925588E+02 -0.38440331141E+03  0.42327841648E+03  0.00000000000E+00 0.  1.
          1    1    1    2  501    0 -0.62159625058E+02  0.20379150100E+02 -0.10797289287E+04  0.10817086892E+04  0.00000000000E+00 0.  1.
<mgrwt>
<rscale>  4 0.46396025E+03</rscale>
<asrwt>0</asrwt>
<pdfrwt beam="1">  1       21 0.11108022E-01 0.46396025E+03</pdfrwt>
<pdfrwt beam="2">  1        1 0.28252526E+00 0.46396025E+03</pdfrwt>
<totfact> 0.30348595E+03</totfact>
</mgrwt>
</event>
<event>
 5    0  0.2396052E+000  0.5660150E+03  0.7546771E-02  0.9978536E-01
         21   -1    0    0  501  502  0.00000000000E+00  0.00000000000E+00  0.14547346240E+03  0.14547346240E+03  0.00000000000E+00 0.  1.
          2   -1    0    0  503    0 -0.00000000000E+00 -0.00000000000E+00 -0.22103392042E+04  0.22103392042E+04  0.00000000000E+00 0.  1.
         25    1    1    2    0    0  0.27371019114E+03  0.74130571696E+02 -0.52978710738E+03  0.61376867755E+03  0.12500000000E+03 0.  0.
         21    1    1    2  503  502  0.16212930218E+03  0.15352340379E+03 -0.14170402386E+03  0.26445297600E+03  0.00000000000E+00 0.  1.
          2    1    1    2  501    0 -0.43583949332E+03 -0.22765397548E+03 -0.13933746105E+04  0.14775910130E+04  0.00000000000E+00 0.  1.
<mgrwt>
<rscale>  4 0.56601496E+03</rscale>
<asrwt>0</asrwt>
<pdfrwt beam="1">  1       21 0.22380532E-01 0.56601496E+03</pdfrwt>
<pdfrwt beam="2">  1        2 0.34005220E+00 0.56601496E+03</pdfrwt>
<totfact> 0.12114609E+03</totfact>
</mgrwt>
</event>
<event>
 5    0  0.2396052E+000  0.5321071E+03  0.7546771E-02  0.1005722E+00
         21   -1    0    0  501  502  0.00000000000E+00  0.00000000000E+00  0.40532679145E+03  0.40532679145E+03  0.00000000000E+00 0. -1.
          1   -1    0    0  503    0 -0.00000000000E+00 -0.00000000000E+00 -0.10372983235E+04  0.10372983235E+04  0.00000000000E+00 0. -1.
         25    1    1    2    0    0  0.24548413782E+03 -0.39620843997E+02  0.21298222158E+02  0.27912521826E+03  0.12500000000E+03 0.  0.
         21    1    1    2  503  502 -0.19450230715E+03  0.96211979162E+02  0.20698214901E+03  0.29988248103E+03  0.00000000000E+00 0. -1.
          1    1    1    2  501    0 -0.50981830666E+02 -0.56591135165E+02 -0.86025190317E+03  0.86361741561E+03  0.00000000000E+00 0. -1.
<mgrwt>
<rscale>  4 0.53210712E+03</rscale>
<asrwt>0</asrwt>
<pdfrwt beam="1">  1       21 0.62357968E-01 0.53210712E+03</pdfrwt>
<pdfrwt beam="2">  1        1 0.15958436E+00 0.53210712E+03</pdfrwt>
<totfact> 0.35067988E+02</totfact>
</mgrwt>
</event>
<event>
 5    0  0.2396052E+000  0.5824355E+03  0.7546771E-02  0.9942532E-01
          2   -1    0    0  503    0 -0.00000000000E+00  0.00000000000E+00  0.13537139684E+03  0.13537139684E+03  0.00000000000E+00 0. -1.
         21   -1    0    0  501  502  0.00000000000E+00 -0.00000000000E+00 -0.12615630644E+04  0.12615630644E+04  0.00000000000E+00 0. -1.
         25    1    1    2    0    0  0.22935427280E+03  0.16491239763E+03 -0.80661827924E+03  0.86374621837E+03  0.12500000000E+03 0.  0.
         21    1    1    2  503  502 -0.17509690910E+03 -0.18562912136E+03 -0.37455031961E+03  0.45321632826E+03  0.00000000000E+00 0. -1.
          2    1    1    2  501    0 -0.54257363697E+02  0.20716723728E+02  0.54976931279E+02  0.79971914634E+02  0.00000000000E+00 0. -1.
<mgrwt>
<rscale>  4 0.58243548E+03</rscale>
<asrwt>0</asrwt>
<pdfrwt beam="1">  1       21 0.19408663E+00 0.58243548E+03</pdfrwt>
<pdfrwt beam="2">  1        2 0.20826368E-01 0.58243548E+03</pdfrwt>
<totfact> 0.40746282E+02</totfact>
</mgrwt>
</event>
<event>
 5    0  0.2396052E+000  0.6173516E+03  0.7546771E-02  0.9870047E-01
          1   -1    0    0  503    0 -0.00000000000E+00  0.00000000000E+00  0.20590225529E+04  0.20590225529E+04  0.00000000000E+00 0. -1.
         21   -1    0    0  501  502  0.00000000000E+00 -0.00000000000E+00 -0.67759030512E+02  0.67759030512E+02  0.00000000000E+00 0. -1.
         25    1    1    2    0    0  0.24248750359E+03  0.54338540277E+02  0.10999396613E+04  0.11345682548E+04  0.12500000000E+03 0.  0.
         21    1    1    2  503  502 -0.24304791375E+03 -0.21733967929E+02  0.24750025465E+03  0.34756442538E+03  0.00000000000E+00 0. -1.
          1    1    1    2  501    0  0.56041016183E+00 -0.32604572348E+02  0.64382360644E+03  0.64464890321E+03  0.00000000000E+00 0. -1.
<mgrwt>
<rscale>  4 0.61735156E+03</rscale>
<asrwt>0</asrwt>
<pdfrwt beam="1">  1       21 0.10424468E-01 0.61735156E+03</pdfrwt>
<pdfrwt beam="2">  1        1 0.31677265E+00 0.61735156E+03</pdfrwt>
<totfact> 0.23546061E+03</totfact>
</mgrwt>
</event>
<event>
 5    0  0.2396052E+000  0.5223816E+03  0.7546771E-02  0.1008097E+00
          2   -1    0    0  503    0 -0.00000000000E+00  0.00000000000E+00  0.38780190405E+04  0.38780190405E+04  0.00000000000E+00 0.  1.
         21   -1    0    0  501  502  0.00000000000E+00 -0.00000000000E+00 -0.88031157139E+02  0.88031157139E+02  0.00000000000E+00 0.  1.
         25    1    1    2    0    0 -0.21914338385E+03  0.17684280879E+03  0.22314684899E+03  0.38041650584E+03  0.12500000000E+03 0.  0.
         21    1    1    2  503  502  0.10869050054E+03  0.60777480698E+00  0.49997297771E+03  0.51165122177E+03  0.00000000000E+00 0. -1.
          2    1    1    2  501    0  0.11045288331E+03 -0.17745058360E+03  0.30668680567E+04  0.30739824701E+04  0.00000000000E+00 0.  1.
<mgrwt>
<rscale>  4 0.52238161E+03</rscale>
<asrwt>0</asrwt>
<pdfrwt beam="1">  1       21 0.13543258E-01 0.52238161E+03</pdfrwt>
<pdfrwt beam="2">  1        2 0.59661818E+00 0.52238161E+03</pdfrwt>
<totfact> 0.28899145E+02</totfact>
</mgrwt>
</event>
<event>
 5    0  0.2396052E+000  0.4786119E+03  0.7546771E-02  0.1019517E+00
         21   -1    0    0  501  502  0.00000000000E+00  0.00000000000E+00  0.40823330667E+02  0.40823330667E+02  0.00000000000E+00 0. -1.
          2   -1    0    0  503    0 -0.00000000000E+00 -0.00000000000E+00 -0.23512337137E+04  0.23512337137E+04  0.00000000000E+00 0. -1.
         25    1    1    2    0    0  0.12761597745E+03 -0.17710297838E+03 -0.11702193203E+04  0.11969501077E+04  0.12500000000E+03 0.  0.
         21    1    1    2  503  502 -0.12401848589E+03  0.11043307035E+03 -0.23664118065E+03  0.28909357698E+03  0.00000000000E+00 0.  1.
          2    1    1    2  501    0 -0.35974915652E+01  0.66669908035E+02 -0.90354988204E+03  0.90601335968E+03  0.00000000000E+00 0. -1.
<mgrwt>
<rscale>  4 0.47861191E+03</rscale>
<asrwt>0</asrwt>
<pdfrwt beam="1">  1       21 0.62805125E-02 0.47861191E+03</pdfrwt>
<pdfrwt beam="2">  1        2 0.36172826E+00 0.47861191E+03</pdfrwt>
<totfact> 0.10584422E+04</totfact>
</mgrwt>
</event>
<event>
 5    0  0.2396052E+000  0.4769771E+03  0.7546771E-02  0.1019969E+00
         21   -1    0    0  501  502  0.00000000000E+00  0.00000000000E+00  0.17682148997E+03  0.17682148997E+03  0.00000000000E+00 0. -1.
         -3   -1    0    0    0  501 -0.00000000000E+00 -0.00000000000E+00 -0.14916756799E+04  0.14916756799E+04  0.00000000000E+00 0. -1.
         25    1    1    2    0    0 -0.63867971957E+01 -0.20284566633E+03 -0.20933609021E+03  0.31722823675E+03  0.12500000000E+03 0.  0.
         21    1    1    2  503  502  0.10979031649E+02  0.16950853698E+03  0.63812314756E+02  0.18145438755E+03  0.00000000000E+00 0. -1.
         -3    1    1    2    0  503 -0.45922344529E+01  0.33337129343E+02 -0.11693304145E+04  0.11698145456E+04  0.00000000000E+00 0. -1.
<mgrwt>
<rscale>  4 0.47697714E+03</rscale>
<asrwt>0</asrwt>
<pdfrwt beam="1">  1       21 0.27203306E-01 0.47697714E+03</pdfrwt>
<pdfrwt beam="2">  1       -3 0.22948857E+00 0.47697714E+03</pdfrwt>
<totfact> 0.63157932E+01</totfact>
</mgrwt>
</event>
