<event>
 5    0  0.1911311E+001  0.4044391E+03  0.7546771E-02  0.1042253E+00
         21   -1    0    0  504  501  0.00000000000E+00  0.00000000000E+00  0.25650855745E+03  0.25650855745E+03  0.00000000000E+00 0.  1.
         21   -1    0    0  503  502 -0.00000000000E+00 -0.00000000000E+00 -0.93425069471E+03  0.93425069471E+03  0.00000000000E+00 0.  1.
         25    1    1    2    0    0  0.11083042094E+03 -0.29917479227E+03 -0.28117603797E+03  0.44325376802E+03  0.12500000000E+03 0.  0.
         21    1    1    2  503  501 -0.55250240734E+02  0.45925427729E+03 -0.26608773749E+03  0.53363823360E+03  0.00000000000E+00 0.  1.
         21    1    1    2  504  502 -0.55580180211E+02 -0.16007948503E+03 -0.13047836180E+03  0.21386725055E+03  0.00000000000E+00 0. -1.
<mgrwt>
<rscale>  4 0.40443909E+03</rscale>
<asrwt>0</asrwt>
<pdfrwt beam="1">  1       21 0.39462855E-01 0.40443909E+03</pdfrwt>
<pdfrwt beam="2">  1       21 0.14373088E+00 0.40443909E+03</pdfrwt>
<totfact> 0.18036033E+03</totfact>
</mgrwt>
</event>
<event>
 5    0  0.1911311E+001  0.2628273E+03  0.7546771E-02  0.1105456E+00
         21   -1    0    0  504  501  0.00000000000E+00  0.00000000000E+00  0.31661867255E+03  0.31661867255E+03  0.00000000000E+00 0.  1.
         21   -1    0    0  503  502 -0.00000000000E+00 -0.00000000000E+00 -0.76320477290E+03  0.76320477290E+03  0.00000000000E+00 0.  1.
         25    1    1    2    0    0  0.17327322107E+03 -0.11340521954E+03  0.14104006884E+03  0.28000295352E+03  0.12500000000E+03 0.  0.
         21    1    1    2  503  501 -0.17810105145E+03  0.15116556874E+03 -0.66974017948E+03  0.70931158296E+03  0.00000000000E+00 0.  1.
         21    1    1    2  504  502  0.48278303889E+01 -0.37760349196E+02  0.82114010289E+02  0.90508908973E+02  0.00000000000E+00 0. -1.
<mgrwt>
<rscale>  4 0.26282734E+03</rscale>
<asrwt>0</asrwt>
<pdfrwt beam="1">  1       21 0.48710566E-01 0.26282734E+03</pdfrwt>
<pdfrwt beam="2">  1       21 0.11741612E+00 0.26282734E+03</pdfrwt>
<totfact> 0.21200213E+03</totfact>
</mgrwt>
</event>
<event>
 5    0  0.1911311E+001  0.3868656E+03  0.7546771E-02  0.1048425E+00
         21   -1    0    0  502  501  0.00000000000E+00  0.00000000000E+00  0.88586287026E+03  0.88586287026E+03  0.00000000000E+00 0. -1.
         21   -1    0    0  504  502 -0.00000000000E+00 -0.00000000000E+00 -0.63221747574E+03  0.63221747574E+03  0.00000000000E+00 0. -1.
         25    1    1    2    0    0 -0.34207662681E+03  0.17644757468E+03  0.74278972821E+03  0.84587927363E+03  0.12500000000E+03 0.  0.
         21    1    1    2  503  501  0.29589509284E+02  0.11780091016E+02  0.25901584831E+02  0.41051208274E+02  0.00000000000E+00 0.  1.
         21    1    1    2  504  503  0.31248711753E+03 -0.18822766569E+03 -0.51504591853E+03  0.63114986409E+03  0.00000000000E+00 0. -1.
<mgrwt>
<rscale>  4 0.38686559E+03</rscale>
<asrwt>0</asrwt>
<pdfrwt beam="1">  1       21 0.13628660E+00 0.38686559E+03</pdfrwt>
<pdfrwt beam="2">  1       21 0.97264227E-01 0.38686559E+03</pdfrwt>
<totfact> 0.28635066E+02</totfact>
</mgrwt>
</event>
<event>
 5    0  0.1911311E+001  0.2614921E+03  0.7546771E-02  0.1106250E+00
         21   -1    0    0  502  501  0.00000000000E+00  0.00000000000E+00  0.11737232687E+04  0.11737232687E+04  0.00000000000E+00 0. -1.
         21   -1    0    0  504  502 -0.00000000000E+00 -0.00000000000E+00 -0.59398348413E+02  0.59398348413E+02  0.00000000000E+00 0. -1.
         25    1    1    2    0    0  0.22936961703E+03  0.11946595422E+02  0.38184501714E+03  0.46279991300E+03  0.12500000000E+03 0.  0.
         21    1    1    2  503  501 -0.12952397576E+03 -0.34720358768E+02  0.46340642354E+03  0.48241836303E+03  0.00000000000E+00 0. -1.
         21    1    1    2  504  503 -0.99845641273E+02  0.22773763346E+02  0.26907347960E+03  0.28790334107E+03  0.00000000000E+00 0. -1.
<mgrwt>
<rscale>  4 0.26149215E+03</rscale>
<asrwt>0</asrwt>
<pdfrwt beam="1">  1       21 0.18057279E+00 0.26149215E+03</pdfrwt>
<pdfrwt beam="2">  1       21 0.91382084E-02 0.26149215E+03</pdfrwt>
<totfact> 0.16391091E+04</totfact>
</mgrwt>
</event>
<event>
 5    0  0.1911311E+001  0.2897707E+03  0.7546771E-02  0.1090469E+00
         21   -1    0    0  502  501  0.00000000000E+00  0.00000000000E+00  0.17228473732E+04  0.17228473732E+04  0.00000000000E+00 0. -1.
         21   -1    0    0  504  502 -0.00000000000E+00 -0.00000000000E+00 -0.97249195169E+02  0.97249195169E+02  0.00000000000E+00 0. -1.
         25    1    1    2    0    0 -0.19905723856E+03  0.13586010242E+03  0.11936017981E+04  0.12240882338E+04  0.12500000000E+03 0.  0.
         21    1    1    2  503  501 -0.19827003664E+02  0.13632696299E+02  0.29805686673E+03  0.29902651435E+03  0.00000000000E+00 0. -1.
         21    1    1    2  504  503  0.21888424223E+03 -0.14949279872E+03  0.13393951324E+03  0.29698182027E+03  0.00000000000E+00 0. -1.
<mgrwt>
<rscale>  4 0.28977071E+03</rscale>
<asrwt>0</asrwt>
<pdfrwt beam="1">  1       21 0.26505342E+00 0.28977071E+03</pdfrwt>
<pdfrwt beam="2">  1       21 0.14961416E-01 0.28977071E+03</pdfrwt>
<totfact> 0.19490033E+03</totfact>
</mgrwt>
</event>
