<event>
 5    0  0.1856407E+000  0.2251798E+03  0.7546771E-02  0.1130079E+00
         21   -1    0    0  502  501  0.00000000000E+00  0.00000000000E+00  0.12992902737E+03  0.12992902737E+03  0.00000000000E+00 0.  1.
         21   -1    0    0  503  502 -0.00000000000E+00 -0.00000000000E+00 -0.64681055348E+03  0.64681055348E+03  0.00000000000E+00 0.  1.
         25    1    1    2    0    0  0.13138927438E+03 -0.17850824872E+03 -0.43597779439E+03  0.50480686751E+03  0.12500000000E+03 0.  0.
         21    1    1    2  503  504 -0.13072013749E+03  0.64837621304E+02 -0.47514931824E+02  0.15345794286E+03  0.00000000000E+00 0.  1.
         21    1    1    2  504  501 -0.66913689477E+00  0.11367062742E+03 -0.33388799902E+02  0.11847477048E+03  0.00000000000E+00 0.  1.
<mgrwt>
<rscale>  4 0.22517983E+03</rscale>
<asrwt>0</asrwt>
<pdfrwt beam="1">  1       21 0.19989082E-01 0.22517983E+03</pdfrwt>
<pdfrwt beam="2">  1       21 0.99509313E-01 0.22517983E+03</pdfrwt>
<totfact> 0.18819569E+04</totfact>
</mgrwt>
</event>
<event>
 5    0  0.1856407E+000  0.3082032E+03  0.7546771E-02  0.1081210E+00
         21   -1    0    0  502  501  0.00000000000E+00  0.00000000000E+00  0.12396438361E+04  0.12396438361E+04  0.00000000000E+00 0.  1.
         21   -1    0    0  503  502 -0.00000000000E+00 -0.00000000000E+00 -0.21925651762E+03  0.21925651762E+03  0.00000000000E+00 0. -1.
         25    1    1    2    0    0  0.24239185151E+03  0.14356314941E+03  0.11062470584E+04  0.11483778741E+04  0.12500000000E+03 0.  0.
         21    1    1    2  503  504 -0.51241343442E+02 -0.83464668064E+02 -0.24386985657E+02  0.10092943655E+03  0.00000000000E+00 0.  1.
         21    1    1    2  504  501 -0.19115050807E+03 -0.60098481349E+02 -0.61472754235E+02  0.20959304309E+03  0.00000000000E+00 0. -1.
<mgrwt>
<rscale>  4 0.30820316E+03</rscale>
<asrwt>0</asrwt>
<pdfrwt beam="1">  1       21 0.19071443E+00 0.30820316E+03</pdfrwt>
<pdfrwt beam="2">  1       21 0.33731773E-01 0.30820316E+03</pdfrwt>
<totfact> 0.11830788E+03</totfact>
</mgrwt>
</event>
<event>
 5    0  0.1856407E+000  0.2117430E+03  0.7546771E-02  0.1140193E+00
         21   -1    0    0  502  501  0.00000000000E+00  0.00000000000E+00  0.19737644795E+02  0.19737644795E+02  0.00000000000E+00 0.  1.
         21   -1    0    0  503  502 -0.00000000000E+00 -0.00000000000E+00 -0.36287372811E+04  0.36287372811E+04  0.00000000000E+00 0.  1.
         25    1    1    2    0    0  0.29226617247E+02  0.20414468575E+03 -0.10708938271E+04  0.10977102700E+04  0.12500000000E+03 0.  0.
         21    1    1    2  503  504  0.54498264027E+02 -0.13025115940E+03 -0.13067995929E+04  0.13144050370E+04  0.00000000000E+00 0.  1.
         21    1    1    2  504  501 -0.83724881274E+02 -0.73893526344E+02 -0.12313062163E+04  0.12363596189E+04  0.00000000000E+00 0.  1.
<mgrwt>
<rscale>  4 0.21174305E+03</rscale>
<asrwt>0</asrwt>
<pdfrwt beam="1">  1       21 0.30365609E-02 0.21174305E+03</pdfrwt>
<pdfrwt beam="2">  1       21 0.55826724E+00 0.21174305E+03</pdfrwt>
<totfact> 0.42884268E+02</totfact>
</mgrwt>
</event>
<event>
 5    0  0.1856407E+000  0.2974686E+03  0.7546771E-02  0.1086513E+00
         21   -1    0    0  502  501  0.00000000000E+00  0.00000000000E+00  0.12495842533E+04  0.12495842533E+04  0.00000000000E+00 0.  1.
         21   -1    0    0  503  502 -0.00000000000E+00 -0.00000000000E+00 -0.12086746104E+03  0.12086746104E+03  0.00000000000E+00 0.  1.
         25    1    1    2    0    0  0.74153975731E+02 -0.25954531375E+03  0.10325319040E+04  0.10745276706E+04  0.12500000000E+03 0.  0.
         21    1    1    2  503  504 -0.31374755713E+02  0.18810877245E+03  0.94033523055E+02  0.21263016961E+03  0.00000000000E+00 0.  1.
         21    1    1    2  504  501 -0.42779220017E+02  0.71436541294E+02  0.21513651697E+01  0.83293874141E+02  0.00000000000E+00 0. -1.
<mgrwt>
<rscale>  4 0.29746862E+03</rscale>
<asrwt>0</asrwt>
<pdfrwt beam="1">  1       21 0.19224372E+00 0.29746862E+03</pdfrwt>
<pdfrwt beam="2">  1       21 0.18594995E-01 0.29746862E+03</pdfrwt>
<totfact> 0.36771261E+03</totfact>
</mgrwt>
</event>
<event>
 5    0  0.1856407E+000  0.3099647E+03  0.7546771E-02  0.1080363E+00
         21   -1    0    0  502  501  0.00000000000E+00  0.00000000000E+00  0.71591285444E+03  0.71591285444E+03  0.00000000000E+00 0. -1.
         21   -1    0    0  503  502 -0.00000000000E+00 -0.00000000000E+00 -0.31690891005E+03  0.31690891005E+03  0.00000000000E+00 0. -1.
         25    1    1    2    0    0 -0.28352827486E+03 -0.80530642271E+01 -0.19978191582E+03  0.36876950575E+03  0.12500000000E+03 0.  0.
         21    1    1    2  503  504  0.23404741787E+03 -0.31370406937E+01  0.52127957998E+03  0.57141966657E+03  0.00000000000E+00 0. -1.
         21    1    1    2  504  501  0.49480856986E+02  0.11190104921E+02  0.77506280223E+02  0.92632592160E+02  0.00000000000E+00 0.  1.
<mgrwt>
<rscale>  4 0.30996473E+03</rscale>
<asrwt>0</asrwt>
<pdfrwt beam="1">  1       21 0.11014044E+00 0.30996473E+03</pdfrwt>
<pdfrwt beam="2">  1       21 0.48755217E-01 0.30996473E+03</pdfrwt>
<totfact> 0.24063367E+03</totfact>
</mgrwt>
</event>
<event>
 5    0  0.1856407E+000  0.2690401E+03  0.7546771E-02  0.1101830E+00
         21   -1    0    0  502  501  0.00000000000E+00  0.00000000000E+00  0.89334020615E+03  0.89334020615E+03  0.00000000000E+00 0.  1.
         21   -1    0    0  503  502 -0.00000000000E+00 -0.00000000000E+00 -0.56537507762E+03  0.56537507762E+03  0.00000000000E+00 0. -1.
         25    1    1    2    0    0 -0.21578597636E+03  0.13669211034E+03  0.81851356668E+03  0.86650896098E+03  0.12500000000E+03 0.  0.
         21    1    1    2  503  504  0.18403507097E+03 -0.15052000351E+03 -0.50222670136E+03  0.55565892269E+03  0.00000000000E+00 0. -1.
         21    1    1    2  504  501  0.31750905386E+02  0.13827893171E+02  0.11678263212E+02  0.36547400100E+02  0.00000000000E+00 0. -1.
<mgrwt>
<rscale>  4 0.26904007E+03</rscale>
<asrwt>0</asrwt>
<pdfrwt beam="1">  1       21 0.13743695E+00 0.26904007E+03</pdfrwt>
<pdfrwt beam="2">  1       21 0.86980781E-01 0.26904007E+03</pdfrwt>
<totfact> 0.39552214E+02</totfact>
</mgrwt>
</event>
<event>
 5    0  0.1856407E+000  0.2449593E+03  0.7546771E-02  0.1116532E+00
         21   -1    0    0  502  501  0.00000000000E+00  0.00000000000E+00  0.48409474017E+02  0.48409474017E+02  0.00000000000E+00 0.  1.
         21   -1    0    0  503  502 -0.00000000000E+00 -0.00000000000E+00 -0.20400925199E+04  0.20400925199E+04  0.00000000000E+00 0.  1.
         25    1    1    2    0    0 -0.21638601156E+03  0.38087265580E+02 -0.39326244693E+03  0.46749748445E+03  0.12500000000E+03 0.  0.
         21    1    1    2  503  504  0.21830907791E+02 -0.52047845605E+02 -0.66673840213E+03  0.66912305568E+03  0.00000000000E+00 0. -1.
         21    1    1    2  504  501  0.19455510377E+03  0.13960580025E+02 -0.93168219687E+03  0.95188145384E+03  0.00000000000E+00 0.  1.
<mgrwt>
<rscale>  4 0.24495934E+03</rscale>
<asrwt>0</asrwt>
<pdfrwt beam="1">  1       21 0.74476115E-02 0.24495934E+03</pdfrwt>
<pdfrwt beam="2">  1       21 0.31386038E+00 0.24495934E+03</pdfrwt>
<totfact> 0.36443358E+03</totfact>
</mgrwt>
</event>
<event>
 5    0  0.2006228E+000  0.3411127E+03  0.7546771E-02  0.1067148E+00
         21   -1    0    0  502  501  0.00000000000E+00  0.00000000000E+00  0.63453702454E+03  0.63453702454E+03  0.00000000000E+00 0. -1.
         21   -1    0    0  503  502 -0.00000000000E+00 -0.00000000000E+00 -0.18175574251E+03  0.18175574251E+03  0.00000000000E+00 0. -1.
         25    1    1    2    0    0 -0.11593038537E+03 -0.28654907422E+03  0.17609408545E+03  0.37707340548E+03  0.12500000000E+03 0.  0.
         21    1    1    2  503  504 -0.13291687854E+02  0.11524261175E+03  0.15142644464E+03  0.19075506983E+03  0.00000000000E+00 0. -1.
         21    1    1    2  504  501  0.12922207323E+03  0.17130646247E+03  0.12526075193E+03  0.24846429173E+03  0.00000000000E+00 0. -1.
<mgrwt>
<rscale>  4 0.33917542E+03</rscale>
<asrwt>0</asrwt>
<pdfrwt beam="1">  1       21 0.97621080E-01 0.34111265E+03</pdfrwt>
<pdfrwt beam="2">  1       21 0.27962422E-01 0.34111265E+03</pdfrwt>
<totfact> 0.98035457E+03</totfact>
</mgrwt>
</event>
<event>
 5    0  0.1856407E+000  0.2474423E+03  0.7546771E-02  0.1114932E+00
         21   -1    0    0  502  501  0.00000000000E+00  0.00000000000E+00  0.18900274799E+03  0.18900274799E+03  0.00000000000E+00 0. -1.
         21   -1    0    0  503  502 -0.00000000000E+00 -0.00000000000E+00 -0.37729085085E+03  0.37729085085E+03  0.00000000000E+00 0.  1.
         25    1    1    2    0    0  0.11103655414E+03 -0.18241052263E+03  0.40091386748E+02  0.25066917324E+03  0.12500000000E+03 0.  0.
         21    1    1    2  503  504 -0.59121705984E+02  0.12844012588E+03 -0.13075070120E+03  0.19258241851E+03  0.00000000000E+00 0.  1.
         21    1    1    2  504  501 -0.51914848159E+02  0.53970396743E+02 -0.97628788402E+02  0.12304200709E+03  0.00000000000E+00 0.  1.
<mgrwt>
<rscale>  4 0.24744235E+03</rscale>
<asrwt>0</asrwt>
<pdfrwt beam="1">  1       21 0.29077346E-01 0.24744235E+03</pdfrwt>
<pdfrwt beam="2">  1       21 0.58044746E-01 0.24744235E+03</pdfrwt>
<totfact> 0.30645002E+04</totfact>
</mgrwt>
</event>
<event>
 5    0  0.1856407E+000  0.2283058E+03  0.7546771E-02  0.1127838E+00
         21   -1    0    0  502  501  0.00000000000E+00  0.00000000000E+00  0.81902547637E+03  0.81902547637E+03  0.00000000000E+00 0.  1.
         21   -1    0    0  503  502 -0.00000000000E+00 -0.00000000000E+00 -0.39809963870E+03  0.39809963870E+03  0.00000000000E+00 0.  1.
         25    1    1    2    0    0 -0.82143090880E+02 -0.18571101636E+03  0.76070601537E+03  0.79720430932E+03  0.12500000000E+03 0.  0.
         21    1    1    2  503  504  0.22694599977E+02  0.11829394660E+03 -0.78904455941E+02  0.14399449933E+03  0.00000000000E+00 0.  1.
         21    1    1    2  504  501  0.59448490903E+02  0.67417069758E+02 -0.26087572176E+03  0.27592630641E+03  0.00000000000E+00 0.  1.
<mgrwt>
<rscale>  4 0.22830585E+03</rscale>
<asrwt>0</asrwt>
<pdfrwt beam="1">  1       21 0.12600392E+00 0.22830585E+03</pdfrwt>
<pdfrwt beam="2">  1       21 0.61246099E-01 0.22830585E+03</pdfrwt>
<totfact> 0.11206818E+03</totfact>
</mgrwt>
</event>
<event>
 5    0  0.1856407E+000  0.2414133E+03  0.7546771E-02  0.1118855E+00
         21   -1    0    0  502  501  0.00000000000E+00  0.00000000000E+00  0.44393789940E+02  0.44393789940E+02  0.00000000000E+00 0. -1.
         21   -1    0    0  503  502 -0.00000000000E+00 -0.00000000000E+00 -0.16584210917E+04  0.16584210917E+04  0.00000000000E+00 0.  1.
         25    1    1    2    0    0 -0.28311823071E+02 -0.20458201849E+03 -0.37386866721E+03  0.44503723658E+03  0.12500000000E+03 0.  0.
         21    1    1    2  503  504  0.10830986083E+02  0.47488062106E+02 -0.39219609666E+03  0.39520906434E+03  0.00000000000E+00 0.  1.
         21    1    1    2  504  501  0.17480836988E+02  0.15709395638E+03 -0.84796253792E+03  0.86256858076E+03  0.00000000000E+00 0.  1.
<mgrwt>
<rscale>  4 0.24141326E+03</rscale>
<asrwt>0</asrwt>
<pdfrwt beam="1">  1       21 0.68298142E-02 0.24141326E+03</pdfrwt>
<pdfrwt beam="2">  1       21 0.25514169E+00 0.24141326E+03</pdfrwt>
<totfact> 0.93762800E+03</totfact>
</mgrwt>
</event>
<event>
 5    0  0.1856407E+000  0.2785879E+03  0.7546771E-02  0.1096463E+00
         21   -1    0    0  502  501  0.00000000000E+00  0.00000000000E+00  0.23280820348E+03  0.23280820348E+03  0.00000000000E+00 0.  1.
         21   -1    0    0  503  502 -0.00000000000E+00 -0.00000000000E+00 -0.34660342231E+03  0.34660342231E+03  0.00000000000E+00 0.  1.
         25    1    1    2    0    0  0.60717853595E+02 -0.24145304799E+03  0.41670803004E+02  0.28168721652E+03  0.12500000000E+03 0.  0.
         21    1    1    2  503  504 -0.41550653080E+02  0.15460029250E+03 -0.71211428775E+02  0.17521065835E+03  0.00000000000E+00 0.  1.
         21    1    1    2  504  501 -0.19167200515E+02  0.86852755488E+02 -0.84254593064E+02  0.12251375092E+03  0.00000000000E+00 0.  1.
<mgrwt>
<rscale>  4 0.27858793E+03</rscale>
<asrwt>0</asrwt>
<pdfrwt beam="1">  1       21 0.35816647E-01 0.27858793E+03</pdfrwt>
<pdfrwt beam="2">  1       21 0.53323603E-01 0.27858793E+03</pdfrwt>
<totfact> 0.23985675E+04</totfact>
</mgrwt>
</event>
<event>
 5    0  0.1856407E+000  0.2932136E+03  0.7546771E-02  0.1088683E+00
         21   -1    0    0  502  501  0.00000000000E+00  0.00000000000E+00  0.82519388185E+03  0.82519388185E+03  0.00000000000E+00 0. -1.
         21   -1    0    0  503  502 -0.00000000000E+00 -0.00000000000E+00 -0.22458891231E+03  0.22458891231E+03  0.00000000000E+00 0.  1.
         25    1    1    2    0    0 -0.23589182408E+03  0.12590504296E+03  0.66591789918E+03  0.72840145590E+03  0.12500000000E+03 0.  0.
         21    1    1    2  503  504  0.24073273604E+03 -0.91694802410E+02 -0.12041114025E+02  0.25788597367E+03  0.00000000000E+00 0.  1.
         21    1    1    2  504  501 -0.48409119567E+01 -0.34210240548E+02 -0.53271815606E+02  0.63495364593E+02  0.00000000000E+00 0.  1.
<mgrwt>
<rscale>  4 0.29321364E+03</rscale>
<asrwt>0</asrwt>
<pdfrwt beam="1">  1       21 0.12695290E+00 0.29321364E+03</pdfrwt>
<pdfrwt beam="2">  1       21 0.34552141E-01 0.29321364E+03</pdfrwt>
<totfact> 0.34501571E+03</totfact>
</mgrwt>
</event>
