<event>
 5    0  0.2629946E-001  0.8294386E+03  0.7546771E-02  0.9518357E-01
         21   -1    0    0  504  501  0.00000000000E+00  0.00000000000E+00  0.19549101940E+03  0.19549101940E+03  0.00000000000E+00 0.  1.
         21   -1    0    0  501  502 -0.00000000000E+00 -0.00000000000E+00 -0.87979533317E+03  0.87979533317E+03  0.00000000000E+00 0.  1.
         25    1    1    2    0    0  0.18542846457E+03 -0.31441961772E+03 -0.56854845918E+03  0.68710680532E+03  0.12500000000E+03 0.  0.
         21    1    1    2  503  502 -0.11055664336E+02  0.20259186874E+02 -0.25738112720E+02  0.34570403716E+02  0.00000000000E+00 0.  1.
         21    1    1    2  504  503 -0.17437280023E+03  0.29416043085E+03 -0.90017741863E+02  0.35360914353E+03  0.00000000000E+00 0.  1.
<mgrwt>
<rscale>  4 0.82943857E+03</rscale>
<asrwt>0</asrwt>
<pdfrwt beam="1">  1       21 0.30075541E-01 0.82943857E+03</pdfrwt>
<pdfrwt beam="2">  1       21 0.13535313E+00 0.82943857E+03</pdfrwt>
<totfact> 0.32579045E+03</totfact>
</mgrwt>
</event>
<event>
 5    0  0.2629946E-001  0.8303134E+03  0.7546771E-02  0.9517147E-01
         21   -1    0    0  504  501  0.00000000000E+00  0.00000000000E+00  0.74942107954E+03  0.74942107954E+03  0.00000000000E+00 0. -1.
         21   -1    0    0  501  502 -0.00000000000E+00 -0.00000000000E+00 -0.22998429690E+03  0.22998429690E+03  0.00000000000E+00 0. -1.
         25    1    1    2    0    0 -0.28982044150E+03 -0.20312811723E+03  0.43833372993E+02  0.37789321893E+03  0.12500000000E+03 0.  0.
         21    1    1    2  503  502  0.22701298644E+03  0.18651457871E+03  0.32861650651E+03  0.44080765923E+03  0.00000000000E+00 0. -1.
         21    1    1    2  504  503  0.62807455067E+02  0.16613538519E+02  0.14698690313E+03  0.16070449828E+03  0.00000000000E+00 0.  1.
<mgrwt>
<rscale>  4 0.83031339E+03</rscale>
<asrwt>0</asrwt>
<pdfrwt beam="1">  1       21 0.11529555E+00 0.83031339E+03</pdfrwt>
<pdfrwt beam="2">  1       21 0.35382200E-01 0.83031339E+03</pdfrwt>
<totfact> 0.35603300E+03</totfact>
</mgrwt>
</event>
<event>
 5    0  0.2629946E-001  0.5653538E+03  0.7546771E-02  0.9980013E-01
         21   -1    0    0  504  501  0.00000000000E+00  0.00000000000E+00  0.42170490379E+03  0.42170490379E+03  0.00000000000E+00 0.  1.
         21   -1    0    0  501  502 -0.00000000000E+00 -0.00000000000E+00 -0.18948375654E+03  0.18948375654E+03  0.00000000000E+00 0.  1.
         25    1    1    2    0    0  0.68390554133E+02  0.20918861883E+03  0.27999353814E+03  0.37743678615E+03  0.12500000000E+03 0.  0.
         21    1    1    2  503  502 -0.22539878200E+02 -0.14178334951E+02 -0.15586863627E+02  0.30854847415E+02  0.00000000000E+00 0. -1.
         21    1    1    2  504  503 -0.45850675933E+02 -0.19501028388E+03 -0.32185527263E+02  0.20289702676E+03  0.00000000000E+00 0.  1.
<mgrwt>
<rscale>  4 0.56535380E+03</rscale>
<asrwt>0</asrwt>
<pdfrwt beam="1">  1       21 0.64877677E-01 0.56535380E+03</pdfrwt>
<pdfrwt beam="2">  1       21 0.29151347E-01 0.56535380E+03</pdfrwt>
<totfact> 0.21770666E+04</totfact>
</mgrwt>
</event>
<event>
 5    0  0.2629946E-001  0.5393395E+03  0.7546771E-02  0.1003992E+00
         21   -1    0    0  504  501  0.00000000000E+00  0.00000000000E+00  0.10185550933E+04  0.10185550933E+04  0.00000000000E+00 0.  1.
         21   -1    0    0  501  502 -0.00000000000E+00 -0.00000000000E+00 -0.71396982998E+02  0.71396982998E+02  0.00000000000E+00 0.  1.
         25    1    1    2    0    0  0.84739499607E+02 -0.18657963604E+03  0.19616352666E+03  0.30999656864E+03  0.12500000000E+03 0.  0.
         21    1    1    2  503  502 -0.48860207478E+02  0.56353928154E+02  0.23356242517E+03  0.24518256778E+03  0.00000000000E+00 0.  1.
         21    1    1    2  504  503 -0.35879292130E+02  0.13022570789E+03  0.51743215850E+03  0.53477293990E+03  0.00000000000E+00 0.  1.
<mgrwt>
<rscale>  4 0.53933945E+03</rscale>
<asrwt>0</asrwt>
<pdfrwt beam="1">  1       21 0.15670077E+00 0.53933945E+03</pdfrwt>
<pdfrwt beam="2">  1       21 0.10984152E-01 0.53933945E+03</pdfrwt>
<totfact> 0.15863305E+04</totfact>
</mgrwt>
</event>
<event>
 5    0  0.2629946E-001  0.4642730E+03  0.7546771E-02  0.1023549E+00
         21   -1    0    0  504  501  0.00000000000E+00  0.00000000000E+00  0.65212343602E+02  0.65212343602E+02  0.00000000000E+00 0. -1.
         21   -1    0    0  501  502 -0.00000000000E+00 -0.00000000000E+00 -0.82633675237E+03  0.82633675237E+03  0.00000000000E+00 0. -1.
         25    1    1    2    0    0 -0.14846262895E+03  0.15028227444E+03 -0.39877722507E+03  0.46826722013E+03  0.12500000000E+03 0.  0.
         21    1    1    2  503  502  0.11326090831E+03 -0.14372401287E+03 -0.30248827243E+03  0.35353045156E+03  0.00000000000E+00 0. -1.
         21    1    1    2  504  503  0.35201720644E+02 -0.65582615756E+01 -0.59858911262E+02  0.69751424277E+02  0.00000000000E+00 0. -1.
<mgrwt>
<rscale>  4 0.46427301E+03</rscale>
<asrwt>0</asrwt>
<pdfrwt beam="1">  1       21 0.10032669E-01 0.46427301E+03</pdfrwt>
<pdfrwt beam="2">  1       21 0.12712873E+00 0.46427301E+03</pdfrwt>
<totfact> 0.33314682E+04</totfact>
</mgrwt>
</event>
<event>
 5    0  0.2629946E-001  0.5002845E+03  0.7546771E-02  0.1013705E+00
         21   -1    0    0  504  501  0.00000000000E+00  0.00000000000E+00  0.80910795391E+03  0.80910795391E+03  0.00000000000E+00 0.  1.
         21   -1    0    0  501  502 -0.00000000000E+00 -0.00000000000E+00 -0.77333496351E+02  0.77333496351E+02  0.00000000000E+00 0.  1.
         25    1    1    2    0    0  0.86560653921E+02  0.20985153949E+03  0.33712468190E+03  0.42521578825E+03  0.12500000000E+03 0.  0.
         21    1    1    2  503  502 -0.98914673006E+02 -0.18539775348E+03  0.33293830569E+03  0.39370592443E+03  0.00000000000E+00 0.  1.
         21    1    1    2  504  503  0.12354019085E+02 -0.24453786011E+02  0.61711469971E+02  0.67519737587E+02  0.00000000000E+00 0.  1.
<mgrwt>
<rscale>  4 0.50028451E+03</rscale>
<asrwt>0</asrwt>
<pdfrwt beam="1">  1       21 0.12447814E+00 0.50028451E+03</pdfrwt>
<pdfrwt beam="2">  1       21 0.11897462E-01 0.50028451E+03</pdfrwt>
<totfact> 0.25598166E+04</totfact>
</mgrwt>
</event>
<event>
 5    0  0.2629946E-001  0.4766061E+03  0.7546771E-02  0.1020072E+00
         21   -1    0    0  502  501  0.00000000000E+00  0.00000000000E+00  0.13435688296E+04  0.13435688296E+04  0.00000000000E+00 0.  1.
         21   -1    0    0  504  502 -0.00000000000E+00 -0.00000000000E+00 -0.42266799736E+02  0.42266799736E+02  0.00000000000E+00 0.  1.
         25    1    1    2    0    0  0.10657100172E+03  0.19068163106E+03  0.62623964307E+03  0.67492070155E+03  0.12500000000E+03 0.  0.
         21    1    1    2  503  501 -0.48117785693E+02 -0.53982871553E+02  0.26673362891E+03  0.27636262503E+03  0.00000000000E+00 0.  1.
         21    1    1    2  504  503 -0.58453216030E+02 -0.13669875950E+03  0.40832875786E+03  0.43455230273E+03  0.00000000000E+00 0.  1.
<mgrwt>
<rscale>  4 0.47660615E+03</rscale>
<asrwt>0</asrwt>
<pdfrwt beam="1">  1       21 0.20670286E+00 0.47660615E+03</pdfrwt>
<pdfrwt beam="2">  1       21 0.65025856E-02 0.47660615E+03</pdfrwt>
<totfact> 0.18210210E+04</totfact>
</mgrwt>
</event>
<event>
 5    0  0.2629946E-001  0.6558302E+03  0.7546771E-02  0.9795900E-01
         21   -1    0    0  504  501  0.00000000000E+00  0.00000000000E+00  0.11067186824E+04  0.11067186824E+04  0.00000000000E+00 0.  1.
         21   -1    0    0  501  502 -0.00000000000E+00 -0.00000000000E+00 -0.97159569627E+02  0.97159569627E+02  0.00000000000E+00 0.  1.
         25    1    1    2    0    0  0.16819458852E+03  0.24938150016E+03  0.42940370893E+03  0.53897411577E+03  0.12500000000E+03 0.  0.
         21    1    1    2  503  502 -0.97592637558E+02 -0.21999512988E+03  0.37118598657E+03  0.44238130239E+03  0.00000000000E+00 0.  1.
         21    1    1    2  504  503 -0.70601950957E+02 -0.29386370272E+02  0.20896941725E+03  0.22252283385E+03  0.00000000000E+00 0.  1.
<mgrwt>
<rscale>  4 0.65583019E+03</rscale>
<asrwt>0</asrwt>
<pdfrwt beam="1">  1       21 0.17026440E+00 0.65583019E+03</pdfrwt>
<pdfrwt beam="2">  1       21 0.14947627E-01 0.65583019E+03</pdfrwt>
<totfact> 0.69087293E+03</totfact>
</mgrwt>
</event>
<event>
 5    0  0.2629946E-001  0.5074978E+03  0.7546771E-02  0.1011840E+00
         21   -1    0    0  504  501  0.00000000000E+00  0.00000000000E+00  0.49809688326E+03  0.49809688326E+03  0.00000000000E+00 0.  1.
         21   -1    0    0  501  502 -0.00000000000E+00 -0.00000000000E+00 -0.12926905943E+03  0.12926905943E+03  0.00000000000E+00 0.  1.
         25    1    1    2    0    0  0.21526058556E+03  0.60986860599E+00  0.14883126515E+03  0.29002282172E+03  0.12500000000E+03 0.  0.
         21    1    1    2  503  502 -0.41582793756E+02  0.56288075687E+02  0.38955252595E+02  0.80093619633E+02  0.00000000000E+00 0.  1.
         21    1    1    2  504  503 -0.17367779180E+03 -0.56897944293E+02  0.18104130608E+03  0.25724950134E+03  0.00000000000E+00 0.  1.
<mgrwt>
<rscale>  4 0.50749784E+03</rscale>
<asrwt>0</asrwt>
<pdfrwt beam="1">  1       21 0.76630289E-01 0.50749784E+03</pdfrwt>
<pdfrwt beam="2">  1       21 0.19887548E-01 0.50749784E+03</pdfrwt>
<totfact> 0.31812964E+04</totfact>
</mgrwt>
</event>
<event>
 5    0  0.2629946E-001  0.5432537E+03  0.7546771E-02  0.1003068E+00
         21   -1    0    0  502  501  0.00000000000E+00  0.00000000000E+00  0.75246772424E+02  0.75246772424E+02  0.00000000000E+00 0. -1.
         21   -1    0    0  504  502 -0.00000000000E+00 -0.00000000000E+00 -0.98052223662E+03  0.98052223662E+03  0.00000000000E+00 0. -1.
         25    1    1    2    0    0  0.13543575891E+03 -0.19175074918E+03 -0.48536891291E+03  0.55346108826E+03  0.12500000000E+03 0.  0.
         21    1    1    2  503  501 -0.83830303752E+02  0.19954521421E+03 -0.28657345422E+03  0.35912415264E+03  0.00000000000E+00 0. -1.
         21    1    1    2  504  503 -0.51605455155E+02 -0.77944650293E+01 -0.13333309706E+03  0.14318376814E+03  0.00000000000E+00 0.  1.
<mgrwt>
<rscale>  4 0.54325366E+03</rscale>
<asrwt>0</asrwt>
<pdfrwt beam="1">  1       21 0.11576426E-01 0.54325366E+03</pdfrwt>
<pdfrwt beam="2">  1       21 0.15084958E+00 0.54325366E+03</pdfrwt>
<totfact> 0.15995632E+04</totfact>
</mgrwt>
</event>
<event>
 5    0  0.2629946E-001  0.8757336E+03  0.7546771E-02  0.9456435E-01
         21   -1    0    0  504  501  0.00000000000E+00  0.00000000000E+00  0.79573170844E+03  0.79573170844E+03  0.00000000000E+00 0. -1.
         21   -1    0    0  501  502 -0.00000000000E+00 -0.00000000000E+00 -0.24094467736E+03  0.24094467736E+03  0.00000000000E+00 0. -1.
         25    1    1    2    0    0  0.27442647897E+03  0.40084193990E+02 -0.86793828994E+02  0.31634601897E+03  0.12500000000E+03 0.  0.
         21    1    1    2  503  502 -0.54695780475E+02 -0.30672472265E+02  0.28286402449E+02  0.68793528185E+02  0.00000000000E+00 0. -1.
         21    1    1    2  504  503 -0.21973069849E+03 -0.94117217255E+01  0.61329445762E+03  0.65153683865E+03  0.00000000000E+00 0. -1.
<mgrwt>
<rscale>  4 0.87573357E+03</rscale>
<asrwt>0</asrwt>
<pdfrwt beam="1">  1       21 0.12242026E+00 0.87573357E+03</pdfrwt>
<pdfrwt beam="2">  1       21 0.37068412E-01 0.87573357E+03</pdfrwt>
<totfact> 0.27489847E+03</totfact>
</mgrwt>
</event>
<event>
 5    0  0.2629946E-001  0.7431131E+03  0.7546771E-02  0.9646217E-01
         21   -1    0    0  504  501  0.00000000000E+00  0.00000000000E+00  0.31388356722E+04  0.31388356722E+04  0.00000000000E+00 0.  1.
         21   -1    0    0  501  502 -0.00000000000E+00 -0.00000000000E+00 -0.43982633440E+02  0.43982633440E+02  0.00000000000E+00 0.  1.
         25    1    1    2    0    0 -0.23590601512E+02  0.35043809505E+03  0.12888932920E+04  0.13417280996E+04  0.12500000000E+03 0.  0.
         21    1    1    2  503  502  0.93661688365E+01 -0.11912272824E+03  0.79340126475E+03  0.80234874986E+03  0.00000000000E+00 0.  1.
         21    1    1    2  504  503  0.14224432676E+02 -0.23131536681E+03  0.10125584820E+04  0.10387414562E+04  0.00000000000E+00 0.  1.
<mgrwt>
<rscale>  4 0.74311307E+03</rscale>
<asrwt>0</asrwt>
<pdfrwt beam="1">  1       21 0.48289762E+00 0.74311307E+03</pdfrwt>
<pdfrwt beam="2">  1       21 0.67665615E-02 0.74311307E+03</pdfrwt>
<totfact> 0.26441692E+02</totfact>
</mgrwt>
</event>
<event>
 5    0  0.2629946E-001  0.5225295E+03  0.7546771E-02  0.1008060E+00
         21   -1    0    0  504  501  0.00000000000E+00  0.00000000000E+00  0.85747467582E+03  0.85747467582E+03  0.00000000000E+00 0. -1.
         21   -1    0    0  501  502 -0.00000000000E+00 -0.00000000000E+00 -0.79605006997E+02  0.79605006997E+02  0.00000000000E+00 0. -1.
         25    1    1    2    0    0  0.52150168151E+02 -0.23731990676E+03  0.44145131676E+03  0.51917689014E+03  0.12500000000E+03 0.  0.
         21    1    1    2  503  502 -0.37708052795E+02  0.20876339775E+03  0.26359371969E+03  0.33835735923E+03  0.00000000000E+00 0. -1.
         21    1    1    2  504  503 -0.14442115356E+02  0.28556509001E+02  0.72824632370E+02  0.79545433446E+02  0.00000000000E+00 0. -1.
<mgrwt>
<rscale>  4 0.52252953E+03</rscale>
<asrwt>0</asrwt>
<pdfrwt beam="1">  1       21 0.13191917E+00 0.52252953E+03</pdfrwt>
<pdfrwt beam="2">  1       21 0.12246925E-01 0.52252953E+03</pdfrwt>
<totfact> 0.20771712E+04</totfact>
</mgrwt>
</event>
<event>
 5    0  0.2629946E-001  0.9607847E+03  0.7546771E-02  0.9352633E-01
         21   -1    0    0  502  501  0.00000000000E+00  0.00000000000E+00  0.41816032695E+03  0.41816032695E+03  0.00000000000E+00 0.  1.
         21   -1    0    0  504  502 -0.00000000000E+00 -0.00000000000E+00 -0.55188598691E+03  0.55188598691E+03  0.00000000000E+00 0.  1.
         25    1    1    2    0    0 -0.20010973232E+03 -0.37742908742E+03 -0.48554910284E+02  0.44774903720E+03  0.12500000000E+03 0.  0.
         21    1    1    2  503  501  0.26347225818E+03  0.21963480209E+03 -0.33835919307E+02  0.34467658254E+03  0.00000000000E+00 0.  1.
         21    1    1    2  504  503 -0.63362525858E+02  0.15779428534E+03 -0.51334830370E+02  0.17762069411E+03  0.00000000000E+00 0.  1.
<mgrwt>
<rscale>  4 0.96078473E+03</rscale>
<asrwt>0</asrwt>
<pdfrwt beam="1">  1       21 0.64332358E-01 0.96078473E+03</pdfrwt>
<pdfrwt beam="2">  1       21 0.84905537E-01 0.96078473E+03</pdfrwt>
<totfact> 0.20513443E+03</totfact>
</mgrwt>
</event>
<event>
 5    0  0.2629946E-001  0.6503390E+03  0.7546771E-02  0.9806143E-01
         21   -1    0    0  502  501  0.00000000000E+00  0.00000000000E+00  0.68847430181E+03  0.68847430181E+03  0.00000000000E+00 0. -1.
         21   -1    0    0  504  502 -0.00000000000E+00 -0.00000000000E+00 -0.15357901470E+03  0.15357901470E+03  0.00000000000E+00 0. -1.
         25    1    1    2    0    0  0.17877706979E+03 -0.16318300973E+03  0.18686619130E+03  0.33035421716E+03  0.12500000000E+03 0.  0.
         21    1    1    2  503  501 -0.21861507143E+03  0.10020409991E+03  0.11408833913E+03  0.26617580698E+03  0.00000000000E+00 0. -1.
         21    1    1    2  504  503  0.39838001642E+02  0.62978909822E+02  0.23394075669E+03  0.24552329237E+03  0.00000000000E+00 0. -1.
<mgrwt>
<rscale>  4 0.65033900E+03</rscale>
<asrwt>0</asrwt>
<pdfrwt beam="1">  1       21 0.10591912E+00 0.65033900E+03</pdfrwt>
<pdfrwt beam="2">  1       21 0.23627541E-01 0.65033900E+03</pdfrwt>
<totfact> 0.10227851E+04</totfact>
</mgrwt>
</event>
<event>
 5    0  0.2629946E-001  0.4819882E+03  0.7546771E-02  0.1018590E+00
         21   -1    0    0  504  501  0.00000000000E+00  0.00000000000E+00  0.16856500293E+03  0.16856500293E+03  0.00000000000E+00 0. -1.
         21   -1    0    0  501  502 -0.00000000000E+00 -0.00000000000E+00 -0.34454457254E+03  0.34454457254E+03  0.00000000000E+00 0. -1.
         25    1    1    2    0    0  0.11135140755E+03  0.17841084261E+03 -0.15617103140E+03  0.29024809349E+03  0.12500000000E+03 0.  0.
         21    1    1    2  503  502 -0.30486724575E+02 -0.14935720492E+02 -0.22022278397E+02  0.40465996438E+02  0.00000000000E+00 0. -1.
         21    1    1    2  504  503 -0.80864682975E+02 -0.16347512212E+03  0.22137401903E+01  0.18239548555E+03  0.00000000000E+00 0. -1.
<mgrwt>
<rscale>  4 0.48198820E+03</rscale>
<asrwt>0</asrwt>
<pdfrwt beam="1">  1       21 0.25933077E-01 0.48198820E+03</pdfrwt>
<pdfrwt beam="2">  1       21 0.53006857E-01 0.48198820E+03</pdfrwt>
<totfact> 0.43428636E+04</totfact>
</mgrwt>
</event>
<event>
 5    0  0.2629946E-001  0.5445084E+03  0.7546771E-02  0.1002773E+00
         21   -1    0    0  504  501  0.00000000000E+00  0.00000000000E+00  0.72753574582E+03  0.72753574582E+03  0.00000000000E+00 0. -1.
         21   -1    0    0  501  502 -0.00000000000E+00 -0.00000000000E+00 -0.10188137141E+03  0.10188137141E+03  0.00000000000E+00 0. -1.
         25    1    1    2    0    0 -0.87920513718E+02  0.22987803733E+03  0.36106055537E+03  0.45449274298E+03  0.12500000000E+03 0.  0.
         21    1    1    2  503  502  0.27980867749E+02 -0.15475260292E+03  0.10656874348E+03  0.18996892946E+03  0.00000000000E+00 0. -1.
         21    1    1    2  504  503  0.59939645969E+02 -0.75125434413E+02  0.15802507555E+03  0.18495544479E+03  0.00000000000E+00 0. -1.
<mgrwt>
<rscale>  4 0.54450836E+03</rscale>
<asrwt>0</asrwt>
<pdfrwt beam="1">  1       21 0.11192857E+00 0.54450836E+03</pdfrwt>
<pdfrwt beam="2">  1       21 0.15674058E-01 0.54450836E+03</pdfrwt>
<totfact> 0.19942833E+04</totfact>
</mgrwt>
</event>
<event>
 5    0  0.2629946E-001  0.4481942E+03  0.7546771E-02  0.1028262E+00
         21   -1    0    0  504  501  0.00000000000E+00  0.00000000000E+00  0.95151379430E+02  0.95151379430E+02  0.00000000000E+00 0.  1.
         21   -1    0    0  501  502 -0.00000000000E+00 -0.00000000000E+00 -0.52778550009E+03  0.52778550009E+03  0.00000000000E+00 0.  1.
         25    1    1    2    0    0  0.11394965784E+03 -0.16989331663E+03 -0.25780877249E+03  0.35204918226E+03  0.12500000000E+03 0.  0.
         21    1    1    2  503  502 -0.10738669424E+03  0.14088302903E+03 -0.15138555561E+03  0.23301827485E+03  0.00000000000E+00 0.  1.
         21    1    1    2  504  503 -0.65629635990E+01  0.29010287605E+02 -0.23439792564E+02  0.37869422408E+02  0.00000000000E+00 0. -1.
<mgrwt>
<rscale>  4 0.44819424E+03</rscale>
<asrwt>0</asrwt>
<pdfrwt beam="1">  1       21 0.14638674E-01 0.44819424E+03</pdfrwt>
<pdfrwt beam="2">  1       21 0.81197769E-01 0.44819424E+03</pdfrwt>
<totfact> 0.50136155E+04</totfact>
</mgrwt>
</event>
<event>
 5    0  0.2629946E-001  0.5328671E+03  0.7546771E-02  0.1005539E+00
         21   -1    0    0  504  501  0.00000000000E+00  0.00000000000E+00  0.36859090377E+03  0.36859090377E+03  0.00000000000E+00 0. -1.
         21   -1    0    0  501  502 -0.00000000000E+00 -0.00000000000E+00 -0.19258973957E+03  0.19258973957E+03  0.00000000000E+00 0. -1.
         25    1    1    2    0    0  0.80393904489E+02  0.23172313455E+03  0.94735292876E+02  0.29113324558E+03  0.12500000000E+03 0.  0.
         21    1    1    2  503  502 -0.59807310521E+02 -0.22843967309E+03  0.69717491672E+02  0.24621561136E+03  0.00000000000E+00 0. -1.
         21    1    1    2  504  503 -0.20586593968E+02 -0.32834614631E+01  0.11548379661E+02  0.23831786403E+02  0.00000000000E+00 0.  1.
<mgrwt>
<rscale>  4 0.53286706E+03</rscale>
<asrwt>0</asrwt>
<pdfrwt beam="1">  1       21 0.56706293E-01 0.53286706E+03</pdfrwt>
<pdfrwt beam="2">  1       21 0.29629191E-01 0.53286706E+03</pdfrwt>
<totfact> 0.28552148E+04</totfact>
</mgrwt>
</event>
<event>
 5    0  0.2629946E-001  0.4905384E+03  0.7546771E-02  0.1016278E+00
         21   -1    0    0  504  501  0.00000000000E+00  0.00000000000E+00  0.38190582112E+02  0.38190582112E+02  0.00000000000E+00 0.  1.
         21   -1    0    0  501  502 -0.00000000000E+00 -0.00000000000E+00 -0.15751781833E+04  0.15751781833E+04  0.00000000000E+00 0.  1.
         25    1    1    2    0    0 -0.19569663840E+03  0.67148657157E+02 -0.61471752604E+03  0.66053671605E+03  0.12500000000E+03 0.  0.
         21    1    1    2  503  502  0.13121115761E+03  0.16021154230E+02 -0.57309974734E+03  0.58814655118E+03  0.00000000000E+00 0.  1.
         21    1    1    2  504  503  0.64485480783E+02 -0.83169811387E+02 -0.34917032783E+03  0.36468549820E+03  0.00000000000E+00 0.  1.
<mgrwt>
<rscale>  4 0.49053836E+03</rscale>
<asrwt>0</asrwt>
<pdfrwt beam="1">  1       21 0.58754746E-02 0.49053836E+03</pdfrwt>
<pdfrwt beam="2">  1       21 0.24233509E+00 0.49053836E+03</pdfrwt>
<totfact> 0.12823658E+04</totfact>
</mgrwt>
</event>
<event>
 5    0  0.2629946E-001  0.4571279E+03  0.7546771E-02  0.1025618E+00
         21   -1    0    0  504  501  0.00000000000E+00  0.00000000000E+00  0.86219957908E+02  0.86219957908E+02  0.00000000000E+00 0. -1.
         21   -1    0    0  501  502 -0.00000000000E+00 -0.00000000000E+00 -0.60590923941E+03  0.60590923941E+03  0.00000000000E+00 0. -1.
         25    1    1    2    0    0  0.16247955460E+03 -0.13268465098E+03 -0.27568357383E+03  0.36828148901E+03  0.12500000000E+03 0.  0.
         21    1    1    2  503  502 -0.37179445502E+02  0.32428413748E+02 -0.82819241510E+02  0.96399896008E+02  0.00000000000E+00 0.  1.
         21    1    1    2  504  503 -0.12530010910E+03  0.10025623723E+03 -0.16118646617E+03  0.22744781230E+03  0.00000000000E+00 0. -1.
<mgrwt>
<rscale>  4 0.45712786E+03</rscale>
<asrwt>0</asrwt>
<pdfrwt beam="1">  1       21 0.13264609E-01 0.45712786E+03</pdfrwt>
<pdfrwt beam="2">  1       21 0.93216805E-01 0.45712786E+03</pdfrwt>
<totfact> 0.43374506E+04</totfact>
</mgrwt>
</event>
<event>
 5    0  0.2629946E-001  0.5555975E+03  0.7546771E-02  0.1000207E+00
         21   -1    0    0  502  501  0.00000000000E+00  0.00000000000E+00  0.41006556541E+03  0.41006556541E+03  0.00000000000E+00 0.  1.
         21   -1    0    0  504  502 -0.00000000000E+00 -0.00000000000E+00 -0.18819462540E+03  0.18819462540E+03  0.00000000000E+00 0.  1.
         25    1    1    2    0    0  0.23364669893E+03  0.11093985291E+03  0.12815976359E+03  0.31456057586E+03  0.12500000000E+03 0.  0.
         21    1    1    2  503  501 -0.22587924952E+03 -0.86642479567E+02  0.88886903322E+02  0.25773869754E+03  0.00000000000E+00 0.  1.
         21    1    1    2  504  503 -0.77674494158E+01 -0.24297373338E+02  0.48242730950E+01  0.25960917404E+02  0.00000000000E+00 0. -1.
<mgrwt>
<rscale>  4 0.55559746E+03</rscale>
<asrwt>0</asrwt>
<pdfrwt beam="1">  1       21 0.63087010E-01 0.55559746E+03</pdfrwt>
<pdfrwt beam="2">  1       21 0.28953019E-01 0.55559746E+03</pdfrwt>
<totfact> 0.23534196E+04</totfact>
</mgrwt>
</event>
<event>
 5    0  0.2629946E-001  0.5645358E+03  0.7546771E-02  0.9981844E-01
         21   -1    0    0  504  501  0.00000000000E+00  0.00000000000E+00  0.17274911749E+03  0.17274911749E+03  0.00000000000E+00 0.  1.
         21   -1    0    0  501  502 -0.00000000000E+00 -0.00000000000E+00 -0.46121892634E+03  0.46121892634E+03  0.00000000000E+00 0.  1.
         25    1    1    2    0    0  0.24386251234E+03 -0.67707042947E+02 -0.18849238176E+03  0.33942237193E+03  0.12500000000E+03 0.  0.
         21    1    1    2  503  502 -0.14681498878E+02 -0.25617371312E+02 -0.85089950576E+01  0.30727823208E+02  0.00000000000E+00 0. -1.
         21    1    1    2  504  503 -0.22918101346E+03  0.93324414259E+02 -0.91468432028E+02  0.26381784869E+03  0.00000000000E+00 0.  1.
<mgrwt>
<rscale>  4 0.56453578E+03</rscale>
<asrwt>0</asrwt>
<pdfrwt beam="1">  1       21 0.26576787E-01 0.56453578E+03</pdfrwt>
<pdfrwt beam="2">  1       21 0.70956758E-01 0.56453578E+03</pdfrwt>
<totfact> 0.21372570E+04</totfact>
</mgrwt>
</event>
<event>
 5    0  0.2629946E-001  0.5089149E+03  0.7546771E-02  0.1011478E+00
         21   -1    0    0  502  501  0.00000000000E+00  0.00000000000E+00  0.19543204114E+03  0.19543204114E+03  0.00000000000E+00 0. -1.
         21   -1    0    0  504  502 -0.00000000000E+00 -0.00000000000E+00 -0.33131001348E+03  0.33131001348E+03  0.00000000000E+00 0. -1.
         25    1    1    2    0    0 -0.19522477571E+03 -0.68480658389E+02 -0.15502903599E+03  0.28716078357E+03  0.12500000000E+03 0.  0.
         21    1    1    2  503  501  0.43381708518E+02  0.23363788022E+02  0.58377814332E+02  0.76392463181E+02  0.00000000000E+00 0. -1.
         21    1    1    2  504  503  0.15184306719E+03  0.45116870367E+02 -0.39226750684E+02  0.16318880787E+03  0.00000000000E+00 0. -1.
<mgrwt>
<rscale>  4 0.50891489E+03</rscale>
<asrwt>0</asrwt>
<pdfrwt beam="1">  1       21 0.30066468E-01 0.50891489E+03</pdfrwt>
<pdfrwt beam="2">  1       21 0.50970770E-01 0.50891489E+03</pdfrwt>
<totfact> 0.35077082E+04</totfact>
</mgrwt>
</event>
<event>
 5    0  0.2629946E-001  0.4702814E+03  0.7546771E-02  0.1021841E+00
         21   -1    0    0  504  501  0.00000000000E+00  0.00000000000E+00  0.76226056416E+02  0.76226056416E+02  0.00000000000E+00 0. -1.
         21   -1    0    0  501  502 -0.00000000000E+00 -0.00000000000E+00 -0.72535756091E+03  0.72535756091E+03  0.00000000000E+00 0. -1.
         25    1    1    2    0    0  0.19625368251E+03  0.41321347677E+02 -0.22424998645E+03  0.32578523308E+03  0.12500000000E+03 0.  0.
         21    1    1    2  503  502 -0.16475017494E+03 -0.40261952591E+02 -0.40354341528E+03  0.43773386091E+03  0.00000000000E+00 0. -1.
         21    1    1    2  504  503 -0.31503507567E+02 -0.10593950858E+01 -0.21338102760E+02  0.38064523331E+02  0.00000000000E+00 0. -1.
<mgrwt>
<rscale>  4 0.47028139E+03</rscale>
<asrwt>0</asrwt>
<pdfrwt beam="1">  1       21 0.11727086E-01 0.47028139E+03</pdfrwt>
<pdfrwt beam="2">  1       21 0.11159347E+00 0.47028139E+03</pdfrwt>
<totfact> 0.34902550E+04</totfact>
</mgrwt>
</event>
<event>
 5    0  0.2629946E-001  0.6918881E+03  0.7546771E-02  0.9731206E-01
         21   -1    0    0  502  501  0.00000000000E+00  0.00000000000E+00  0.12707900179E+03  0.12707900179E+03  0.00000000000E+00 0. -1.
         21   -1    0    0  504  502 -0.00000000000E+00 -0.00000000000E+00 -0.94175498342E+03  0.94175498342E+03  0.00000000000E+00 0. -1.
         25    1    1    2    0    0 -0.21294176003E+02  0.26507142741E+03 -0.44536227024E+03  0.53356241933E+03  0.12500000000E+03 0.  0.
         21    1    1    2  503  501 -0.65311993456E+02 -0.26819526225E+03 -0.18700916819E+03  0.33341683246E+03  0.00000000000E+00 0. -1.
         21    1    1    2  504  503  0.86606169459E+02  0.31238348340E+01 -0.18230454321E+03  0.20185473343E+03  0.00000000000E+00 0.  1.
<mgrwt>
<rscale>  4 0.69188809E+03</rscale>
<asrwt>0</asrwt>
<pdfrwt beam="1">  1       21 0.19550616E-01 0.69188809E+03</pdfrwt>
<pdfrwt beam="2">  1       21 0.14488538E+00 0.69188809E+03</pdfrwt>
<totfact> 0.64852904E+03</totfact>
</mgrwt>
</event>
<event>
 5    0  0.2629946E-001  0.4668431E+03  0.7546771E-02  0.1022815E+00
         21   -1    0    0  502  501  0.00000000000E+00  0.00000000000E+00  0.32865127679E+02  0.32865127679E+02  0.00000000000E+00 0.  1.
         21   -1    0    0  504  502 -0.00000000000E+00 -0.00000000000E+00 -0.16578549197E+04  0.16578549197E+04  0.00000000000E+00 0.  1.
         25    1    1    2    0    0 -0.16582170412E+03  0.11935450546E+03 -0.81487381338E+03  0.84934484590E+03  0.12500000000E+03 0.  0.
         21    1    1    2  503  501 -0.70220074824E+01 -0.32021259316E+02 -0.94750076825E+02  0.10026089315E+03  0.00000000000E+00 0.  1.
         21    1    1    2  504  503  0.17284371160E+03 -0.87333246142E+02 -0.71536590185E+03  0.74111430835E+03  0.00000000000E+00 0.  1.
<mgrwt>
<rscale>  4 0.46684307E+03</rscale>
<asrwt>0</asrwt>
<pdfrwt beam="1">  1       21 0.50561739E-02 0.46684307E+03</pdfrwt>
<pdfrwt beam="2">  1       21 0.25505458E+00 0.46684307E+03</pdfrwt>
<totfact> 0.14010812E+04</totfact>
</mgrwt>
</event>
