<event>
 5    0  0.5993533E-001  0.5223175E+03  0.7546771E-02  0.1008112E+00
         21   -1    0    0  503  502  0.00000000000E+00  0.00000000000E+00  0.69490065319E+03  0.69490065319E+03  0.00000000000E+00 0.  1.
          1   -1    0    0  502    0 -0.00000000000E+00 -0.00000000000E+00 -0.48094003092E+03  0.48094003092E+03  0.00000000000E+00 0.  1.
         25    1    1    2    0    0  0.30646013390E+03 -0.40407027338E+03  0.36133907869E+03  0.63512323945E+03  0.12500000000E+03 0.  0.
         21    1    1    2  503  501 -0.82691604609E+01  0.62818320930E+02  0.24659666548E+01  0.63408212802E+02  0.00000000000E+00 0.  1.
          1    1    1    2  501    0 -0.29819097344E+03  0.34125195245E+03 -0.14984442308E+03  0.47730923186E+03  0.00000000000E+00 0.  1.
<mgrwt>
<rscale>  4 0.52231753E+03</rscale>
<asrwt>0</asrwt>
<pdfrwt beam="1">  1       21 0.10690779E+00 0.52231753E+03</pdfrwt>
<pdfrwt beam="2">  1        1 0.73990774E-01 0.52231753E+03</pdfrwt>
<totfact> 0.32275835E+02</totfact>
</mgrwt>
</event>
<event>
 5    0  0.5993533E-001  0.2680913E+03  0.7546771E-02  0.1102377E+00
          3   -1    0    0  502    0 -0.00000000000E+00  0.00000000000E+00  0.10041906604E+04  0.10041906604E+04  0.00000000000E+00 0. -1.
         21   -1    0    0  503  502  0.00000000000E+00 -0.00000000000E+00 -0.27142112396E+03  0.27142112396E+03  0.00000000000E+00 0.  1.
         25    1    1    2    0    0 -0.22784301852E+03 -0.65844372293E+02 -0.18586844380E+03  0.32622078544E+03  0.12500000000E+03 0.  0.
         21    1    1    2  503  501  0.27337342055E+02 -0.24521720533E+01  0.12449198061E+03  0.12748175028E+03  0.00000000000E+00 0. -1.
          3    1    1    2  501    0  0.20050567647E+03  0.68296544346E+02  0.79414599966E+03  0.82190924867E+03  0.00000000000E+00 0. -1.
<mgrwt>
<rscale>  4 0.26809126E+03</rscale>
<asrwt>0</asrwt>
<pdfrwt beam="1">  1       21 0.41757097E-01 0.26809126E+03</pdfrwt>
<pdfrwt beam="2">  1        3 0.15449087E+00 0.26809126E+03</pdfrwt>
<totfact> 0.85003415E+01</totfact>
</mgrwt>
</event>
<event>
 5    0  0.5993533E-001  0.2705242E+03  0.7546771E-02  0.1100980E+00
          2   -1    0    0  502    0 -0.00000000000E+00  0.00000000000E+00  0.19147909436E+04  0.19147909436E+04  0.00000000000E+00 0.  1.
         21   -1    0    0  503  502  0.00000000000E+00 -0.00000000000E+00 -0.43202184258E+02  0.43202184258E+02  0.00000000000E+00 0.  1.
         25    1    1    2    0    0  0.13188915862E+03  0.20040850061E+03  0.57275336990E+03  0.63342698080E+03  0.12500000000E+03 0.  0.
         21    1    1    2  503  501 -0.12241565441E+02 -0.56875511735E+02  0.15481624748E+03  0.16538666888E+03  0.00000000000E+00 0. -1.
          2    1    1    2  501    0 -0.11964759318E+03 -0.14353298887E+03  0.11440191420E+04  0.11591794782E+04  0.00000000000E+00 0.  1.
<mgrwt>
<rscale>  4 0.27052415E+03</rscale>
<asrwt>0</asrwt>
<pdfrwt beam="1">  1       21 0.66464914E-02 0.27052415E+03</pdfrwt>
<pdfrwt beam="2">  1        2 0.29458316E+00 0.27052415E+03</pdfrwt>
<totfact> 0.17223636E+04</totfact>
</mgrwt>
</event>
<event>
 5    0  0.5993533E-001  0.2967691E+03  0.7546771E-02  0.1086867E+00
         21   -1    0    0  503  502  0.00000000000E+00  0.00000000000E+00  0.49769200919E+03  0.49769200919E+03  0.00000000000E+00 0.  1.
          4   -1    0    0  502    0 -0.00000000000E+00 -0.00000000000E+00 -0.62328643127E+03  0.62328643127E+03  0.00000000000E+00 0.  1.
         25    1    1    2    0    0 -0.21365232819E+03 -0.18041476465E+03  0.38780535081E+03  0.49418093322E+03  0.12500000000E+03 0.  0.
         21    1    1    2  503  501  0.14802192699E+03  0.90441755423E+02 -0.48022626834E+03  0.51059521227E+03  0.00000000000E+00 0.  1.
          4    1    1    2  501    0  0.65630401198E+02  0.89973009224E+02 -0.33173504559E+02  0.11620229496E+03  0.00000000000E+00 0.  1.
<mgrwt>
<rscale>  4 0.29676910E+03</rscale>
<asrwt>0</asrwt>
<pdfrwt beam="1">  1       21 0.76568001E-01 0.29676910E+03</pdfrwt>
<pdfrwt beam="2">  1        4 0.95890220E-01 0.29676910E+03</pdfrwt>
<totfact> 0.58462091E+01</totfact>
</mgrwt>
</event>
<event>
 5    0  0.5993533E-001  0.2631168E+03  0.7546771E-02  0.1105285E+00
         21   -1    0    0  501  502  0.00000000000E+00  0.00000000000E+00  0.53283070721E+02  0.53283070721E+02  0.00000000000E+00 0.  1.
         -1   -1    0    0    0  501 -0.00000000000E+00 -0.00000000000E+00 -0.15814630763E+04  0.15814630763E+04  0.00000000000E+00 0.  1.
         25    1    1    2    0    0 -0.22170224221E+03 -0.66735046227E+02 -0.38907589438E+03  0.46969192263E+03  0.12500000000E+03 0.  0.
         21    1    1    2  501  501  0.89572380933E+02  0.33545827281E+01 -0.29476890471E+03  0.30809604320E+03  0.00000000000E+00 0.  1.
         -1    1    1    2    0  502  0.13212986128E+03  0.63380463499E+02 -0.84433520651E+03  0.85695818121E+03  0.00000000000E+00 0.  1.
<mgrwt>
<rscale>  4 0.26311680E+03</rscale>
<asrwt>0</asrwt>
<pdfrwt beam="1">  1       21 0.81973938E-02 0.26311680E+03</pdfrwt>
<pdfrwt beam="2">  1       -1 0.24330206E+00 0.26311680E+03</pdfrwt>
<totfact> 0.93963688E+02</totfact>
</mgrwt>
</event>
<event>
 5    0  0.5993533E-001  0.4042706E+03  0.7546771E-02  0.1042311E+00
         21   -1    0    0  503  502  0.00000000000E+00  0.00000000000E+00  0.18539975168E+03  0.18539975168E+03  0.00000000000E+00 0.  1.
          1   -1    0    0  502    0 -0.00000000000E+00 -0.00000000000E+00 -0.11606137430E+04  0.11606137430E+04  0.00000000000E+00 0. -1.
         25    1    1    2    0    0 -0.23310816017E+03 -0.30950376876E+03 -0.17031236583E+03  0.44131995102E+03  0.12500000000E+03 0.  0.
         21    1    1    2  503  501  0.25950726472E+02 -0.64067847304E+01 -0.11569064689E+03  0.11873842206E+03  0.00000000000E+00 0.  1.
          1    1    1    2  501    0  0.20715743370E+03  0.31591055349E+03 -0.68921097864E+03  0.78595512164E+03  0.00000000000E+00 0. -1.
<mgrwt>
<rscale>  4 0.40427056E+03</rscale>
<asrwt>0</asrwt>
<pdfrwt beam="1">  1       21 0.28523039E-01 0.40427056E+03</pdfrwt>
<pdfrwt beam="2">  1        1 0.17855596E+00 0.40427056E+03</pdfrwt>
<totfact> 0.14972060E+03</totfact>
</mgrwt>
</event>
<event>
 5    0  0.5993533E-001  0.3165836E+03  0.7546771E-02  0.1077232E+00
         -3   -1    0    0    0  501 -0.00000000000E+00  0.00000000000E+00  0.13889655040E+04  0.13889655040E+04  0.00000000000E+00 0.  1.
         21   -1    0    0  501  502  0.00000000000E+00 -0.00000000000E+00 -0.12112646155E+03  0.12112646155E+03  0.00000000000E+00 0.  1.
         25    1    1    2    0    0  0.13841540750E+03 -0.25581506701E+03  0.14676168522E+03  0.34894722494E+03  0.12500000000E+03 0.  0.
         21    1    1    2  501  501 -0.35367660700E+02  0.94202705580E+02  0.25550413564E+03  0.27460405039E+03  0.00000000000E+00 0.  1.
         -3    1    1    2    0  502 -0.10304774680E+03  0.16161236143E+03  0.86557322161E+03  0.88654069024E+03  0.00000000000E+00 0.  1.
<mgrwt>
<rscale>  4 0.31658360E+03</rscale>
<asrwt>0</asrwt>
<pdfrwt beam="1">  1       21 0.18634841E-01 0.31658360E+03</pdfrwt>
<pdfrwt beam="2">  1       -3 0.21368699E+00 0.31658360E+03</pdfrwt>
<totfact> 0.16733817E+02</totfact>
</mgrwt>
</event>
<event>
 5    0  0.5993533E-001  0.2652970E+03  0.7546771E-02  0.1104002E+00
          2   -1    0    0  502    0 -0.00000000000E+00  0.00000000000E+00  0.17230300021E+04  0.17230300021E+04  0.00000000000E+00 0. -1.
         21   -1    0    0  503  502  0.00000000000E+00 -0.00000000000E+00 -0.68277540376E+02  0.68277540376E+02  0.00000000000E+00 0.  1.
         25    1    1    2    0    0 -0.91619780880E+02 -0.22032023822E+03  0.29063349963E+03  0.39626761504E+03  0.12500000000E+03 0.  0.
         21    1    1    2  503  501  0.62934600915E+02 -0.23962496952E+01  0.20845064813E+03  0.21775715536E+03  0.00000000000E+00 0.  1.
          2    1    1    2  501    0  0.28685179965E+02  0.22271648792E+03  0.11556683140E+04  0.11772827721E+04  0.00000000000E+00 0. -1.
<mgrwt>
<rscale>  4 0.26529695E+03</rscale>
<asrwt>0</asrwt>
<pdfrwt beam="1">  1       21 0.10504238E-01 0.26529695E+03</pdfrwt>
<pdfrwt beam="2">  1        2 0.26508151E+00 0.26529695E+03</pdfrwt>
<totfact> 0.97248392E+03</totfact>
</mgrwt>
</event>
<event>
 5    0  0.5993533E-001  0.3255270E+03  0.7546771E-02  0.1073133E+00
         21   -1    0    0  503  502  0.00000000000E+00  0.00000000000E+00  0.82690053565E+02  0.82690053565E+02  0.00000000000E+00 0.  1.
          2   -1    0    0  502    0 -0.00000000000E+00 -0.00000000000E+00 -0.13292305093E+04  0.13292305093E+04  0.00000000000E+00 0.  1.
         25    1    1    2    0    0 -0.45991915243E+02 -0.29703130229E+03 -0.44566455317E+03  0.55189196838E+03  0.12500000000E+03 0.  0.
         21    1    1    2  503  501 -0.25194147530E+02  0.45871011559E+02 -0.12778744909E+03  0.13808883704E+03  0.00000000000E+00 0. -1.
          2    1    1    2  501    0  0.71186062773E+02  0.25116029073E+03 -0.67308845345E+03  0.72193975742E+03  0.00000000000E+00 0.  1.
<mgrwt>
<rscale>  4 0.32552704E+03</rscale>
<asrwt>0</asrwt>
<pdfrwt beam="1">  1       21 0.12721547E-01 0.32552704E+03</pdfrwt>
<pdfrwt beam="2">  1        2 0.20449700E+00 0.32552704E+03</pdfrwt>
<totfact> 0.11046957E+04</totfact>
</mgrwt>
</event>
<event>
 5    0  0.5993533E-001  0.2423000E+03  0.7546771E-02  0.1118270E+00
         21   -1    0    0  501  502  0.00000000000E+00  0.00000000000E+00  0.56811092459E+02  0.56811092459E+02  0.00000000000E+00 0.  1.
         -4   -1    0    0    0  501 -0.00000000000E+00 -0.00000000000E+00 -0.12751246423E+04  0.12751246423E+04  0.00000000000E+00 0. -1.
         25    1    1    2    0    0 -0.12256984931E+03 -0.16751390457E+03 -0.30216600079E+03  0.38731585072E+03  0.12500000000E+03 0.  0.
         21    1    1    2  501  501  0.48683189959E+02  0.14358786833E+03 -0.56528589904E+03  0.58526547530E+03  0.00000000000E+00 0.  1.
         -4    1    1    2    0  502  0.73886659351E+02  0.23926036233E+02 -0.35086165003E+03  0.35935440877E+03  0.00000000000E+00 0. -1.
<mgrwt>
<rscale>  4 0.24229997E+03</rscale>
<asrwt>0</asrwt>
<pdfrwt beam="1">  1       21 0.87401684E-02 0.24229997E+03</pdfrwt>
<pdfrwt beam="2">  1       -4 0.19617301E+00 0.24229997E+03</pdfrwt>
<totfact> 0.66192378E+02</totfact>
</mgrwt>
</event>
<event>
 5    0  0.5993533E-001  0.2427453E+03  0.7546771E-02  0.1117977E+00
          1   -1    0    0  502    0 -0.00000000000E+00  0.00000000000E+00  0.25389839365E+04  0.25389839365E+04  0.00000000000E+00 0.  1.
         21   -1    0    0  503  502  0.00000000000E+00 -0.00000000000E+00 -0.20790635136E+02  0.20790635136E+02  0.00000000000E+00 0.  1.
         25    1    1    2    0    0  0.16100102613E+03  0.13182924018E+03  0.11507590060E+04  0.11760831471E+04  0.12500000000E+03 0.  0.
         21    1    1    2  503  501 -0.24858426481E+02 -0.28371194368E+02  0.34517011952E+03  0.34722511062E+03  0.00000000000E+00 0.  1.
          1    1    1    2  501    0 -0.13614259965E+03 -0.10345804581E+03  0.10222641758E+04  0.10364663139E+04  0.00000000000E+00 0.  1.
<mgrwt>
<rscale>  4 0.24274530E+03</rscale>
<asrwt>0</asrwt>
<pdfrwt beam="1">  1       21 0.31985613E-02 0.24274530E+03</pdfrwt>
<pdfrwt beam="2">  1        1 0.39061267E+00 0.24274530E+03</pdfrwt>
<totfact> 0.96182713E+03</totfact>
</mgrwt>
</event>
<event>
 5    0  0.5993533E-001  0.3257961E+03  0.7546771E-02  0.1073012E+00
         -1   -1    0    0    0  501 -0.00000000000E+00  0.00000000000E+00  0.16981426994E+04  0.16981426994E+04  0.00000000000E+00 0.  1.
         21   -1    0    0  501  502  0.00000000000E+00 -0.00000000000E+00 -0.62403258256E+03  0.62403258256E+03  0.00000000000E+00 0. -1.
         25    1    1    2    0    0  0.15847325318E+03 -0.25819102193E+03 -0.54882125230E+03  0.63922307746E+03  0.12500000000E+03 0.  0.
         21    1    1    2  501  501 -0.73274937623E+02  0.42451682146E+02  0.62183911625E+02  0.10506284151E+03  0.00000000000E+00 0. -1.
         -1    1    1    2    0  502 -0.85198315555E+02  0.21573933978E+03  0.15607474575E+04  0.15778893630E+04  0.00000000000E+00 0.  1.
<mgrwt>
<rscale>  4 0.32579607E+03</rscale>
<asrwt>0</asrwt>
<pdfrwt beam="1">  1       21 0.96005013E-01 0.32579607E+03</pdfrwt>
<pdfrwt beam="2">  1       -1 0.26125272E+00 0.32579607E+03</pdfrwt>
<totfact> 0.52536662E+00</totfact>
</mgrwt>
</event>
<event>
 5    0  0.5993533E-001  0.3147600E+03  0.7546771E-02  0.1078086E+00
          2   -1    0    0  502    0 -0.00000000000E+00  0.00000000000E+00  0.12376809952E+04  0.12376809952E+04  0.00000000000E+00 0. -1.
         21   -1    0    0  503  502  0.00000000000E+00 -0.00000000000E+00 -0.11671443548E+03  0.11671443548E+03  0.00000000000E+00 0.  1.
         25    1    1    2    0    0 -0.21552451870E+03  0.19234871503E+03  0.17125775658E+03  0.35833373484E+03  0.12500000000E+03 0.  0.
         21    1    1    2  503  501  0.77385032764E+02 -0.12352437777E+03  0.44215445397E+03  0.46556124878E+03  0.00000000000E+00 0. -1.
          2    1    1    2  501    0  0.13813948593E+03 -0.68824337260E+02  0.50755434918E+03  0.53050044707E+03  0.00000000000E+00 0. -1.
<mgrwt>
<rscale>  4 0.31475998E+03</rscale>
<asrwt>0</asrwt>
<pdfrwt beam="1">  1       21 0.17956068E-01 0.31475998E+03</pdfrwt>
<pdfrwt beam="2">  1        2 0.19041245E+00 0.31475998E+03</pdfrwt>
<totfact> 0.66039802E+03</totfact>
</mgrwt>
</event>
<event>
 5    0  0.5993533E-001  0.2439157E+03  0.7546771E-02  0.1117211E+00
          2   -1    0    0  502    0 -0.00000000000E+00  0.00000000000E+00  0.18339803481E+04  0.18339803481E+04  0.00000000000E+00 0.  1.
         21   -1    0    0  503  502  0.00000000000E+00 -0.00000000000E+00 -0.10447924160E+03  0.10447924160E+03  0.00000000000E+00 0.  1.
         25    1    1    2    0    0 -0.28674111244E+02 -0.20829190706E+03  0.70290752609E+02  0.25450641073E+03  0.12500000000E+03 0.  0.
         21    1    1    2  503  501  0.64503262682E+02 -0.14434353925E+01  0.60881450251E+03  0.61222369512E+03  0.00000000000E+00 0.  1.
          2    1    1    2  501    0 -0.35829151438E+02  0.20973534245E+03  0.10503958514E+04  0.10717294839E+04  0.00000000000E+00 0.  1.
<mgrwt>
<rscale>  4 0.24391570E+03</rscale>
<asrwt>0</asrwt>
<pdfrwt beam="1">  1       21 0.16073731E-01 0.24391570E+03</pdfrwt>
<pdfrwt beam="2">  1        2 0.28215080E+00 0.24391570E+03</pdfrwt>
<totfact> 0.39646816E+03</totfact>
</mgrwt>
</event>
<event>
 5    0  0.5993533E-001  0.2366094E+03  0.7546771E-02  0.1122072E+00
         21   -1    0    0  503  502  0.00000000000E+00  0.00000000000E+00  0.28440302992E+03  0.28440302992E+03  0.00000000000E+00 0. -1.
          1   -1    0    0  502    0 -0.00000000000E+00 -0.00000000000E+00 -0.50333108447E+03  0.50333108447E+03  0.00000000000E+00 0. -1.
         25    1    1    2    0    0  0.15377809445E+03 -0.12927213804E+03  0.20745184198E+03  0.31467483971E+03  0.12500000000E+03 0.  0.
         21    1    1    2  503  501 -0.39596818137E+02  0.12754929747E+02 -0.94499541934E+02  0.10325095479E+03  0.00000000000E+00 0.  1.
          1    1    1    2  501    0 -0.11418127631E+03  0.11651720830E+03 -0.33188035460E+03  0.36980831989E+03  0.00000000000E+00 0. -1.
<mgrwt>
<rscale>  4 0.23660936E+03</rscale>
<asrwt>0</asrwt>
<pdfrwt beam="1">  1       21 0.43754313E-01 0.23660936E+03</pdfrwt>
<pdfrwt beam="2">  1        1 0.77435551E-01 0.23660936E+03</pdfrwt>
<totfact> 0.24416476E+03</totfact>
</mgrwt>
</event>
<event>
 5    0  0.5993533E-001  0.2426309E+03  0.7546771E-02  0.1118052E+00
         21   -1    0    0  503  502  0.00000000000E+00  0.00000000000E+00  0.40207644915E+02  0.40207644915E+02  0.00000000000E+00 0.  1.
          2   -1    0    0  502    0 -0.00000000000E+00 -0.00000000000E+00 -0.15060528266E+04  0.15060528266E+04  0.00000000000E+00 0.  1.
         25    1    1    2    0    0  0.12398618868E+03  0.18260564665E+03 -0.86476030699E+03  0.90119519845E+03  0.12500000000E+03 0.  0.
         21    1    1    2  503  501 -0.12020398087E+03 -0.16125123837E+03 -0.45621385592E+03  0.49858002490E+03  0.00000000000E+00 0.  1.
          2    1    1    2  501    0 -0.37822078108E+01 -0.21354408276E+02 -0.14487101876E+03  0.14648524815E+03  0.00000000000E+00 0.  1.
<mgrwt>
<rscale>  4 0.24263095E+03</rscale>
<asrwt>0</asrwt>
<pdfrwt beam="1">  1       21 0.61857909E-02 0.24263095E+03</pdfrwt>
<pdfrwt beam="2">  1        2 0.23170046E+00 0.24263095E+03</pdfrwt>
<totfact> 0.32242424E+04</totfact>
</mgrwt>
</event>
<event>
 5    0  0.5993533E-001  0.2597737E+03  0.7546771E-02  0.1107279E+00
         21   -1    0    0  501  502  0.00000000000E+00  0.00000000000E+00  0.37672194738E+03  0.37672194738E+03  0.00000000000E+00 0. -1.
         -1   -1    0    0    0  501 -0.00000000000E+00 -0.00000000000E+00 -0.18971398407E+03  0.18971398407E+03  0.00000000000E+00 0. -1.
         25    1    1    2    0    0 -0.22761719845E+03 -0.69121754177E+01  0.19817193334E+03  0.32673304450E+03  0.12500000000E+03 0.  0.
         21    1    1    2  501  501  0.13904211959E+03 -0.31779066547E+02 -0.23765081558E+01  0.14264735498E+03  0.00000000000E+00 0. -1.
         -1    1    1    2    0  502  0.88575078861E+02  0.38691241965E+02 -0.87874618741E+01  0.97055531971E+02  0.00000000000E+00 0. -1.
<mgrwt>
<rscale>  4 0.25977368E+03</rscale>
<asrwt>0</asrwt>
<pdfrwt beam="1">  1       21 0.57957223E-01 0.25977368E+03</pdfrwt>
<pdfrwt beam="2">  1       -1 0.29186767E-01 0.25977368E+03</pdfrwt>
<totfact> 0.26825410E+03</totfact>
</mgrwt>
</event>
<event>
 5    0  0.5993533E-001  0.2796293E+03  0.7546771E-02  0.1095892E+00
         21   -1    0    0  503  502  0.00000000000E+00  0.00000000000E+00  0.16575802499E+04  0.16575802499E+04  0.00000000000E+00 0.  1.
          2   -1    0    0  502    0 -0.00000000000E+00 -0.00000000000E+00 -0.29768915482E+04  0.29768915482E+04  0.00000000000E+00 0.  1.
         25    1    1    2    0    0  0.20181250640E+03  0.14828067488E+03  0.16233538898E+04  0.16473063765E+04  0.12500000000E+03 0.  0.
         21    1    1    2  503  501 -0.88555934721E+02  0.70176193048E+00 -0.82970720886E+02  0.12135397220E+03  0.00000000000E+00 0. -1.
          2    1    1    2  501    0 -0.11325657168E+03 -0.14898243681E+03 -0.28596944673E+04  0.28658114495E+04  0.00000000000E+00 0.  1.
<mgrwt>
<rscale>  4 0.27962929E+03</rscale>
<asrwt>0</asrwt>
<pdfrwt beam="1">  1       21 0.25501235E+00 0.27962929E+03</pdfrwt>
<pdfrwt beam="2">  1        2 0.45798331E+00 0.27962929E+03</pdfrwt>
<totfact> 0.15406476E+00</totfact>
</mgrwt>
</event>
<event>
 5    0  0.5993533E-001  0.2471318E+03  0.7546771E-02  0.1115131E+00
         21   -1    0    0  503  502  0.00000000000E+00  0.00000000000E+00  0.17919924638E+02  0.17919924638E+02  0.00000000000E+00 0.  1.
          1   -1    0    0  502    0 -0.00000000000E+00 -0.00000000000E+00 -0.31021697938E+04  0.31021697938E+04  0.00000000000E+00 0.  1.
         25    1    1    2    0    0 -0.17653614724E+03 -0.11951608691E+03 -0.16386788002E+04  0.16572091952E+04  0.12500000000E+03 0.  0.
         21    1    1    2  503  501  0.12558750814E+03  0.89596916700E+02 -0.80935069596E+03  0.82392255627E+03  0.00000000000E+00 0.  1.
          1    1    1    2  501    0  0.50948639100E+02  0.29919170214E+02 -0.63622037296E+03  0.63895796696E+03  0.00000000000E+00 0.  1.
<mgrwt>
<rscale>  4 0.24713176E+03</rscale>
<asrwt>0</asrwt>
<pdfrwt beam="1">  1       21 0.27569100E-02 0.24713176E+03</pdfrwt>
<pdfrwt beam="2">  1        1 0.47725714E+00 0.24713176E+03</pdfrwt>
<totfact> 0.50586170E+03</totfact>
</mgrwt>
</event>
<event>
 5    0  0.5993533E-001  0.2615280E+03  0.7546771E-02  0.1106229E+00
         21   -1    0    0  503  502  0.00000000000E+00  0.00000000000E+00  0.34258182270E+02  0.34258182270E+02  0.00000000000E+00 0. -1.
          1   -1    0    0  502    0 -0.00000000000E+00 -0.00000000000E+00 -0.21374216669E+04  0.21374216669E+04  0.00000000000E+00 0. -1.
         25    1    1    2    0    0  0.22969714542E+03  0.33317182053E+01 -0.14334477699E+04  0.14571099437E+04  0.12500000000E+03 0.  0.
         21    1    1    2  503  501 -0.80429866958E+02 -0.46418144785E+02 -0.22092696839E+03  0.23965043923E+03  0.00000000000E+00 0.  1.
          1    1    1    2  501    0 -0.14926727846E+03  0.43086426580E+02 -0.44878874631E+03  0.47491946621E+03  0.00000000000E+00 0. -1.
<mgrwt>
<rscale>  4 0.26152797E+03</rscale>
<asrwt>0</asrwt>
<pdfrwt beam="1">  1       21 0.52704873E-02 0.26152797E+03</pdfrwt>
<pdfrwt beam="2">  1        1 0.32883425E+00 0.26152797E+03</pdfrwt>
<totfact> 0.75497514E+03</totfact>
</mgrwt>
</event>
<event>
 5    0  0.5993533E-001  0.2677710E+03  0.7546771E-02  0.1102562E+00
         21   -1    0    0  503  502  0.00000000000E+00  0.00000000000E+00  0.35308876501E+02  0.35308876501E+02  0.00000000000E+00 0. -1.
          1   -1    0    0  502    0 -0.00000000000E+00 -0.00000000000E+00 -0.24795495729E+04  0.24795495729E+04  0.00000000000E+00 0.  1.
         25    1    1    2    0    0 -0.18139241214E+03  0.15222719433E+03 -0.63109924094E+03  0.68555640015E+03  0.12500000000E+03 0.  0.
         21    1    1    2  503  501  0.30689854132E+02 -0.50141609336E+01 -0.18648578181E+03  0.18906071980E+03  0.00000000000E+00 0. -1.
          1    1    1    2  501    0  0.15070255801E+03 -0.14721303339E+03 -0.16266556736E+04  0.16402413294E+04  0.00000000000E+00 0.  1.
<mgrwt>
<rscale>  4 0.26777103E+03</rscale>
<asrwt>0</asrwt>
<pdfrwt beam="1">  1       21 0.54321344E-02 0.26777103E+03</pdfrwt>
<pdfrwt beam="2">  1        1 0.38146920E+00 0.26777103E+03</pdfrwt>
<totfact> 0.42634826E+03</totfact>
</mgrwt>
</event>
<event>
 5    0  0.5993533E-001  0.2581265E+03  0.7546771E-02  0.1108274E+00
         -3   -1    0    0    0  501 -0.00000000000E+00  0.00000000000E+00  0.32333653263E+02  0.32333653263E+02  0.00000000000E+00 0.  1.
         21   -1    0    0  501  502  0.00000000000E+00 -0.00000000000E+00 -0.20914954698E+04  0.20914954698E+04  0.00000000000E+00 0. -1.
         25    1    1    2    0    0  0.38623299678E+02 -0.22251410123E+03 -0.14259216279E+04  0.14490968820E+04  0.12500000000E+03 0.  0.
         21    1    1    2  501  501 -0.12555885021E+02  0.12792487836E+03 -0.43414245820E+03  0.45277157460E+03  0.00000000000E+00 0.  1.
         -3    1    1    2    0  502 -0.26067414657E+02  0.94589222873E+02 -0.19909773044E+03  0.22196066646E+03  0.00000000000E+00 0.  1.
<mgrwt>
<rscale>  4 0.25812649E+03</rscale>
<asrwt>0</asrwt>
<pdfrwt beam="1">  1       21 0.32176859E+00 0.25812649E+03</pdfrwt>
<pdfrwt beam="2">  1       -3 0.49744073E-02 0.25812649E+03</pdfrwt>
<totfact> 0.27683817E+02</totfact>
</mgrwt>
</event>
<event>
 5    0  0.5993533E-001  0.3334025E+03  0.7546771E-02  0.1069641E+00
         -2   -1    0    0    0  501 -0.00000000000E+00  0.00000000000E+00  0.13774612755E+04  0.13774612755E+04  0.00000000000E+00 0. -1.
         21   -1    0    0  501  502  0.00000000000E+00 -0.00000000000E+00 -0.28081753540E+03  0.28081753540E+03  0.00000000000E+00 0. -1.
         25    1    1    2    0    0 -0.21341536848E+03 -0.22716536312E+03 -0.15020069527E+03  0.36787969578E+03  0.12500000000E+03 0.  0.
         21    1    1    2  501  501  0.21620480993E+03  0.18754184971E+03  0.99147499388E+03  0.10319588794E+04  0.00000000000E+00 0. -1.
         -2    1    1    2    0  502 -0.27894414469E+01  0.39623513419E+02  0.25536944148E+03  0.25844023572E+03  0.00000000000E+00 0. -1.
<mgrwt>
<rscale>  4 0.33340246E+03</rscale>
<asrwt>0</asrwt>
<pdfrwt beam="1">  1       21 0.43202699E-01 0.33340246E+03</pdfrwt>
<pdfrwt beam="2">  1       -2 0.21191712E+00 0.33340246E+03</pdfrwt>
<totfact> 0.48560158E+01</totfact>
</mgrwt>
</event>
<event>
 5    0  0.5993533E-001  0.2299571E+03  0.7546771E-02  0.1126670E+00
         21   -1    0    0  503  502  0.00000000000E+00  0.00000000000E+00  0.12615569895E+03  0.12615569895E+03  0.00000000000E+00 0. -1.
          3   -1    0    0  502    0 -0.00000000000E+00 -0.00000000000E+00 -0.79790219080E+03  0.79790219080E+03  0.00000000000E+00 0.  1.
         25    1    1    2    0    0  0.22380344805E+03 -0.13429044348E+02 -0.63650687429E+02  0.26447066491E+03  0.12500000000E+03 0.  0.
         21    1    1    2  503  501 -0.35323180160E+02  0.14313823302E+02 -0.22170919618E+02  0.44092655521E+02  0.00000000000E+00 0.  1.
          3    1    1    2  501    0 -0.18848026789E+03 -0.88477895361E+00 -0.58592488480E+03  0.61549456931E+03  0.00000000000E+00 0.  1.
<mgrwt>
<rscale>  4 0.22995709E+03</rscale>
<asrwt>0</asrwt>
<pdfrwt beam="1">  1       21 0.19408569E-01 0.22995709E+03</pdfrwt>
<pdfrwt beam="2">  1        3 0.12275418E+00 0.22995709E+03</pdfrwt>
<totfact> 0.67483707E+02</totfact>
</mgrwt>
</event>
<event>
 5    0  0.5993533E-001  0.2945588E+03  0.7546771E-02  0.1087993E+00
         21   -1    0    0  503  502  0.00000000000E+00  0.00000000000E+00  0.32368211415E+02  0.32368211415E+02  0.00000000000E+00 0. -1.
          1   -1    0    0  502    0 -0.00000000000E+00 -0.00000000000E+00 -0.26303017655E+04  0.26303017655E+04  0.00000000000E+00 0. -1.
         25    1    1    2    0    0  0.14241316093E+03 -0.22551806579E+03 -0.11216029948E+04  0.11596370917E+04  0.12500000000E+03 0.  0.
         21    1    1    2  503  501  0.11535592096E+02  0.35116838401E+02 -0.21555395571E+03  0.21870018300E+03  0.00000000000E+00 0. -1.
          1    1    1    2  501    0 -0.15394875303E+03  0.19040122739E+03 -0.12607766035E+04  0.12843327022E+04  0.00000000000E+00 0. -1.
<mgrwt>
<rscale>  4 0.29455883E+03</rscale>
<asrwt>0</asrwt>
<pdfrwt beam="1">  1       21 0.49797253E-02 0.29455883E+03</pdfrwt>
<pdfrwt beam="2">  1        1 0.40466178E+00 0.29455883E+03</pdfrwt>
<totfact> 0.38843577E+03</totfact>
</mgrwt>
</event>
<event>
 5    0  0.5993533E-001  0.2398299E+03  0.7546771E-02  0.1119906E+00
          2   -1    0    0  502    0 -0.00000000000E+00  0.00000000000E+00  0.43973736906E+03  0.43973736906E+03  0.00000000000E+00 0. -1.
         21   -1    0    0  503  502  0.00000000000E+00 -0.00000000000E+00 -0.31587650031E+03  0.31587650031E+03  0.00000000000E+00 0. -1.
         25    1    1    2    0    0 -0.16901604983E+03 -0.14233489947E+03 -0.20230097272E+03  0.32461720883E+03  0.12500000000E+03 0.  0.
         21    1    1    2  503  501  0.11295020816E+03  0.12088946623E+02  0.57753422975E+02  0.12743370833E+03  0.00000000000E+00 0. -1.
          2    1    1    2  501    0  0.56065841666E+02  0.13024595284E+03  0.26840841849E+03  0.30356295221E+03  0.00000000000E+00 0. -1.
<mgrwt>
<rscale>  4 0.23982987E+03</rscale>
<asrwt>0</asrwt>
<pdfrwt beam="1">  1       21 0.48596384E-01 0.23982987E+03</pdfrwt>
<pdfrwt beam="2">  1        2 0.67651903E-01 0.23982987E+03</pdfrwt>
<totfact> 0.35726288E+03</totfact>
</mgrwt>
</event>
<event>
 5    0  0.5993533E-001  0.2430058E+03  0.7546771E-02  0.1117806E+00
          2   -1    0    0  502    0 -0.00000000000E+00  0.00000000000E+00  0.59699003546E+03  0.59699003546E+03  0.00000000000E+00 0. -1.
         21   -1    0    0  503  502  0.00000000000E+00 -0.00000000000E+00 -0.19013705576E+03  0.19013705576E+03  0.00000000000E+00 0. -1.
         25    1    1    2    0    0  0.75471087303E+01  0.20825431988E+03 -0.77629734086E+02  0.25510428498E+03  0.12500000000E+03 0.  0.
         21    1    1    2  503  501  0.24075611416E+02 -0.33368414629E+02  0.72941199074E+02  0.83746669679E+02  0.00000000000E+00 0.  1.
          2    1    1    2  501    0 -0.31622720146E+02 -0.17488590525E+03  0.41154151470E+03  0.44827613656E+03  0.00000000000E+00 0. -1.
<mgrwt>
<rscale>  4 0.24300580E+03</rscale>
<asrwt>0</asrwt>
<pdfrwt beam="1">  1       21 0.29251855E-01 0.24300580E+03</pdfrwt>
<pdfrwt beam="2">  1        2 0.91844620E-01 0.24300580E+03</pdfrwt>
<totfact> 0.70402354E+03</totfact>
</mgrwt>
</event>
<event>
 5    0  0.5993533E-001  0.2782853E+03  0.7546771E-02  0.1096629E+00
          2   -1    0    0  502    0 -0.00000000000E+00  0.00000000000E+00  0.12442563325E+04  0.12442563325E+04  0.00000000000E+00 0. -1.
         21   -1    0    0  503  502  0.00000000000E+00 -0.00000000000E+00 -0.82091025659E+02  0.82091025659E+02  0.00000000000E+00 0. -1.
         25    1    1    2    0    0  0.17867646714E+03  0.17841296685E+03  0.27017563537E+03  0.39035412204E+03  0.12500000000E+03 0.  0.
         21    1    1    2  503  501 -0.37713316561E+02  0.18052348036E+02  0.13116241226E+03  0.13766539109E+03  0.00000000000E+00 0. -1.
          2    1    1    2  501    0 -0.14096315058E+03 -0.19646531489E+03  0.76082725919E+03  0.79832784500E+03  0.00000000000E+00 0. -1.
<mgrwt>
<rscale>  4 0.27828526E+03</rscale>
<asrwt>0</asrwt>
<pdfrwt beam="1">  1       21 0.12629389E-01 0.27828526E+03</pdfrwt>
<pdfrwt beam="2">  1        2 0.19142404E+00 0.27828526E+03</pdfrwt>
<totfact> 0.12620058E+04</totfact>
</mgrwt>
</event>
<event>
 5    0  0.5993533E-001  0.3714255E+03  0.7546771E-02  0.1054149E+00
          1   -1    0    0  502    0 -0.00000000000E+00  0.00000000000E+00  0.12245578214E+04  0.12245578214E+04  0.00000000000E+00 0.  1.
         21   -1    0    0  503  502  0.00000000000E+00 -0.00000000000E+00 -0.18252860170E+03  0.18252860170E+03  0.00000000000E+00 0. -1.
         25    1    1    2    0    0  0.15352549354E+03 -0.31073176973E+03  0.89496972025E+02  0.37915566445E+03  0.12500000000E+03 0.  0.
         21    1    1    2  503  501  0.22524593549E+02 -0.64603585815E+01  0.49999763649E+02  0.55218383827E+02  0.00000000000E+00 0.  1.
          1    1    1    2  501    0 -0.17605008709E+03  0.31719212831E+03  0.90253248403E+03  0.97271237483E+03  0.00000000000E+00 0.  1.
<mgrwt>
<rscale>  4 0.37142548E+03</rscale>
<asrwt>0</asrwt>
<pdfrwt beam="1">  1       21 0.28081324E-01 0.37142548E+03</pdfrwt>
<pdfrwt beam="2">  1        1 0.18839351E+00 0.37142548E+03</pdfrwt>
<totfact> 0.14030081E+03</totfact>
</mgrwt>
</event>
<event>
 5    0  0.5993533E-001  0.2854030E+03  0.7546771E-02  0.1092774E+00
         -1   -1    0    0    0  501 -0.00000000000E+00  0.00000000000E+00  0.60380345578E+03  0.60380345578E+03  0.00000000000E+00 0.  1.
         21   -1    0    0  501  502  0.00000000000E+00 -0.00000000000E+00 -0.22961972028E+03  0.22961972028E+03  0.00000000000E+00 0.  1.
         25    1    1    2    0    0  0.26887931058E+03 -0.13404771485E+03 -0.30953423444E+01  0.32542196401E+03  0.12500000000E+03 0.  0.
         21    1    1    2  501  501 -0.50429165276E+02  0.19113218256E+02 -0.36882693618E+01  0.54055704171E+02  0.00000000000E+00 0.  1.
         -1    1    1    2    0  502 -0.21845014530E+03  0.11493449660E+03  0.38096734721E+03  0.45394550788E+03  0.00000000000E+00 0.  1.
<mgrwt>
<rscale>  4 0.28540296E+03</rscale>
<asrwt>0</asrwt>
<pdfrwt beam="1">  1       21 0.35326111E-01 0.28540296E+03</pdfrwt>
<pdfrwt beam="2">  1       -1 0.92892839E-01 0.28540296E+03</pdfrwt>
<totfact> 0.83059514E+02</totfact>
</mgrwt>
</event>
<event>
 5    0  0.5993533E-001  0.2767887E+03  0.7546771E-02  0.1097456E+00
          2   -1    0    0  502    0 -0.00000000000E+00  0.00000000000E+00  0.38220283057E+03  0.38220283057E+03  0.00000000000E+00 0.  1.
         21   -1    0    0  503  502  0.00000000000E+00 -0.00000000000E+00 -0.35749386545E+03  0.35749386545E+03  0.00000000000E+00 0.  1.
         25    1    1    2    0    0  0.23940090750E+03  0.12387054778E+03 -0.18215898577E+03  0.34851628831E+03  0.12500000000E+03 0.  0.
         21    1    1    2  503  501 -0.28324890948E+02 -0.40301736374E+01 -0.37223883742E+02  0.46948474604E+02  0.00000000000E+00 0. -1.
          2    1    1    2  501    0 -0.21107601655E+03 -0.11984037415E+03  0.24409183463E+03  0.34423193311E+03  0.00000000000E+00 0.  1.
<mgrwt>
<rscale>  4 0.27678868E+03</rscale>
<asrwt>0</asrwt>
<pdfrwt beam="1">  1       21 0.54999056E-01 0.27678868E+03</pdfrwt>
<pdfrwt beam="2">  1        2 0.58800436E-01 0.27678868E+03</pdfrwt>
<totfact> 0.31735735E+03</totfact>
</mgrwt>
</event>
<event>
 5    0  0.5993533E-001  0.2636086E+03  0.7546771E-02  0.1104994E+00
         21   -1    0    0  503  502  0.00000000000E+00  0.00000000000E+00  0.35204220359E+03  0.35204220359E+03  0.00000000000E+00 0. -1.
          4   -1    0    0  502    0 -0.00000000000E+00 -0.00000000000E+00 -0.90315346969E+03  0.90315346969E+03  0.00000000000E+00 0. -1.
         25    1    1    2    0    0 -0.21820794793E+03  0.92937522320E+02  0.27168106077E+03  0.38169056889E+03  0.12500000000E+03 0.  0.
         21    1    1    2  503  501  0.72138482886E+02 -0.23584873528E+02 -0.69026667322E+02  0.10259087569E+03  0.00000000000E+00 0. -1.
          4    1    1    2  501    0  0.14606946505E+03 -0.69352648792E+02 -0.75376565955E+03  0.77091422871E+03  0.00000000000E+00 0. -1.
<mgrwt>
<rscale>  4 0.26360860E+03</rscale>
<asrwt>0</asrwt>
<pdfrwt beam="1">  1       21 0.54160339E-01 0.26360860E+03</pdfrwt>
<pdfrwt beam="2">  1        4 0.13894669E+00 0.26360860E+03</pdfrwt>
<totfact> 0.51202653E+01</totfact>
</mgrwt>
</event>
<event>
 5    0  0.5993533E-001  0.3493332E+03  0.7546771E-02  0.1062889E+00
          1   -1    0    0  502    0 -0.00000000000E+00  0.00000000000E+00  0.37347801874E+03  0.37347801874E+03  0.00000000000E+00 0.  1.
         21   -1    0    0  503  502  0.00000000000E+00 -0.00000000000E+00 -0.21239229369E+04  0.21239229369E+04  0.00000000000E+00 0. -1.
         25    1    1    2    0    0  0.63690140143E+02 -0.32580333064E+03 -0.20070298522E+04  0.20381359306E+04  0.12500000000E+03 0.  0.
         21    1    1    2  503  501  0.21447435280E+02  0.12139758059E+03  0.39696039999E+01  0.12334148859E+03  0.00000000000E+00 0. -1.
          1    1    1    2  501    0 -0.85137575422E+02  0.20440575005E+03  0.25261532999E+03  0.33592353646E+03  0.00000000000E+00 0.  1.
<mgrwt>
<rscale>  4 0.34933323E+03</rscale>
<asrwt>0</asrwt>
<pdfrwt beam="1">  1       21 0.32675737E+00 0.34933323E+03</pdfrwt>
<pdfrwt beam="2">  1        1 0.57458157E-01 0.34933323E+03</pdfrwt>
<totfact> 0.14764373E+01</totfact>
</mgrwt>
</event>
<event>
 5    0  0.5993533E-001  0.2545763E+03  0.7546771E-02  0.1110446E+00
         21   -1    0    0  503  502  0.00000000000E+00  0.00000000000E+00  0.27006108497E+03  0.27006108497E+03  0.00000000000E+00 0.  1.
          1   -1    0    0  502    0 -0.00000000000E+00 -0.00000000000E+00 -0.23321368582E+03  0.23321368582E+03  0.00000000000E+00 0.  1.
         25    1    1    2    0    0 -0.13639830005E+03 -0.17487028276E+03 -0.35118285241E+02  0.25698717090E+03  0.12500000000E+03 0.  0.
         21    1    1    2  503  501  0.89598501971E+02  0.16440242457E+03  0.62639938506E+02  0.19743305361E+03  0.00000000000E+00 0.  1.
          1    1    1    2  501    0  0.46799798081E+02  0.10467858191E+02  0.93257458825E+01  0.48854546275E+02  0.00000000000E+00 0.  1.
<mgrwt>
<rscale>  4 0.25457634E+03</rscale>
<asrwt>0</asrwt>
<pdfrwt beam="1">  1       21 0.41547859E-01 0.25457634E+03</pdfrwt>
<pdfrwt beam="2">  1        1 0.35879028E-01 0.25457634E+03</pdfrwt>
<totfact> 0.72181832E+03</totfact>
</mgrwt>
</event>
<event>
 5    0  0.5993533E-001  0.4586708E+03  0.7546771E-02  0.1025167E+00
          2   -1    0    0  502    0 -0.00000000000E+00  0.00000000000E+00  0.14722015235E+04  0.14722015235E+04  0.00000000000E+00 0. -1.
         21   -1    0    0  503  502  0.00000000000E+00 -0.00000000000E+00 -0.14083842564E+03  0.14083842564E+03  0.00000000000E+00 0.  1.
         25    1    1    2    0    0  0.44071822118E+03 -0.22832411893E+02  0.74520036881E+03  0.87504426127E+03  0.12500000000E+03 0.  0.
         21    1    1    2  503  501 -0.85208024522E+02  0.10627577322E+01  0.67001894474E+02  0.10840106439E+03  0.00000000000E+00 0. -1.
          2    1    1    2  501    0 -0.35551019665E+03  0.21769654161E+02  0.51916083457E+03  0.62959462349E+03  0.00000000000E+00 0. -1.
<mgrwt>
<rscale>  4 0.45867076E+03</rscale>
<asrwt>0</asrwt>
<pdfrwt beam="1">  1       21 0.21667451E-01 0.45867076E+03</pdfrwt>
<pdfrwt beam="2">  1        2 0.22649253E+00 0.45867076E+03</pdfrwt>
<totfact> 0.33132490E+03</totfact>
</mgrwt>
</event>
<event>
 5    0  0.5993533E-001  0.2617059E+03  0.7546771E-02  0.1106123E+00
         21   -1    0    0  503  502  0.00000000000E+00  0.00000000000E+00  0.11763641252E+03  0.11763641252E+03  0.00000000000E+00 0.  1.
          1   -1    0    0  502    0 -0.00000000000E+00 -0.00000000000E+00 -0.25964561512E+04  0.25964561512E+04  0.00000000000E+00 0. -1.
         25    1    1    2    0    0 -0.79177646713E+02 -0.21586079587E+03 -0.42411913580E+02  0.26512026205E+03  0.12500000000E+03 0.  0.
         21    1    1    2  503  501  0.12356103435E+02  0.67216992846E+02 -0.37844301744E+03  0.38456457829E+03  0.00000000000E+00 0. -1.
          1    1    1    2  501    0  0.66821543279E+02  0.14864380303E+03 -0.20579648076E+04  0.20644077233E+04  0.00000000000E+00 0. -1.
<mgrwt>
<rscale>  4 0.26170591E+03</rscale>
<asrwt>0</asrwt>
<pdfrwt beam="1">  1       21 0.18097912E-01 0.26170591E+03</pdfrwt>
<pdfrwt beam="2">  1        1 0.39945474E+00 0.26170591E+03</pdfrwt>
<totfact> 0.41862358E+02</totfact>
</mgrwt>
</event>
<event>
 5    0  0.5993533E-001  0.3530992E+03  0.7546771E-02  0.1061350E+00
         -1   -1    0    0    0  501 -0.00000000000E+00  0.00000000000E+00  0.33797031248E+03  0.33797031248E+03  0.00000000000E+00 0. -1.
         21   -1    0    0  501  502  0.00000000000E+00 -0.00000000000E+00 -0.39181308643E+03  0.39181308643E+03  0.00000000000E+00 0.  1.
         25    1    1    2    0    0 -0.69992718820E+02 -0.32273063504E+03 -0.13060556512E+03  0.37647955737E+03  0.12500000000E+03 0.  0.
         21    1    1    2  501  501  0.78499773870E+02  0.18086645054E+03  0.13171913531E+02  0.19760664648E+03  0.00000000000E+00 0. -1.
         -1    1    1    2    0  502 -0.85070550505E+01  0.14186418450E+03  0.63590877639E+02  0.15569719505E+03  0.00000000000E+00 0. -1.
<mgrwt>
<rscale>  4 0.35309920E+03</rscale>
<asrwt>0</asrwt>
<pdfrwt beam="1">  1       21 0.60278936E-01 0.35309920E+03</pdfrwt>
<pdfrwt beam="2">  1       -1 0.51995433E-01 0.35309920E+03</pdfrwt>
<totfact> 0.86054179E+02</totfact>
</mgrwt>
</event>
<event>
 5    0  0.5993533E-001  0.2567404E+03  0.7546771E-02  0.1109118E+00
         21   -1    0    0  503  502  0.00000000000E+00  0.00000000000E+00  0.13031591972E+03  0.13031591972E+03  0.00000000000E+00 0.  1.
          2   -1    0    0  502    0 -0.00000000000E+00 -0.00000000000E+00 -0.17826786570E+04  0.17826786570E+04  0.00000000000E+00 0.  1.
         25    1    1    2    0    0  0.19998011139E+03 -0.10148206294E+03 -0.13087654176E+02  0.25707380408E+03  0.12500000000E+03 0.  0.
         21    1    1    2  503  501 -0.91753492440E+02  0.52879281588E+02 -0.54187175557E+03  0.55212310338E+03  0.00000000000E+00 0.  1.
          2    1    1    2  501    0 -0.10822661895E+03  0.48602781353E+02 -0.10974033275E+04  0.11037976693E+04  0.00000000000E+00 0.  1.
<mgrwt>
<rscale>  4 0.25674044E+03</rscale>
<asrwt>0</asrwt>
<pdfrwt beam="1">  1       21 0.20048604E-01 0.25674044E+03</pdfrwt>
<pdfrwt beam="2">  1        2 0.27425825E+00 0.25674044E+03</pdfrwt>
<totfact> 0.27809104E+03</totfact>
</mgrwt>
</event>
<event>
 5    0  0.5993533E-001  0.4188457E+03  0.7546771E-02  0.1037443E+00
         21   -1    0    0  501  502  0.00000000000E+00  0.00000000000E+00  0.19931071738E+03  0.19931071738E+03  0.00000000000E+00 0. -1.
         -2   -1    0    0    0  501 -0.00000000000E+00 -0.00000000000E+00 -0.11521856406E+04  0.11521856406E+04  0.00000000000E+00 0.  1.
         25    1    1    2    0    0 -0.59342915264E+02 -0.39532915868E+03 -0.13709047772E+03  0.44071024991E+03  0.12500000000E+03 0.  0.
         21    1    1    2  501  501 -0.66420636958E+01  0.19000071456E+02 -0.21884970897E+02  0.29733342843E+02  0.00000000000E+00 0. -1.
         -2    1    1    2    0  502  0.65984978960E+02  0.37632908722E+03 -0.79389947456E+03  0.88105276519E+03  0.00000000000E+00 0.  1.
<mgrwt>
<rscale>  4 0.41884571E+03</rscale>
<asrwt>0</asrwt>
<pdfrwt beam="1">  1       21 0.30663187E-01 0.41884571E+03</pdfrwt>
<pdfrwt beam="2">  1       -2 0.17725933E+00 0.41884571E+03</pdfrwt>
<totfact> 0.15918290E+02</totfact>
</mgrwt>
</event>
<event>
 5    0  0.5993533E-001  0.2934915E+03  0.7546771E-02  0.1088540E+00
         21   -1    0    0  503  502  0.00000000000E+00  0.00000000000E+00  0.96136458703E+02  0.96136458703E+02  0.00000000000E+00 0.  1.
          1   -1    0    0  502    0 -0.00000000000E+00 -0.00000000000E+00 -0.12284102953E+04  0.12284102953E+04  0.00000000000E+00 0.  1.
         25    1    1    2    0    0  0.27996281760E+02 -0.26406143724E+03 -0.20384095796E+03  0.35733509563E+03  0.12500000000E+03 0.  0.
         21    1    1    2  503  501 -0.38387316460E+02  0.18500342237E+03 -0.59017567774E+03  0.61968313108E+03  0.00000000000E+00 0.  1.
          1    1    1    2  501    0  0.10391034701E+02  0.79058014867E+02 -0.33825720091E+03  0.34752852730E+03  0.00000000000E+00 0.  1.
<mgrwt>
<rscale>  4 0.29349146E+03</rscale>
<asrwt>0</asrwt>
<pdfrwt beam="1">  1       21 0.14790225E-01 0.29349146E+03</pdfrwt>
<pdfrwt beam="2">  1        1 0.18898619E+00 0.29349146E+03</pdfrwt>
<totfact> 0.48073457E+03</totfact>
</mgrwt>
</event>
<event>
 5    0  0.5993533E-001  0.3060508E+03  0.7546771E-02  0.1082254E+00
          2   -1    0    0  502    0 -0.00000000000E+00  0.00000000000E+00  0.15743845672E+04  0.15743845672E+04  0.00000000000E+00 0. -1.
         21   -1    0    0  503  502  0.00000000000E+00 -0.00000000000E+00 -0.13340445114E+03  0.13340445114E+03  0.00000000000E+00 0. -1.
         25    1    1    2    0    0  0.28466503366E+03  0.21744363250E+01  0.90801624866E+02  0.32389634861E+03  0.12500000000E+03 0.  0.
         21    1    1    2  503  501 -0.38473602685E+02 -0.28567493218E+01  0.67028610669E+02  0.77338307251E+02  0.00000000000E+00 0. -1.
          2    1    1    2  501    0 -0.24619143098E+03  0.68231299683E+00  0.12831498805E+04  0.13065543625E+04  0.00000000000E+00 0. -1.
<mgrwt>
<rscale>  4 0.30605084E+03</rscale>
<asrwt>0</asrwt>
<pdfrwt beam="1">  1       21 0.20523763E-01 0.30605084E+03</pdfrwt>
<pdfrwt beam="2">  1        2 0.24221300E+00 0.30605084E+03</pdfrwt>
<totfact> 0.33662919E+03</totfact>
</mgrwt>
</event>
<event>
 5    0  0.5993533E-001  0.2747047E+03  0.7546771E-02  0.1098617E+00
          2   -1    0    0  502    0 -0.00000000000E+00  0.00000000000E+00  0.21856309266E+04  0.21856309266E+04  0.00000000000E+00 0.  1.
         21   -1    0    0  503  502  0.00000000000E+00 -0.00000000000E+00 -0.13333136002E+03  0.13333136002E+03  0.00000000000E+00 0.  1.
         25    1    1    2    0    0 -0.24076216108E+03  0.43257765568E+02  0.24140570400E+02  0.27576333989E+03  0.12500000000E+03 0.  0.
         21    1    1    2  503  501  0.23125067562E+02 -0.29449306798E+01  0.11981020284E+03  0.12205706071E+03  0.00000000000E+00 0.  1.
          2    1    1    2  501    0  0.21763709352E+03 -0.40312834888E+02  0.19083487934E+04  0.19211418861E+04  0.00000000000E+00 0.  1.
<mgrwt>
<rscale>  4 0.27470466E+03</rscale>
<asrwt>0</asrwt>
<pdfrwt beam="1">  1       21 0.20512518E-01 0.27470466E+03</pdfrwt>
<pdfrwt beam="2">  1        2 0.33625089E+00 0.27470466E+03</pdfrwt>
<totfact> 0.16207058E+03</totfact>
</mgrwt>
</event>
<event>
 5    0  0.5993533E-001  0.2922661E+03  0.7546771E-02  0.1089172E+00
         -1   -1    0    0    0  501 -0.00000000000E+00  0.00000000000E+00  0.10281435229E+03  0.10281435229E+03  0.00000000000E+00 0.  1.
         21   -1    0    0  501  502  0.00000000000E+00 -0.00000000000E+00 -0.95989729149E+03  0.95989729149E+03  0.00000000000E+00 0.  1.
         25    1    1    2    0    0  0.22318108908E+03  0.14136707695E+03 -0.67875165902E+03  0.73900153152E+03  0.12500000000E+03 0.  0.
         21    1    1    2  501  501 -0.62769903176E+02 -0.12044503957E+02 -0.37048988258E+02  0.73876642799E+02  0.00000000000E+00 0. -1.
         -1    1    1    2    0  502 -0.16041118591E+03 -0.12932257299E+03 -0.14128229193E+03  0.24983346946E+03  0.00000000000E+00 0.  1.
<mgrwt>
<rscale>  4 0.29226606E+03</rscale>
<asrwt>0</asrwt>
<pdfrwt beam="1">  1       21 0.14767651E+00 0.29226606E+03</pdfrwt>
<pdfrwt beam="2">  1       -1 0.15817592E-01 0.29226606E+03</pdfrwt>
<totfact> 0.79411357E+02</totfact>
</mgrwt>
</event>
<event>
 5    0  0.5993533E-001  0.2905596E+03  0.7546771E-02  0.1090057E+00
         21   -1    0    0  503  502  0.00000000000E+00  0.00000000000E+00  0.87937809843E+02  0.87937809843E+02  0.00000000000E+00 0.  1.
          2   -1    0    0  502    0 -0.00000000000E+00 -0.00000000000E+00 -0.13051221495E+04  0.13051221495E+04  0.00000000000E+00 0.  1.
         25    1    1    2    0    0  0.25869790543E+03 -0.12300205386E+03 -0.81775716974E+03  0.87544611496E+03  0.12500000000E+03 0.  0.
         21    1    1    2  503  501 -0.11558442517E+02  0.60431425780E+02 -0.14464896143E+03  0.15719057496E+03  0.00000000000E+00 0.  1.
          2    1    1    2  501    0 -0.24713946291E+03  0.62570628079E+02 -0.25477820850E+03  0.36042326943E+03  0.00000000000E+00 0.  1.
<mgrwt>
<rscale>  4 0.29055958E+03</rscale>
<asrwt>0</asrwt>
<pdfrwt beam="1">  1       21 0.13528894E-01 0.29055958E+03</pdfrwt>
<pdfrwt beam="2">  1        2 0.20078802E+00 0.29055958E+03</pdfrwt>
<totfact> 0.10266790E+04</totfact>
</mgrwt>
</event>
<event>
 5    0  0.5993533E-001  0.1928540E+03  0.7546771E-02  0.1155912E+00
         -1   -1    0    0    0  501 -0.00000000000E+00  0.00000000000E+00  0.19377479176E+04  0.19377479176E+04  0.00000000000E+00 0. -1.
         21   -1    0    0  501  502  0.00000000000E+00 -0.00000000000E+00 -0.49183654327E+02  0.49183654327E+02  0.00000000000E+00 0. -1.
         25    1    1    2    0    0  0.78901662764E+02  0.20237500937E+03  0.97722553230E+03  0.10088487784E+04  0.12500000000E+03 0.  0.
         21    1    1    2  501  501  0.23269387819E+02 -0.13713430273E+03  0.14026717663E+03  0.19754028003E+03  0.00000000000E+00 0. -1.
         -1    1    1    2    0  502 -0.10217105058E+03 -0.65240706641E+02  0.77107155434E+03  0.78054251345E+03  0.00000000000E+00 0. -1.
<mgrwt>
<rscale>  4 0.19285400E+03</rscale>
<asrwt>0</asrwt>
<pdfrwt beam="1">  1       21 0.75667176E-02 0.19285400E+03</pdfrwt>
<pdfrwt beam="2">  1       -1 0.29811500E+00 0.19285400E+03</pdfrwt>
<totfact> 0.50577384E+02</totfact>
</mgrwt>
</event>
<event>
 5    0  0.5993533E-001  0.3871412E+03  0.7546771E-02  0.1048325E+00
         21   -1    0    0  501  502  0.00000000000E+00  0.00000000000E+00  0.16090030693E+03  0.16090030693E+03  0.00000000000E+00 0. -1.
         -1   -1    0    0    0  501 -0.00000000000E+00 -0.00000000000E+00 -0.93888874898E+03  0.93888874898E+03  0.00000000000E+00 0. -1.
         25    1    1    2    0    0 -0.77069099049E+02  0.35820892804E+03 -0.31491365086E+03  0.49904798332E+03  0.12500000000E+03 0.  0.
         21    1    1    2  501  501  0.50183542924E+02 -0.30865010335E+03 -0.32216269089E+03  0.44896778691E+03  0.00000000000E+00 0. -1.
         -1    1    1    2    0  502  0.26885556125E+02 -0.49558824692E+02 -0.14091210030E+03  0.15177328567E+03  0.00000000000E+00 0. -1.
<mgrwt>
<rscale>  4 0.38714117E+03</rscale>
<asrwt>0</asrwt>
<pdfrwt beam="1">  1       21 0.24753893E-01 0.38714117E+03</pdfrwt>
<pdfrwt beam="2">  1       -1 0.14444442E+00 0.38714117E+03</pdfrwt>
<totfact> 0.57132660E+02</totfact>
</mgrwt>
</event>
<event>
 5    0  0.5993533E-001  0.2840467E+03  0.7546771E-02  0.1093499E+00
         21   -1    0    0  503  502  0.00000000000E+00  0.00000000000E+00  0.48645240146E+03  0.48645240146E+03  0.00000000000E+00 0.  1.
          1   -1    0    0  502    0 -0.00000000000E+00 -0.00000000000E+00 -0.13516928207E+04  0.13516928207E+04  0.00000000000E+00 0. -1.
         25    1    1    2    0    0 -0.14900181070E+03  0.20862273533E+03  0.42479034594E+03  0.51166084792E+03  0.12500000000E+03 0.  0.
         21    1    1    2  503  501  0.68715623107E+02  0.54411097335E+01 -0.17162861624E+03  0.18495357376E+03  0.00000000000E+00 0.  1.
          1    1    1    2  501    0  0.80286187591E+02 -0.21406384507E+03 -0.11184021490E+04  0.11415308005E+04  0.00000000000E+00 0. -1.
<mgrwt>
<rscale>  4 0.28404670E+03</rscale>
<asrwt>0</asrwt>
<pdfrwt beam="1">  1       21 0.74838831E-01 0.28404670E+03</pdfrwt>
<pdfrwt beam="2">  1        1 0.20795274E+00 0.28404670E+03</pdfrwt>
<totfact> 0.15269091E+02</totfact>
</mgrwt>
</event>
<event>
 5    0  0.5993533E-001  0.2680340E+03  0.7546771E-02  0.1102410E+00
          1   -1    0    0  502    0 -0.00000000000E+00  0.00000000000E+00  0.13558617047E+04  0.13558617047E+04  0.00000000000E+00 0. -1.
         21   -1    0    0  503  502  0.00000000000E+00 -0.00000000000E+00 -0.15727293819E+03  0.15727293819E+03  0.00000000000E+00 0.  1.
         25    1    1    2    0    0 -0.12480898830E+03  0.20159344662E+03 -0.20800310134E+02  0.26883982998E+03  0.12500000000E+03 0.  0.
         21    1    1    2  503  501 -0.29431262936E+01 -0.30979216555E+02  0.97750047298E+02  0.10258384667E+03  0.00000000000E+00 0. -1.
          1    1    1    2  501    0  0.12775211460E+03 -0.17061423006E+03  0.11216390294E+04  0.11417109663E+04  0.00000000000E+00 0. -1.
<mgrwt>
<rscale>  4 0.26803396E+03</rscale>
<asrwt>0</asrwt>
<pdfrwt beam="1">  1       21 0.24195837E-01 0.26803396E+03</pdfrwt>
<pdfrwt beam="2">  1        1 0.20859410E+00 0.26803396E+03</pdfrwt>
<totfact> 0.15748527E+03</totfact>
</mgrwt>
</event>
<event>
 5    0  0.5993533E-001  0.2839749E+03  0.7546771E-02  0.1093538E+00
          1   -1    0    0  502    0 -0.00000000000E+00  0.00000000000E+00  0.12759354606E+04  0.12759354606E+04  0.00000000000E+00 0. -1.
         21   -1    0    0  503  502  0.00000000000E+00 -0.00000000000E+00 -0.59379822688E+02  0.59379822688E+02  0.00000000000E+00 0. -1.
         25    1    1    2    0    0 -0.13816373096E+03  0.21430707737E+03  0.53653246695E+03  0.60704927975E+03  0.12500000000E+03 0.  0.
         21    1    1    2  503  501  0.43791112070E+02 -0.33526294189E+02  0.17987309551E+03  0.18813825870E+03  0.00000000000E+00 0. -1.
          1    1    1    2  501    0  0.94372618888E+02 -0.18078078318E+03  0.50015007546E+03  0.54012774484E+03  0.00000000000E+00 0. -1.
<mgrwt>
<rscale>  4 0.28397489E+03</rscale>
<asrwt>0</asrwt>
<pdfrwt beam="1">  1       21 0.91353582E-02 0.28397489E+03</pdfrwt>
<pdfrwt beam="2">  1        1 0.19629774E+00 0.28397489E+03</pdfrwt>
<totfact> 0.10644245E+04</totfact>
</mgrwt>
</event>
<event>
 5    0  0.5993533E-001  0.2215512E+03  0.7546771E-02  0.1132732E+00
         21   -1    0    0  503  502  0.00000000000E+00  0.00000000000E+00  0.35513456489E+03  0.35513456489E+03  0.00000000000E+00 0.  1.
          3   -1    0    0  502    0 -0.00000000000E+00 -0.00000000000E+00 -0.26693624423E+03  0.26693624423E+03  0.00000000000E+00 0.  1.
         25    1    1    2    0    0 -0.20534414990E+03 -0.38215754655E+02  0.22954426075E+03  0.33457769119E+03  0.12500000000E+03 0.  0.
         21    1    1    2  503  501  0.13818882585E+03  0.40015385256E+02 -0.15319155086E+02  0.14467915938E+03  0.00000000000E+00 0.  1.
          3    1    1    2  501    0  0.67155324048E+02 -0.17996306009E+01 -0.12602678500E+03  0.14281395855E+03  0.00000000000E+00 0.  1.
<mgrwt>
<rscale>  4 0.22155119E+03</rscale>
<asrwt>0</asrwt>
<pdfrwt beam="1">  1       21 0.54636087E-01 0.22155119E+03</pdfrwt>
<pdfrwt beam="2">  1        3 0.41067114E-01 0.22155119E+03</pdfrwt>
<totfact> 0.91770353E+02</totfact>
</mgrwt>
</event>
<event>
 5    0  0.5993533E-001  0.2793690E+03  0.7546771E-02  0.1096034E+00
          2   -1    0    0  502    0 -0.00000000000E+00  0.00000000000E+00  0.81107423913E+03  0.81107423913E+03  0.00000000000E+00 0.  1.
         21   -1    0    0  503  502  0.00000000000E+00 -0.00000000000E+00 -0.12722562772E+03  0.12722562772E+03  0.00000000000E+00 0.  1.
         25    1    1    2    0    0  0.45016179399E+02 -0.25709710131E+03  0.56558618593E+03  0.63532519990E+03  0.12500000000E+03 0.  0.
         21    1    1    2  503  501 -0.19329014347E+02  0.29522728426E+02 -0.14619984539E+02  0.38196154744E+02  0.00000000000E+00 0.  1.
          2    1    1    2  501    0 -0.25687165052E+02  0.22757437288E+03  0.13288241001E+03  0.26477851222E+03  0.00000000000E+00 0.  1.
<mgrwt>
<rscale>  4 0.27936899E+03</rscale>
<asrwt>0</asrwt>
<pdfrwt beam="1">  1       21 0.19573174E-01 0.27936899E+03</pdfrwt>
<pdfrwt beam="2">  1        2 0.12478065E+00 0.27936899E+03</pdfrwt>
<totfact> 0.10374896E+04</totfact>
</mgrwt>
</event>
<event>
 5    0  0.5993533E-001  0.2719212E+03  0.7546771E-02  0.1100185E+00
         21   -1    0    0  503  502  0.00000000000E+00  0.00000000000E+00  0.15512332631E+03  0.15512332631E+03  0.00000000000E+00 0.  1.
          2   -1    0    0  502    0 -0.00000000000E+00 -0.00000000000E+00 -0.14039462889E+04  0.14039462889E+04  0.00000000000E+00 0.  1.
         25    1    1    2    0    0 -0.10821371759E+03 -0.21588405175E+03  0.11800289922E+02  0.27217711020E+03  0.12500000000E+03 0.  0.
         21    1    1    2  503  501  0.37156781679E+02  0.38302011798E+02 -0.13554203702E+03  0.14566850838E+03  0.00000000000E+00 0.  1.
          2    1    1    2  501    0  0.71056935909E+02  0.17758203995E+03 -0.11250812155E+04  0.11412239966E+04  0.00000000000E+00 0.  1.
<mgrwt>
<rscale>  4 0.27192119E+03</rscale>
<asrwt>0</asrwt>
<pdfrwt beam="1">  1       21 0.23865127E-01 0.27192119E+03</pdfrwt>
<pdfrwt beam="2">  1        2 0.21599174E+00 0.27192119E+03</pdfrwt>
<totfact> 0.31577313E+03</totfact>
</mgrwt>
</event>
<event>
 5    0  0.5993533E-001  0.2319655E+03  0.7546771E-02  0.1125264E+00
         21   -1    0    0  503  502  0.00000000000E+00  0.00000000000E+00  0.34016797166E+03  0.34016797166E+03  0.00000000000E+00 0. -1.
          4   -1    0    0  502    0 -0.00000000000E+00 -0.00000000000E+00 -0.16676528426E+03  0.16676528426E+03  0.00000000000E+00 0. -1.
         25    1    1    2    0    0  0.10708768581E+03  0.17729724570E+03  0.15334397831E+03  0.28642880698E+03  0.12500000000E+03 0.  0.
         21    1    1    2  503  501  0.72170254105E+01 -0.24900422751E+02  0.14968562899E+02  0.29936171836E+02  0.00000000000E+00 0.  1.
          4    1    1    2  501    0 -0.11430471122E+03 -0.15239682295E+03  0.50901461943E+01  0.19056827711E+03  0.00000000000E+00 0. -1.
<mgrwt>
<rscale>  4 0.23196546E+03</rscale>
<asrwt>0</asrwt>
<pdfrwt beam="1">  1       21 0.52333534E-01 0.23196546E+03</pdfrwt>
<pdfrwt beam="2">  1        4 0.25656198E-01 0.23196546E+03</pdfrwt>
<totfact> 0.20837002E+03</totfact>
</mgrwt>
</event>
<event>
 5    0  0.5993533E-001  0.3088834E+03  0.7546771E-02  0.1080882E+00
          1   -1    0    0  502    0 -0.00000000000E+00  0.00000000000E+00  0.13657500453E+04  0.13657500453E+04  0.00000000000E+00 0. -1.
         21   -1    0    0  503  502  0.00000000000E+00 -0.00000000000E+00 -0.28323843696E+03  0.28323843696E+03  0.00000000000E+00 0. -1.
         25    1    1    2    0    0 -0.67217152004E+02 -0.27288923896E+03 -0.16634736159E+03  0.34969004414E+03  0.12500000000E+03 0.  0.
         21    1    1    2  503  501  0.31695858675E+02 -0.23770266921E+02  0.34658853013E+03  0.34884561379E+03  0.00000000000E+00 0. -1.
          1    1    1    2  501    0  0.35521293329E+02  0.29665950588E+03  0.90227043976E+03  0.95045282428E+03  0.00000000000E+00 0. -1.
<mgrwt>
<rscale>  4 0.30888336E+03</rscale>
<asrwt>0</asrwt>
<pdfrwt beam="1">  1       21 0.43575145E-01 0.30888336E+03</pdfrwt>
<pdfrwt beam="2">  1        1 0.21011539E+00 0.30888336E+03</pdfrwt>
<totfact> 0.47323951E+02</totfact>
</mgrwt>
</event>
<event>
 5    0  0.5993533E-001  0.2525858E+03  0.7546771E-02  0.1111681E+00
         -1   -1    0    0    0  501 -0.00000000000E+00  0.00000000000E+00  0.48403881027E+03  0.48403881027E+03  0.00000000000E+00 0. -1.
         21   -1    0    0  501  502  0.00000000000E+00 -0.00000000000E+00 -0.11782271669E+03  0.11782271669E+03  0.00000000000E+00 0. -1.
         25    1    1    2    0    0 -0.10750577779E+03 -0.19135589437E+03  0.18503665106E+03  0.31311041632E+03  0.12500000000E+03 0.  0.
         21    1    1    2  501  501  0.18539621139E+02  0.28522452094E+02  0.80172723172E+01  0.34950314460E+02  0.00000000000E+00 0. -1.
         -1    1    1    2    0  502  0.88966156653E+02  0.16283344228E+03  0.17316217020E+03  0.25380079618E+03  0.00000000000E+00 0. -1.
<mgrwt>
<rscale>  4 0.25258577E+03</rscale>
<asrwt>0</asrwt>
<pdfrwt beam="1">  1       21 0.18126572E-01 0.25258577E+03</pdfrwt>
<pdfrwt beam="2">  1       -1 0.74467508E-01 0.25258577E+03</pdfrwt>
<totfact> 0.48311023E+03</totfact>
</mgrwt>
</event>
<event>
 5    0  0.5993533E-001  0.2734245E+03  0.7546771E-02  0.1099336E+00
         21   -1    0    0  503  502  0.00000000000E+00  0.00000000000E+00  0.28035762118E+03  0.28035762118E+03  0.00000000000E+00 0. -1.
          2   -1    0    0  502    0 -0.00000000000E+00 -0.00000000000E+00 -0.73118705552E+03  0.73118705552E+03  0.00000000000E+00 0. -1.
         25    1    1    2    0    0 -0.24232187392E+03 -0.20397679347E+02  0.18385217435E+03  0.32948835779E+03  0.12500000000E+03 0.  0.
         21    1    1    2  503  501  0.16250788432E+03  0.10363493459E+02 -0.34645889034E+03  0.38281846502E+03  0.00000000000E+00 0. -1.
          2    1    1    2  501    0  0.79813989610E+02  0.10034185888E+02 -0.28822271835E+03  0.29923785389E+03  0.00000000000E+00 0. -1.
<mgrwt>
<rscale>  4 0.27342450E+03</rscale>
<asrwt>0</asrwt>
<pdfrwt beam="1">  1       21 0.43131942E-01 0.27342450E+03</pdfrwt>
<pdfrwt beam="2">  1        2 0.11249032E+00 0.27342450E+03</pdfrwt>
<totfact> 0.25137849E+03</totfact>
</mgrwt>
</event>
<event>
 5    0  0.5993533E-001  0.2860475E+03  0.7546771E-02  0.1092431E+00
          2   -1    0    0  502    0 -0.00000000000E+00  0.00000000000E+00  0.52004854765E+03  0.52004854765E+03  0.00000000000E+00 0. -1.
         21   -1    0    0  503  502  0.00000000000E+00 -0.00000000000E+00 -0.21861671967E+04  0.21861671967E+04  0.00000000000E+00 0. -1.
         25    1    1    2    0    0 -0.19999730373E+03 -0.16354557432E+03 -0.20904906752E+04  0.21101000781E+04  0.12500000000E+03 0.  0.
         21    1    1    2  503  501  0.75363318725E+02 -0.68518894733E+01 -0.40298827157E+02  0.85735486637E+02  0.00000000000E+00 0. -1.
          2    1    1    2  501    0  0.12463398501E+03  0.17039746379E+03  0.46467085329E+03  0.51038017966E+03  0.00000000000E+00 0. -1.
<mgrwt>
<rscale>  4 0.28604753E+03</rscale>
<asrwt>0</asrwt>
<pdfrwt beam="1">  1       21 0.33633341E+00 0.28604753E+03</pdfrwt>
<pdfrwt beam="2">  1        2 0.80007469E-01 0.28604753E+03</pdfrwt>
<totfact> 0.13993485E+01</totfact>
</mgrwt>
</event>
<event>
 5    0  0.5993533E-001  0.2367229E+03  0.7546771E-02  0.1121995E+00
          2   -1    0    0  502    0 -0.00000000000E+00  0.00000000000E+00  0.15945067785E+04  0.15945067785E+04  0.00000000000E+00 0. -1.
         21   -1    0    0  503  502  0.00000000000E+00 -0.00000000000E+00 -0.73945628448E+02  0.73945628448E+02  0.00000000000E+00 0. -1.
         25    1    1    2    0    0 -0.13989007258E+03 -0.16111936311E+03  0.18613313189E+03  0.30951449783E+03  0.12500000000E+03 0.  0.
         21    1    1    2  503  501  0.11207748644E+03  0.12784034351E+03  0.61104432575E+03  0.63425522026E+03  0.00000000000E+00 0. -1.
          2    1    1    2  501    0  0.27812586136E+02  0.33279019601E+02  0.72338369245E+03  0.72468268891E+03  0.00000000000E+00 0. -1.
<mgrwt>
<rscale>  4 0.23672287E+03</rscale>
<asrwt>0</asrwt>
<pdfrwt beam="1">  1       21 0.11376252E-01 0.23672287E+03</pdfrwt>
<pdfrwt beam="2">  1        2 0.24530871E+00 0.23672287E+03</pdfrwt>
<totfact> 0.99449057E+03</totfact>
</mgrwt>
</event>
<event>
 5    0  0.5993533E-001  0.3105074E+03  0.7546771E-02  0.1080103E+00
         21   -1    0    0  503  502  0.00000000000E+00  0.00000000000E+00  0.23771794780E+03  0.23771794780E+03  0.00000000000E+00 0. -1.
          2   -1    0    0  502    0 -0.00000000000E+00 -0.00000000000E+00 -0.27637715284E+04  0.27637715284E+04  0.00000000000E+00 0. -1.
         25    1    1    2    0    0  0.94789615651E+02  0.26863423246E+03  0.12261314331E+03  0.33437763830E+03  0.12500000000E+03 0.  0.
         21    1    1    2  503  501  0.17112115713E+02 -0.22953200792E+02 -0.95148196661E+02  0.99362232557E+02  0.00000000000E+00 0.  1.
          2    1    1    2  501    0 -0.11190173136E+03 -0.24568103166E+03 -0.25535185272E+04  0.25677496054E+04  0.00000000000E+00 0. -1.
<mgrwt>
<rscale>  4 0.31050741E+03</rscale>
<asrwt>0</asrwt>
<pdfrwt beam="1">  1       21 0.36571992E-01 0.31050741E+03</pdfrwt>
<pdfrwt beam="2">  1        2 0.42519562E+00 0.31050741E+03</pdfrwt>
<totfact> 0.24798642E+02</totfact>
</mgrwt>
</event>
<event>
 5    0  0.5993533E-001  0.3135618E+03  0.7546771E-02  0.1078651E+00
         21   -1    0    0  501  502  0.00000000000E+00  0.00000000000E+00  0.96198102699E+02  0.96198102699E+02  0.00000000000E+00 0. -1.
         -1   -1    0    0    0  501 -0.00000000000E+00 -0.00000000000E+00 -0.15309379097E+04  0.15309379097E+04  0.00000000000E+00 0. -1.
         25    1    1    2    0    0  0.26667638889E+03  0.13048011865E+03 -0.31654167153E+03  0.45162483055E+03  0.12500000000E+03 0.  0.
         21    1    1    2  501  501 -0.66032807647E+02  0.57528400971E+02 -0.26348462804E+03  0.27765805916E+03  0.00000000000E+00 0. -1.
         -1    1    1    2    0  502 -0.20064358124E+03 -0.18800851962E+03 -0.85471350745E+03  0.89785312271E+03  0.00000000000E+00 0. -1.
<mgrwt>
<rscale>  4 0.31356182E+03</rscale>
<asrwt>0</asrwt>
<pdfrwt beam="1">  1       21 0.14799709E-01 0.31356182E+03</pdfrwt>
<pdfrwt beam="2">  1       -1 0.23552889E+00 0.31356182E+03</pdfrwt>
<totfact> 0.35866462E+02</totfact>
</mgrwt>
</event>
<event>
 5    0  0.5993533E-001  0.3313574E+03  0.7546771E-02  0.1070538E+00
          2   -1    0    0  502    0 -0.00000000000E+00  0.00000000000E+00  0.46053306749E+03  0.46053306749E+03  0.00000000000E+00 0. -1.
         21   -1    0    0  503  502  0.00000000000E+00 -0.00000000000E+00 -0.43455982596E+03  0.43455982596E+03  0.00000000000E+00 0.  1.
         25    1    1    2    0    0 -0.28936620286E+03 -0.10799048382E+03 -0.29189130190E+03  0.44296757904E+03  0.12500000000E+03 0.  0.
         21    1    1    2  503  501  0.17930907239E+02 -0.15113786524E+02  0.21624944713E+02  0.31899564439E+02  0.00000000000E+00 0. -1.
          2    1    1    2  501    0  0.27143529563E+03  0.12310427034E+03  0.29623959872E+03  0.42022574997E+03  0.00000000000E+00 0. -1.
<mgrwt>
<rscale>  4 0.33135745E+03</rscale>
<asrwt>0</asrwt>
<pdfrwt beam="1">  1       21 0.66855358E-01 0.33135745E+03</pdfrwt>
<pdfrwt beam="2">  1        2 0.70851241E-01 0.33135745E+03</pdfrwt>
<totfact> 0.16642306E+03</totfact>
</mgrwt>
</event>
<event>
 5    0  0.5993533E-001  0.3272491E+03  0.7546771E-02  0.1072361E+00
         21   -1    0    0  503  502  0.00000000000E+00  0.00000000000E+00  0.46736847115E+03  0.46736847115E+03  0.00000000000E+00 0.  1.
          2   -1    0    0  502    0 -0.00000000000E+00 -0.00000000000E+00 -0.23753717290E+04  0.23753717290E+04  0.00000000000E+00 0.  1.
         25    1    1    2    0    0 -0.15545960060E+03 -0.27161406065E+03  0.39061292531E+03  0.51589276287E+03  0.12500000000E+03 0.  0.
         21    1    1    2  503  501  0.13102706608E+02  0.17523708842E+03 -0.84341935162E+03  0.86153114904E+03  0.00000000000E+00 0.  1.
          2    1    1    2  501    0  0.14235689399E+03  0.96376972231E+02 -0.14551968315E+04  0.14653162882E+04  0.00000000000E+00 0.  1.
<mgrwt>
<rscale>  4 0.32724907E+03</rscale>
<asrwt>0</asrwt>
<pdfrwt beam="1">  1       21 0.71902842E-01 0.32724907E+03</pdfrwt>
<pdfrwt beam="2">  1        2 0.36544180E+00 0.32724907E+03</pdfrwt>
<totfact> 0.96130009E+01</totfact>
</mgrwt>
</event>
<event>
 5    0  0.5993533E-001  0.2366354E+03  0.7546771E-02  0.1122055E+00
         21   -1    0    0  503  502  0.00000000000E+00  0.00000000000E+00  0.25351640614E+03  0.25351640614E+03  0.00000000000E+00 0. -1.
          2   -1    0    0  502    0 -0.00000000000E+00 -0.00000000000E+00 -0.11971621576E+04  0.11971621576E+04  0.00000000000E+00 0. -1.
         25    1    1    2    0    0 -0.19144079377E+03 -0.61005960543E+02  0.18692541852E+03  0.30155831414E+03  0.12500000000E+03 0.  0.
         21    1    1    2  503  501  0.41329357316E+02  0.42061826371E+01 -0.15674662481E+03  0.16215829346E+03  0.00000000000E+00 0. -1.
          2    1    1    2  501    0  0.15011143645E+03  0.56799777905E+02 -0.97382454517E+03  0.98696195616E+03  0.00000000000E+00 0. -1.
<mgrwt>
<rscale>  4 0.23663538E+03</rscale>
<asrwt>0</asrwt>
<pdfrwt beam="1">  1       21 0.39002524E-01 0.23663538E+03</pdfrwt>
<pdfrwt beam="2">  1        2 0.18417879E+00 0.23663538E+03</pdfrwt>
<totfact> 0.15878681E+03</totfact>
</mgrwt>
</event>
<event>
 5    0  0.5993533E-001  0.2468833E+03  0.7546771E-02  0.1115290E+00
         21   -1    0    0  503  502  0.00000000000E+00  0.00000000000E+00  0.61770925253E+03  0.61770925253E+03  0.00000000000E+00 0. -1.
          2   -1    0    0  502    0 -0.00000000000E+00 -0.00000000000E+00 -0.12738855057E+04  0.12738855057E+04  0.00000000000E+00 0. -1.
         25    1    1    2    0    0 -0.18765555057E+03  0.10055720303E+03  0.58137346099E+03  0.63162208471E+03  0.12500000000E+03 0.  0.
         21    1    1    2  503  501  0.86595240912E+02  0.52869037357E+01 -0.36012827087E+03  0.37043090932E+03  0.00000000000E+00 0. -1.
          2    1    1    2  501    0  0.10106030966E+03 -0.10584410677E+03 -0.87742144329E+03  0.88954176420E+03  0.00000000000E+00 0. -1.
<mgrwt>
<rscale>  4 0.24688329E+03</rscale>
<asrwt>0</asrwt>
<pdfrwt beam="1">  1       21 0.95032193E-01 0.24688329E+03</pdfrwt>
<pdfrwt beam="2">  1        2 0.19598238E+00 0.24688329E+03</pdfrwt>
<totfact> 0.20640408E+02</totfact>
</mgrwt>
</event>
<event>
 5    0  0.5993533E-001  0.2381503E+03  0.7546771E-02  0.1121031E+00
          1   -1    0    0  502    0 -0.00000000000E+00  0.00000000000E+00  0.89038802782E+03  0.89038802782E+03  0.00000000000E+00 0.  1.
         21   -1    0    0  503  502  0.00000000000E+00 -0.00000000000E+00 -0.22582199890E+03  0.22582199890E+03  0.00000000000E+00 0. -1.
         25    1    1    2    0    0  0.11763244506E+03  0.16359929164E+03 -0.13498277246E+03  0.27285063536E+03  0.12500000000E+03 0.  0.
         21    1    1    2  503  501  0.31086960988E+02 -0.41000425949E+01  0.29591382366E+02  0.43114491799E+02  0.00000000000E+00 0.  1.
          1    1    1    2  501    0 -0.14871940605E+03 -0.15949924905E+03  0.76995741902E+03  0.80024489957E+03  0.00000000000E+00 0.  1.
<mgrwt>
<rscale>  4 0.23815031E+03</rscale>
<asrwt>0</asrwt>
<pdfrwt beam="1">  1       21 0.34741847E-01 0.23815031E+03</pdfrwt>
<pdfrwt beam="2">  1        1 0.13698277E+00 0.23815031E+03</pdfrwt>
<totfact> 0.17032064E+03</totfact>
</mgrwt>
</event>
<event>
 5    0  0.5993533E-001  0.2540016E+03  0.7546771E-02  0.1110802E+00
          1   -1    0    0  502    0 -0.00000000000E+00  0.00000000000E+00  0.39515743310E+03  0.39515743310E+03  0.00000000000E+00 0. -1.
         21   -1    0    0  503  502  0.00000000000E+00 -0.00000000000E+00 -0.30289048735E+03  0.30289048735E+03  0.00000000000E+00 0.  1.
         25    1    1    2    0    0  0.11260581905E+03  0.19029384738E+03 -0.20259583249E+03  0.32490289346E+03  0.12500000000E+03 0.  0.
         21    1    1    2  503  501 -0.32546894518E+02 -0.10514559002E+03  0.12014900101E+03  0.16294378751E+03  0.00000000000E+00 0.  1.
          1    1    1    2  501    0 -0.80058924534E+02 -0.85148257364E+02  0.17471377722E+03  0.21020123948E+03  0.00000000000E+00 0. -1.
<mgrwt>
<rscale>  4 0.25400161E+03</rscale>
<asrwt>0</asrwt>
<pdfrwt beam="1">  1       21 0.46598536E-01 0.25400161E+03</pdfrwt>
<pdfrwt beam="2">  1        1 0.60793452E-01 0.25400161E+03</pdfrwt>
<totfact> 0.29234376E+03</totfact>
</mgrwt>
</event>
<event>
 5    0  0.5993533E-001  0.2475409E+03  0.7546771E-02  0.1114869E+00
          2   -1    0    0  502    0 -0.00000000000E+00  0.00000000000E+00  0.85989208259E+03  0.85989208259E+03  0.00000000000E+00 0. -1.
         21   -1    0    0  503  502  0.00000000000E+00 -0.00000000000E+00 -0.65805872069E+02  0.65805872069E+02  0.00000000000E+00 0. -1.
         25    1    1    2    0    0 -0.10344864075E+02  0.21341154541E+03  0.33633303526E+03  0.41760796752E+03  0.12500000000E+03 0.  0.
         21    1    1    2  503  501  0.27107412899E+02 -0.59128139818E+02  0.14659455028E+03  0.16037740154E+03  0.00000000000E+00 0. -1.
          2    1    1    2  501    0 -0.16762548824E+02 -0.15428340559E+03  0.31115862498E+03  0.34771258560E+03  0.00000000000E+00 0. -1.
<mgrwt>
<rscale>  4 0.24754091E+03</rscale>
<asrwt>0</asrwt>
<pdfrwt beam="1">  1       21 0.10123981E-01 0.24754091E+03</pdfrwt>
<pdfrwt beam="2">  1        2 0.13229108E+00 0.24754091E+03</pdfrwt>
<totfact> 0.32221459E+04</totfact>
</mgrwt>
</event>
<event>
 5    0  0.5993533E-001  0.2568138E+03  0.7546771E-02  0.1109073E+00
         21   -1    0    0  503  502  0.00000000000E+00  0.00000000000E+00  0.60765519605E+03  0.60765519605E+03  0.00000000000E+00 0.  1.
          2   -1    0    0  502    0 -0.00000000000E+00 -0.00000000000E+00 -0.13341624772E+04  0.13341624772E+04  0.00000000000E+00 0. -1.
         25    1    1    2    0    0 -0.21598143060E+03 -0.60665770777E+02  0.56989855954E+03  0.62509013932E+03  0.12500000000E+03 0.  0.
         21    1    1    2  503  501  0.67650118912E+02  0.44832509549E+02 -0.47643674835E+03  0.48329956309E+03  0.00000000000E+00 0. -1.
          2    1    1    2  501    0  0.14833131169E+03  0.15833261228E+02 -0.81996909230E+03  0.83342797080E+03  0.00000000000E+00 0. -1.
<mgrwt>
<rscale>  4 0.25681377E+03</rscale>
<asrwt>0</asrwt>
<pdfrwt beam="1">  1       21 0.93485416E-01 0.25681377E+03</pdfrwt>
<pdfrwt beam="2">  1        2 0.20525576E+00 0.25681377E+03</pdfrwt>
<totfact> 0.19739709E+02</totfact>
</mgrwt>
</event>
<event>
 5    0  0.5993533E-001  0.3727853E+03  0.7546771E-02  0.1053633E+00
         -1   -1    0    0    0  501 -0.00000000000E+00  0.00000000000E+00  0.24392607222E+04  0.24392607222E+04  0.00000000000E+00 0. -1.
         21   -1    0    0  501  502  0.00000000000E+00 -0.00000000000E+00 -0.78024791624E+02  0.78024791624E+02  0.00000000000E+00 0. -1.
         25    1    1    2    0    0  0.33877606257E+03  0.84636400251E+02  0.17561185913E+04  0.17948565535E+04  0.12500000000E+03 0.  0.
         21    1    1    2  501  501  0.11473887566E+02 -0.17349930710E+02  0.92285900126E+00  0.20821187772E+02  0.00000000000E+00 0. -1.
         -1    1    1    2    0  502 -0.35024995013E+03 -0.67286469542E+02  0.60419448024E+03  0.70160777255E+03  0.00000000000E+00 0. -1.
<mgrwt>
<rscale>  4 0.37278530E+03</rscale>
<asrwt>0</asrwt>
<pdfrwt beam="1">  1       21 0.12003816E-01 0.37278530E+03</pdfrwt>
<pdfrwt beam="2">  1       -1 0.37527082E+00 0.37278530E+03</pdfrwt>
<totfact> 0.66492434E+01</totfact>
</mgrwt>
</event>
<event>
 5    0  0.5993533E-001  0.2843346E+03  0.7546771E-02  0.1093345E+00
          1   -1    0    0  502    0 -0.00000000000E+00  0.00000000000E+00  0.58119572724E+03  0.58119572724E+03  0.00000000000E+00 0. -1.
         21   -1    0    0  503  502  0.00000000000E+00 -0.00000000000E+00 -0.21518455175E+03  0.21518455175E+03  0.00000000000E+00 0. -1.
         25    1    1    2    0    0 -0.78982789953E+02  0.24286386190E+03 -0.65408387428E+02  0.29176085014E+03  0.12500000000E+03 0.  0.
         21    1    1    2  503  501  0.18683788214E+02 -0.18037004018E+02  0.23835538999E+02  0.35249828019E+02  0.00000000000E+00 0.  1.
          1    1    1    2  501    0  0.60299001739E+02 -0.22482685788E+03  0.40758402391E+03  0.46936960083E+03  0.00000000000E+00 0. -1.
<mgrwt>
<rscale>  4 0.28433455E+03</rscale>
<asrwt>0</asrwt>
<pdfrwt beam="1">  1       21 0.33105316E-01 0.28433455E+03</pdfrwt>
<pdfrwt beam="2">  1        1 0.89414727E-01 0.28433455E+03</pdfrwt>
<totfact> 0.34796396E+03</totfact>
</mgrwt>
</event>
<event>
 5    0  0.5993533E-001  0.2121224E+03  0.7546771E-02  0.1139896E+00
         21   -1    0    0  501  502  0.00000000000E+00  0.00000000000E+00  0.22070747287E+04  0.22070747287E+04  0.00000000000E+00 0. -1.
         -4   -1    0    0    0  501 -0.00000000000E+00 -0.00000000000E+00 -0.28335541888E+02  0.28335541888E+02  0.00000000000E+00 0. -1.
         25    1    1    2    0    0  0.21252790225E+03 -0.11975244182E+01  0.86348055746E+03  0.89799399575E+03  0.12500000000E+03 0.  0.
         21    1    1    2  501  501 -0.57222373500E+02 -0.33193236558E+02  0.19487610677E+03  0.20579817291E+03  0.00000000000E+00 0. -1.
         -4    1    1    2    0  502 -0.15530552875E+03  0.34390760976E+02  0.11203825226E+04  0.11316181019E+04  0.00000000000E+00 0. -1.
<mgrwt>
<rscale>  4 0.21212237E+03</rscale>
<asrwt>0</asrwt>
<pdfrwt beam="1">  1       21 0.33954982E+00 0.21212237E+03</pdfrwt>
<pdfrwt beam="2">  1       -4 0.43593159E-02 0.21212237E+03</pdfrwt>
<totfact> 0.24940189E+02</totfact>
</mgrwt>
</event>
<event>
 5    0  0.5993533E-001  0.2428734E+03  0.7546771E-02  0.1117893E+00
          2   -1    0    0  502    0 -0.00000000000E+00  0.00000000000E+00  0.65785852667E+03  0.65785852667E+03  0.00000000000E+00 0. -1.
         21   -1    0    0  503  502  0.00000000000E+00 -0.00000000000E+00 -0.16888854841E+03  0.16888854841E+03  0.00000000000E+00 0. -1.
         25    1    1    2    0    0  0.24016490324E+02 -0.20687797542E+03 -0.35408206583E+02  0.24546696237E+03  0.12500000000E+03 0.  0.
         21    1    1    2  503  501 -0.37714416731E+02 -0.35493334281E+01  0.10985757159E+03  0.11620525390E+03  0.00000000000E+00 0.  1.
          2    1    1    2  501    0  0.13697926407E+02  0.21042730885E+03  0.41452061324E+03  0.46507485881E+03  0.00000000000E+00 0. -1.
<mgrwt>
<rscale>  4 0.24287342E+03</rscale>
<asrwt>0</asrwt>
<pdfrwt beam="1">  1       21 0.25982854E-01 0.24287342E+03</pdfrwt>
<pdfrwt beam="2">  1        2 0.10120900E+00 0.24287342E+03</pdfrwt>
<totfact> 0.79045309E+03</totfact>
</mgrwt>
</event>
<event>
 5    0  0.5993533E-001  0.3558874E+03  0.7546771E-02  0.1060224E+00
          2   -1    0    0  502    0 -0.00000000000E+00  0.00000000000E+00  0.22099237586E+04  0.22099237586E+04  0.00000000000E+00 0.  1.
         21   -1    0    0  503  502  0.00000000000E+00 -0.00000000000E+00 -0.74453930783E+02  0.74453930783E+02  0.00000000000E+00 0. -1.
         25    1    1    2    0    0 -0.10317468808E+03 -0.31699752287E+03  0.56037586573E+03  0.66391155786E+03  0.12500000000E+03 0.  0.
         21    1    1    2  503  501 -0.34828443749E+02  0.13167553524E+02  0.75383050312E+02  0.84077400258E+02  0.00000000000E+00 0.  1.
          2    1    1    2  501    0  0.13800313183E+03  0.30382996935E+03  0.14997109118E+04  0.15363887313E+04  0.00000000000E+00 0.  1.
<mgrwt>
<rscale>  4 0.35588740E+03</rscale>
<asrwt>0</asrwt>
<pdfrwt beam="1">  1       21 0.11454453E-01 0.35588740E+03</pdfrwt>
<pdfrwt beam="2">  1        2 0.33998822E+00 0.35588740E+03</pdfrwt>
<totfact> 0.44712543E+03</totfact>
</mgrwt>
</event>
<event>
 5    0  0.5993533E-001  0.2478192E+03  0.7546771E-02  0.1114691E+00
         21   -1    0    0  501  502  0.00000000000E+00  0.00000000000E+00  0.51484243452E+03  0.51484243452E+03  0.00000000000E+00 0.  1.
         -3   -1    0    0    0  501 -0.00000000000E+00 -0.00000000000E+00 -0.11604088962E+03  0.11604088962E+03  0.00000000000E+00 0.  1.
         25    1    1    2    0    0 -0.18288941679E+03  0.11108932064E+03  0.11344231837E+03  0.27255006059E+03  0.12500000000E+03 0.  0.
         21    1    1    2  501  501  0.32377732404E+02 -0.63426953814E+01  0.51344921670E+02  0.61031535469E+02  0.00000000000E+00 0.  1.
         -3    1    1    2    0  502  0.15051168439E+03 -0.10474662525E+03  0.23401430487E+03  0.29730172808E+03  0.00000000000E+00 0.  1.
<mgrwt>
<rscale>  4 0.24781924E+03</rscale>
<asrwt>0</asrwt>
<pdfrwt beam="1">  1       21 0.79206527E-01 0.24781924E+03</pdfrwt>
<pdfrwt beam="2">  1       -3 0.17852445E-01 0.24781924E+03</pdfrwt>
<totfact> 0.18920333E+03</totfact>
</mgrwt>
</event>
<event>
 5    0  0.5993533E-001  0.2428513E+03  0.7546771E-02  0.1117908E+00
          2   -1    0    0  502    0 -0.00000000000E+00  0.00000000000E+00  0.51743374630E+03  0.51743374630E+03  0.00000000000E+00 0. -1.
         21   -1    0    0  503  502  0.00000000000E+00 -0.00000000000E+00 -0.20302598569E+03  0.20302598569E+03  0.00000000000E+00 0.  1.
         25    1    1    2    0    0 -0.19696203774E+02 -0.20727715646E+03 -0.93583299084E+02  0.26025870571E+03  0.12500000000E+03 0.  0.
         21    1    1    2  503  501 -0.29711121545E+01  0.27919342082E+02  0.29358745479E+02  0.40623307421E+02  0.00000000000E+00 0.  1.
          2    1    1    2  501    0  0.22667315928E+02  0.17935781437E+03  0.37863231422E+03  0.41957771885E+03  0.00000000000E+00 0. -1.
<mgrwt>
<rscale>  4 0.24285131E+03</rscale>
<asrwt>0</asrwt>
<pdfrwt beam="1">  1       21 0.31234767E-01 0.24285131E+03</pdfrwt>
<pdfrwt beam="2">  1        2 0.79605191E-01 0.24285131E+03</pdfrwt>
<totfact> 0.72908357E+03</totfact>
</mgrwt>
</event>
