<event>
 5    0  0.4930573E+000  0.3983549E+03  0.7546771E-02  0.1044351E+00
          1   -1    0    0  502    0 -0.00000000000E+00  0.00000000000E+00  0.45764360322E+03  0.45764360322E+03  0.00000000000E+00 0.  1.
         21   -1    0    0  503  502  0.00000000000E+00 -0.00000000000E+00 -0.12962077117E+04  0.12962077117E+04  0.00000000000E+00 0.  1.
         25    1    1    2    0    0  0.62666926537E+02 -0.37987189324E+03 -0.11376625663E+04  0.12075309162E+04  0.12500000000E+03 0.  0.
         21    1    1    2  503  501  0.69078941197E+01  0.85578866206E+02 -0.37622783705E+02  0.93738653692E+02  0.00000000000E+00 0.  1.
          1    1    1    2  501    0 -0.69574820656E+02  0.29429302703E+03  0.33672124149E+03  0.45258174499E+03  0.00000000000E+00 0.  1.
<mgrwt>
<rscale>  4 0.39835493E+03</rscale>
<asrwt>0</asrwt>
<pdfrwt beam="1">  1       21 0.19941657E+00 0.39835493E+03</pdfrwt>
<pdfrwt beam="2">  1        1 0.70406709E-01 0.39835493E+03</pdfrwt>
<totfact> 0.66083170E+01</totfact>
</mgrwt>
</event>
<event>
 5    0  0.4930573E+000  0.2927547E+03  0.7546771E-02  0.1088920E+00
         -2   -1    0    0    0  501 -0.00000000000E+00  0.00000000000E+00  0.79703217601E+03  0.79703217601E+03  0.00000000000E+00 0. -1.
         21   -1    0    0  501  502  0.00000000000E+00 -0.00000000000E+00 -0.61936384480E+03  0.61936384480E+03  0.00000000000E+00 0. -1.
         25    1    1    2    0    0  0.18923481129E+03 -0.12934964165E+03 -0.53290608368E+03  0.59342652251E+03  0.12500000000E+03 0.  0.
         21    1    1    2  503  502  0.22177933729E+02 -0.32445474712E+02 -0.20930611591E+02  0.44527071264E+02  0.00000000000E+00 0. -1.
         -2    1    1    2    0  503 -0.21141274502E+03  0.16179511636E+03  0.73150502648E+03  0.77844242703E+03  0.00000000000E+00 0. -1.
<mgrwt>
<rscale>  4 0.29275469E+03</rscale>
<asrwt>0</asrwt>
<pdfrwt beam="1">  1       21 0.95286745E-01 0.29275469E+03</pdfrwt>
<pdfrwt beam="2">  1       -2 0.12262034E+00 0.29275469E+03</pdfrwt>
<totfact> 0.37652235E+01</totfact>
</mgrwt>
</event>
<event>
 5    0  0.4930573E+000  0.2456509E+03  0.7546771E-02  0.1116085E+00
         21   -1    0    0  503  502  0.00000000000E+00  0.00000000000E+00  0.19315819703E+04  0.19315819703E+04  0.00000000000E+00 0.  1.
          2   -1    0    0  502    0 -0.00000000000E+00 -0.00000000000E+00 -0.32299304136E+02  0.32299304136E+02  0.00000000000E+00 0.  1.
         25    1    1    2    0    0 -0.36949956104E+02 -0.20912613093E+03  0.11691624853E+04  0.11948493440E+04  0.12500000000E+03 0.  0.
         21    1    1    2  503  501 -0.28692101180E+02  0.81067833597E+01  0.10218444894E+03  0.10644537666E+03  0.00000000000E+00 0. -1.
          2    1    1    2  501    0  0.65642057285E+02  0.20101934757E+03  0.62793573192E+03  0.66258655374E+03  0.00000000000E+00 0.  1.
<mgrwt>
<rscale>  4 0.24565086E+03</rscale>
<asrwt>0</asrwt>
<pdfrwt beam="1">  1       21 0.29716637E+00 0.24565086E+03</pdfrwt>
<pdfrwt beam="2">  1        2 0.49691252E-02 0.24565086E+03</pdfrwt>
<totfact> 0.64550456E+02</totfact>
</mgrwt>
</event>
<event>
 5    0  0.4930573E+000  0.2917213E+03  0.7546771E-02  0.1089454E+00
         21   -1    0    0  503  502  0.00000000000E+00  0.00000000000E+00  0.50241593591E+03  0.50241593591E+03  0.00000000000E+00 0.  1.
          2   -1    0    0  502    0 -0.00000000000E+00 -0.00000000000E+00 -0.19884587072E+04  0.19884587072E+04  0.00000000000E+00 0. -1.
         25    1    1    2    0    0  0.53361811116E+02 -0.37384250207E+03  0.36361306417E+03  0.53892964260E+03  0.12500000000E+03 0.  0.
         21    1    1    2  503  501 -0.44960930457E+02  0.11272715768E+03 -0.46506555103E+02  0.12996829234E+03  0.00000000000E+00 0.  1.
          2    1    1    2  501    0 -0.84008806590E+01  0.26111534439E+03 -0.18031492804E+04  0.18219767082E+04  0.00000000000E+00 0. -1.
<mgrwt>
<rscale>  4 0.29172133E+03</rscale>
<asrwt>0</asrwt>
<pdfrwt beam="1">  1       21 0.77294760E-01 0.29172133E+03</pdfrwt>
<pdfrwt beam="2">  1        2 0.30591672E+00 0.29172133E+03</pdfrwt>
<totfact> 0.13437549E+02</totfact>
</mgrwt>
</event>
<event>
 5    0  0.4930573E+000  0.1873058E+03  0.7546771E-02  0.1160914E+00
         21   -1    0    0  503  502  0.00000000000E+00  0.00000000000E+00  0.18909199155E+03  0.18909199155E+03  0.00000000000E+00 0. -1.
          1   -1    0    0  502    0 -0.00000000000E+00 -0.00000000000E+00 -0.84940599059E+03  0.84940599059E+03  0.00000000000E+00 0. -1.
         25    1    1    2    0    0 -0.25228374089E+02 -0.20000355649E+03 -0.33666284931E+03  0.41183099394E+03  0.12500000000E+03 0.  0.
         21    1    1    2  503  501  0.71998774720E+02  0.11499435873E+03  0.11472756212E+03  0.17767931678E+03  0.00000000000E+00 0. -1.
          1    1    1    2  501    0 -0.46770400631E+02  0.85009197757E+02 -0.43837871186E+03  0.44898767142E+03  0.00000000000E+00 0. -1.
<mgrwt>
<rscale>  4 0.18730583E+03</rscale>
<asrwt>0</asrwt>
<pdfrwt beam="1">  1       21 0.29091076E-01 0.18730583E+03</pdfrwt>
<pdfrwt beam="2">  1        1 0.13067785E+00 0.18730583E+03</pdfrwt>
<totfact> 0.26616573E+03</totfact>
</mgrwt>
</event>
<event>
 5    0  0.4930573E+000  0.2952106E+03  0.7546771E-02  0.1087660E+00
         21   -1    0    0  503  502  0.00000000000E+00  0.00000000000E+00  0.13924516279E+04  0.13924516279E+04  0.00000000000E+00 0.  1.
          1   -1    0    0  502    0 -0.00000000000E+00 -0.00000000000E+00 -0.15174035814E+03  0.15174035814E+03  0.00000000000E+00 0. -1.
         25    1    1    2    0    0  0.21272673910E+02 -0.24532385665E+03  0.78059132982E+03  0.82800008785E+03  0.12500000000E+03 0.  0.
         21    1    1    2  503  501 -0.49167591508E+02 -0.25228714708E+02  0.44000558391E+03  0.44346234786E+03  0.00000000000E+00 0.  1.
          1    1    1    2  501    0  0.27894917599E+02  0.27055257136E+03  0.20114356014E+02  0.27272955031E+03  0.00000000000E+00 0. -1.
<mgrwt>
<rscale>  4 0.29521063E+03</rscale>
<asrwt>0</asrwt>
<pdfrwt beam="1">  1       21 0.21422332E+00 0.29521063E+03</pdfrwt>
<pdfrwt beam="2">  1        1 0.23344671E-01 0.29521063E+03</pdfrwt>
<totfact> 0.22966468E+02</totfact>
</mgrwt>
</event>
<event>
 5    0  0.4930573E+000  0.3953928E+03  0.7546771E-02  0.1045387E+00
          2   -1    0    0  502    0 -0.00000000000E+00  0.00000000000E+00  0.11990420176E+04  0.11990420176E+04  0.00000000000E+00 0.  1.
         21   -1    0    0  503  502  0.00000000000E+00 -0.00000000000E+00 -0.18172255241E+03  0.18172255241E+03  0.00000000000E+00 0.  1.
         25    1    1    2    0    0  0.38809053479E+03 -0.30473009536E+02  0.31193658433E+03  0.51426870423E+03  0.12500000000E+03 0.  0.
         21    1    1    2  503  501 -0.35988714983E+03  0.30059160760E+02  0.32738065085E+03  0.48744271900E+03  0.00000000000E+00 0.  1.
          2    1    1    2  501    0 -0.28203384969E+02  0.41384877599E+00  0.37800223004E+03  0.37905314682E+03  0.00000000000E+00 0.  1.
<mgrwt>
<rscale>  4 0.39539279E+03</rscale>
<asrwt>0</asrwt>
<pdfrwt beam="1">  1       21 0.27957316E-01 0.39539279E+03</pdfrwt>
<pdfrwt beam="2">  1        2 0.18446800E+00 0.39539279E+03</pdfrwt>
<totfact> 0.29178578E+03</totfact>
</mgrwt>
</event>
<event>
 5    0  0.4930573E+000  0.2567918E+03  0.7546771E-02  0.1109086E+00
         21   -1    0    0  503  502  0.00000000000E+00  0.00000000000E+00  0.39497702866E+03  0.39497702866E+03  0.00000000000E+00 0.  1.
          2   -1    0    0  502    0 -0.00000000000E+00 -0.00000000000E+00 -0.22112002523E+04  0.22112002523E+04  0.00000000000E+00 0.  1.
         25    1    1    2    0    0 -0.70529416653E+02 -0.20662711500E+03 -0.53465195983E+03  0.59088652161E+03  0.12500000000E+03 0.  0.
         21    1    1    2  503  501 -0.41483149073E+02  0.93994606101E+01  0.35779187090E+03  0.36031128819E+03  0.00000000000E+00 0.  1.
          2    1    1    2  501    0  0.11201256573E+03  0.19722765439E+03 -0.16393631347E+04  0.16549794711E+04  0.00000000000E+00 0.  1.
<mgrwt>
<rscale>  4 0.25679181E+03</rscale>
<asrwt>0</asrwt>
<pdfrwt beam="1">  1       21 0.60765699E-01 0.25679181E+03</pdfrwt>
<pdfrwt beam="2">  1        2 0.34018464E+00 0.25679181E+03</pdfrwt>
<totfact> 0.17877209E+02</totfact>
</mgrwt>
</event>
<event>
 5    0  0.4930573E+000  0.2039213E+03  0.7546771E-02  0.1146472E+00
         21   -1    0    0  503  502  0.00000000000E+00  0.00000000000E+00  0.29010178935E+02  0.29010178935E+02  0.00000000000E+00 0. -1.
          1   -1    0    0  502    0 -0.00000000000E+00 -0.00000000000E+00 -0.22250561083E+04  0.22250561083E+04  0.00000000000E+00 0. -1.
         25    1    1    2    0    0 -0.77084239907E+02 -0.18551497384E+03 -0.72077620333E+03  0.75861790174E+03  0.12500000000E+03 0.  0.
         21    1    1    2  503  501  0.11999849097E+02  0.13427090442E+03 -0.54212968391E+03  0.55863876193E+03  0.00000000000E+00 0. -1.
          1    1    1    2  501    0  0.65084390810E+02  0.51244069420E+02 -0.93314004217E+03  0.93680962361E+03  0.00000000000E+00 0. -1.
<mgrwt>
<rscale>  4 0.20392134E+03</rscale>
<asrwt>0</asrwt>
<pdfrwt beam="1">  1       21 0.44631044E-02 0.20392134E+03</pdfrwt>
<pdfrwt beam="2">  1        1 0.34231633E+00 0.20392134E+03</pdfrwt>
<totfact> 0.89707615E+03</totfact>
</mgrwt>
</event>
<event>
 5    0  0.4930573E+000  0.2428740E+03  0.7546771E-02  0.1117893E+00
         21   -1    0    0  503  502  0.00000000000E+00  0.00000000000E+00  0.35129478585E+02  0.35129478585E+02  0.00000000000E+00 0. -1.
          1   -1    0    0  502    0 -0.00000000000E+00 -0.00000000000E+00 -0.20686807236E+04  0.20686807236E+04  0.00000000000E+00 0. -1.
         25    1    1    2    0    0  0.10852964822E+03 -0.17771921381E+03 -0.15830957272E+04  0.16016178961E+04  0.12500000000E+03 0.  0.
         21    1    1    2  503  501 -0.43124835168E+02  0.21203775167E+02 -0.63045537302E+02  0.79272260365E+02  0.00000000000E+00 0.  1.
          1    1    1    2  501    0 -0.65404813054E+02  0.15651543864E+03 -0.38740998046E+03  0.42292004571E+03  0.00000000000E+00 0. -1.
<mgrwt>
<rscale>  4 0.24287405E+03</rscale>
<asrwt>0</asrwt>
<pdfrwt beam="1">  1       21 0.54045342E-02 0.24287405E+03</pdfrwt>
<pdfrwt beam="2">  1        1 0.31825863E+00 0.24287405E+03</pdfrwt>
<totfact> 0.80658738E+03</totfact>
</mgrwt>
</event>
<event>
 5    0  0.4930573E+000  0.2349397E+03  0.7546771E-02  0.1123211E+00
         21   -1    0    0  503  502  0.00000000000E+00  0.00000000000E+00  0.32032670884E+02  0.32032670884E+02  0.00000000000E+00 0. -1.
          2   -1    0    0  502    0 -0.00000000000E+00 -0.00000000000E+00 -0.33506464485E+04  0.33506464485E+04  0.00000000000E+00 0. -1.
         25    1    1    2    0    0 -0.16912726301E+03  0.14791860631E+03 -0.70188982544E+03  0.74750135267E+03  0.12500000000E+03 0.  0.
         21    1    1    2  503  501 -0.19467395701E+02 -0.90686679793E+02 -0.44704337298E+03  0.45656415838E+03  0.00000000000E+00 0.  1.
          2    1    1    2  501    0  0.18859465871E+03 -0.57231926514E+02 -0.21696805792E+04  0.21786136084E+04  0.00000000000E+00 0. -1.
<mgrwt>
<rscale>  4 0.23493967E+03</rscale>
<asrwt>0</asrwt>
<pdfrwt beam="1">  1       21 0.49281002E-02 0.23493967E+03</pdfrwt>
<pdfrwt beam="2">  1        2 0.51548439E+00 0.23493967E+03</pdfrwt>
<totfact> 0.45205735E+03</totfact>
</mgrwt>
</event>
<event>
 5    0  0.4930573E+000  0.2311741E+03  0.7546771E-02  0.1125816E+00
          2   -1    0    0  502    0 -0.00000000000E+00  0.00000000000E+00  0.13594473624E+04  0.13594473624E+04  0.00000000000E+00 0.  1.
         21   -1    0    0  503  502  0.00000000000E+00 -0.00000000000E+00 -0.37334346350E+03  0.37334346350E+03  0.00000000000E+00 0.  1.
         25    1    1    2    0    0 -0.18064391728E+03 -0.14816941304E+03 -0.23254171402E+03  0.35254368321E+03  0.12500000000E+03 0.  0.
         21    1    1    2  503  501  0.45362600539E+02  0.97784270942E+01 -0.66235343186E+02  0.80873381598E+02  0.00000000000E+00 0.  1.
          2    1    1    2  501    0  0.13528131674E+03  0.13839098595E+03  0.12848809561E+04  0.12993737611E+04  0.00000000000E+00 0.  1.
<mgrwt>
<rscale>  4 0.23117406E+03</rscale>
<asrwt>0</asrwt>
<pdfrwt beam="1">  1       21 0.57437457E-01 0.23117406E+03</pdfrwt>
<pdfrwt beam="2">  1        2 0.20914575E+00 0.23117406E+03</pdfrwt>
<totfact> 0.57859891E+02</totfact>
</mgrwt>
</event>
<event>
 5    0  0.4930573E+000  0.3722028E+03  0.7546771E-02  0.1053854E+00
          2   -1    0    0  502    0 -0.00000000000E+00  0.00000000000E+00  0.16055767051E+04  0.16055767051E+04  0.00000000000E+00 0. -1.
         21   -1    0    0  503  502  0.00000000000E+00 -0.00000000000E+00 -0.43342181195E+03  0.43342181195E+03  0.00000000000E+00 0. -1.
         25    1    1    2    0    0 -0.16526796464E+03  0.27823093687E+03 -0.16632441741E+03  0.38472687220E+03  0.12500000000E+03 0.  0.
         21    1    1    2  503  501 -0.14703384584E+02  0.25004492732E+02 -0.13556678440E+03  0.13863537503E+03  0.00000000000E+00 0. -1.
          2    1    1    2  501    0  0.17997134922E+03 -0.30323542960E+03  0.14740460950E+04  0.15156362698E+04  0.00000000000E+00 0. -1.
<mgrwt>
<rscale>  4 0.37220282E+03</rscale>
<asrwt>0</asrwt>
<pdfrwt beam="1">  1       21 0.66680279E-01 0.37220282E+03</pdfrwt>
<pdfrwt beam="2">  1        2 0.24701180E+00 0.37220282E+03</pdfrwt>
<totfact> 0.28685115E+02</totfact>
</mgrwt>
</event>
<event>
 5    0  0.4930573E+000  0.3823873E+03  0.7546771E-02  0.1050055E+00
         21   -1    0    0  503  502  0.00000000000E+00  0.00000000000E+00  0.59851036855E+03  0.59851036855E+03  0.00000000000E+00 0. -1.
          2   -1    0    0  502    0 -0.00000000000E+00 -0.00000000000E+00 -0.39126651581E+03  0.39126651581E+03  0.00000000000E+00 0. -1.
         25    1    1    2    0    0  0.37186936255E+03  0.47033648581E+02  0.24229882414E+03  0.46350049307E+03  0.12500000000E+03 0.  0.
         21    1    1    2  503  501 -0.14696512548E+02 -0.34817924686E+02  0.12799449185E+03  0.13345735388E+03  0.00000000000E+00 0.  1.
          2    1    1    2  501    0 -0.35717285000E+03 -0.12215723895E+02 -0.16304946325E+03  0.39281903741E+03  0.00000000000E+00 0. -1.
<mgrwt>
<rscale>  4 0.38238733E+03</rscale>
<asrwt>0</asrwt>
<pdfrwt beam="1">  1       21 0.92078518E-01 0.38238733E+03</pdfrwt>
<pdfrwt beam="2">  1        2 0.60194849E-01 0.38238733E+03</pdfrwt>
<totfact> 0.94478141E+02</totfact>
</mgrwt>
</event>
<event>
 5    0  0.4930573E+000  0.2520439E+03  0.7546771E-02  0.1112020E+00
          2   -1    0    0  502    0 -0.00000000000E+00  0.00000000000E+00  0.25409620504E+04  0.25409620504E+04  0.00000000000E+00 0. -1.
         21   -1    0    0  503  502  0.00000000000E+00 -0.00000000000E+00 -0.60228016701E+03  0.60228016701E+03  0.00000000000E+00 0. -1.
         25    1    1    2    0    0 -0.46673199697E+02  0.25495943560E+03 -0.49808314316E+03  0.57523431649E+03  0.12500000000E+03 0.  0.
         21    1    1    2  503  501  0.28582817401E+02 -0.37195087451E+02 -0.51790953404E+02  0.69876711683E+02  0.00000000000E+00 0. -1.
          2    1    1    2  501    0  0.18090382296E+02 -0.21776434814E+03  0.24885559799E+04  0.24981311892E+04  0.00000000000E+00 0. -1.
<mgrwt>
<rscale>  4 0.25204390E+03</rscale>
<asrwt>0</asrwt>
<pdfrwt beam="1">  1       21 0.92658489E-01 0.25204390E+03</pdfrwt>
<pdfrwt beam="2">  1        2 0.39091723E+00 0.25204390E+03</pdfrwt>
<totfact> 0.46060428E+01</totfact>
</mgrwt>
</event>
<event>
 5    0  0.4930573E+000  0.2989543E+03  0.7546771E-02  0.1085765E+00
         21   -1    0    0  503  502  0.00000000000E+00  0.00000000000E+00  0.41405589753E+03  0.41405589753E+03  0.00000000000E+00 0. -1.
          2   -1    0    0  502    0 -0.00000000000E+00 -0.00000000000E+00 -0.62617774534E+03  0.62617774534E+03  0.00000000000E+00 0. -1.
         25    1    1    2    0    0 -0.24600338691E+03  0.14925701536E+03  0.28240285621E+03  0.42210389266E+03  0.12500000000E+03 0.  0.
         21    1    1    2  503  501  0.78409514875E+01 -0.21880976064E+02  0.24044101110E+02  0.33442135577E+02  0.00000000000E+00 0. -1.
          2    1    1    2  501    0  0.23816243542E+03 -0.12737603930E+03 -0.51856880514E+03  0.58468761462E+03  0.00000000000E+00 0. -1.
<mgrwt>
<rscale>  4 0.29895432E+03</rscale>
<asrwt>0</asrwt>
<pdfrwt beam="1">  1       21 0.63700908E-01 0.29895432E+03</pdfrwt>
<pdfrwt beam="2">  1        2 0.96335037E-01 0.29895432E+03</pdfrwt>
<totfact> 0.13142453E+03</totfact>
</mgrwt>
</event>
<event>
 5    0  0.4930573E+000  0.3057605E+03  0.7546771E-02  0.1082396E+00
          2   -1    0    0  502    0 -0.00000000000E+00  0.00000000000E+00  0.13487425226E+04  0.13487425226E+04  0.00000000000E+00 0. -1.
         21   -1    0    0  503  502  0.00000000000E+00 -0.00000000000E+00 -0.20409407431E+03  0.20409407431E+03  0.00000000000E+00 0. -1.
         25    1    1    2    0    0  0.27798075796E+03  0.21649946828E+03  0.42185381555E+03  0.56367629297E+03  0.12500000000E+03 0.  0.
         21    1    1    2  503  501 -0.18391074298E+03  0.33639017003E+02 -0.30891802785E+02  0.18949682933E+03  0.00000000000E+00 0. -1.
          2    1    1    2  501    0 -0.94070014982E+02 -0.25013848528E+03  0.75368643548E+03  0.79966347457E+03  0.00000000000E+00 0. -1.
<mgrwt>
<rscale>  4 0.30576049E+03</rscale>
<asrwt>0</asrwt>
<pdfrwt beam="1">  1       21 0.31399089E-01 0.30576049E+03</pdfrwt>
<pdfrwt beam="2">  1        2 0.20749884E+00 0.30576049E+03</pdfrwt>
<totfact> 0.19604289E+03</totfact>
</mgrwt>
</event>
<event>
 5    0  0.4930573E+000  0.1980032E+03  0.7546771E-02  0.1151435E+00
         21   -1    0    0  503  502  0.00000000000E+00  0.00000000000E+00  0.18384362422E+02  0.18384362422E+02  0.00000000000E+00 0.  1.
          2   -1    0    0  502    0 -0.00000000000E+00 -0.00000000000E+00 -0.30684961583E+04  0.30684961583E+04  0.00000000000E+00 0.  1.
         25    1    1    2    0    0 -0.42708776813E+02 -0.19550266903E+03 -0.11856328387E+04  0.12088819469E+04  0.12500000000E+03 0.  0.
         21    1    1    2  503  501  0.22715727046E+02  0.55558793959E+02 -0.24044683778E+03  0.24782547416E+03  0.00000000000E+00 0.  1.
          2    1    1    2  501    0  0.19993049767E+02  0.13994387507E+03 -0.16240321193E+04  0.16301730997E+04  0.00000000000E+00 0.  1.
<mgrwt>
<rscale>  4 0.19800321E+03</rscale>
<asrwt>0</asrwt>
<pdfrwt beam="1">  1       21 0.28283615E-02 0.19800321E+03</pdfrwt>
<pdfrwt beam="2">  1        2 0.47207666E+00 0.19800321E+03</pdfrwt>
<totfact> 0.17412545E+04</totfact>
</mgrwt>
</event>
<event>
 5    0  0.4930573E+000  0.1920657E+03  0.7546771E-02  0.1156611E+00
         -3   -1    0    0    0  501 -0.00000000000E+00  0.00000000000E+00  0.24988623063E+03  0.24988623063E+03  0.00000000000E+00 0.  1.
         21   -1    0    0  501  502  0.00000000000E+00 -0.00000000000E+00 -0.14443671194E+04  0.14443671194E+04  0.00000000000E+00 0.  1.
         25    1    1    2    0    0  0.23971746089E+03  0.75092923370E+02 -0.31532303901E+03  0.42208651617E+03  0.12500000000E+03 0.  0.
         21    1    1    2  503  502 -0.12023276612E+03 -0.66461161665E+02 -0.10525160659E+04  0.10614438624E+04  0.00000000000E+00 0.  1.
         -3    1    1    2    0  503 -0.11948469478E+03 -0.86317617049E+01  0.17335821615E+03  0.21072297146E+03  0.00000000000E+00 0.  1.
<mgrwt>
<rscale>  4 0.19206568E+03</rscale>
<asrwt>0</asrwt>
<pdfrwt beam="1">  1       21 0.22221033E+00 0.19206568E+03</pdfrwt>
<pdfrwt beam="2">  1       -3 0.38444036E-01 0.19206568E+03</pdfrwt>
<totfact> 0.32279620E+01</totfact>
</mgrwt>
</event>
<event>
 5    0  0.4930573E+000  0.2474480E+03  0.7546771E-02  0.1114928E+00
         21   -1    0    0  503  502  0.00000000000E+00  0.00000000000E+00  0.25234012605E+03  0.25234012605E+03  0.00000000000E+00 0. -1.
          1   -1    0    0  502    0 -0.00000000000E+00 -0.00000000000E+00 -0.32170308082E+03  0.32170308082E+03  0.00000000000E+00 0. -1.
         25    1    1    2    0    0 -0.20067263876E+03  0.43759410223E+01 -0.72820959744E+02  0.24741978293E+03  0.12500000000E+03 0.  0.
         21    1    1    2  503  501 -0.24123986545E+02  0.12063634718E+02  0.83257354513E+02  0.87517341652E+02  0.00000000000E+00 0. -1.
          1    1    1    2  501    0  0.22479662531E+03 -0.16439575740E+02 -0.79799349535E+02  0.23910608229E+03  0.00000000000E+00 0. -1.
<mgrwt>
<rscale>  4 0.24744800E+03</rscale>
<asrwt>0</asrwt>
<pdfrwt beam="1">  1       21 0.38821558E-01 0.24744800E+03</pdfrwt>
<pdfrwt beam="2">  1        1 0.49492782E-01 0.24744800E+03</pdfrwt>
<totfact> 0.55339645E+03</totfact>
</mgrwt>
</event>
<event>
 5    0  0.4930573E+000  0.2689812E+03  0.7546771E-02  0.1101864E+00
          2   -1    0    0  502    0 -0.00000000000E+00  0.00000000000E+00  0.11969986183E+04  0.11969986183E+04  0.00000000000E+00 0. -1.
         21   -1    0    0  503  502  0.00000000000E+00 -0.00000000000E+00 -0.12054065530E+03  0.12054065530E+03  0.00000000000E+00 0. -1.
         25    1    1    2    0    0 -0.20089231171E+03 -0.20190326481E+03  0.18983709746E+03  0.36439782219E+03  0.12500000000E+03 0.  0.
         21    1    1    2  503  501  0.65326888509E+02  0.15631389133E+02  0.45723218071E+02  0.81256109674E+02  0.00000000000E+00 0. -1.
          2    1    1    2  501    0  0.13556542320E+03  0.18627187567E+03  0.84089764747E+03  0.87188534175E+03  0.00000000000E+00 0. -1.
<mgrwt>
<rscale>  4 0.26898116E+03</rscale>
<asrwt>0</asrwt>
<pdfrwt beam="1">  1       21 0.18544717E-01 0.26898116E+03</pdfrwt>
<pdfrwt beam="2">  1        2 0.18415363E+00 0.26898116E+03</pdfrwt>
<totfact> 0.66386606E+03</totfact>
</mgrwt>
</event>
<event>
 5    0  0.4930573E+000  0.3754457E+03  0.7546771E-02  0.1052630E+00
         21   -1    0    0  503  502  0.00000000000E+00  0.00000000000E+00  0.28295430425E+03  0.28295430425E+03  0.00000000000E+00 0.  1.
          2   -1    0    0  502    0 -0.00000000000E+00 -0.00000000000E+00 -0.12160963743E+04  0.12160963743E+04  0.00000000000E+00 0.  1.
         25    1    1    2    0    0  0.35689116562E+02 -0.36885656321E+03 -0.38759057378E+03  0.55061813460E+03  0.12500000000E+03 0.  0.
         21    1    1    2  503  501 -0.89945366441E+01  0.23982932077E+02  0.16032527276E+03  0.16235847931E+03  0.00000000000E+00 0.  1.
          2    1    1    2  501    0 -0.26694579918E+02  0.34487363113E+03 -0.70587676906E+03  0.78607406467E+03  0.00000000000E+00 0.  1.
<mgrwt>
<rscale>  4 0.37544567E+03</rscale>
<asrwt>0</asrwt>
<pdfrwt beam="1">  1       21 0.43531432E-01 0.37544567E+03</pdfrwt>
<pdfrwt beam="2">  1        2 0.18709175E+00 0.37544567E+03</pdfrwt>
<totfact> 0.11735924E+03</totfact>
</mgrwt>
</event>
<event>
 5    0  0.4930573E+000  0.3484027E+03  0.7546771E-02  0.1063273E+00
         21   -1    0    0  503  502  0.00000000000E+00  0.00000000000E+00  0.93772484192E+02  0.93772484192E+02  0.00000000000E+00 0. -1.
          2   -1    0    0  502    0 -0.00000000000E+00 -0.00000000000E+00 -0.18377749823E+04  0.18377749823E+04  0.00000000000E+00 0. -1.
         25    1    1    2    0    0  0.31677830820E+03 -0.17085473408E+02 -0.43931201966E+03  0.55611191370E+03  0.12500000000E+03 0.  0.
         21    1    1    2  503  501  0.88278636877E+01 -0.23941877847E+02  0.43484785293E+01  0.25885400473E+02  0.00000000000E+00 0. -1.
          2    1    1    2  501    0 -0.32560617189E+03  0.41027351255E+02 -0.13090389570E+04  0.13495501523E+04  0.00000000000E+00 0. -1.
<mgrwt>
<rscale>  4 0.34840270E+03</rscale>
<asrwt>0</asrwt>
<pdfrwt beam="1">  1       21 0.14426536E-01 0.34840270E+03</pdfrwt>
<pdfrwt beam="2">  1        2 0.28273461E+00 0.34840270E+03</pdfrwt>
<totfact> 0.46452589E+03</totfact>
</mgrwt>
</event>
<event>
 5    0  0.4930573E+000  0.2133394E+03  0.7546771E-02  0.1138948E+00
          2   -1    0    0  502    0 -0.00000000000E+00  0.00000000000E+00  0.93400518587E+03  0.93400518587E+03  0.00000000000E+00 0. -1.
         21   -1    0    0  503  502  0.00000000000E+00 -0.00000000000E+00 -0.42945461593E+03  0.42945461593E+03  0.00000000000E+00 0. -1.
         25    1    1    2    0    0  0.27139441835E+03  0.13581439688E+03  0.12624231901E+03  0.35165694052E+03  0.12500000000E+03 0.  0.
         21    1    1    2  503  501 -0.12171612459E+03 -0.74440136469E+02 -0.29053331086E+03  0.32367538309E+03  0.00000000000E+00 0. -1.
          2    1    1    2  501    0 -0.14967829376E+03 -0.61374260407E+02  0.66884156179E+03  0.68812747819E+03  0.00000000000E+00 0. -1.
<mgrwt>
<rscale>  4 0.21333944E+03</rscale>
<asrwt>0</asrwt>
<pdfrwt beam="1">  1       21 0.66069941E-01 0.21333944E+03</pdfrwt>
<pdfrwt beam="2">  1        2 0.14369311E+00 0.21333944E+03</pdfrwt>
<totfact> 0.76161933E+02</totfact>
</mgrwt>
</event>
<event>
 5    0  0.4930573E+000  0.2368475E+03  0.7546771E-02  0.1121911E+00
         -2   -1    0    0    0  501 -0.00000000000E+00  0.00000000000E+00  0.17656429997E+03  0.17656429997E+03  0.00000000000E+00 0. -1.
         21   -1    0    0  501  502  0.00000000000E+00 -0.00000000000E+00 -0.49025159038E+03  0.49025159038E+03  0.00000000000E+00 0. -1.
         25    1    1    2    0    0 -0.22669874787E+03 -0.68961097154E+02 -0.29711438517E+03  0.40006238649E+03  0.12500000000E+03 0.  0.
         21    1    1    2  503  502  0.15758864857E+03  0.42916683025E+02 -0.67831862388E+02  0.17685357049E+03  0.00000000000E+00 0. -1.
         -2    1    1    2    0  503  0.69110099301E+02  0.26044414129E+02  0.51258957147E+02  0.89899933374E+02  0.00000000000E+00 0. -1.
<mgrwt>
<rscale>  4 0.23684746E+03</rscale>
<asrwt>0</asrwt>
<pdfrwt beam="1">  1       21 0.75423321E-01 0.23684746E+03</pdfrwt>
<pdfrwt beam="2">  1       -2 0.27163739E-01 0.23684746E+03</pdfrwt>
<totfact> 0.15181508E+03</totfact>
</mgrwt>
</event>
<event>
 5    0  0.4930573E+000  0.2744728E+03  0.7546771E-02  0.1098747E+00
         21   -1    0    0  501  502  0.00000000000E+00  0.00000000000E+00  0.82963957092E+03  0.82963957092E+03  0.00000000000E+00 0.  1.
         -2   -1    0    0    0  501 -0.00000000000E+00 -0.00000000000E+00 -0.34330215961E+03  0.34330215961E+03  0.00000000000E+00 0.  1.
         25    1    1    2    0    0  0.20038064607E+03  0.83920104313E+02 -0.46782615624E+02  0.25496784180E+03  0.12500000000E+03 0.  0.
         21    1    1    2  503  502  0.58435131613E+02 -0.74901709036E+01  0.62887176840E+03  0.63162525943E+03  0.00000000000E+00 0.  1.
         -2    1    1    2    0  503 -0.25881577769E+03 -0.76429933410E+02 -0.95751741465E+02  0.28634862929E+03  0.00000000000E+00 0.  1.
<mgrwt>
<rscale>  4 0.27447280E+03</rscale>
<asrwt>0</asrwt>
<pdfrwt beam="1">  1       21 0.12763686E+00 0.27447280E+03</pdfrwt>
<pdfrwt beam="2">  1       -2 0.52815717E-01 0.27447280E+03</pdfrwt>
<totfact> 0.12066145E+02</totfact>
</mgrwt>
</event>
<event>
 5    0  0.4930573E+000  0.2097611E+03  0.7546771E-02  0.1141755E+00
          2   -1    0    0  502    0 -0.00000000000E+00  0.00000000000E+00  0.72537081709E+03  0.72537081709E+03  0.00000000000E+00 0.  1.
         21   -1    0    0  503  502  0.00000000000E+00 -0.00000000000E+00 -0.19034583967E+03  0.19034583967E+03  0.00000000000E+00 0.  1.
         25    1    1    2    0    0  0.12143799993E+03 -0.16310550656E+03  0.59436160025E+03  0.64050082432E+03  0.12500000000E+03 0.  0.
         21    1    1    2  503  501 -0.14171228371E+03  0.87796320114E+02 -0.92292924369E+02  0.19054802300E+03  0.00000000000E+00 0.  1.
          2    1    1    2  501    0  0.20274283782E+02  0.75309186446E+02  0.32956301536E+02  0.84667809449E+02  0.00000000000E+00 0.  1.
<mgrwt>
<rscale>  4 0.20976111E+03</rscale>
<asrwt>0</asrwt>
<pdfrwt beam="1">  1       21 0.29283976E-01 0.20976111E+03</pdfrwt>
<pdfrwt beam="2">  1        2 0.11159551E+00 0.20976111E+03</pdfrwt>
<totfact> 0.56256311E+03</totfact>
</mgrwt>
</event>
<event>
 5    0  0.4930573E+000  0.2410047E+03  0.7546771E-02  0.1119125E+00
          2   -1    0    0  502    0 -0.00000000000E+00  0.00000000000E+00  0.14610401683E+04  0.14610401683E+04  0.00000000000E+00 0. -1.
         21   -1    0    0  503  502  0.00000000000E+00 -0.00000000000E+00 -0.90214835359E+02  0.90214835359E+02  0.00000000000E+00 0.  1.
         25    1    1    2    0    0 -0.18294311302E+03  0.11309107058E+03  0.13341798241E+03  0.28228200594E+03  0.12500000000E+03 0.  0.
         21    1    1    2  503  501 -0.41586886715E+01 -0.28830014699E+02  0.22362325935E+02  0.36722446272E+02  0.00000000000E+00 0. -1.
          2    1    1    2  501    0  0.18710180170E+03 -0.84261055882E+02  0.12150450246E+04  0.12322505515E+04  0.00000000000E+00 0. -1.
<mgrwt>
<rscale>  4 0.24100467E+03</rscale>
<asrwt>0</asrwt>
<pdfrwt beam="1">  1       21 0.13879207E-01 0.24100467E+03</pdfrwt>
<pdfrwt beam="2">  1        2 0.22477539E+00 0.24100467E+03</pdfrwt>
<totfact> 0.81689148E+03</totfact>
</mgrwt>
</event>
<event>
 5    0  0.4930573E+000  0.2659929E+03  0.7546771E-02  0.1103595E+00
         -2   -1    0    0    0  501 -0.00000000000E+00  0.00000000000E+00  0.13635078939E+04  0.13635078939E+04  0.00000000000E+00 0. -1.
         21   -1    0    0  501  502  0.00000000000E+00 -0.00000000000E+00 -0.10692670039E+03  0.10692670039E+03  0.00000000000E+00 0. -1.
         25    1    1    2    0    0 -0.64468594327E+02 -0.21261566990E+03  0.94178038412E+03  0.97567254479E+03  0.12500000000E+03 0.  0.
         21    1    1    2  503  502 -0.66695093379E+02 -0.50377885391E+02  0.10226172736E+03  0.13207432642E+03  0.00000000000E+00 0. -1.
         -2    1    1    2    0  503  0.13116368771E+03  0.26299355529E+03  0.21253908207E+03  0.36268772312E+03  0.00000000000E+00 0. -1.
<mgrwt>
<rscale>  4 0.26599289E+03</rscale>
<asrwt>0</asrwt>
<pdfrwt beam="1">  1       21 0.16450263E-01 0.26599289E+03</pdfrwt>
<pdfrwt beam="2">  1       -2 0.20977043E+00 0.26599289E+03</pdfrwt>
<totfact> 0.33639749E+02</totfact>
</mgrwt>
</event>
<event>
 5    0  0.4930573E+000  0.1931847E+03  0.7546771E-02  0.1155620E+00
         21   -1    0    0  503  502  0.00000000000E+00  0.00000000000E+00  0.57546936228E+02  0.57546936228E+02  0.00000000000E+00 0. -1.
          1   -1    0    0  502    0 -0.00000000000E+00 -0.00000000000E+00 -0.30251418134E+04  0.30251418134E+04  0.00000000000E+00 0.  1.
         25    1    1    2    0    0  0.21278201694E+03 -0.62627100571E+02 -0.18218722603E+04  0.18395765473E+04  0.12500000000E+03 0.  0.
         21    1    1    2  503  501 -0.13828511972E+03  0.36030462184E+02 -0.60781409135E+02  0.15529117244E+03  0.00000000000E+00 0. -1.
          1    1    1    2  501    0 -0.74496897220E+02  0.26596638387E+02 -0.10849412077E+04  0.10878210299E+04  0.00000000000E+00 0.  1.
<mgrwt>
<rscale>  4 0.19318469E+03</rscale>
<asrwt>0</asrwt>
<pdfrwt beam="1">  1       21 0.88533728E-02 0.19318469E+03</pdfrwt>
<pdfrwt beam="2">  1        1 0.46540654E+00 0.19318469E+03</pdfrwt>
<totfact> 0.81166938E+02</totfact>
</mgrwt>
</event>
<event>
 5    0  0.4930573E+000  0.2615304E+03  0.7546771E-02  0.1106227E+00
         21   -1    0    0  503  502  0.00000000000E+00  0.00000000000E+00  0.17658308874E+03  0.17658308874E+03  0.00000000000E+00 0.  1.
          2   -1    0    0  502    0 -0.00000000000E+00 -0.00000000000E+00 -0.24073502493E+04  0.24073502493E+04  0.00000000000E+00 0.  1.
         25    1    1    2    0    0  0.15583561311E+02 -0.28158415070E+03 -0.64254761962E+02  0.31509705766E+03  0.12500000000E+03 0.  0.
         21    1    1    2  503  501 -0.91878890047E+01  0.54391898881E+02  0.28498952387E+02  0.62089340917E+02  0.00000000000E+00 0.  1.
          2    1    1    2  501    0 -0.63956723065E+01  0.22719225182E+03 -0.21950113510E+04  0.22067469395E+04  0.00000000000E+00 0.  1.
<mgrwt>
<rscale>  4 0.26153041E+03</rscale>
<asrwt>0</asrwt>
<pdfrwt beam="1">  1       21 0.27166628E-01 0.26153041E+03</pdfrwt>
<pdfrwt beam="2">  1        2 0.37036160E+00 0.26153041E+03</pdfrwt>
<totfact> 0.72504304E+02</totfact>
</mgrwt>
</event>
<event>
 5    0  0.4930573E+000  0.2259457E+03  0.7546771E-02  0.1129526E+00
         -4   -1    0    0    0  501 -0.00000000000E+00  0.00000000000E+00  0.15546728617E+03  0.15546728617E+03  0.00000000000E+00 0.  1.
         21   -1    0    0  501  502  0.00000000000E+00 -0.00000000000E+00 -0.75957117076E+03  0.75957117076E+03  0.00000000000E+00 0. -1.
         25    1    1    2    0    0 -0.34500294597E+02  0.20620864725E+03 -0.57788480095E+03  0.62712687687E+03  0.12500000000E+03 0.  0.
         21    1    1    2  503  502  0.12276793618E+02 -0.21617142087E+02 -0.88427837825E+02  0.91855881662E+02  0.00000000000E+00 0.  1.
         -4    1    1    2    0  503  0.22223500979E+02 -0.18459150517E+03  0.62208754188E+02  0.19605569840E+03  0.00000000000E+00 0.  1.
<mgrwt>
<rscale>  4 0.22594573E+03</rscale>
<asrwt>0</asrwt>
<pdfrwt beam="1">  1       21 0.11685710E+00 0.22594573E+03</pdfrwt>
<pdfrwt beam="2">  1       -4 0.23918044E-01 0.22594573E+03</pdfrwt>
<totfact> 0.38331233E+02</totfact>
</mgrwt>
</event>
<event>
 5    0  0.4930573E+000  0.2802847E+03  0.7546771E-02  0.1095534E+00
         21   -1    0    0  503  502  0.00000000000E+00  0.00000000000E+00  0.37911116757E+03  0.37911116757E+03  0.00000000000E+00 0.  1.
          1   -1    0    0  502    0 -0.00000000000E+00 -0.00000000000E+00 -0.53490312005E+03  0.53490312005E+03  0.00000000000E+00 0. -1.
         25    1    1    2    0    0  0.20749989110E+03  0.18067789015E+02 -0.98077724570E+02  0.26196734503E+03  0.12500000000E+03 0.  0.
         21    1    1    2  503  501 -0.26530042884E+03  0.59501269649E+01  0.23393373892E+03  0.35375799038E+03  0.00000000000E+00 0.  1.
          1    1    1    2  501    0  0.57800537738E+02 -0.24017915980E+02 -0.29164796684E+03  0.29828895221E+03  0.00000000000E+00 0. -1.
<mgrwt>
<rscale>  4 0.28028471E+03</rscale>
<asrwt>0</asrwt>
<pdfrwt beam="1">  1       21 0.58324795E-01 0.28028471E+03</pdfrwt>
<pdfrwt beam="2">  1        1 0.82292788E-01 0.28028471E+03</pdfrwt>
<totfact> 0.12101667E+03</totfact>
</mgrwt>
</event>
<event>
 5    0  0.4930573E+000  0.1859980E+03  0.7546771E-02  0.1162121E+00
         21   -1    0    0  503  502  0.00000000000E+00  0.00000000000E+00  0.19736866098E+03  0.19736866098E+03  0.00000000000E+00 0.  1.
          2   -1    0    0  502    0 -0.00000000000E+00 -0.00000000000E+00 -0.15392641237E+04  0.15392641237E+04  0.00000000000E+00 0.  1.
         25    1    1    2    0    0 -0.71322517410E+02 -0.20808512916E+03 -0.42845510379E+03  0.49757923834E+03  0.12500000000E+03 0.  0.
         21    1    1    2  503  501  0.18644582381E+02  0.90804392125E+02  0.14540001948E+03  0.17243614396E+03  0.00000000000E+00 0.  1.
          2    1    1    2  501    0  0.52677935030E+02  0.11728073703E+03 -0.10588403784E+04  0.10666174024E+04  0.00000000000E+00 0.  1.
<mgrwt>
<rscale>  4 0.18599802E+03</rscale>
<asrwt>0</asrwt>
<pdfrwt beam="1">  1       21 0.30364410E-01 0.18599802E+03</pdfrwt>
<pdfrwt beam="2">  1        2 0.23680986E+00 0.18599802E+03</pdfrwt>
<totfact> 0.17485412E+03</totfact>
</mgrwt>
</event>
<event>
 5    0  0.5231287E+000  0.3177837E+03  0.7546771E-02  0.1076674E+00
         21   -1    0    0  503  502  0.00000000000E+00  0.00000000000E+00  0.47638834193E+03  0.47638834193E+03  0.00000000000E+00 0.  1.
          1   -1    0    0  502    0 -0.00000000000E+00 -0.00000000000E+00 -0.13604557537E+04  0.13604557537E+04  0.00000000000E+00 0. -1.
         25    1    1    2    0    0 -0.15565568288E+03  0.24417720107E+03  0.37224911368E+03  0.48789916967E+03  0.12500000000E+03 0.  0.
         21    1    1    2  503  501 -0.35858533888E+02 -0.23247346157E+02  0.14344936494E+02  0.45078273691E+02  0.00000000000E+00 0. -1.
          1    1    1    2  501    0  0.19151421677E+03 -0.22092985491E+03 -0.12706614620E+04  0.13038666523E+04  0.00000000000E+00 0. -1.
<mgrwt>
<rscale>  4 0.31778375E+03</rscale>
<asrwt>0</asrwt>
<pdfrwt beam="1">  1       21 0.73290514E-01 0.31778375E+03</pdfrwt>
<pdfrwt beam="2">  1        1 0.20930088E+00 0.31778375E+03</pdfrwt>
<totfact> 0.15502930E+02</totfact>
</mgrwt>
</event>
<event>
 5    0  0.4930573E+000  0.2632514E+03  0.7546771E-02  0.1105205E+00
          2   -1    0    0  502    0 -0.00000000000E+00  0.00000000000E+00  0.25700095309E+04  0.25700095309E+04  0.00000000000E+00 0.  1.
         21   -1    0    0  503  502  0.00000000000E+00 -0.00000000000E+00 -0.95468958542E+02  0.95468958542E+02  0.00000000000E+00 0. -1.
         25    1    1    2    0    0 -0.69254614239E+02 -0.21463642123E+03  0.34060168204E+03  0.42719960291E+03  0.12500000000E+03 0.  0.
         21    1    1    2  503  501  0.19364907728E+02 -0.12645088008E+02 -0.43060741513E+02  0.48878680032E+02  0.00000000000E+00 0. -1.
          2    1    1    2  501    0  0.49889706511E+02  0.22728150924E+03  0.21769996319E+04  0.21894002065E+04  0.00000000000E+00 0.  1.
<mgrwt>
<rscale>  4 0.26325139E+03</rscale>
<asrwt>0</asrwt>
<pdfrwt beam="1">  1       21 0.14687534E-01 0.26325139E+03</pdfrwt>
<pdfrwt beam="2">  1        2 0.39538603E+00 0.26325139E+03</pdfrwt>
<totfact> 0.18782053E+03</totfact>
</mgrwt>
</event>
<event>
 5    0  0.4930573E+000  0.3181260E+03  0.7546771E-02  0.1076515E+00
         21   -1    0    0  503  502  0.00000000000E+00  0.00000000000E+00  0.12448803255E+03  0.12448803255E+03  0.00000000000E+00 0.  1.
          2   -1    0    0  502    0 -0.00000000000E+00 -0.00000000000E+00 -0.15750109867E+04  0.15750109867E+04  0.00000000000E+00 0.  1.
         25    1    1    2    0    0 -0.27013380988E+03 -0.24122970008E+02 -0.16032226302E+03  0.33894309396E+03  0.12500000000E+03 0.  0.
         21    1    1    2  503  501 -0.25065508768E+02 -0.39079654104E+01  0.97775328906E+01  0.27187351340E+02  0.00000000000E+00 0.  1.
          2    1    1    2  501    0  0.29519931865E+03  0.28030935418E+02 -0.12999782240E+04  0.13333685740E+04  0.00000000000E+00 0.  1.
<mgrwt>
<rscale>  4 0.31812598E+03</rscale>
<asrwt>0</asrwt>
<pdfrwt beam="1">  1       21 0.19152006E-01 0.31812598E+03</pdfrwt>
<pdfrwt beam="2">  1        2 0.24230937E+00 0.31812598E+03</pdfrwt>
<totfact> 0.38181010E+03</totfact>
</mgrwt>
</event>
<event>
 5    0  0.4930573E+000  0.2574673E+03  0.7546771E-02  0.1108675E+00
         -1   -1    0    0    0  501 -0.00000000000E+00  0.00000000000E+00  0.24165326593E+04  0.24165326593E+04  0.00000000000E+00 0. -1.
         21   -1    0    0  501  502  0.00000000000E+00 -0.00000000000E+00 -0.27194277648E+02  0.27194277648E+02  0.00000000000E+00 0.  1.
         25    1    1    2    0    0  0.62360830564E+02  0.20247887440E+03  0.11154166252E+04  0.11422196880E+04  0.12500000000E+03 0.  0.
         21    1    1    2  503  502  0.17903613900E+02  0.20184736117E+02  0.82407821017E+02  0.86712236320E+02  0.00000000000E+00 0.  1.
         -1    1    1    2    0  503 -0.80264444464E+02 -0.22266361052E+03  0.11915139355E+04  0.12147950127E+04  0.00000000000E+00 0. -1.
<mgrwt>
<rscale>  4 0.25746735E+03</rscale>
<asrwt>0</asrwt>
<pdfrwt beam="1">  1       21 0.41837369E-02 0.25746735E+03</pdfrwt>
<pdfrwt beam="2">  1       -1 0.37177409E+00 0.25746735E+03</pdfrwt>
<totfact> 0.46298708E+02</totfact>
</mgrwt>
</event>
<event>
 5    0  0.4930573E+000  0.3159749E+03  0.7546771E-02  0.1077517E+00
         21   -1    0    0  503  502  0.00000000000E+00  0.00000000000E+00  0.85529208516E+02  0.85529208516E+02  0.00000000000E+00 0. -1.
          2   -1    0    0  502    0 -0.00000000000E+00 -0.00000000000E+00 -0.16453872195E+04  0.16453872195E+04  0.00000000000E+00 0.  1.
         25    1    1    2    0    0 -0.13326166237E+03  0.26274952195E+03 -0.50781494533E+03  0.60024744951E+03  0.12500000000E+03 0.  0.
         21    1    1    2  503  501  0.42011079819E+02  0.11769475086E+02 -0.44360151237E+01  0.43853501588E+02  0.00000000000E+00 0. -1.
          2    1    1    2  501    0  0.91250582553E+02 -0.27451899703E+03 -0.10476070505E+04  0.10868154769E+04  0.00000000000E+00 0.  1.
<mgrwt>
<rscale>  4 0.31597494E+03</rscale>
<asrwt>0</asrwt>
<pdfrwt beam="1">  1       21 0.13158341E-01 0.31597494E+03</pdfrwt>
<pdfrwt beam="2">  1        2 0.25313646E+00 0.31597494E+03</pdfrwt>
<totfact> 0.70183852E+03</totfact>
</mgrwt>
</event>
<event>
 5    0  0.4930573E+000  0.3305899E+03  0.7546771E-02  0.1070876E+00
         21   -1    0    0  503  502  0.00000000000E+00  0.00000000000E+00  0.29191439932E+03  0.29191439932E+03  0.00000000000E+00 0.  1.
          2   -1    0    0  502    0 -0.00000000000E+00 -0.00000000000E+00 -0.13367898098E+04  0.13367898098E+04  0.00000000000E+00 0.  1.
         25    1    1    2    0    0 -0.43787272048E+03  0.16260815784E+03 -0.92732600717E+03  0.10458166455E+04  0.12500000000E+03 0.  0.
         21    1    1    2  503  501  0.28931421794E+03 -0.15668337660E+02  0.74415756142E+02  0.29914197009E+03  0.00000000000E+00 0.  1.
          2    1    1    2  501    0  0.14855850253E+03 -0.14693982018E+03 -0.19196515949E+03  0.28374559360E+03  0.00000000000E+00 0.  1.
<mgrwt>
<rscale>  4 0.33058989E+03</rscale>
<asrwt>0</asrwt>
<pdfrwt beam="1">  1       21 0.44909908E-01 0.33058989E+03</pdfrwt>
<pdfrwt beam="2">  1        2 0.20565997E+00 0.33058989E+03</pdfrwt>
<totfact> 0.95462288E+02</totfact>
</mgrwt>
</event>
<event>
 5    0  0.4930573E+000  0.3273234E+03  0.7546771E-02  0.1072327E+00
          2   -1    0    0  502    0 -0.00000000000E+00  0.00000000000E+00  0.25672062341E+04  0.25672062341E+04  0.00000000000E+00 0. -1.
         21   -1    0    0  503  502  0.00000000000E+00 -0.00000000000E+00 -0.50825787274E+02  0.50825787274E+02  0.00000000000E+00 0. -1.
         25    1    1    2    0    0 -0.44249133587E+02 -0.31193695901E+03  0.16969470363E+04  0.17304672480E+04  0.12500000000E+03 0.  0.
         21    1    1    2  503  501  0.34749804498E+02  0.14147514486E+02  0.15351384411E+03  0.15803227965E+03  0.00000000000E+00 0.  1.
          2    1    1    2  501    0  0.94993290891E+01  0.29778944452E+03  0.66591956634E+03  0.72953249369E+03  0.00000000000E+00 0. -1.
<mgrwt>
<rscale>  4 0.32732345E+03</rscale>
<asrwt>0</asrwt>
<pdfrwt beam="1">  1       21 0.78193539E-02 0.32732345E+03</pdfrwt>
<pdfrwt beam="2">  1        2 0.39495470E+00 0.32732345E+03</pdfrwt>
<totfact> 0.56846494E+03</totfact>
</mgrwt>
</event>
<event>
 5    0  0.4930573E+000  0.2367793E+03  0.7546771E-02  0.1121957E+00
          2   -1    0    0  502    0 -0.00000000000E+00  0.00000000000E+00  0.44663646069E+03  0.44663646069E+03  0.00000000000E+00 0.  1.
         21   -1    0    0  503  502  0.00000000000E+00 -0.00000000000E+00 -0.14224247275E+03  0.14224247275E+03  0.00000000000E+00 0.  1.
         25    1    1    2    0    0 -0.20244733997E+03 -0.24726720142E+02  0.24571541556E+03  0.34292477542E+03  0.12500000000E+03 0.  0.
         21    1    1    2  503  501  0.44075527857E+01  0.25105280121E+02 -0.20462100914E+02  0.32686376142E+02  0.00000000000E+00 0.  1.
          2    1    1    2  501    0  0.19803978719E+03 -0.37855997923E+00  0.79140673290E+02  0.21326778188E+03  0.00000000000E+00 0.  1.
<mgrwt>
<rscale>  4 0.23677933E+03</rscale>
<asrwt>0</asrwt>
<pdfrwt beam="1">  1       21 0.21883458E-01 0.23677933E+03</pdfrwt>
<pdfrwt beam="2">  1        2 0.68713301E-01 0.23677933E+03</pdfrwt>
<totfact> 0.17086405E+04</totfact>
</mgrwt>
</event>
<event>
 5    0  0.4930573E+000  0.3046630E+03  0.7546771E-02  0.1082933E+00
         21   -1    0    0  503  502  0.00000000000E+00  0.00000000000E+00  0.47365380790E+02  0.47365380790E+02  0.00000000000E+00 0.  1.
          2   -1    0    0  502    0 -0.00000000000E+00 -0.00000000000E+00 -0.19134996203E+04  0.19134996203E+04  0.00000000000E+00 0.  1.
         25    1    1    2    0    0 -0.27278487228E+03  0.52753887309E+02 -0.10047726829E+04  0.10499465241E+04  0.12500000000E+03 0.  0.
         21    1    1    2  503  501  0.12511556897E+03 -0.10260750733E+02 -0.24012148450E+03  0.27095666798E+03  0.00000000000E+00 0.  1.
          2    1    1    2  501    0  0.14766930330E+03 -0.42493136576E+02 -0.62124007213E+03  0.63996180902E+03  0.00000000000E+00 0.  1.
<mgrwt>
<rscale>  4 0.30466303E+03</rscale>
<asrwt>0</asrwt>
<pdfrwt beam="1">  1       21 0.72869820E-02 0.30466303E+03</pdfrwt>
<pdfrwt beam="2">  1        2 0.29438454E+00 0.30466303E+03</pdfrwt>
<totfact> 0.14567428E+04</totfact>
</mgrwt>
</event>
<event>
 5    0  0.4930573E+000  0.2902370E+03  0.7546771E-02  0.1090225E+00
         21   -1    0    0  503  502  0.00000000000E+00  0.00000000000E+00  0.21805822714E+03  0.21805822714E+03  0.00000000000E+00 0. -1.
          2   -1    0    0  502    0 -0.00000000000E+00 -0.00000000000E+00 -0.59376034345E+03  0.59376034345E+03  0.00000000000E+00 0.  1.
         25    1    1    2    0    0  0.14464693405E+03 -0.23012933285E+03 -0.36521817658E+03  0.47211392891E+03  0.12500000000E+03 0.  0.
         21    1    1    2  503  501 -0.24674952304E+02  0.15433437970E+02  0.74110472510E+02  0.79620389439E+02  0.00000000000E+00 0. -1.
          2    1    1    2  501    0 -0.11997198174E+03  0.21469589488E+03 -0.84594412246E+02  0.26008425224E+03  0.00000000000E+00 0.  1.
<mgrwt>
<rscale>  4 0.29023697E+03</rscale>
<asrwt>0</asrwt>
<pdfrwt beam="1">  1       21 0.33547419E-01 0.29023697E+03</pdfrwt>
<pdfrwt beam="2">  1        2 0.91347746E-01 0.29023697E+03</pdfrwt>
<totfact> 0.53441372E+03</totfact>
</mgrwt>
</event>
<event>
 5    0  0.4930573E+000  0.2379930E+03  0.7546771E-02  0.1121137E+00
         21   -1    0    0  501  502  0.00000000000E+00  0.00000000000E+00  0.14418630597E+03  0.14418630597E+03  0.00000000000E+00 0. -1.
         -2   -1    0    0    0  501 -0.00000000000E+00 -0.00000000000E+00 -0.39092248142E+03  0.39092248142E+03  0.00000000000E+00 0. -1.
         25    1    1    2    0    0  0.28382877950E+02  0.20052450944E+03 -0.17918920975E+03  0.29790844154E+03  0.12500000000E+03 0.  0.
         21    1    1    2  503  502 -0.48905642686E+02 -0.72991909814E+02  0.68614970097E+01  0.88128661207E+02  0.00000000000E+00 0. -1.
         -2    1    1    2    0  503  0.20522764736E+02 -0.12753259963E+03 -0.74408462714E+02  0.14907168465E+03  0.00000000000E+00 0. -1.
<mgrwt>
<rscale>  4 0.23799300E+03</rscale>
<asrwt>0</asrwt>
<pdfrwt beam="1">  1       21 0.22182509E-01 0.23799300E+03</pdfrwt>
<pdfrwt beam="2">  1       -2 0.60141919E-01 0.23799300E+03</pdfrwt>
<totfact> 0.40390930E+03</totfact>
</mgrwt>
</event>
<event>
 5    0  0.4930573E+000  0.2453875E+03  0.7546771E-02  0.1116255E+00
         21   -1    0    0  503  502  0.00000000000E+00  0.00000000000E+00  0.19583003796E+03  0.19583003796E+03  0.00000000000E+00 0. -1.
          1   -1    0    0  502    0 -0.00000000000E+00 -0.00000000000E+00 -0.12803101874E+04  0.12803101874E+04  0.00000000000E+00 0. -1.
         25    1    1    2    0    0  0.56454798064E+02 -0.22751374831E+03  0.34277466522E+02  0.26786114799E+03  0.12500000000E+03 0.  0.
         21    1    1    2  503  501  0.61902783716E+01  0.17879537425E+03 -0.14227991986E+03  0.22858189122E+03  0.00000000000E+00 0. -1.
          1    1    1    2  501    0 -0.62645076436E+02  0.48718374062E+02 -0.97647769610E+03  0.97969718615E+03  0.00000000000E+00 0. -1.
<mgrwt>
<rscale>  4 0.24538749E+03</rscale>
<asrwt>0</asrwt>
<pdfrwt beam="1">  1       21 0.30127698E-01 0.24538749E+03</pdfrwt>
<pdfrwt beam="2">  1        1 0.19697080E+00 0.24538749E+03</pdfrwt>
<totfact> 0.11705810E+03</totfact>
</mgrwt>
</event>
<event>
 5    0  0.4930573E+000  0.3468828E+03  0.7546771E-02  0.1063902E+00
          1   -1    0    0  502    0 -0.00000000000E+00  0.00000000000E+00  0.95299954672E+03  0.95299954672E+03  0.00000000000E+00 0. -1.
         21   -1    0    0  503  502  0.00000000000E+00 -0.00000000000E+00 -0.18337232892E+03  0.18337232892E+03  0.00000000000E+00 0. -1.
         25    1    1    2    0    0  0.14446149048E+03 -0.34822254507E+03  0.37173772612E+03  0.54400551481E+03  0.12500000000E+03 0.  0.
         21    1    1    2  503  501 -0.12036871971E+03  0.26988929264E+03  0.15024924164E+03  0.33151725985E+03  0.00000000000E+00 0. -1.
          1    1    1    2  501    0 -0.24092770770E+02  0.78333252430E+02  0.24764025004E+03  0.26084910097E+03  0.00000000000E+00 0. -1.
<mgrwt>
<rscale>  4 0.34688282E+03</rscale>
<asrwt>0</asrwt>
<pdfrwt beam="1">  1       21 0.28211128E-01 0.34688282E+03</pdfrwt>
<pdfrwt beam="2">  1        1 0.14661531E+00 0.34688282E+03</pdfrwt>
<totfact> 0.22158021E+03</totfact>
</mgrwt>
</event>
<event>
 5    0  0.4930573E+000  0.2793356E+03  0.7546771E-02  0.1096052E+00
          2   -1    0    0  502    0 -0.00000000000E+00  0.00000000000E+00  0.11709211794E+04  0.11709211794E+04  0.00000000000E+00 0.  1.
         21   -1    0    0  503  502  0.00000000000E+00 -0.00000000000E+00 -0.75908289548E+03  0.75908289548E+03  0.00000000000E+00 0.  1.
         25    1    1    2    0    0 -0.53873429927E+02  0.21779283368E+03 -0.24163643657E+02  0.25796307203E+03  0.12500000000E+03 0.  0.
         21    1    1    2  503  501 -0.19817046501E+03 -0.13672377421E+03 -0.57689218317E+03  0.62511560103E+03  0.00000000000E+00 0.  1.
          2    1    1    2  501    0  0.25204389494E+03 -0.81069059470E+02  0.10128941108E+04  0.10469254019E+04  0.00000000000E+00 0.  1.
<mgrwt>
<rscale>  4 0.27933557E+03</rscale>
<asrwt>0</asrwt>
<pdfrwt beam="1">  1       21 0.11678198E+00 0.27933557E+03</pdfrwt>
<pdfrwt beam="2">  1        2 0.18014172E+00 0.27933557E+03</pdfrwt>
<totfact> 0.14036376E+02</totfact>
</mgrwt>
</event>
<event>
 5    0  0.4930573E+000  0.4379134E+03  0.7546771E-02  0.1031389E+00
          1   -1    0    0  502    0 -0.00000000000E+00  0.00000000000E+00  0.16935463751E+04  0.16935463751E+04  0.00000000000E+00 0. -1.
         21   -1    0    0  503  502  0.00000000000E+00 -0.00000000000E+00 -0.14279280803E+03  0.14279280803E+03  0.00000000000E+00 0. -1.
         25    1    1    2    0    0  0.39137235860E+03 -0.18464735396E+03  0.61690576421E+03  0.76384860431E+03  0.12500000000E+03 0.  0.
         21    1    1    2  503  501 -0.11394111200E+02  0.24727153924E+02 -0.19722488880E+02  0.33618960110E+02  0.00000000000E+00 0. -1.
          1    1    1    2  501    0 -0.37997824740E+03  0.15992020004E+03  0.95357029172E+03  0.10388716187E+04  0.00000000000E+00 0. -1.
<mgrwt>
<rscale>  4 0.43791339E+03</rscale>
<asrwt>0</asrwt>
<pdfrwt beam="1">  1       21 0.21968126E-01 0.43791339E+03</pdfrwt>
<pdfrwt beam="2">  1        1 0.26054558E+00 0.43791339E+03</pdfrwt>
<totfact> 0.10657594E+03</totfact>
</mgrwt>
</event>
<event>
 5    0  0.4930573E+000  0.2859923E+03  0.7546771E-02  0.1092460E+00
         21   -1    0    0  503  502  0.00000000000E+00  0.00000000000E+00  0.55384823658E+02  0.55384823658E+02  0.00000000000E+00 0. -1.
          2   -1    0    0  502    0 -0.00000000000E+00 -0.00000000000E+00 -0.23669249981E+04  0.23669249981E+04  0.00000000000E+00 0. -1.
         25    1    1    2    0    0 -0.25638468395E+03 -0.57774766446E+02 -0.18641613937E+04  0.18867415646E+04  0.12500000000E+03 0.  0.
         21    1    1    2  503  501  0.13640387725E+02  0.43318921367E+02 -0.37121765333E+02  0.58656752272E+02  0.00000000000E+00 0.  1.
          2    1    1    2  501    0  0.24274429622E+03  0.14455845079E+02 -0.41025701540E+03  0.47691150488E+03  0.00000000000E+00 0. -1.
<mgrwt>
<rscale>  4 0.28599235E+03</rscale>
<asrwt>0</asrwt>
<pdfrwt beam="1">  1       21 0.85207453E-02 0.28599235E+03</pdfrwt>
<pdfrwt beam="2">  1        2 0.36414217E+00 0.28599235E+03</pdfrwt>
<totfact> 0.63832579E+03</totfact>
</mgrwt>
</event>
<event>
 5    0  0.4930573E+000  0.3562554E+03  0.7546771E-02  0.1060076E+00
          2   -1    0    0  502    0 -0.00000000000E+00  0.00000000000E+00  0.66649594425E+03  0.66649594425E+03  0.00000000000E+00 0.  1.
         21   -1    0    0  503  502  0.00000000000E+00 -0.00000000000E+00 -0.16021570919E+04  0.16021570919E+04  0.00000000000E+00 0.  1.
         25    1    1    2    0    0  0.20499382069E+03  0.10884994119E+03  0.48289127671E+03  0.55016339513E+03  0.12500000000E+03 0.  0.
         21    1    1    2  503  501 -0.32393080796E+03 -0.94393187173E+02 -0.15227647341E+04  0.15596966620E+04  0.00000000000E+00 0.  1.
          2    1    1    2  501    0  0.11893698727E+03 -0.14456754013E+02  0.10421230974E+03  0.15879297900E+03  0.00000000000E+00 0.  1.
<mgrwt>
<rscale>  4 0.35625540E+03</rscale>
<asrwt>0</asrwt>
<pdfrwt beam="1">  1       21 0.24648570E+00 0.35625540E+03</pdfrwt>
<pdfrwt beam="2">  1        2 0.10253784E+00 0.35625540E+03</pdfrwt>
<totfact> 0.33914540E+01</totfact>
</mgrwt>
</event>
<event>
 5    0  0.4930573E+000  0.2542733E+03  0.7546771E-02  0.1110634E+00
          2   -1    0    0  502    0 -0.00000000000E+00  0.00000000000E+00  0.65240954031E+03  0.65240954031E+03  0.00000000000E+00 0. -1.
         21   -1    0    0  503  502  0.00000000000E+00 -0.00000000000E+00 -0.34133937981E+03  0.34133937981E+03  0.00000000000E+00 0.  1.
         25    1    1    2    0    0 -0.24618927605E+03 -0.19592836941E+03 -0.46330209390E+02  0.34171416986E+03  0.12500000000E+03 0.  0.
         21    1    1    2  503  501  0.64200608125E+02  0.89828611037E+02 -0.99676576751E+02  0.14874917612E+03  0.00000000000E+00 0.  1.
          2    1    1    2  501    0  0.18198866793E+03  0.10609975837E+03  0.45707694664E+03  0.50328557413E+03  0.00000000000E+00 0. -1.
<mgrwt>
<rscale>  4 0.25427335E+03</rscale>
<asrwt>0</asrwt>
<pdfrwt beam="1">  1       21 0.52513751E-01 0.25427335E+03</pdfrwt>
<pdfrwt beam="2">  1        2 0.10037070E+00 0.25427335E+03</pdfrwt>
<totfact> 0.19273643E+03</totfact>
</mgrwt>
</event>
<event>
 5    0  0.4930573E+000  0.2386432E+03  0.7546771E-02  0.1120700E+00
         -3   -1    0    0    0  501 -0.00000000000E+00  0.00000000000E+00  0.35858005146E+03  0.35858005146E+03  0.00000000000E+00 0.  1.
         21   -1    0    0  501  502  0.00000000000E+00 -0.00000000000E+00 -0.20810629899E+03  0.20810629899E+03  0.00000000000E+00 0.  1.
         25    1    1    2    0    0  0.14845484206E+03  0.15934861030E+03  0.64238334723E+02  0.25919564692E+03  0.12500000000E+03 0.  0.
         21    1    1    2  503  502 -0.35609709242E+02  0.14913543932E+01 -0.54985446320E+02  0.65526138580E+02  0.00000000000E+00 0.  1.
         -3    1    1    2    0  503 -0.11284513282E+03 -0.16083996469E+03  0.14122086406E+03  0.24196456495E+03  0.00000000000E+00 0.  1.
<mgrwt>
<rscale>  4 0.23864325E+03</rscale>
<asrwt>0</asrwt>
<pdfrwt beam="1">  1       21 0.32016354E-01 0.23864325E+03</pdfrwt>
<pdfrwt beam="2">  1       -3 0.55166161E-01 0.23864325E+03</pdfrwt>
<totfact> 0.15119911E+03</totfact>
</mgrwt>
</event>
<event>
 5    0  0.4930573E+000  0.2932440E+03  0.7546771E-02  0.1088667E+00
          4   -1    0    0  502    0 -0.00000000000E+00  0.00000000000E+00  0.13521898652E+03  0.13521898652E+03  0.00000000000E+00 0. -1.
         21   -1    0    0  503  502  0.00000000000E+00 -0.00000000000E+00 -0.80469927975E+03  0.80469927975E+03  0.00000000000E+00 0. -1.
         25    1    1    2    0    0 -0.15884736636E+03 -0.22215608561E+03 -0.19629681549E+03  0.35880809905E+03  0.12500000000E+03 0.  0.
         21    1    1    2  503  501 -0.15212342819E+02  0.32535964136E+02 -0.20975243944E+03  0.21280528703E+03  0.00000000000E+00 0. -1.
          4    1    1    2  501    0  0.17405970918E+03  0.18962012147E+03 -0.26343103830E+03  0.36830488018E+03  0.00000000000E+00 0. -1.
<mgrwt>
<rscale>  4 0.29324403E+03</rscale>
<asrwt>0</asrwt>
<pdfrwt beam="1">  1       21 0.12379989E+00 0.29324403E+03</pdfrwt>
<pdfrwt beam="2">  1        4 0.20802921E-01 0.29324403E+03</pdfrwt>
<totfact> 0.42469338E+02</totfact>
</mgrwt>
</event>
<event>
 5    0  0.4930573E+000  0.2444370E+03  0.7546771E-02  0.1116872E+00
         -1   -1    0    0    0  501 -0.00000000000E+00  0.00000000000E+00  0.17325163107E+03  0.17325163107E+03  0.00000000000E+00 0.  1.
         21   -1    0    0  501  502  0.00000000000E+00 -0.00000000000E+00 -0.31437115813E+03  0.31437115813E+03  0.00000000000E+00 0. -1.
         25    1    1    2    0    0  0.35968851989E+02  0.20695580245E+03 -0.12139466512E+03  0.27292146710E+03  0.12500000000E+03 0.  0.
         21    1    1    2  503  502 -0.26216579158E+02 -0.60787362015E+02 -0.16257669633E+02  0.68166885108E+02  0.00000000000E+00 0. -1.
         -1    1    1    2    0  503 -0.97522728314E+01 -0.14616844043E+03 -0.34671923064E+01  0.14653443700E+03  0.00000000000E+00 0.  1.
<mgrwt>
<rscale>  4 0.24443703E+03</rscale>
<asrwt>0</asrwt>
<pdfrwt beam="1">  1       21 0.48364794E-01 0.24443703E+03</pdfrwt>
<pdfrwt beam="2">  1       -1 0.26654097E-01 0.24443703E+03</pdfrwt>
<totfact> 0.46025133E+03</totfact>
</mgrwt>
</event>
<event>
 5    0  0.4930573E+000  0.2141683E+03  0.7546771E-02  0.1138307E+00
         21   -1    0    0  503  502  0.00000000000E+00  0.00000000000E+00  0.11080865968E+03  0.11080865968E+03  0.00000000000E+00 0. -1.
          1   -1    0    0  502    0 -0.00000000000E+00 -0.00000000000E+00 -0.28129225141E+04  0.28129225141E+04  0.00000000000E+00 0.  1.
         25    1    1    2    0    0 -0.77759838582E+02 -0.19770316373E+03 -0.11654337846E+04  0.11912153625E+04  0.12500000000E+03 0.  0.
         21    1    1    2  503  501  0.40237795010E+02  0.39827263766E+02  0.85332752789E+02  0.10240590698E+03  0.00000000000E+00 0. -1.
          1    1    1    2  501    0  0.37522043572E+02  0.15787589997E+03 -0.16220128226E+04  0.16301099043E+04  0.00000000000E+00 0.  1.
<mgrwt>
<rscale>  4 0.21416833E+03</rscale>
<asrwt>0</asrwt>
<pdfrwt beam="1">  1       21 0.17047487E-01 0.21416833E+03</pdfrwt>
<pdfrwt beam="2">  1        1 0.43275729E+00 0.21416833E+03</pdfrwt>
<totfact> 0.34479467E+02</totfact>
</mgrwt>
</event>
<event>
 5    0  0.4930573E+000  0.2155153E+03  0.7546771E-02  0.1137271E+00
          2   -1    0    0  502    0 -0.00000000000E+00  0.00000000000E+00  0.40286320825E+03  0.40286320825E+03  0.00000000000E+00 0. -1.
         21   -1    0    0  503  502  0.00000000000E+00 -0.00000000000E+00 -0.88416851584E+03  0.88416851584E+03  0.00000000000E+00 0.  1.
         25    1    1    2    0    0 -0.19074290434E+03  0.69037313249E+02 -0.58949369976E+03  0.63582767180E+03  0.12500000000E+03 0.  0.
         21    1    1    2  503  501  0.25227751509E+02 -0.13242226789E+02 -0.25057033448E+03  0.25218502838E+03  0.00000000000E+00 0. -1.
          2    1    1    2  501    0  0.16551515283E+03 -0.55795086461E+02  0.35875872665E+03  0.39901902391E+03  0.00000000000E+00 0. -1.
<mgrwt>
<rscale>  4 0.21551532E+03</rscale>
<asrwt>0</asrwt>
<pdfrwt beam="1">  1       21 0.13602592E+00 0.21551532E+03</pdfrwt>
<pdfrwt beam="2">  1        2 0.61978956E-01 0.21551532E+03</pdfrwt>
<totfact> 0.37479637E+02</totfact>
</mgrwt>
</event>
<event>
 5    0  0.4930573E+000  0.2554990E+03  0.7546771E-02  0.1109878E+00
          2   -1    0    0  502    0 -0.00000000000E+00  0.00000000000E+00  0.97645069714E+03  0.97645069714E+03  0.00000000000E+00 0.  1.
         21   -1    0    0  503  502  0.00000000000E+00 -0.00000000000E+00 -0.72490562643E+02  0.72490562643E+02  0.00000000000E+00 0.  1.
         25    1    1    2    0    0  0.76544223937E+02  0.22479566278E+03  0.36345241277E+03  0.45179062028E+03  0.12500000000E+03 0.  0.
         21    1    1    2  503  501 -0.10756787005E+02 -0.19211176234E+02  0.95614662503E+01  0.24004153720E+02  0.00000000000E+00 0. -1.
          2    1    1    2  501    0 -0.65787436932E+02 -0.20558448654E+03  0.53094625548E+03  0.57314648579E+03  0.00000000000E+00 0.  1.
<mgrwt>
<rscale>  4 0.25549904E+03</rscale>
<asrwt>0</asrwt>
<pdfrwt beam="1">  1       21 0.11152395E-01 0.25549904E+03</pdfrwt>
<pdfrwt beam="2">  1        2 0.15022317E+00 0.25549904E+03</pdfrwt>
<totfact> 0.22801172E+04</totfact>
</mgrwt>
</event>
<event>
 5    0  0.4930573E+000  0.1969242E+03  0.7546771E-02  0.1152360E+00
         21   -1    0    0  503  502  0.00000000000E+00  0.00000000000E+00  0.38844072583E+02  0.38844072583E+02  0.00000000000E+00 0.  1.
          2   -1    0    0  502    0 -0.00000000000E+00 -0.00000000000E+00 -0.21173873860E+04  0.21173873860E+04  0.00000000000E+00 0.  1.
         25    1    1    2    0    0 -0.13057641737E+03  0.15455330538E+03 -0.47957537964E+03  0.53530782708E+03  0.12500000000E+03 0.  0.
         21    1    1    2  503  501  0.62720712012E+02 -0.98678518149E+02 -0.35303428104E+03  0.37189318527E+03  0.00000000000E+00 0.  1.
          2    1    1    2  501    0  0.67855705360E+02 -0.55874787227E+02 -0.12459336528E+04  0.12490304463E+04  0.00000000000E+00 0.  1.
<mgrwt>
<rscale>  4 0.19692423E+03</rscale>
<asrwt>0</asrwt>
<pdfrwt beam="1">  1       21 0.59760119E-02 0.19692423E+03</pdfrwt>
<pdfrwt beam="2">  1        2 0.32575186E+00 0.19692423E+03</pdfrwt>
<totfact> 0.16591348E+04</totfact>
</mgrwt>
</event>
<event>
 5    0  0.5976965E+000  0.3261851E+03  0.7546771E-02  0.1072837E+00
          1   -1    0    0  502    0 -0.00000000000E+00  0.00000000000E+00  0.11284723733E+04  0.11284723733E+04  0.00000000000E+00 0. -1.
         21   -1    0    0  503  502  0.00000000000E+00 -0.00000000000E+00 -0.76063029926E+03  0.76063029926E+03  0.00000000000E+00 0. -1.
         25    1    1    2    0    0  0.37636682304E+02 -0.31628115751E+03 -0.68237188825E+03  0.76335226752E+03  0.12500000000E+03 0.  0.
         21    1    1    2  503  501  0.22598437211E+02  0.21561391720E+02 -0.20815224485E+01  0.31303605431E+02  0.00000000000E+00 0.  1.
          1    1    1    2  501    0 -0.60235119515E+02  0.29471976579E+03  0.10522954848E+04  0.10944467996E+04  0.00000000000E+00 0. -1.
<mgrwt>
<rscale>  4 0.32618509E+03</rscale>
<asrwt>0</asrwt>
<pdfrwt beam="1">  1       21 0.11702005E+00 0.32618509E+03</pdfrwt>
<pdfrwt beam="2">  1        1 0.17361113E+00 0.32618509E+03</pdfrwt>
<totfact> 0.74048648E+01</totfact>
</mgrwt>
</event>
<event>
 5    0  0.4930573E+000  0.2085130E+03  0.7546771E-02  0.1142749E+00
         21   -1    0    0  503  502  0.00000000000E+00  0.00000000000E+00  0.16302808754E+04  0.16302808754E+04  0.00000000000E+00 0. -1.
          4   -1    0    0  502    0 -0.00000000000E+00 -0.00000000000E+00 -0.61236820050E+03  0.61236820050E+03  0.00000000000E+00 0.  1.
         25    1    1    2    0    0  0.18631823875E+03 -0.12143160745E+03  0.81169775193E+03  0.85084567453E+03  0.12500000000E+03 0.  0.
         21    1    1    2  503  501 -0.55274283172E+02  0.19331193998E+02  0.78626045607E+03  0.78843797868E+03  0.00000000000E+00 0. -1.
          4    1    1    2  501    0 -0.13104395558E+03  0.10210041345E+03 -0.58004553315E+03  0.60336542265E+03  0.00000000000E+00 0.  1.
<mgrwt>
<rscale>  4 0.20851298E+03</rscale>
<asrwt>0</asrwt>
<pdfrwt beam="1">  1       21 0.25081244E+00 0.20851298E+03</pdfrwt>
<pdfrwt beam="2">  1        4 0.94210493E-01 0.20851298E+03</pdfrwt>
<totfact> 0.26748950E+00</totfact>
</mgrwt>
</event>
<event>
 5    0  0.4930573E+000  0.2695891E+03  0.7546771E-02  0.1101515E+00
          1   -1    0    0  502    0 -0.00000000000E+00  0.00000000000E+00  0.23353429773E+03  0.23353429773E+03  0.00000000000E+00 0. -1.
         21   -1    0    0  503  502  0.00000000000E+00 -0.00000000000E+00 -0.53395973934E+03  0.53395973934E+03  0.00000000000E+00 0.  1.
         25    1    1    2    0    0  0.49311286687E+02  0.23482186137E+03 -0.38422010343E+03  0.46991807526E+03  0.12500000000E+03 0.  0.
         21    1    1    2  503  501 -0.42769898899E+02  0.26460235265E+01 -0.66862621875E+01  0.43370171712E+02  0.00000000000E+00 0. -1.
          1    1    1    2  501    0 -0.65413877882E+01 -0.23746788490E+03  0.90480924013E+02  0.25420579010E+03  0.00000000000E+00 0. -1.
<mgrwt>
<rscale>  4 0.26958905E+03</rscale>
<asrwt>0</asrwt>
<pdfrwt beam="1">  1       21 0.82147651E-01 0.26958905E+03</pdfrwt>
<pdfrwt beam="2">  1        1 0.35928354E-01 0.26958905E+03</pdfrwt>
<totfact> 0.16477453E+03</totfact>
</mgrwt>
</event>
<event>
 5    0  0.4930573E+000  0.3289402E+03  0.7546771E-02  0.1071607E+00
          2   -1    0    0  502    0 -0.00000000000E+00  0.00000000000E+00  0.12998766056E+04  0.12998766056E+04  0.00000000000E+00 0.  1.
         21   -1    0    0  503  502  0.00000000000E+00 -0.00000000000E+00 -0.25388134111E+03  0.25388134111E+03  0.00000000000E+00 0.  1.
         25    1    1    2    0    0 -0.26435259117E+03  0.12595483630E+03 -0.11272373469E+03  0.33775516814E+03  0.12500000000E+03 0.  0.
         21    1    1    2  503  501 -0.18308631334E+02 -0.10555668904E+02  0.38794798107E+01  0.21486704981E+02  0.00000000000E+00 0.  1.
          2    1    1    2  501    0  0.28266122250E+03 -0.11539916739E+03  0.11548395194E+04  0.11945160736E+04  0.00000000000E+00 0.  1.
<mgrwt>
<rscale>  4 0.32894018E+03</rscale>
<asrwt>0</asrwt>
<pdfrwt beam="1">  1       21 0.39058669E-01 0.32894018E+03</pdfrwt>
<pdfrwt beam="2">  1        2 0.19998101E+00 0.32894018E+03</pdfrwt>
<totfact> 0.13351524E+03</totfact>
</mgrwt>
</event>
<event>
 5    0  0.4930573E+000  0.2648857E+03  0.7546771E-02  0.1104243E+00
         -1   -1    0    0    0  501 -0.00000000000E+00  0.00000000000E+00  0.16618342573E+03  0.16618342573E+03  0.00000000000E+00 0.  1.
         21   -1    0    0  501  502  0.00000000000E+00 -0.00000000000E+00 -0.40581287093E+03  0.40581287093E+03  0.00000000000E+00 0. -1.
         25    1    1    2    0    0  0.12107440342E+03  0.19970078753E+03 -0.17739359761E+03  0.31879915962E+03  0.12500000000E+03 0.  0.
         21    1    1    2  503  502 -0.22386161161E+02 -0.42303093500E+02 -0.46538673717E+02  0.66757322314E+02  0.00000000000E+00 0. -1.
         -1    1    1    2    0  503 -0.98688242261E+02 -0.15739769403E+03 -0.15697173875E+02  0.18643981472E+03  0.00000000000E+00 0.  1.
<mgrwt>
<rscale>  4 0.26488567E+03</rscale>
<asrwt>0</asrwt>
<pdfrwt beam="1">  1       21 0.62432748E-01 0.26488567E+03</pdfrwt>
<pdfrwt beam="2">  1       -1 0.25566682E-01 0.26488567E+03</pdfrwt>
<totfact> 0.28515443E+03</totfact>
</mgrwt>
</event>
<event>
 5    0  0.4930573E+000  0.2473301E+03  0.7546771E-02  0.1115004E+00
          2   -1    0    0  502    0 -0.00000000000E+00  0.00000000000E+00  0.12963798148E+04  0.12963798148E+04  0.00000000000E+00 0.  1.
         21   -1    0    0  503  502  0.00000000000E+00 -0.00000000000E+00 -0.17825285219E+03  0.17825285219E+03  0.00000000000E+00 0.  1.
         25    1    1    2    0    0 -0.52255316408E+02 -0.21997691762E+03 -0.93408679053E+01  0.25852023942E+03  0.12500000000E+03 0.  0.
         21    1    1    2  503  501  0.12310352514E+03  0.16902954569E+02  0.82294202721E+02  0.14903866470E+03  0.00000000000E+00 0.  1.
          2    1    1    2  501    0 -0.70848208732E+02  0.20307396305E+03  0.10451736278E+04  0.10670737629E+04  0.00000000000E+00 0.  1.
<mgrwt>
<rscale>  4 0.24733015E+03</rscale>
<asrwt>0</asrwt>
<pdfrwt beam="1">  1       21 0.27423516E-01 0.24733015E+03</pdfrwt>
<pdfrwt beam="2">  1        2 0.19944304E+00 0.24733015E+03</pdfrwt>
<totfact> 0.27934331E+03</totfact>
</mgrwt>
</event>
