<event>
 5    0  0.1702508E-001  0.3330448E+03  0.7546771E-02  0.1069798E+00
         21   -1    0    0  503  502  0.00000000000E+00  0.00000000000E+00  0.13768603352E+03  0.13768603352E+03  0.00000000000E+00 0.  1.
         21   -1    0    0  501  503 -0.00000000000E+00 -0.00000000000E+00 -0.14580032506E+04  0.14580032506E+04  0.00000000000E+00 0. -1.
         25    1    1    2    0    0 -0.12203830435E+03  0.28362388869E+03 -0.14709487185E+03  0.36413975242E+03  0.12500000000E+03 0.  0.
          4    1    1    2  501    0 -0.21077174345E+02 -0.96061512064E+01 -0.37255767240E+03  0.37327703477E+03  0.00000000000E+00 0.  1.
         -4    1    1    2    0  502  0.14311547870E+03 -0.27401773748E+03 -0.80066467287E+03  0.85827249698E+03  0.00000000000E+00 0. -1.
<mgrwt>
<rscale>  4 0.33304485E+03</rscale>
<asrwt>0</asrwt>
<pdfrwt beam="1">  1       21 0.21182466E-01 0.33304485E+03</pdfrwt>
<pdfrwt beam="2">  1       21 0.22430820E+00 0.33304485E+03</pdfrwt>
<totfact> 0.17462835E+03</totfact>
</mgrwt>
</event>
<event>
 5    0  0.1702508E-001  0.2522620E+03  0.7546771E-02  0.1111884E+00
         21   -1    0    0  503  502  0.00000000000E+00  0.00000000000E+00  0.89672023822E+03  0.89672023822E+03  0.00000000000E+00 0. -1.
         21   -1    0    0  501  503 -0.00000000000E+00 -0.00000000000E+00 -0.76770697992E+03  0.76770697992E+03  0.00000000000E+00 0.  1.
         25    1    1    2    0    0  0.17949292836E+03 -0.12683040450E+03  0.85982220435E+03  0.89622702812E+03  0.12500000000E+03 0.  0.
          4    1    1    2  501    0 -0.29380753410E+02 -0.43146360851E+01 -0.17999767497E+03  0.18243083004E+03  0.00000000000E+00 0. -1.
         -4    1    1    2    0  502 -0.15011217495E+03  0.13114504059E+03 -0.55081127109E+03  0.58576935999E+03  0.00000000000E+00 0.  1.
<mgrwt>
<rscale>  4 0.25226203E+03</rscale>
<asrwt>0</asrwt>
<pdfrwt beam="1">  1       21 0.13795696E+00 0.25226203E+03</pdfrwt>
<pdfrwt beam="2">  1       21 0.11810877E+00 0.25226203E+03</pdfrwt>
<totfact> 0.19090752E+02</totfact>
</mgrwt>
</event>
<event>
 5    0  0.1702508E-001  0.2394369E+03  0.7546771E-02  0.1120169E+00
         21   -1    0    0  503  502  0.00000000000E+00  0.00000000000E+00  0.92960032049E+03  0.92960032049E+03  0.00000000000E+00 0.  1.
         21   -1    0    0  501  503 -0.00000000000E+00 -0.00000000000E+00 -0.24571788350E+03  0.24571788350E+03  0.00000000000E+00 0.  1.
         25    1    1    2    0    0  0.19475064800E+03 -0.60619356939E+02  0.80449840012E+03  0.83931233586E+03  0.12500000000E+03 0.  0.
          1    1    1    2  501    0  0.11207758538E+02  0.31519321854E+02 -0.12353200593E+03  0.12798139705E+03  0.00000000000E+00 0. -1.
         -1    1    1    2    0  502 -0.20595840654E+03  0.29100035085E+02  0.29160427950E+01  0.20802447109E+03  0.00000000000E+00 0.  1.
<mgrwt>
<rscale>  4 0.23943691E+03</rscale>
<asrwt>0</asrwt>
<pdfrwt beam="1">  1       21 0.14301543E+00 0.23943691E+03</pdfrwt>
<pdfrwt beam="2">  1       21 0.37802752E-01 0.23943691E+03</pdfrwt>
<totfact> 0.21950064E+03</totfact>
</mgrwt>
</event>
<event>
 5    0  0.1702508E-001  0.3607755E+03  0.7546771E-02  0.1058277E+00
         21   -1    0    0  503  502  0.00000000000E+00  0.00000000000E+00  0.11966529128E+04  0.11966529128E+04  0.00000000000E+00 0.  1.
         21   -1    0    0  501  503 -0.00000000000E+00 -0.00000000000E+00 -0.30302597780E+03  0.30302597780E+03  0.00000000000E+00 0.  1.
         25    1    1    2    0    0  0.12502072391E+03  0.34591456704E+03  0.74764798045E+03  0.84254944767E+03  0.12500000000E+03 0.  0.
          4    1    1    2  501    0 -0.25064112079E+03 -0.22902372252E+03 -0.10295492220E+03  0.35478522083E+03  0.00000000000E+00 0.  1.
         -4    1    1    2    0  502  0.12562039688E+03 -0.11689084452E+03  0.24893387680E+03  0.30234422214E+03  0.00000000000E+00 0. -1.
<mgrwt>
<rscale>  4 0.36077554E+03</rscale>
<asrwt>0</asrwt>
<pdfrwt beam="1">  1       21 0.18410045E+00 0.36077554E+03</pdfrwt>
<pdfrwt beam="2">  1       21 0.46619382E-01 0.36077554E+03</pdfrwt>
<totfact> 0.65487540E+02</totfact>
</mgrwt>
</event>
<event>
 5    0  0.1702508E-001  0.4091689E+03  0.7546771E-02  0.1040650E+00
         21   -1    0    0  503  502  0.00000000000E+00  0.00000000000E+00  0.44346936147E+03  0.44346936147E+03  0.00000000000E+00 0. -1.
         21   -1    0    0  501  503 -0.00000000000E+00 -0.00000000000E+00 -0.46746257153E+03  0.46746257153E+03  0.00000000000E+00 0. -1.
         25    1    1    2    0    0 -0.30721627740E+03  0.23960872530E+03  0.19443965531E+03  0.45301872135E+03  0.12500000000E+03 0.  0.
          4    1    1    2  501    0  0.79312662580E+01 -0.44151363585E+02 -0.20579120958E+02  0.49353298879E+02  0.00000000000E+00 0.  1.
         -4    1    1    2    0  502  0.29928501114E+03 -0.19545736171E+03 -0.19785374442E+03  0.40855991277E+03  0.00000000000E+00 0. -1.
<mgrwt>
<rscale>  4 0.40916889E+03</rscale>
<asrwt>0</asrwt>
<pdfrwt beam="1">  1       21 0.68226056E-01 0.40916889E+03</pdfrwt>
<pdfrwt beam="2">  1       21 0.71917318E-01 0.40916889E+03</pdfrwt>
<totfact> 0.30252411E+03</totfact>
</mgrwt>
</event>
<event>
 5    0  0.1702508E-001  0.2922099E+03  0.7546771E-02  0.1089201E+00
         21   -1    0    0  503  502  0.00000000000E+00  0.00000000000E+00  0.58705105637E+03  0.58705105637E+03  0.00000000000E+00 0. -1.
         21   -1    0    0  501  503 -0.00000000000E+00 -0.00000000000E+00 -0.20805198065E+03  0.20805198065E+03  0.00000000000E+00 0.  1.
         25    1    1    2    0    0 -0.23033256462E+03  0.63822703806E+02  0.22091552143E+03  0.34864752323E+03  0.12500000000E+03 0.  0.
          4    1    1    2  501    0 -0.54105322938E+02 -0.99013708858E+02  0.10667269107E+03  0.15527447804E+03  0.00000000000E+00 0. -1.
         -4    1    1    2    0  502  0.28443788756E+03  0.35191005052E+02  0.51410863223E+02  0.29118103574E+03  0.00000000000E+00 0.  1.
<mgrwt>
<rscale>  4 0.29220992E+03</rscale>
<asrwt>0</asrwt>
<pdfrwt beam="1">  1       21 0.90315546E-01 0.29220992E+03</pdfrwt>
<pdfrwt beam="2">  1       21 0.32007997E-01 0.29220992E+03</pdfrwt>
<totfact> 0.92269602E+03</totfact>
</mgrwt>
</event>
<event>
 5    0  0.1702508E-001  0.2702453E+03  0.7546771E-02  0.1101139E+00
         21   -1    0    0  503  502  0.00000000000E+00  0.00000000000E+00  0.14347016285E+04  0.14347016285E+04  0.00000000000E+00 0. -1.
         21   -1    0    0  501  503 -0.00000000000E+00 -0.00000000000E+00 -0.15885643060E+03  0.15885643060E+03  0.00000000000E+00 0.  1.
         25    1    1    2    0    0 -0.19765040146E+03 -0.77366825773E+02  0.30842280777E+03  0.39471627188E+03  0.12500000000E+03 0.  0.
          3    1    1    2  501    0 -0.46246194257E+02  0.24886842045E+02 -0.94443304529E+02  0.10806295924E+03  0.00000000000E+00 0.  1.
         -3    1    1    2    0  502  0.24389659572E+03  0.52479983728E+02  0.10618656947E+04  0.10907788280E+04  0.00000000000E+00 0. -1.
<mgrwt>
<rscale>  4 0.27024526E+03</rscale>
<asrwt>0</asrwt>
<pdfrwt beam="1">  1       21 0.22072332E+00 0.27024526E+03</pdfrwt>
<pdfrwt beam="2">  1       21 0.24439452E-01 0.27024526E+03</pdfrwt>
<totfact> 0.14627129E+03</totfact>
</mgrwt>
</event>
<event>
 5    0  0.1702508E-001  0.2802878E+03  0.7546771E-02  0.1095532E+00
         21   -1    0    0  503  502  0.00000000000E+00  0.00000000000E+00  0.73659412421E+03  0.73659412421E+03  0.00000000000E+00 0.  1.
         21   -1    0    0  501  503 -0.00000000000E+00 -0.00000000000E+00 -0.12071079457E+03  0.12071079457E+03  0.00000000000E+00 0.  1.
         25    1    1    2    0    0  0.26089656540E+03  0.31373493648E+02  0.33756355085E+03  0.44567416888E+03  0.12500000000E+03 0.  0.
          2    1    1    2  501    0 -0.23855147324E+03 -0.37507105132E+02  0.29634432139E+03  0.38227417535E+03  0.00000000000E+00 0.  1.
         -2    1    1    2    0  502 -0.22345092160E+02  0.61336114836E+01 -0.18024542595E+02  0.29356574548E+02  0.00000000000E+00 0. -1.
<mgrwt>
<rscale>  4 0.28028782E+03</rscale>
<asrwt>0</asrwt>
<pdfrwt beam="1">  1       21 0.11332217E+00 0.28028782E+03</pdfrwt>
<pdfrwt beam="2">  1       21 0.18570892E-01 0.28028782E+03</pdfrwt>
<totfact> 0.15322284E+04</totfact>
</mgrwt>
</event>
<event>
 5    0  0.1702508E-001  0.2595606E+03  0.7546771E-02  0.1107408E+00
         21   -1    0    0  503  502  0.00000000000E+00  0.00000000000E+00  0.80923553833E+02  0.80923553833E+02  0.00000000000E+00 0. -1.
         21   -1    0    0  501  503 -0.00000000000E+00 -0.00000000000E+00 -0.12067876299E+04  0.12067876299E+04  0.00000000000E+00 0. -1.
         25    1    1    2    0    0  0.15519330147E+02 -0.25579316869E+03 -0.34765962034E+03  0.44962562913E+03  0.12500000000E+03 0.  0.
          1    1    1    2  501    0  0.31050759382E+02  0.20007337946E+03 -0.35485539413E+03  0.40855337176E+03  0.00000000000E+00 0. -1.
         -1    1    1    2    0  502 -0.46570089529E+02  0.55719789223E+02 -0.42334906156E+03  0.42953218282E+03  0.00000000000E+00 0.  1.
<mgrwt>
<rscale>  4 0.25956055E+03</rscale>
<asrwt>0</asrwt>
<pdfrwt beam="1">  1       21 0.12449778E-01 0.25956055E+03</pdfrwt>
<pdfrwt beam="2">  1       21 0.18565963E+00 0.25956055E+03</pdfrwt>
<totfact> 0.87183618E+03</totfact>
</mgrwt>
</event>
<event>
 5    0  0.1702508E-001  0.1890159E+03  0.7546771E-02  0.1159352E+00
         21   -1    0    0  503  502  0.00000000000E+00  0.00000000000E+00  0.34857051879E+03  0.34857051879E+03  0.00000000000E+00 0. -1.
         21   -1    0    0  501  503 -0.00000000000E+00 -0.00000000000E+00 -0.26285271235E+03  0.26285271235E+03  0.00000000000E+00 0.  1.
         25    1    1    2    0    0  0.72762982476E+02 -0.20849599013E+03  0.18938493112E+03  0.31663335525E+03  0.12500000000E+03 0.  0.
          2    1    1    2  501    0 -0.75904734698E+02  0.74354530865E+02  0.24709466567E+02  0.10909025047E+03  0.00000000000E+00 0. -1.
         -2    1    1    2    0  502  0.31417522217E+01  0.13414145927E+03 -0.12837659124E+03  0.18569962542E+03  0.00000000000E+00 0.  1.
<mgrwt>
<rscale>  4 0.18901585E+03</rscale>
<asrwt>0</asrwt>
<pdfrwt beam="1">  1       21 0.53626234E-01 0.18901585E+03</pdfrwt>
<pdfrwt beam="2">  1       21 0.40438879E-01 0.18901585E+03</pdfrwt>
<totfact> 0.19428949E+04</totfact>
</mgrwt>
</event>
<event>
 5    0  0.1702508E-001  0.2776061E+03  0.7546771E-02  0.1097004E+00
         21   -1    0    0  503  502  0.00000000000E+00  0.00000000000E+00  0.27173409855E+03  0.27173409855E+03  0.00000000000E+00 0.  1.
         21   -1    0    0  501  503 -0.00000000000E+00 -0.00000000000E+00 -0.62917249512E+03  0.62917249512E+03  0.00000000000E+00 0.  1.
         25    1    1    2    0    0  0.23928913271E+03  0.64098507143E+02  0.14825271539E+03  0.31459779921E+03  0.12500000000E+03 0.  0.
          4    1    1    2  501    0 -0.24932117635E+03 -0.28257700855E+02 -0.38116816765E+03  0.45634276445E+03  0.00000000000E+00 0.  1.
         -4    1    1    2    0  502  0.10032043643E+02 -0.35840806288E+02 -0.12452294432E+03  0.12996603001E+03  0.00000000000E+00 0. -1.
<mgrwt>
<rscale>  4 0.27760611E+03</rscale>
<asrwt>0</asrwt>
<pdfrwt beam="1">  1       21 0.41805247E-01 0.27760611E+03</pdfrwt>
<pdfrwt beam="2">  1       21 0.96795766E-01 0.27760611E+03</pdfrwt>
<totfact> 0.46089769E+03</totfact>
</mgrwt>
</event>
<event>
 5    0  0.1702508E-001  0.2780379E+03  0.7546771E-02  0.1096765E+00
         21   -1    0    0  503  502  0.00000000000E+00  0.00000000000E+00  0.43812086341E+03  0.43812086341E+03  0.00000000000E+00 0. -1.
         21   -1    0    0  501  503 -0.00000000000E+00 -0.00000000000E+00 -0.43170696094E+03  0.43170696094E+03  0.00000000000E+00 0.  1.
         25    1    1    2    0    0  0.32201786328E+03  0.94451485538E+00  0.18104458043E+03  0.38999812369E+03  0.12500000000E+03 0.  0.
          2    1    1    2  501    0 -0.19516691090E+03  0.38095310270E+02  0.62194562329E+02  0.20834956049E+03  0.00000000000E+00 0. -1.
         -2    1    1    2    0  502 -0.12685095238E+03 -0.39039825125E+02 -0.23682524029E+03  0.27148014016E+03  0.00000000000E+00 0.  1.
<mgrwt>
<rscale>  4 0.27803795E+03</rscale>
<asrwt>0</asrwt>
<pdfrwt beam="1">  1       21 0.67403209E-01 0.27803795E+03</pdfrwt>
<pdfrwt beam="2">  1       21 0.66416456E-01 0.27803795E+03</pdfrwt>
<totfact> 0.39479886E+03</totfact>
</mgrwt>
</event>
<event>
 5    0  0.1702508E-001  0.4375484E+03  0.7546771E-02  0.1031502E+00
         21   -1    0    0  503  502  0.00000000000E+00  0.00000000000E+00  0.54736991391E+03  0.54736991391E+03  0.00000000000E+00 0.  1.
         21   -1    0    0  501  503 -0.00000000000E+00 -0.00000000000E+00 -0.10262476193E+04  0.10262476193E+04  0.00000000000E+00 0. -1.
         25    1    1    2    0    0 -0.41108125258E+03  0.11317286886E+03  0.20169301826E+03  0.48795590793E+03  0.12500000000E+03 0.  0.
          3    1    1    2  501    0  0.40219164984E+03 -0.78467762549E+02 -0.56732729963E+01  0.40981398095E+03  0.00000000000E+00 0.  1.
         -3    1    1    2    0  502  0.88896027469E+01 -0.34705106306E+02 -0.67489745064E+03  0.67584764431E+03  0.00000000000E+00 0. -1.
<mgrwt>
<rscale>  4 0.43754845E+03</rscale>
<asrwt>0</asrwt>
<pdfrwt beam="1">  1       21 0.84210757E-01 0.43754845E+03</pdfrwt>
<pdfrwt beam="2">  1       21 0.15788425E+00 0.43754845E+03</pdfrwt>
<totfact> 0.26363789E+02</totfact>
</mgrwt>
</event>
<event>
 5    0  0.1702508E-001  0.2007282E+03  0.7546771E-02  0.1149126E+00
         21   -1    0    0  503  502  0.00000000000E+00  0.00000000000E+00  0.30454732168E+03  0.30454732168E+03  0.00000000000E+00 0.  1.
         21   -1    0    0  501  503 -0.00000000000E+00 -0.00000000000E+00 -0.37480554892E+03  0.37480554892E+03  0.00000000000E+00 0.  1.
         25    1    1    2    0    0  0.23062556455E+03  0.25231981992E+02 -0.10091390337E+03  0.28219394011E+03  0.12500000000E+03 0.  0.
          2    1    1    2  501    0 -0.10223439264E+03 -0.76809173490E+02  0.16199673832E+03  0.20638426150E+03  0.00000000000E+00 0.  1.
         -2    1    1    2    0  502 -0.12839117191E+03  0.51577191498E+02 -0.13134106219E+03  0.19077466898E+03  0.00000000000E+00 0. -1.
<mgrwt>
<rscale>  4 0.20072821E+03</rscale>
<asrwt>0</asrwt>
<pdfrwt beam="1">  1       21 0.46853434E-01 0.20072821E+03</pdfrwt>
<pdfrwt beam="2">  1       21 0.57662392E-01 0.20072821E+03</pdfrwt>
<totfact> 0.12236637E+04</totfact>
</mgrwt>
</event>
<event>
 5    0  0.1702508E-001  0.2386534E+03  0.7546771E-02  0.1120693E+00
         21   -1    0    0  503  502  0.00000000000E+00  0.00000000000E+00  0.20184156044E+03  0.20184156044E+03  0.00000000000E+00 0. -1.
         21   -1    0    0  501  503 -0.00000000000E+00 -0.00000000000E+00 -0.53000344043E+03  0.53000344043E+03  0.00000000000E+00 0. -1.
         25    1    1    2    0    0 -0.16695333912E+03 -0.11875780750E+03  0.91083145986E+02  0.25670600649E+03  0.12500000000E+03 0.  0.
          1    1    1    2  501    0  0.17098336315E+03  0.98019455242E+02 -0.33868970966E+03  0.39185946908E+03  0.00000000000E+00 0. -1.
         -1    1    1    2    0  502 -0.40300240258E+01  0.20738352256E+02 -0.80555316311E+02  0.83279525298E+02  0.00000000000E+00 0.  1.
<mgrwt>
<rscale>  4 0.23865341E+03</rscale>
<asrwt>0</asrwt>
<pdfrwt beam="1">  1       21 0.31052548E-01 0.23865341E+03</pdfrwt>
<pdfrwt beam="2">  1       21 0.81538990E-01 0.23865341E+03</pdfrwt>
<totfact> 0.12755393E+04</totfact>
</mgrwt>
</event>
<event>
 5    0  0.1702508E-001  0.2723661E+03  0.7546771E-02  0.1099933E+00
         21   -1    0    0  503  502  0.00000000000E+00  0.00000000000E+00  0.37296459602E+03  0.37296459602E+03  0.00000000000E+00 0.  1.
         21   -1    0    0  501  503 -0.00000000000E+00 -0.00000000000E+00 -0.43020165600E+03  0.43020165600E+03  0.00000000000E+00 0. -1.
         25    1    1    2    0    0 -0.21946607748E+02 -0.24546208422E+03  0.22142731668E+03  0.35410216739E+03  0.12500000000E+03 0.  0.
          1    1    1    2  501    0 -0.97865738141E+02  0.36340591878E+02 -0.46027939606E+02  0.11409168482E+03  0.00000000000E+00 0.  1.
         -1    1    1    2    0  502  0.11981234589E+03  0.20912149234E+03 -0.23263643706E+03  0.33497239981E+03  0.00000000000E+00 0. -1.
<mgrwt>
<rscale>  4 0.27236610E+03</rscale>
<asrwt>0</asrwt>
<pdfrwt beam="1">  1       21 0.57379169E-01 0.27236610E+03</pdfrwt>
<pdfrwt beam="2">  1       21 0.66184870E-01 0.27236610E+03</pdfrwt>
<totfact> 0.56696709E+03</totfact>
</mgrwt>
</event>
<event>
 5    0  0.1702508E-001  0.2996713E+03  0.7546771E-02  0.1085405E+00
         21   -1    0    0  503  502  0.00000000000E+00  0.00000000000E+00  0.11818317873E+04  0.11818317873E+04  0.00000000000E+00 0.  1.
         21   -1    0    0  501  503 -0.00000000000E+00 -0.00000000000E+00 -0.26179461113E+03  0.26179461113E+03  0.00000000000E+00 0. -1.
         25    1    1    2    0    0  0.23276737214E+03 -0.14361070587E+03  0.10674232799E+04  0.11089734635E+04  0.12500000000E+03 0.  0.
          1    1    1    2  501    0 -0.24013778493E+03  0.10673727524E+03 -0.13105283662E+03  0.29365600226E+03  0.00000000000E+00 0. -1.
         -1    1    1    2    0  502  0.73704127919E+01  0.36873430623E+02 -0.16333267109E+02  0.40996932630E+02  0.00000000000E+00 0.  1.
<mgrwt>
<rscale>  4 0.29967130E+03</rscale>
<asrwt>0</asrwt>
<pdfrwt beam="1">  1       21 0.18182027E+00 0.29967130E+03</pdfrwt>
<pdfrwt beam="2">  1       21 0.40276095E-01 0.29967130E+03</pdfrwt>
<totfact> 0.95611101E+02</totfact>
</mgrwt>
</event>
<event>
 5    0  0.1702508E-001  0.2641177E+03  0.7546771E-02  0.1104694E+00
         21   -1    0    0  503  502  0.00000000000E+00  0.00000000000E+00  0.52445663721E+03  0.52445663721E+03  0.00000000000E+00 0. -1.
         21   -1    0    0  501  503 -0.00000000000E+00 -0.00000000000E+00 -0.24232605668E+03  0.24232605668E+03  0.00000000000E+00 0.  1.
         25    1    1    2    0    0 -0.18346256061E+03 -0.18706235538E+03  0.32691877881E+03  0.43720901624E+03  0.12500000000E+03 0.  0.
          3    1    1    2  501    0  0.94344994032E+01  0.95918350898E+02 -0.85625869166E+02  0.12892295873E+03  0.00000000000E+00 0. -1.
         -3    1    1    2    0  502  0.17402806120E+03  0.91144004483E+02  0.40837670890E+02  0.20065071892E+03  0.00000000000E+00 0.  1.
<mgrwt>
<rscale>  4 0.26411771E+03</rscale>
<asrwt>0</asrwt>
<pdfrwt beam="1">  1       21 0.80685636E-01 0.26411771E+03</pdfrwt>
<pdfrwt beam="2">  1       21 0.37280932E-01 0.26411771E+03</pdfrwt>
<totfact> 0.89550143E+03</totfact>
</mgrwt>
</event>
<event>
 5    0  0.1702508E-001  0.2722778E+03  0.7546771E-02  0.1099983E+00
         21   -1    0    0  503  502  0.00000000000E+00  0.00000000000E+00  0.20437221501E+04  0.20437221501E+04  0.00000000000E+00 0. -1.
         21   -1    0    0  501  503 -0.00000000000E+00 -0.00000000000E+00 -0.16548896828E+03  0.16548896828E+03  0.00000000000E+00 0.  1.
         25    1    1    2    0    0  0.23951166751E+03  0.37897755429E+02  0.17810772010E+04  0.18018499035E+04  0.12500000000E+03 0.  0.
          3    1    1    2  501    0 -0.22833602624E+03 -0.79188595797E+02  0.18850008827E+03  0.30649707643E+03  0.00000000000E+00 0. -1.
         -3    1    1    2    0  502 -0.11175641275E+02  0.41290840368E+02 -0.91344107469E+02  0.10086413845E+03  0.00000000000E+00 0.  1.
<mgrwt>
<rscale>  4 0.27227781E+03</rscale>
<asrwt>0</asrwt>
<pdfrwt beam="1">  1       21 0.31441878E+00 0.27227781E+03</pdfrwt>
<pdfrwt beam="2">  1       21 0.25459843E-01 0.27227781E+03</pdfrwt>
<totfact> 0.37308154E+02</totfact>
</mgrwt>
</event>
<event>
 5    0  0.1702508E-001  0.2594129E+03  0.7546771E-02  0.1107496E+00
         21   -1    0    0  503  502  0.00000000000E+00  0.00000000000E+00  0.10237739053E+04  0.10237739053E+04  0.00000000000E+00 0. -1.
         21   -1    0    0  501  503 -0.00000000000E+00 -0.00000000000E+00 -0.11840289583E+03  0.11840289583E+03  0.00000000000E+00 0. -1.
         25    1    1    2    0    0  0.22344663767E+03  0.41733223907E+02  0.86870037100E+03  0.90660652791E+03  0.12500000000E+03 0.  0.
          1    1    1    2  501    0 -0.32597507345E+02 -0.12934228367E+02 -0.11011461256E+02  0.36757911089E+02  0.00000000000E+00 0.  1.
         -1    1    1    2    0  502 -0.19084913033E+03 -0.28798995540E+02  0.47682099690E+02  0.19881236210E+03  0.00000000000E+00 0. -1.
<mgrwt>
<rscale>  4 0.25941292E+03</rscale>
<asrwt>0</asrwt>
<pdfrwt beam="1">  1       21 0.15750367E+00 0.25941292E+03</pdfrwt>
<pdfrwt beam="2">  1       21 0.18215831E-01 0.25941292E+03</pdfrwt>
<totfact> 0.68739202E+03</totfact>
</mgrwt>
</event>
<event>
 5    0  0.1702508E-001  0.2503227E+03  0.7546771E-02  0.1113101E+00
         21   -1    0    0  503  502  0.00000000000E+00  0.00000000000E+00  0.55255322039E+03  0.55255322039E+03  0.00000000000E+00 0. -1.
         21   -1    0    0  501  503 -0.00000000000E+00 -0.00000000000E+00 -0.19187722355E+03  0.19187722355E+03  0.00000000000E+00 0. -1.
         25    1    1    2    0    0  0.11977576705E+03  0.16496123898E+03  0.32875510454E+03  0.40652596903E+03  0.12500000000E+03 0.  0.
          1    1    1    2  501    0 -0.96676969991E+02 -0.19798364715E+03 -0.67657155301E+02  0.23048091403E+03  0.00000000000E+00 0. -1.
         -1    1    1    2    0  502 -0.23098797057E+02  0.33022408174E+02  0.99578047612E+02  0.10742356088E+03  0.00000000000E+00 0.  1.
<mgrwt>
<rscale>  4 0.25032270E+03</rscale>
<asrwt>0</asrwt>
<pdfrwt beam="1">  1       21 0.85008187E-01 0.25032270E+03</pdfrwt>
<pdfrwt beam="2">  1       21 0.29519573E-01 0.25032270E+03</pdfrwt>
<totfact> 0.12723359E+04</totfact>
</mgrwt>
</event>
<event>
 5    0  0.1702508E-001  0.2532014E+03  0.7546771E-02  0.1111298E+00
         21   -1    0    0  503  502  0.00000000000E+00  0.00000000000E+00  0.99725791895E+03  0.99725791895E+03  0.00000000000E+00 0. -1.
         21   -1    0    0  501  503 -0.00000000000E+00 -0.00000000000E+00 -0.17267119963E+03  0.17267119963E+03  0.00000000000E+00 0. -1.
         25    1    1    2    0    0 -0.21206939151E+03 -0.24891144306E+01  0.77367003810E+03  0.81189281951E+03  0.12500000000E+03 0.  0.
          1    1    1    2  501    0 -0.45995707504E+02  0.40877101156E+02 -0.48992733146E+02  0.78656407296E+02  0.00000000000E+00 0.  1.
         -1    1    1    2    0  502  0.25806509901E+03 -0.38387986725E+02  0.99909414355E+02  0.27937989178E+03  0.00000000000E+00 0. -1.
<mgrwt>
<rscale>  4 0.25320142E+03</rscale>
<asrwt>0</asrwt>
<pdfrwt beam="1">  1       21 0.15342429E+00 0.25320142E+03</pdfrwt>
<pdfrwt beam="2">  1       21 0.26564801E-01 0.25320142E+03</pdfrwt>
<totfact> 0.36198903E+03</totfact>
</mgrwt>
</event>
<event>
 5    0  0.1702508E-001  0.2300832E+03  0.7546771E-02  0.1126581E+00
         21   -1    0    0  503  502  0.00000000000E+00  0.00000000000E+00  0.19977493678E+02  0.19977493678E+02  0.00000000000E+00 0. -1.
         21   -1    0    0  501  503 -0.00000000000E+00 -0.00000000000E+00 -0.26396817610E+04  0.26396817610E+04  0.00000000000E+00 0. -1.
         25    1    1    2    0    0  0.83160896142E+02 -0.18773456012E+03 -0.12413402945E+04  0.12644013312E+04  0.12500000000E+03 0.  0.
          4    1    1    2  501    0 -0.76839996203E+02  0.16621414791E+03 -0.10283724091E+04  0.10445483904E+04  0.00000000000E+00 0. -1.
         -4    1    1    2    0  502 -0.63208999387E+01  0.21520412206E+02 -0.34999156379E+03  0.35070953315E+03  0.00000000000E+00 0.  1.
<mgrwt>
<rscale>  4 0.23008323E+03</rscale>
<asrwt>0</asrwt>
<pdfrwt beam="1">  1       21 0.30734639E-02 0.23008323E+03</pdfrwt>
<pdfrwt beam="2">  1       21 0.40610444E+00 0.23008323E+03</pdfrwt>
<totfact> 0.46252856E+03</totfact>
</mgrwt>
</event>
<event>
 5    0  0.1702508E-001  0.4502846E+03  0.7546771E-02  0.1027637E+00
         21   -1    0    0  503  502  0.00000000000E+00  0.00000000000E+00  0.46310188567E+03  0.46310188567E+03  0.00000000000E+00 0. -1.
         21   -1    0    0  501  503 -0.00000000000E+00 -0.00000000000E+00 -0.15421109659E+04  0.15421109659E+04  0.00000000000E+00 0. -1.
         25    1    1    2    0    0 -0.14869151522E+03 -0.41001423827E+03  0.22258080904E+03  0.50535933635E+03  0.12500000000E+03 0.  0.
          2    1    1    2  501    0  0.30670867255E+03  0.32616552861E+03 -0.46951553549E+03  0.64876729259E+03  0.00000000000E+00 0.  1.
         -2    1    1    2    0  502 -0.15801715733E+03  0.83848709664E+02 -0.83207435381E+03  0.85108622266E+03  0.00000000000E+00 0. -1.
<mgrwt>
<rscale>  4 0.45028456E+03</rscale>
<asrwt>0</asrwt>
<pdfrwt beam="1">  1       21 0.71246443E-01 0.45028456E+03</pdfrwt>
<pdfrwt beam="2">  1       21 0.23724784E+00 0.45028456E+03</pdfrwt>
<totfact> 0.11137713E+02</totfact>
</mgrwt>
</event>
<event>
 5    0  0.1702508E-001  0.4502776E+03  0.7546771E-02  0.1027639E+00
         21   -1    0    0  503  502  0.00000000000E+00  0.00000000000E+00  0.65201801669E+03  0.65201801669E+03  0.00000000000E+00 0. -1.
         21   -1    0    0  501  503 -0.00000000000E+00 -0.00000000000E+00 -0.48517641051E+03  0.48517641051E+03  0.00000000000E+00 0. -1.
         25    1    1    2    0    0 -0.37409877897E+03  0.22669208332E+03  0.41723263484E+03  0.61729026288E+03  0.12500000000E+03 0.  0.
          1    1    1    2  501    0  0.19389909185E+02 -0.78901633461E+01 -0.56484024205E+02  0.60238428318E+02  0.00000000000E+00 0.  1.
         -1    1    1    2    0  502  0.35470886978E+03 -0.21880191997E+03 -0.19390700446E+03  0.45966573601E+03  0.00000000000E+00 0. -1.
<mgrwt>
<rscale>  4 0.45027759E+03</rscale>
<asrwt>0</asrwt>
<pdfrwt beam="1">  1       21 0.10031046E+00 0.45027759E+03</pdfrwt>
<pdfrwt beam="2">  1       21 0.74642525E-01 0.45027759E+03</pdfrwt>
<totfact> 0.11158112E+03</totfact>
</mgrwt>
</event>
<event>
 5    0  0.1702508E-001  0.3466145E+03  0.7546771E-02  0.1064013E+00
         21   -1    0    0  503  502  0.00000000000E+00  0.00000000000E+00  0.17117381420E+03  0.17117381420E+03  0.00000000000E+00 0. -1.
         21   -1    0    0  501  503 -0.00000000000E+00 -0.00000000000E+00 -0.13101109221E+04  0.13101109221E+04  0.00000000000E+00 0.  1.
         25    1    1    2    0    0  0.82229103721E+02 -0.31671856118E+03 -0.86889974456E+02  0.36089768655E+03  0.12500000000E+03 0.  0.
          1    1    1    2  501    0 -0.61012098970E+02  0.30506236351E+03 -0.68265143949E+03  0.75019898006E+03  0.00000000000E+00 0. -1.
         -1    1    1    2    0  502 -0.21217004751E+02  0.11656197669E+02 -0.36939569400E+03  0.37018806974E+03  0.00000000000E+00 0.  1.
<mgrwt>
<rscale>  4 0.34661455E+03</rscale>
<asrwt>0</asrwt>
<pdfrwt beam="1">  1       21 0.26334433E-01 0.34661455E+03</pdfrwt>
<pdfrwt beam="2">  1       21 0.20155552E+00 0.34661455E+03</pdfrwt>
<totfact> 0.15938339E+03</totfact>
</mgrwt>
</event>
<event>
 5    0  0.1702508E-001  0.2525638E+03  0.7546771E-02  0.1111695E+00
         21   -1    0    0  503  502  0.00000000000E+00  0.00000000000E+00  0.28715911592E+03  0.28715911592E+03  0.00000000000E+00 0.  1.
         21   -1    0    0  501  503 -0.00000000000E+00 -0.00000000000E+00 -0.31072796605E+03  0.31072796605E+03  0.00000000000E+00 0. -1.
         25    1    1    2    0    0 -0.12627294480E+03 -0.20086382627E+03  0.69933991584E+02  0.27714057168E+03  0.12500000000E+03 0.  0.
          4    1    1    2  501    0  0.22697497537E+02  0.13821148873E+02  0.54553656295E+02  0.60681973977E+02  0.00000000000E+00 0.  1.
         -4    1    1    2    0  502  0.10357544726E+03  0.18704267739E+03 -0.14805649802E+03  0.26006453631E+03  0.00000000000E+00 0. -1.
<mgrwt>
<rscale>  4 0.25256384E+03</rscale>
<asrwt>0</asrwt>
<pdfrwt beam="1">  1       21 0.44178326E-01 0.25256384E+03</pdfrwt>
<pdfrwt beam="2">  1       21 0.47804302E-01 0.25256384E+03</pdfrwt>
<totfact> 0.19928221E+04</totfact>
</mgrwt>
</event>
<event>
 5    0  0.1702508E-001  0.2133345E+03  0.7546771E-02  0.1138952E+00
         21   -1    0    0  503  502  0.00000000000E+00  0.00000000000E+00  0.76600428350E+03  0.76600428350E+03  0.00000000000E+00 0.  1.
         21   -1    0    0  501  503 -0.00000000000E+00 -0.00000000000E+00 -0.13377690675E+03  0.13377690675E+03  0.00000000000E+00 0.  1.
         25    1    1    2    0    0 -0.19052220618E+03  0.13459476696E+03  0.48114459915E+03  0.54912620374E+03  0.12500000000E+03 0.  0.
          3    1    1    2  501    0  0.13185682744E+03 -0.37577029213E+02  0.18686304719E+03  0.23176724202E+03  0.00000000000E+00 0. -1.
         -3    1    1    2    0  502  0.58665378733E+02 -0.97017737745E+02 -0.35780269598E+02  0.11888774450E+03  0.00000000000E+00 0.  1.
<mgrwt>
<rscale>  4 0.21333449E+03</rscale>
<asrwt>0</asrwt>
<pdfrwt beam="1">  1       21 0.11784681E+00 0.21333449E+03</pdfrwt>
<pdfrwt beam="2">  1       21 0.20581063E-01 0.21333449E+03</pdfrwt>
<totfact> 0.11912887E+04</totfact>
</mgrwt>
</event>
