<event>
 5    0  0.1911311E+001  0.2322347E+03  0.7546771E-02  0.1125077E+00
         21   -1    0    0  504  501  0.00000000000E+00  0.00000000000E+00  0.22234577557E+03  0.22234577557E+03  0.00000000000E+00 0. -1.
         21   -1    0    0  503  502 -0.00000000000E+00 -0.00000000000E+00 -0.21336946802E+04  0.21336946802E+04  0.00000000000E+00 0. -1.
         25    1    1    2    0    0 -0.16159630910E+03 -0.13693451482E+03  0.13315540640E+03  0.27967801258E+03  0.12500000000E+03 0.  0.
         21    1    1    2  503  501  0.11791425213E+03  0.15589829601E+03 -0.20049529491E+04  0.20144588300E+04  0.00000000000E+00 0. -1.
         21    1    1    2  504  502  0.43682056975E+02 -0.18963781193E+02 -0.39551361902E+02  0.61903613198E+02  0.00000000000E+00 0. -1.
<mgrwt>
<rscale>  4 0.23223474E+03</rscale>
<asrwt>0</asrwt>
<pdfrwt beam="1">  1       21 0.34207044E-01 0.23223474E+03</pdfrwt>
<pdfrwt beam="2">  1       21 0.32826071E+00 0.23223474E+03</pdfrwt>
<totfact> 0.18193880E+02</totfact>
</mgrwt>
</event>
<event>
 5    0  0.1911311E+001  0.2649078E+03  0.7546771E-02  0.1104230E+00
         21   -1    0    0  503  501  0.00000000000E+00  0.00000000000E+00  0.26554883446E+03  0.26554883446E+03  0.00000000000E+00 0. -1.
         21   -1    0    0  501  502 -0.00000000000E+00 -0.00000000000E+00 -0.27666533810E+03  0.27666533810E+03  0.00000000000E+00 0. -1.
         25    1    1    2    0    0  0.11229103323E+03 -0.20569572262E+03 -0.82308231561E+02  0.27806411389E+03  0.12500000000E+03 0.  0.
         21    1    1    2  503  504 -0.19785050114E+02 -0.80742467561E+01  0.78352268033E+01  0.22760326178E+02  0.00000000000E+00 0.  1.
         21    1    1    2  504  502 -0.92505983121E+02  0.21376996937E+03  0.63356501127E+02  0.24138973250E+03  0.00000000000E+00 0. -1.
<mgrwt>
<rscale>  4 0.26490781E+03</rscale>
<asrwt>0</asrwt>
<pdfrwt beam="1">  1       21 0.40853667E-01 0.26490781E+03</pdfrwt>
<pdfrwt beam="2">  1       21 0.42563898E-01 0.26490781E+03</pdfrwt>
<totfact> 0.29590162E+04</totfact>
</mgrwt>
</event>
<event>
 5    0  0.1911311E+001  0.2058978E+03  0.7546771E-02  0.1144856E+00
         21   -1    0    0  504  501  0.00000000000E+00  0.00000000000E+00  0.21630114997E+03  0.21630114997E+03  0.00000000000E+00 0.  1.
         21   -1    0    0  503  502 -0.00000000000E+00 -0.00000000000E+00 -0.28598487012E+03  0.28598487012E+03  0.00000000000E+00 0.  1.
         25    1    1    2    0    0 -0.20672331766E+03  0.34064005126E+02 -0.24596221182E+02  0.24520371246E+03  0.12500000000E+03 0.  0.
         21    1    1    2  503  501  0.63755768732E+02 -0.62099565252E+02 -0.64761996110E+02  0.11006938808E+03  0.00000000000E+00 0.  1.
         21    1    1    2  504  502  0.14296754893E+03  0.28035560126E+02  0.19674497145E+02  0.14701291955E+03  0.00000000000E+00 0.  1.
<mgrwt>
<rscale>  4 0.20589777E+03</rscale>
<asrwt>0</asrwt>
<pdfrwt beam="1">  1       21 0.33277100E-01 0.20589777E+03</pdfrwt>
<pdfrwt beam="2">  1       21 0.43997672E-01 0.20589777E+03</pdfrwt>
<totfact> 0.42867664E+04</totfact>
</mgrwt>
</event>
<event>
 5    0  0.1911311E+001  0.2285192E+03  0.7546771E-02  0.1127686E+00
         21   -1    0    0  502  501  0.00000000000E+00  0.00000000000E+00  0.28976399897E+03  0.28976399897E+03  0.00000000000E+00 0.  1.
         21   -1    0    0  504  502 -0.00000000000E+00 -0.00000000000E+00 -0.51601966561E+03  0.51601966561E+03  0.00000000000E+00 0.  1.
         25    1    1    2    0    0  0.10727198660E+03  0.21781206089E+03 -0.80716456696E+02  0.28476221547E+03  0.12500000000E+03 0.  0.
         21    1    1    2  503  501 -0.45211716353E+02 -0.17398009886E+03  0.13854435545E+03  0.22695310644E+03  0.00000000000E+00 0.  1.
         21    1    1    2  504  503 -0.62060270247E+02 -0.43831962023E+02 -0.28408356539E+03  0.29406834267E+03  0.00000000000E+00 0.  1.
<mgrwt>
<rscale>  4 0.22851915E+03</rscale>
<asrwt>0</asrwt>
<pdfrwt beam="1">  1       21 0.44579077E-01 0.22851915E+03</pdfrwt>
<pdfrwt beam="2">  1       21 0.79387640E-01 0.22851915E+03</pdfrwt>
<totfact> 0.65910301E+03</totfact>
</mgrwt>
</event>
<event>
 5    0  0.1911311E+001  0.2315555E+03  0.7546771E-02  0.1125550E+00
         21   -1    0    0  502  501  0.00000000000E+00  0.00000000000E+00  0.14358490695E+03  0.14358490695E+03  0.00000000000E+00 0. -1.
         21   -1    0    0  504  502 -0.00000000000E+00 -0.00000000000E+00 -0.45564842937E+03  0.45564842937E+03  0.00000000000E+00 0. -1.
         25    1    1    2    0    0 -0.12230880821E+02 -0.22135744937E+03 -0.21423680235E+03  0.33267269548E+03  0.12500000000E+03 0.  0.
         21    1    1    2  503  501  0.17474736690E+02  0.18366085796E+03 -0.27408303456E+02  0.18651512611E+03  0.00000000000E+00 0. -1.
         21    1    1    2  504  503 -0.52438558696E+01  0.37696591410E+02 -0.70418416610E+02  0.80045514716E+02  0.00000000000E+00 0. -1.
<mgrwt>
<rscale>  4 0.23155553E+03</rscale>
<asrwt>0</asrwt>
<pdfrwt beam="1">  1       21 0.22089986E-01 0.23155553E+03</pdfrwt>
<pdfrwt beam="2">  1       21 0.70099757E-01 0.23155553E+03</pdfrwt>
<totfact> 0.34686041E+04</totfact>
</mgrwt>
</event>
<event>
 5    0  0.1911311E+001  0.2721234E+03  0.7546771E-02  0.1100070E+00
         21   -1    0    0  502  501  0.00000000000E+00  0.00000000000E+00  0.26733364669E+03  0.26733364669E+03  0.00000000000E+00 0. -1.
         21   -1    0    0  504  502 -0.00000000000E+00 -0.00000000000E+00 -0.53817239810E+03  0.53817239810E+03  0.00000000000E+00 0. -1.
         25    1    1    2    0    0  0.15774208753E+03  0.19497513115E+03 -0.20861214766E+02  0.28099476548E+03  0.12500000000E+03 0.  0.
         21    1    1    2  503  501 -0.30627951432E+02  0.80269160553E+01  0.97483135872E+02  0.10249616856E+03  0.00000000000E+00 0. -1.
         21    1    1    2  504  503 -0.12711413610E+03 -0.20300204720E+03 -0.34746067251E+03  0.42201511076E+03  0.00000000000E+00 0. -1.
<mgrwt>
<rscale>  4 0.27212336E+03</rscale>
<asrwt>0</asrwt>
<pdfrwt beam="1">  1       21 0.41128254E-01 0.27212336E+03</pdfrwt>
<pdfrwt beam="2">  1       21 0.82795753E-01 0.27212336E+03</pdfrwt>
<totfact> 0.68853304E+03</totfact>
</mgrwt>
</event>
<event>
 5    0  0.1911311E+001  0.2585028E+03  0.7546771E-02  0.1108046E+00
         21   -1    0    0  504  501  0.00000000000E+00  0.00000000000E+00  0.29170551076E+03  0.29170551076E+03  0.00000000000E+00 0. -1.
         21   -1    0    0  501  502 -0.00000000000E+00 -0.00000000000E+00 -0.44909529477E+03  0.44909529477E+03  0.00000000000E+00 0. -1.
         25    1    1    2    0    0  0.15201589422E+03  0.18652193843E+03  0.15670200850E+03  0.31317692297E+03  0.12500000000E+03 0.  0.
         21    1    1    2  503  502 -0.14135858312E+03 -0.13385352801E+03 -0.12573164467E+03  0.23174870539E+03  0.00000000000E+00 0. -1.
         21    1    1    2  504  503 -0.10657311107E+02 -0.52668410427E+02 -0.18836014784E+03  0.19587517717E+03  0.00000000000E+00 0. -1.
<mgrwt>
<rscale>  4 0.25850275E+03</rscale>
<asrwt>0</asrwt>
<pdfrwt beam="1">  1       21 0.44877771E-01 0.25850275E+03</pdfrwt>
<pdfrwt beam="2">  1       21 0.69091584E-01 0.25850275E+03</pdfrwt>
<totfact> 0.87191319E+03</totfact>
</mgrwt>
</event>
