<event>
 5    0  0.3652759E+000  0.3447590E+03  0.7546771E-02  0.1065002E+00
         21   -1    0    0  502  501  0.00000000000E+00  0.00000000000E+00  0.14543558515E+03  0.14543558515E+03  0.00000000000E+00 0. -1.
         21   -1    0    0  503  502 -0.00000000000E+00 -0.00000000000E+00 -0.81751795259E+03  0.81751795259E+03  0.00000000000E+00 0. -1.
         25    1    1    2    0    0  0.27797608100E+03  0.15669540959E+03 -0.29697646659E+03  0.45348007090E+03  0.12500000000E+03 0.  0.
         21    1    1    2  503  504 -0.21534117271E+03 -0.13061182218E+03 -0.19975915896E+03  0.32145760272E+03  0.00000000000E+00 0. -1.
         21    1    1    2  504  501 -0.62634908291E+02 -0.26083587410E+02 -0.17534674189E+03  0.18801586412E+03  0.00000000000E+00 0. -1.
<mgrwt>
<rscale>  4 0.34424525E+03</rscale>
<asrwt>0</asrwt>
<pdfrwt beam="1">  1       21 0.22374706E-01 0.34475901E+03</pdfrwt>
<pdfrwt beam="2">  1       21 0.12577199E+00 0.34475901E+03</pdfrwt>
<totfact> 0.80569745E+03</totfact>
</mgrwt>
</event>
<event>
 5    0  0.2159162E+000  0.2682418E+03  0.7546771E-02  0.1102290E+00
         21   -1    0    0  502  501  0.00000000000E+00  0.00000000000E+00  0.74140149470E+02  0.74140149470E+02  0.00000000000E+00 0. -1.
         21   -1    0    0  503  502 -0.00000000000E+00 -0.00000000000E+00 -0.11420966872E+04  0.11420966872E+04  0.00000000000E+00 0. -1.
         25    1    1    2    0    0  0.23024931783E+03  0.57566424714E+02 -0.27998708553E+03  0.38774528969E+03  0.12500000000E+03 0.  0.
         21    1    1    2  503  504 -0.66408028444E+02 -0.52781320368E+02 -0.18291039561E+03  0.20162367630E+03  0.00000000000E+00 0. -1.
         21    1    1    2  504  501 -0.16384128938E+03 -0.47851043469E+01 -0.60505905662E+03  0.62686787071E+03  0.00000000000E+00 0. -1.
<mgrwt>
<rscale>  4 0.26824176E+03</rscale>
<asrwt>0</asrwt>
<pdfrwt beam="1">  1       21 0.11406177E-01 0.26824176E+03</pdfrwt>
<pdfrwt beam="2">  1       21 0.17570718E+00 0.26824176E+03</pdfrwt>
<totfact> 0.11889288E+04</totfact>
</mgrwt>
</event>
<event>
 5    0  0.2159162E+000  0.2757220E+03  0.7546771E-02  0.1098049E+00
         21   -1    0    0  502  501  0.00000000000E+00  0.00000000000E+00  0.43109038764E+03  0.43109038764E+03  0.00000000000E+00 0. -1.
         21   -1    0    0  503  502 -0.00000000000E+00 -0.00000000000E+00 -0.45686053330E+03  0.45686053330E+03  0.00000000000E+00 0.  1.
         25    1    1    2    0    0  0.16667752312E+03 -0.18072311599E+03  0.33351922518E+03  0.43278437464E+03  0.12500000000E+03 0.  0.
         21    1    1    2  503  504 -0.22142499763E+02 -0.19150352145E+02 -0.64245012812E+02  0.70600622902E+02  0.00000000000E+00 0.  1.
         21    1    1    2  504  501 -0.14453502336E+03  0.19987346813E+03 -0.29504435802E+03  0.38456592340E+03  0.00000000000E+00 0.  1.
<mgrwt>
<rscale>  4 0.27572196E+03</rscale>
<asrwt>0</asrwt>
<pdfrwt beam="1">  1       21 0.66321599E-01 0.27572196E+03</pdfrwt>
<pdfrwt beam="2">  1       21 0.70286235E-01 0.27572196E+03</pdfrwt>
<totfact> 0.36138376E+03</totfact>
</mgrwt>
</event>
<event>
 5    0  0.2615510E+000  0.2085493E+03  0.7546771E-02  0.1142720E+00
         21   -1    0    0  502  501  0.00000000000E+00  0.00000000000E+00  0.32551815184E+03  0.32551815184E+03  0.00000000000E+00 0.  1.
         21   -1    0    0  503  502 -0.00000000000E+00 -0.00000000000E+00 -0.20091403348E+03  0.20091403348E+03  0.00000000000E+00 0.  1.
         25    1    1    2    0    0  0.19868886219E+03  0.37287817857E+02  0.17519460321E+03  0.29527240696E+03  0.12500000000E+03 0.  0.
         21    1    1    2  503  504 -0.66091794093E+02 -0.31486128749E+02 -0.64682337642E+02  0.97689847747E+02  0.00000000000E+00 0.  1.
         21    1    1    2  504  501 -0.13259706809E+03 -0.58016891077E+01  0.14091852792E+02  0.13346993062E+03  0.00000000000E+00 0.  1.
<mgrwt>
<rscale>  4 0.20854929E+03</rscale>
<asrwt>0</asrwt>
<pdfrwt beam="1">  1       21 0.50079716E-01 0.20854929E+03</pdfrwt>
<pdfrwt beam="2">  1       21 0.30909851E-01 0.20854929E+03</pdfrwt>
<totfact> 0.37863433E+04</totfact>
</mgrwt>
</event>
<event>
 5    0  0.2159162E+000  0.2533881E+03  0.7546771E-02  0.1111182E+00
         21   -1    0    0  502  501  0.00000000000E+00  0.00000000000E+00  0.90860385193E+03  0.90860385193E+03  0.00000000000E+00 0.  1.
         21   -1    0    0  503  502 -0.00000000000E+00 -0.00000000000E+00 -0.30634477311E+03  0.30634477311E+03  0.00000000000E+00 0. -1.
         25    1    1    2    0    0  0.21349050864E+03 -0.15233312084E+02  0.75550714564E+03  0.79512659256E+03  0.12500000000E+03 0.  0.
         21    1    1    2  503  504  0.78118703535E+02 -0.45284454751E+02 -0.15219736969E+02  0.91568848838E+02  0.00000000000E+00 0. -1.
         21    1    1    2  504  501 -0.29160921218E+03  0.60517766835E+02 -0.13802832985E+03  0.32825318364E+03  0.00000000000E+00 0. -1.
<mgrwt>
<rscale>  4 0.25338805E+03</rscale>
<asrwt>0</asrwt>
<pdfrwt beam="1">  1       21 0.13978521E+00 0.25338805E+03</pdfrwt>
<pdfrwt beam="2">  1       21 0.47129966E-01 0.25338805E+03</pdfrwt>
<totfact> 0.14677553E+03</totfact>
</mgrwt>
</event>
<event>
 5    0  0.2159162E+000  0.3047965E+03  0.7546771E-02  0.1082867E+00
         21   -1    0    0  502  501  0.00000000000E+00  0.00000000000E+00  0.38345961741E+03  0.38345961741E+03  0.00000000000E+00 0.  1.
         21   -1    0    0  503  502 -0.00000000000E+00 -0.00000000000E+00 -0.45848546971E+03  0.45848546971E+03  0.00000000000E+00 0.  1.
         25    1    1    2    0    0 -0.36952903252E+03  0.85505958979E+01  0.83696815455E+02  0.39906763272E+03  0.12500000000E+03 0.  0.
         21    1    1    2  503  504  0.11524318068E+03 -0.64848309100E+01  0.37840748297E+02  0.12147002081E+03  0.00000000000E+00 0.  1.
         21    1    1    2  504  501  0.25428585185E+03 -0.20657649878E+01 -0.19656341605E+03  0.32140743358E+03  0.00000000000E+00 0.  1.
<mgrwt>
<rscale>  4 0.30479646E+03</rscale>
<asrwt>0</asrwt>
<pdfrwt beam="1">  1       21 0.58993787E-01 0.30479646E+03</pdfrwt>
<pdfrwt beam="2">  1       21 0.70536226E-01 0.30479646E+03</pdfrwt>
<totfact> 0.45581373E+03</totfact>
</mgrwt>
</event>
