<event>
 5    0  0.1283376E+001  0.2425206E+03  0.7546771E-02  0.1118125E+00
         21   -1    0    0  503  501  0.00000000000E+00  0.00000000000E+00  0.44873067201E+03  0.44873067201E+03  0.00000000000E+00 0.  1.
         21   -1    0    0  504  502 -0.00000000000E+00 -0.00000000000E+00 -0.69400013631E+03  0.69400013631E+03  0.00000000000E+00 0. -1.
         25    1    1    2    0    0 -0.19918867479E+03 -0.26198625072E+02  0.23683359478E+03  0.33477999901E+03  0.12500000000E+03 0.  0.
         21    1    1    2  503  502  0.21862274530E+03  0.81896599389E+01  0.89034278384E+02  0.23619923374E+03  0.00000000000E+00 0.  1.
         21    1    1    2  504  501 -0.19434070509E+02  0.18008965133E+02 -0.57113733746E+03  0.57175157557E+03  0.00000000000E+00 0. -1.
<mgrwt>
<rscale>  4 0.24252064E+03</rscale>
<asrwt>0</asrwt>
<pdfrwt beam="1">  1       21 0.69035489E-01 0.24252064E+03</pdfrwt>
<pdfrwt beam="2">  1       21 0.10676925E+00 0.24252064E+03</pdfrwt>
<totfact> 0.12827949E+03</totfact>
</mgrwt>
</event>
<event>
 5    0  0.1283376E+001  0.2846722E+03  0.7546771E-02  0.1093164E+00
         21   -1    0    0  503  501  0.00000000000E+00  0.00000000000E+00  0.14902273787E+03  0.14902273787E+03  0.00000000000E+00 0. -1.
         21   -1    0    0  504  502 -0.00000000000E+00 -0.00000000000E+00 -0.94984551752E+03  0.94984551752E+03  0.00000000000E+00 0. -1.
         25    1    1    2    0    0 -0.16712536836E+03  0.18187500074E+03 -0.91932062337E+02  0.29169488979E+03  0.12500000000E+03 0.  0.
         21    1    1    2  503  502  0.20577466786E+03 -0.18184480150E+03 -0.34364913757E+03  0.43989257270E+03  0.00000000000E+00 0. -1.
         21    1    1    2  504  501 -0.38649299497E+02 -0.30199233072E-01 -0.36524157974E+03  0.36728079290E+03  0.00000000000E+00 0. -1.
<mgrwt>
<rscale>  4 0.28467220E+03</rscale>
<asrwt>0</asrwt>
<pdfrwt beam="1">  1       21 0.22926574E-01 0.28467220E+03</pdfrwt>
<pdfrwt beam="2">  1       21 0.14613008E+00 0.28467220E+03</pdfrwt>
<totfact> 0.53626541E+03</totfact>
</mgrwt>
</event>
<event>
 5    0  0.1283376E+001  0.3455197E+03  0.7546771E-02  0.1064469E+00
         21   -1    0    0  503  501  0.00000000000E+00  0.00000000000E+00  0.58313879495E+03  0.58313879495E+03  0.00000000000E+00 0.  1.
         21   -1    0    0  504  502 -0.00000000000E+00 -0.00000000000E+00 -0.60348988080E+03  0.60348988080E+03  0.00000000000E+00 0.  1.
         25    1    1    2    0    0  0.21885446136E+03  0.16597559480E+03  0.15191997291E+03  0.33786069836E+03  0.12500000000E+03 0.  0.
         21    1    1    2  503  502 -0.21697019930E+03 -0.33010131456E+03  0.19937854351E+03  0.44248700418E+03  0.00000000000E+00 0.  1.
         21    1    1    2  504  501 -0.18842620670E+01  0.16412571976E+03 -0.37164960227E+03  0.40628097321E+03  0.00000000000E+00 0.  1.
<mgrwt>
<rscale>  4 0.34551975E+03</rscale>
<asrwt>0</asrwt>
<pdfrwt beam="1">  1       21 0.89713661E-01 0.34551975E+03</pdfrwt>
<pdfrwt beam="2">  1       21 0.92844597E-01 0.34551975E+03</pdfrwt>
<totfact> 0.92228328E+02</totfact>
</mgrwt>
</event>
<event>
 5    0  0.1283376E+001  0.2898998E+03  0.7546771E-02  0.1090401E+00
         21   -1    0    0  503  501  0.00000000000E+00  0.00000000000E+00  0.92053916410E+03  0.92053916410E+03  0.00000000000E+00 0.  1.
         21   -1    0    0  504  502 -0.00000000000E+00 -0.00000000000E+00 -0.64130130988E+03  0.64130130988E+03  0.00000000000E+00 0.  1.
         25    1    1    2    0    0 -0.25425116093E+03  0.61252179898E+02  0.85075905716E+03  0.89878331967E+03  0.12500000000E+03 0.  0.
         21    1    1    2  503  502  0.97969819322E+01  0.44421414359E+02 -0.18225284756E+02  0.49004121389E+02  0.00000000000E+00 0.  1.
         21    1    1    2  504  501  0.24445417900E+03 -0.10567359426E+03 -0.55329591819E+03  0.61405303292E+03  0.00000000000E+00 0.  1.
<mgrwt>
<rscale>  4 0.28989979E+03</rscale>
<asrwt>0</asrwt>
<pdfrwt beam="1">  1       21 0.14162141E+00 0.28989979E+03</pdfrwt>
<pdfrwt beam="2">  1       21 0.98661739E-01 0.28989979E+03</pdfrwt>
<totfact> 0.26720494E+02</totfact>
</mgrwt>
</event>
<event>
 5    0  0.1283376E+001  0.3573599E+03  0.7546771E-02  0.1059634E+00
         21   -1    0    0  504  501  0.00000000000E+00  0.00000000000E+00  0.32897636318E+03  0.32897636318E+03  0.00000000000E+00 0. -1.
         21   -1    0    0  501  502 -0.00000000000E+00 -0.00000000000E+00 -0.86064816498E+03  0.86064816498E+03  0.00000000000E+00 0. -1.
         25    1    1    2    0    0 -0.26286252796E+03  0.31540656618E+03  0.62901794468E+02  0.43377372712E+03  0.12500000000E+03 0.  0.
         21    1    1    2  503  502  0.15658539518E+03 -0.98308396004E+02 -0.41628322320E+03  0.45549450998E+03  0.00000000000E+00 0. -1.
         21    1    1    2  504  503  0.10627713278E+03 -0.21709817018E+03 -0.17829037308E+03  0.30035629106E+03  0.00000000000E+00 0. -1.
<mgrwt>
<rscale>  4 0.35735993E+03</rscale>
<asrwt>0</asrwt>
<pdfrwt beam="1">  1       21 0.50611749E-01 0.35735993E+03</pdfrwt>
<pdfrwt beam="2">  1       21 0.13240741E+00 0.35735993E+03</pdfrwt>
<totfact> 0.13627951E+03</totfact>
</mgrwt>
</event>
<event>
 5    0  0.1283376E+001  0.2705875E+03  0.7546771E-02  0.1100944E+00
         21   -1    0    0  503  501  0.00000000000E+00  0.00000000000E+00  0.82752768328E+03  0.82752768328E+03  0.00000000000E+00 0.  1.
         21   -1    0    0  504  502 -0.00000000000E+00 -0.00000000000E+00 -0.51915678300E+03  0.51915678300E+03  0.00000000000E+00 0.  1.
         25    1    1    2    0    0  0.24323264402E+03 -0.13824611805E+02  0.76044308156E+03  0.80824001342E+03  0.12500000000E+03 0.  0.
         21    1    1    2  503  502 -0.20254701768E+03 -0.56777392009E+01 -0.20854249345E+03  0.29077053267E+03  0.00000000000E+00 0.  1.
         21    1    1    2  504  501 -0.40685626336E+02  0.19502351006E+02 -0.24352968783E+03  0.24767392018E+03  0.00000000000E+00 0.  1.
<mgrwt>
<rscale>  4 0.27058746E+03</rscale>
<asrwt>0</asrwt>
<pdfrwt beam="1">  1       21 0.12731195E+00 0.27058746E+03</pdfrwt>
<pdfrwt beam="2">  1       21 0.79870275E-01 0.27058746E+03</pdfrwt>
<totfact> 0.58480280E+02</totfact>
</mgrwt>
</event>
<event>
 5    0  0.1283376E+001  0.2772301E+03  0.7546771E-02  0.1097212E+00
         21   -1    0    0  504  501  0.00000000000E+00  0.00000000000E+00  0.79278606656E+03  0.79278606656E+03  0.00000000000E+00 0.  1.
         21   -1    0    0  503  502 -0.00000000000E+00 -0.00000000000E+00 -0.20105053026E+04  0.20105053026E+04  0.00000000000E+00 0.  1.
         25    1    1    2    0    0 -0.22931327942E+03 -0.11986459643E+03  0.73761070990E+03  0.79161016982E+03  0.12500000000E+03 0.  0.
         21    1    1    2  503  501  0.13916472415E+03  0.66266655337E+02 -0.19656365639E+03  0.24979063447E+03  0.00000000000E+00 0.  1.
         21    1    1    2  504  502  0.90148555272E+02  0.53597941095E+02 -0.17587662896E+04  0.17618905649E+04  0.00000000000E+00 0.  1.
<mgrwt>
<rscale>  4 0.27723007E+03</rscale>
<asrwt>0</asrwt>
<pdfrwt beam="1">  1       21 0.12196709E+00 0.27723007E+03</pdfrwt>
<pdfrwt beam="2">  1       21 0.30930850E+00 0.27723007E+03</pdfrwt>
<totfact> 0.13354254E+01</totfact>
</mgrwt>
</event>
<event>
 5    0  0.1283376E+001  0.3101219E+03  0.7546771E-02  0.1080287E+00
         21   -1    0    0  503  501  0.00000000000E+00  0.00000000000E+00  0.12204194651E+04  0.12204194651E+04  0.00000000000E+00 0.  1.
         21   -1    0    0  504  502 -0.00000000000E+00 -0.00000000000E+00 -0.10431067678E+03  0.10431067678E+03  0.00000000000E+00 0.  1.
         25    1    1    2    0    0 -0.25619819157E+03 -0.18003862034E+03  0.69463950389E+03  0.77214018062E+03  0.12500000000E+03 0.  0.
         21    1    1    2  503  502  0.15575416300E+03  0.19906114986E+03  0.26993845964E+03  0.36979923292E+03  0.00000000000E+00 0.  1.
         21    1    1    2  504  501  0.10044402857E+03 -0.19022529517E+02  0.15153082479E+03  0.18279072834E+03  0.00000000000E+00 0. -1.
<mgrwt>
<rscale>  4 0.31012188E+03</rscale>
<asrwt>0</asrwt>
<pdfrwt beam="1">  1       21 0.18775683E+00 0.31012188E+03</pdfrwt>
<pdfrwt beam="2">  1       21 0.16047797E-01 0.31012188E+03</pdfrwt>
<totfact> 0.51472286E+03</totfact>
</mgrwt>
</event>
<event>
 5    0  0.1283376E+001  0.2498627E+03  0.7546771E-02  0.1113392E+00
         21   -1    0    0  504  501  0.00000000000E+00  0.00000000000E+00  0.97144467064E+03  0.97144467064E+03  0.00000000000E+00 0.  1.
         21   -1    0    0  501  502 -0.00000000000E+00 -0.00000000000E+00 -0.83178612001E+02  0.83178612001E+02  0.00000000000E+00 0.  1.
         25    1    1    2    0    0 -0.83264698833E+02  0.19968316629E+03  0.75144704228E+03  0.79189900512E+03  0.12500000000E+03 0.  0.
         21    1    1    2  503  502  0.80654795516E+02 -0.17157796864E+03  0.94448713755E+02  0.21181301871E+03  0.00000000000E+00 0.  1.
         21    1    1    2  504  503  0.26099033170E+01 -0.28105197650E+02  0.42370302606E+02  0.50911258806E+02  0.00000000000E+00 0.  1.
<mgrwt>
<rscale>  4 0.24986272E+03</rscale>
<asrwt>0</asrwt>
<pdfrwt beam="1">  1       21 0.14945302E+00 0.24986272E+03</pdfrwt>
<pdfrwt beam="2">  1       21 0.12796710E-01 0.24986272E+03</pdfrwt>
<totfact> 0.15214832E+04</totfact>
</mgrwt>
</event>
<event>
 5    0  0.1283376E+001  0.4732773E+03  0.7546771E-02  0.1020999E+00
         21   -1    0    0  504  501  0.00000000000E+00  0.00000000000E+00  0.36668814002E+03  0.36668814002E+03  0.00000000000E+00 0. -1.
         21   -1    0    0  501  502 -0.00000000000E+00 -0.00000000000E+00 -0.67929931517E+03  0.67929931517E+03  0.00000000000E+00 0. -1.
         25    1    1    2    0    0  0.43230228610E+03 -0.16039245575E+03 -0.80813974232E+02  0.48452750682E+03  0.12500000000E+03 0.  0.
         21    1    1    2  503  502 -0.34644975974E+00  0.28172921982E+02 -0.80132233872E+02  0.84941205935E+02  0.00000000000E+00 0. -1.
         21    1    1    2  504  503 -0.43195583634E+03  0.13221953377E+03 -0.15166496705E+03  0.47651874243E+03  0.00000000000E+00 0. -1.
<mgrwt>
<rscale>  4 0.47327733E+03</rscale>
<asrwt>0</asrwt>
<pdfrwt beam="1">  1       21 0.56413561E-01 0.47327733E+03</pdfrwt>
<pdfrwt beam="2">  1       21 0.10450759E+00 0.47327733E+03</pdfrwt>
<totfact> 0.18643143E+03</totfact>
</mgrwt>
</event>
<event>
 5    0  0.1283376E+001  0.5251711E+03  0.7546771E-02  0.1007410E+00
         21   -1    0    0  503  501  0.00000000000E+00  0.00000000000E+00  0.42626792960E+03  0.42626792960E+03  0.00000000000E+00 0. -1.
         21   -1    0    0  504  502 -0.00000000000E+00 -0.00000000000E+00 -0.86608151186E+03  0.86608151186E+03  0.00000000000E+00 0.  1.
         25    1    1    2    0    0  0.56534309045E+03 -0.26832111862E+02 -0.34506589811E+03  0.67455781530E+03  0.12500000000E+03 0.  0.
         21    1    1    2  503  502 -0.83433028725E+02 -0.19753237679E+02 -0.10242473946E+03  0.13357427872E+03  0.00000000000E+00 0.  1.
         21    1    1    2  504  501 -0.48191006172E+03  0.46585349541E+02  0.76770553206E+01  0.48421734744E+03  0.00000000000E+00 0. -1.
<mgrwt>
<rscale>  4 0.52517114E+03</rscale>
<asrwt>0</asrwt>
<pdfrwt beam="1">  1       21 0.65579683E-01 0.52517114E+03</pdfrwt>
<pdfrwt beam="2">  1       21 0.13324331E+00 0.52517114E+03</pdfrwt>
<totfact> 0.70901128E+02</totfact>
</mgrwt>
</event>
<event>
 5    0  0.1283376E+001  0.2801119E+03  0.7546771E-02  0.1095628E+00
         21   -1    0    0  504  501  0.00000000000E+00  0.00000000000E+00  0.15998686638E+04  0.15998686638E+04  0.00000000000E+00 0. -1.
         21   -1    0    0  501  502 -0.00000000000E+00 -0.00000000000E+00 -0.16381857317E+03  0.16381857317E+03  0.00000000000E+00 0. -1.
         25    1    1    2    0    0  0.25514300241E+03 -0.28949069875E+02  0.12391423875E+04  0.12716268544E+04  0.12500000000E+03 0.  0.
         21    1    1    2  503  502 -0.28352102665E+02 -0.44466197403E+02 -0.98945738111E+02  0.11212200287E+03  0.00000000000E+00 0. -1.
         21    1    1    2  504  503 -0.22679089974E+03  0.73415267278E+02  0.29585344122E+03  0.37993837968E+03  0.00000000000E+00 0. -1.
<mgrwt>
<rscale>  4 0.28011193E+03</rscale>
<asrwt>0</asrwt>
<pdfrwt beam="1">  1       21 0.24613363E+00 0.28011193E+03</pdfrwt>
<pdfrwt beam="2">  1       21 0.25202859E-01 0.28011193E+03</pdfrwt>
<totfact> 0.95584756E+02</totfact>
</mgrwt>
</event>
<event>
 5    0  0.1283376E+001  0.2782130E+03  0.7546771E-02  0.1096669E+00
         21   -1    0    0  504  501  0.00000000000E+00  0.00000000000E+00  0.11957475205E+03  0.11957475205E+03  0.00000000000E+00 0. -1.
         21   -1    0    0  501  502 -0.00000000000E+00 -0.00000000000E+00 -0.11192411996E+04  0.11192411996E+04  0.00000000000E+00 0. -1.
         25    1    1    2    0    0 -0.18845859813E+03 -0.15433207233E+03 -0.10346151857E+03  0.29268467261E+03  0.12500000000E+03 0.  0.
         21    1    1    2  503  502 -0.55077581648E+01 -0.33091399992E+02 -0.10204528685E+03  0.10741795344E+03  0.00000000000E+00 0. -1.
         21    1    1    2  504  503  0.19396635629E+03  0.18742347232E+03 -0.79415964217E+03  0.83871332564E+03  0.00000000000E+00 0. -1.
<mgrwt>
<rscale>  4 0.27821296E+03</rscale>
<asrwt>0</asrwt>
<pdfrwt beam="1">  1       21 0.18396116E-01 0.27821296E+03</pdfrwt>
<pdfrwt beam="2">  1       21 0.17219095E+00 0.27821296E+03</pdfrwt>
<totfact> 0.52152155E+03</totfact>
</mgrwt>
</event>
<event>
 5    0  0.1283376E+001  0.4135293E+03  0.7546771E-02  0.1039193E+00
         21   -1    0    0  503  501  0.00000000000E+00  0.00000000000E+00  0.63946373276E+03  0.63946373276E+03  0.00000000000E+00 0. -1.
         21   -1    0    0  504  502 -0.00000000000E+00 -0.00000000000E+00 -0.34796176006E+03  0.34796176006E+03  0.00000000000E+00 0. -1.
         25    1    1    2    0    0 -0.81324352776E+02  0.35176726049E+03  0.21622674605E+03  0.43901350961E+03  0.12500000000E+03 0.  0.
         21    1    1    2  503  502  0.84559123833E+02 -0.44167973851E+03  0.85848324835E+02  0.45782220535E+03  0.00000000000E+00 0. -1.
         21    1    1    2  504  501 -0.32347710571E+01  0.89912478021E+02 -0.10573098193E+02  0.90589777862E+02  0.00000000000E+00 0. -1.
<mgrwt>
<rscale>  4 0.41352931E+03</rscale>
<asrwt>0</asrwt>
<pdfrwt beam="1">  1       21 0.98379036E-01 0.41352931E+03</pdfrwt>
<pdfrwt beam="2">  1       21 0.53532578E-01 0.41352931E+03</pdfrwt>
<totfact> 0.24747815E+03</totfact>
</mgrwt>
</event>
<event>
 5    0  0.1283376E+001  0.2664109E+03  0.7546771E-02  0.1103351E+00
         21   -1    0    0  503  501  0.00000000000E+00  0.00000000000E+00  0.77479437677E+03  0.77479437677E+03  0.00000000000E+00 0. -1.
         21   -1    0    0  504  502 -0.00000000000E+00 -0.00000000000E+00 -0.62004931048E+03  0.62004931048E+03  0.00000000000E+00 0. -1.
         25    1    1    2    0    0 -0.21776632192E+03 -0.47964383705E+02  0.44704590678E+03  0.51497358752E+03  0.12500000000E+03 0.  0.
         21    1    1    2  503  502  0.24194901844E+03  0.86080026341E+02  0.23651854132E+03  0.34912765408E+03  0.00000000000E+00 0. -1.
         21    1    1    2  504  501 -0.24182696513E+02 -0.38115642636E+02 -0.52881938181E+03  0.53074244564E+03  0.00000000000E+00 0. -1.
<mgrwt>
<rscale>  4 0.26641092E+03</rscale>
<asrwt>0</asrwt>
<pdfrwt beam="1">  1       21 0.11919913E+00 0.26641092E+03</pdfrwt>
<pdfrwt beam="2">  1       21 0.95392202E-01 0.26641092E+03</pdfrwt>
<totfact> 0.45869782E+02</totfact>
</mgrwt>
</event>
