<event>
 5    0  0.1911311E+001  0.2537133E+03  0.7546771E-02  0.1110980E+00
         21   -1    0    0  502  501  0.00000000000E+00  0.00000000000E+00  0.58047775683E+03  0.58047775683E+03  0.00000000000E+00 0. -1.
         21   -1    0    0  504  502 -0.00000000000E+00 -0.00000000000E+00 -0.17588056049E+03  0.17588056049E+03  0.00000000000E+00 0. -1.
         25    1    1    2    0    0 -0.16987487388E+03  0.14996747964E+03 -0.25469230356E+02  0.26004114948E+03  0.12500000000E+03 0.  0.
         21    1    1    2  503  501  0.17283001995E+03 -0.10700421265E+03  0.37339296193E+03  0.42513812030E+03  0.00000000000E+00 0. -1.
         21    1    1    2  504  503 -0.29551460716E+01 -0.42963266996E+02  0.56673464776E+02  0.71179047542E+02  0.00000000000E+00 0. -1.
<mgrwt>
<rscale>  4 0.25371325E+03</rscale>
<asrwt>0</asrwt>
<pdfrwt beam="1">  1       21 0.89304269E-01 0.25371325E+03</pdfrwt>
<pdfrwt beam="2">  1       21 0.27058548E-01 0.25371325E+03</pdfrwt>
<totfact> 0.13424098E+04</totfact>
</mgrwt>
</event>
<event>
 5    0  0.1911311E+001  0.2654754E+03  0.7546771E-02  0.1103897E+00
         21   -1    0    0  504  501  0.00000000000E+00  0.00000000000E+00  0.15379699154E+03  0.15379699154E+03  0.00000000000E+00 0.  1.
         21   -1    0    0  501  502 -0.00000000000E+00 -0.00000000000E+00 -0.48063386976E+03  0.48063386976E+03  0.00000000000E+00 0.  1.
         25    1    1    2    0    0 -0.23127961210E+03  0.36904191654E+02 -0.76310999826E+02  0.27622553652E+03  0.12500000000E+03 0.  0.
         21    1    1    2  503  502  0.35638645186E+02 -0.47901980922E+02 -0.66827210727E+02  0.89613553107E+02  0.00000000000E+00 0.  1.
         21    1    1    2  504  503  0.19564096691E+03  0.10997789268E+02 -0.18369866767E+03  0.26859177166E+03  0.00000000000E+00 0.  1.
<mgrwt>
<rscale>  4 0.26547538E+03</rscale>
<asrwt>0</asrwt>
<pdfrwt beam="1">  1       21 0.23661076E-01 0.26547538E+03</pdfrwt>
<pdfrwt beam="2">  1       21 0.73943671E-01 0.26547538E+03</pdfrwt>
<totfact> 0.26609217E+04</totfact>
</mgrwt>
</event>
<event>
 5    0  0.1911311E+001  0.3025887E+03  0.7546771E-02  0.1083954E+00
         21   -1    0    0  504  501  0.00000000000E+00  0.00000000000E+00  0.69607698252E+02  0.69607698252E+02  0.00000000000E+00 0.  1.
         21   -1    0    0  501  502 -0.00000000000E+00 -0.00000000000E+00 -0.36795228206E+04  0.36795228206E+04  0.00000000000E+00 0.  1.
         25    1    1    2    0    0  0.62131545191E+02 -0.27678674011E+03 -0.32737175689E+04  0.32883617425E+04  0.12500000000E+03 0.  0.
         21    1    1    2  503  502 -0.80309015946E+02  0.20265124803E+03 -0.16520924216E+03  0.27351628849E+03  0.00000000000E+00 0.  1.
         21    1    1    2  504  503  0.18177470755E+02  0.74135492081E+02 -0.17098831134E+03  0.18725248795E+03  0.00000000000E+00 0.  1.
<mgrwt>
<rscale>  4 0.30258865E+03</rscale>
<asrwt>0</asrwt>
<pdfrwt beam="1">  1       21 0.10708876E-01 0.30258865E+03</pdfrwt>
<pdfrwt beam="2">  1       21 0.56608048E+00 0.30258865E+03</pdfrwt>
<totfact> 0.38018930E+01</totfact>
</mgrwt>
</event>
<event>
 5    0  0.1911311E+001  0.2604948E+03  0.7546771E-02  0.1106846E+00
         21   -1    0    0  503  501  0.00000000000E+00  0.00000000000E+00  0.76231838074E+03  0.76231838074E+03  0.00000000000E+00 0. -1.
         21   -1    0    0  504  502 -0.00000000000E+00 -0.00000000000E+00 -0.97507184649E+02  0.97507184649E+02  0.00000000000E+00 0. -1.
         25    1    1    2    0    0  0.76996781127E+02 -0.21108485300E+03  0.27413455831E+03  0.37584581350E+03  0.12500000000E+03 0.  0.
         21    1    1    2  503  502  0.32037120445E+02  0.64897819787E+01  0.37333579765E+01  0.32900339183E+02  0.00000000000E+00 0. -1.
         21    1    1    2  504  501 -0.10903390157E+03  0.20459507102E+03  0.38694327981E+03  0.45107941271E+03  0.00000000000E+00 0. -1.
<mgrwt>
<rscale>  4 0.26049485E+03</rscale>
<asrwt>0</asrwt>
<pdfrwt beam="1">  1       21 0.11727975E+00 0.26049485E+03</pdfrwt>
<pdfrwt beam="2">  1       21 0.15001106E-01 0.26049485E+03</pdfrwt>
<totfact> 0.21103364E+04</totfact>
</mgrwt>
</event>
