<event>
 5    0  0.1141006E+000  0.4142769E+03  0.7546771E-02  0.1038945E+00
         21   -1    0    0  501  502  0.00000000000E+00  0.00000000000E+00  0.66518283405E+03  0.66518283405E+03  0.00000000000E+00 0. -1.
          2   -1    0    0  503    0 -0.00000000000E+00 -0.00000000000E+00 -0.42342382948E+03  0.42342382948E+03  0.00000000000E+00 0.  1.
         25    1    1    2    0    0 -0.35965416229E+03  0.14838757844E+03  0.42959138238E+03  0.59291124606E+03  0.12500000000E+03 0.  0.
         21    1    1    2  503  502 -0.18666589986E+02  0.25101371577E+02 -0.46711780370E+02  0.56218421021E+02  0.00000000000E+00 0.  1.
          2    1    1    2  501    0  0.37832075228E+03 -0.17348895002E+03 -0.14112059744E+03  0.43947699645E+03  0.00000000000E+00 0.  1.
<mgrwt>
<rscale>  4 0.41427694E+03</rscale>
<asrwt>0</asrwt>
<pdfrwt beam="1">  1       21 0.10233582E+00 0.41427694E+03</pdfrwt>
<pdfrwt beam="2">  1        2 0.65142128E-01 0.41427694E+03</pdfrwt>
<totfact> 0.66565068E+02</totfact>
</mgrwt>
</event>
<event>
 5    0  0.1141006E+000  0.2770078E+03  0.7546771E-02  0.1097335E+00
         21   -1    0    0  501  502  0.00000000000E+00  0.00000000000E+00  0.24038143350E+03  0.24038143350E+03  0.00000000000E+00 0. -1.
          1   -1    0    0  503    0 -0.00000000000E+00 -0.00000000000E+00 -0.14359524077E+04  0.14359524077E+04  0.00000000000E+00 0. -1.
         25    1    1    2    0    0  0.17105707646E+03  0.17067032754E+03  0.12077498024E+03  0.29765832755E+03  0.12500000000E+03 0.  0.
         21    1    1    2  503  502  0.65419421317E+02  0.86589799315E+01 -0.59520836797E+03  0.59885530800E+03  0.00000000000E+00 0. -1.
          1    1    1    2  501    0 -0.23647649777E+03 -0.17932930747E+03 -0.72113758648E+03  0.77982020566E+03  0.00000000000E+00 0. -1.
<mgrwt>
<rscale>  4 0.27700784E+03</rscale>
<asrwt>0</asrwt>
<pdfrwt beam="1">  1       21 0.36981758E-01 0.27700784E+03</pdfrwt>
<pdfrwt beam="2">  1        1 0.22091576E+00 0.27700784E+03</pdfrwt>
<totfact> 0.60186665E+02</totfact>
</mgrwt>
</event>
<event>
 5    0  0.1141006E+000  0.4853163E+03  0.7546771E-02  0.1017684E+00
          2   -1    0    0  503    0 -0.00000000000E+00  0.00000000000E+00  0.10789415211E+04  0.10789415211E+04  0.00000000000E+00 0.  1.
         21   -1    0    0  501  502  0.00000000000E+00 -0.00000000000E+00 -0.39833983528E+03  0.39833983528E+03  0.00000000000E+00 0.  1.
         25    1    1    2    0    0  0.32859400627E+03  0.32074044176E+03 -0.62808820843E+01  0.47593371536E+03  0.12500000000E+03 0.  0.
         21    1    1    2  503  502  0.42978388177E+02 -0.83783113176E+01  0.46596489756E+03  0.46801776004E+03  0.00000000000E+00 0.  1.
          2    1    1    2  501    0 -0.37157239444E+03 -0.31236213045E+03  0.22091767030E+03  0.53332988094E+03  0.00000000000E+00 0.  1.
<mgrwt>
<rscale>  4 0.48531632E+03</rscale>
<asrwt>0</asrwt>
<pdfrwt beam="1">  1       21 0.61283052E-01 0.48531632E+03</pdfrwt>
<pdfrwt beam="2">  1        2 0.16599100E+00 0.48531632E+03</pdfrwt>
<totfact> 0.66034008E+02</totfact>
</mgrwt>
</event>
<event>
 5    0  0.1141006E+000  0.3818335E+03  0.7546771E-02  0.1050258E+00
         21   -1    0    0  501  502  0.00000000000E+00  0.00000000000E+00  0.61000934940E+03  0.61000934940E+03  0.00000000000E+00 0. -1.
          1   -1    0    0  503    0 -0.00000000000E+00 -0.00000000000E+00 -0.15957447468E+04  0.15957447468E+04  0.00000000000E+00 0.  1.
         25    1    1    2    0    0  0.38027651887E+03 -0.91869021336E+02  0.48672552954E+03  0.63684918858E+03  0.12500000000E+03 0.  0.
         21    1    1    2  503  502 -0.17957971748E+03  0.15463243441E+03 -0.32437465131E+03  0.40172002578E+03  0.00000000000E+00 0.  1.
          1    1    1    2  501    0 -0.20069680139E+03 -0.62763413076E+02 -0.11480862756E+04  0.11671848819E+04  0.00000000000E+00 0.  1.
<mgrwt>
<rscale>  4 0.38183353E+03</rscale>
<asrwt>0</asrwt>
<pdfrwt beam="1">  1       21 0.93847593E-01 0.38183353E+03</pdfrwt>
<pdfrwt beam="2">  1        1 0.24549919E+00 0.38183353E+03</pdfrwt>
<totfact> 0.58893981E+01</totfact>
</mgrwt>
</event>
<event>
 5    0  0.1141006E+000  0.3413379E+03  0.7546771E-02  0.1066228E+00
          2   -1    0    0  503    0 -0.00000000000E+00  0.00000000000E+00  0.22597272907E+04  0.22597272907E+04  0.00000000000E+00 0.  1.
         21   -1    0    0  501  502  0.00000000000E+00 -0.00000000000E+00 -0.29141997972E+03  0.29141997972E+03  0.00000000000E+00 0. -1.
         25    1    1    2    0    0 -0.24268134877E+03  0.20731720491E+03 -0.17179685390E+03  0.38342381186E+03  0.12500000000E+03 0.  0.
         21    1    1    2  503  502 -0.58558884986E+01 -0.50968046126E+02  0.31421766845E+03  0.31837835404E+03  0.00000000000E+00 0.  1.
          2    1    1    2  501    0  0.24853723727E+03 -0.15634915879E+03  0.18258864965E+04  0.18493451046E+04  0.00000000000E+00 0.  1.
<mgrwt>
<rscale>  4 0.34133793E+03</rscale>
<asrwt>0</asrwt>
<pdfrwt beam="1">  1       21 0.44833844E-01 0.34133793E+03</pdfrwt>
<pdfrwt beam="2">  1        2 0.34765034E+00 0.34133793E+03</pdfrwt>
<totfact> 0.30547718E+02</totfact>
</mgrwt>
</event>
<event>
 5    0  0.1141006E+000  0.2924158E+03  0.7546771E-02  0.1089095E+00
         21   -1    0    0  501  502  0.00000000000E+00  0.00000000000E+00  0.64632707078E+02  0.64632707078E+02  0.00000000000E+00 0. -1.
          2   -1    0    0  503    0 -0.00000000000E+00 -0.00000000000E+00 -0.17301640721E+04  0.17301640721E+04  0.00000000000E+00 0. -1.
         25    1    1    2    0    0 -0.23371624376E+03 -0.10835132302E+03 -0.42409161977E+03  0.51170498704E+03  0.12500000000E+03 0.  0.
         21    1    1    2  503  502 -0.33082752987E+02  0.21769734363E+02 -0.23420754956E+03  0.23753224234E+03  0.00000000000E+00 0. -1.
          2    1    1    2  501    0  0.26679899674E+03  0.86581588655E+02 -0.10072321957E+04  0.10455595498E+04  0.00000000000E+00 0. -1.
<mgrwt>
<rscale>  4 0.29241582E+03</rscale>
<asrwt>0</asrwt>
<pdfrwt beam="1">  1       21 0.99434937E-02 0.29241582E+03</pdfrwt>
<pdfrwt beam="2">  1        2 0.26617908E+00 0.29241582E+03</pdfrwt>
<totfact> 0.10549868E+04</totfact>
</mgrwt>
</event>
<event>
 5    0  0.1141006E+000  0.2469334E+03  0.7546771E-02  0.1115258E+00
          2   -1    0    0  503    0 -0.00000000000E+00  0.00000000000E+00  0.18526469281E+04  0.18526469281E+04  0.00000000000E+00 0.  1.
         21   -1    0    0  501  502  0.00000000000E+00 -0.00000000000E+00 -0.16306956428E+03  0.16306956428E+03  0.00000000000E+00 0.  1.
         25    1    1    2    0    0  0.18162495695E+03  0.10588074623E+03 -0.44257464138E+02  0.24856001396E+03  0.12500000000E+03 0.  0.
         21    1    1    2  503  502  0.37461853872E+02 -0.13074590529E+02  0.87706804572E+03  0.87796508600E+03  0.00000000000E+00 0.  1.
          2    1    1    2  501    0 -0.21908681082E+03 -0.92806155703E+02  0.85676678220E+03  0.88919139238E+03  0.00000000000E+00 0.  1.
<mgrwt>
<rscale>  4 0.24693344E+03</rscale>
<asrwt>0</asrwt>
<pdfrwt beam="1">  1       21 0.25087627E-01 0.24693344E+03</pdfrwt>
<pdfrwt beam="2">  1        2 0.28502259E+00 0.24693344E+03</pdfrwt>
<totfact> 0.16765618E+03</totfact>
</mgrwt>
</event>
<event>
 5    0  0.1141006E+000  0.2205561E+03  0.7546771E-02  0.1133469E+00
          2   -1    0    0  503    0 -0.00000000000E+00  0.00000000000E+00  0.45701887309E+03  0.45701887309E+03  0.00000000000E+00 0. -1.
         21   -1    0    0  501  502  0.00000000000E+00 -0.00000000000E+00 -0.44769974546E+03  0.44769974546E+03  0.00000000000E+00 0.  1.
         25    1    1    2    0    0  0.11514735186E+03  0.17433741659E+03 -0.35193598100E+03  0.42794436810E+03  0.12500000000E+03 0.  0.
         21    1    1    2  503  502 -0.49168672569E+02 -0.11776446353E+03  0.25742130711E+02  0.13018711352E+03  0.00000000000E+00 0. -1.
          2    1    1    2  501    0 -0.65978679290E+02 -0.56572953064E+02  0.33551297792E+03  0.34658713694E+03  0.00000000000E+00 0. -1.
<mgrwt>
<rscale>  4 0.22055608E+03</rscale>
<asrwt>0</asrwt>
<pdfrwt beam="1">  1       21 0.68876884E-01 0.22055608E+03</pdfrwt>
<pdfrwt beam="2">  1        2 0.70310596E-01 0.22055608E+03</pdfrwt>
<totfact> 0.16321819E+03</totfact>
</mgrwt>
</event>
<event>
 5    0  0.1141006E+000  0.2826867E+03  0.7546771E-02  0.1094230E+00
         21   -1    0    0  501  502  0.00000000000E+00  0.00000000000E+00  0.11236132165E+03  0.11236132165E+03  0.00000000000E+00 0.  1.
          1   -1    0    0  503    0 -0.00000000000E+00 -0.00000000000E+00 -0.10388740174E+04  0.10388740174E+04  0.00000000000E+00 0. -1.
         25    1    1    2    0    0  0.20238892448E+03 -0.12134686489E+03 -0.23913248687E+03  0.35846294739E+03  0.12500000000E+03 0.  0.
         21    1    1    2  503  502  0.27597065038E+02 -0.29898561143E+02 -0.37177112436E+03  0.37399103046E+03  0.00000000000E+00 0.  1.
          1    1    1    2  501    0 -0.22998598952E+03  0.15124542604E+03 -0.31560908455E+03  0.41878136124E+03  0.00000000000E+00 0. -1.
<mgrwt>
<rscale>  4 0.28268673E+03</rscale>
<asrwt>0</asrwt>
<pdfrwt beam="1">  1       21 0.17286357E-01 0.28268673E+03</pdfrwt>
<pdfrwt beam="2">  1        1 0.15982677E+00 0.28268673E+03</pdfrwt>
<totfact> 0.49431529E+03</totfact>
</mgrwt>
</event>
<event>
 5    0  0.1141006E+000  0.2456208E+03  0.7546771E-02  0.1116104E+00
          1   -1    0    0  503    0 -0.00000000000E+00  0.00000000000E+00  0.12652573524E+04  0.12652573524E+04  0.00000000000E+00 0. -1.
         21   -1    0    0  501  502  0.00000000000E+00 -0.00000000000E+00 -0.10948583746E+03  0.10948583746E+03  0.00000000000E+00 0.  1.
         25    1    1    2    0    0 -0.34026795380E+02  0.20716812670E+03  0.59491091515E+02  0.25147692835E+03  0.12500000000E+03 0.  0.
         21    1    1    2  503  502 -0.19181572398E+02  0.84190867454E+01  0.62883077307E+02  0.66280428129E+02  0.00000000000E+00 0. -1.
          1    1    1    2  501    0  0.53208367778E+02 -0.21558721345E+03  0.10333973461E+04  0.10569858334E+04  0.00000000000E+00 0. -1.
<mgrwt>
<rscale>  4 0.24562082E+03</rscale>
<asrwt>0</asrwt>
<pdfrwt beam="1">  1       21 0.16843976E-01 0.24562082E+03</pdfrwt>
<pdfrwt beam="2">  1        1 0.19465497E+00 0.24562082E+03</pdfrwt>
<totfact> 0.36216979E+03</totfact>
</mgrwt>
</event>
<event>
 5    0  0.1141006E+000  0.3563297E+03  0.7546771E-02  0.1060047E+00
         21   -1    0    0  501  502  0.00000000000E+00  0.00000000000E+00  0.13058725258E+03  0.13058725258E+03  0.00000000000E+00 0.  1.
          1   -1    0    0  503    0 -0.00000000000E+00 -0.00000000000E+00 -0.13877943451E+04  0.13877943451E+04  0.00000000000E+00 0.  1.
         25    1    1    2    0    0  0.30822057054E+03  0.11056085570E+03 -0.28943770452E+03  0.45455781559E+03  0.12500000000E+03 0.  0.
         21    1    1    2  503  502  0.44577428612E+02 -0.74020484326E+02 -0.16739704097E+03  0.18838245291E+03  0.00000000000E+00 0. -1.
          1    1    1    2  501    0 -0.35279799915E+03 -0.36540371372E+02 -0.80037234704E+03  0.87544132919E+03  0.00000000000E+00 0.  1.
<mgrwt>
<rscale>  4 0.35632971E+03</rscale>
<asrwt>0</asrwt>
<pdfrwt beam="1">  1       21 0.20090346E-01 0.35632971E+03</pdfrwt>
<pdfrwt beam="2">  1        1 0.21350683E+00 0.35632971E+03</pdfrwt>
<totfact> 0.20722102E+03</totfact>
</mgrwt>
</event>
<event>
 5    0  0.1141006E+000  0.2217160E+03  0.7546771E-02  0.1132610E+00
          1   -1    0    0  503    0 -0.00000000000E+00  0.00000000000E+00  0.95323428790E+03  0.95323428790E+03  0.00000000000E+00 0.  1.
         21   -1    0    0  501  502  0.00000000000E+00 -0.00000000000E+00 -0.17821259554E+03  0.17821259554E+03  0.00000000000E+00 0.  1.
         25    1    1    2    0    0 -0.17709921227E+03 -0.15821695090E+03 -0.34471425059E+02  0.27057349036E+03  0.12500000000E+03 0.  0.
         21    1    1    2  503  502  0.31276934212E+02  0.53567201479E+02  0.47777830266E+02  0.78296952386E+02  0.00000000000E+00 0. -1.
          1    1    1    2  501    0  0.14582227806E+03  0.10464974943E+03  0.76171528716E+03  0.78257644069E+03  0.00000000000E+00 0.  1.
<mgrwt>
<rscale>  4 0.22171604E+03</rscale>
<asrwt>0</asrwt>
<pdfrwt beam="1">  1       21 0.27417323E-01 0.22171604E+03</pdfrwt>
<pdfrwt beam="2">  1        1 0.14665143E+00 0.22171604E+03</pdfrwt>
<totfact> 0.24406361E+03</totfact>
</mgrwt>
</event>
<event>
 5    0  0.1141006E+000  0.2548191E+03  0.7546771E-02  0.1110297E+00
         21   -1    0    0  501  502  0.00000000000E+00  0.00000000000E+00  0.29488349808E+02  0.29488349808E+02  0.00000000000E+00 0.  1.
          2   -1    0    0  503    0 -0.00000000000E+00 -0.00000000000E+00 -0.27947500099E+04  0.27947500099E+04  0.00000000000E+00 0. -1.
         25    1    1    2    0    0 -0.11893226069E+03  0.18205405432E+03 -0.72079428123E+03  0.76318933246E+03  0.12500000000E+03 0.  0.
         21    1    1    2  503  502  0.92231003274E+01  0.24917445521E+02 -0.19210457960E+03  0.19393327248E+03  0.00000000000E+00 0.  1.
          2    1    1    2  501    0  0.10970916036E+03 -0.20697149984E+03 -0.18523627993E+04  0.18671157548E+04  0.00000000000E+00 0. -1.
<mgrwt>
<rscale>  4 0.25481906E+03</rscale>
<asrwt>0</asrwt>
<pdfrwt beam="1">  1       21 0.45366684E-02 0.25481906E+03</pdfrwt>
<pdfrwt beam="2">  1        2 0.42996162E+00 0.25481906E+03</pdfrwt>
<totfact> 0.11120434E+04</totfact>
</mgrwt>
</event>
<event>
 5    0  0.1141006E+000  0.2768450E+03  0.7546771E-02  0.1097425E+00
         21   -1    0    0  501  502  0.00000000000E+00  0.00000000000E+00  0.32368856476E+03  0.32368856476E+03  0.00000000000E+00 0.  1.
          2   -1    0    0  503    0 -0.00000000000E+00 -0.00000000000E+00 -0.35309997805E+03  0.35309997805E+03  0.00000000000E+00 0.  1.
         25    1    1    2    0    0  0.12956636633E+02 -0.23506329434E+03  0.85049719152E+02  0.27978756496E+03  0.12500000000E+03 0.  0.
         21    1    1    2  503  502 -0.38331627506E+02 -0.27487098205E+02 -0.12439782245E+03  0.13304011600E+03  0.00000000000E+00 0.  1.
          2    1    1    2  501    0  0.25374990873E+02  0.26255039254E+03  0.99366900103E+01  0.26396086186E+03  0.00000000000E+00 0.  1.
<mgrwt>
<rscale>  4 0.27684501E+03</rscale>
<asrwt>0</asrwt>
<pdfrwt beam="1">  1       21 0.49798241E-01 0.27684501E+03</pdfrwt>
<pdfrwt beam="2">  1        2 0.54323074E-01 0.27684501E+03</pdfrwt>
<totfact> 0.42697275E+03</totfact>
</mgrwt>
</event>
<event>
 5    0  0.1141006E+000  0.2580917E+03  0.7546771E-02  0.1108295E+00
         21   -1    0    0  501  502  0.00000000000E+00  0.00000000000E+00  0.25031903128E+04  0.25031903128E+04  0.00000000000E+00 0. -1.
          2   -1    0    0  503    0 -0.00000000000E+00 -0.00000000000E+00 -0.47228299571E+03  0.47228299571E+03  0.00000000000E+00 0.  1.
         25    1    1    2    0    0 -0.69492328345E+02 -0.21513432925E+03  0.24411520376E+04  0.24547831338E+04  0.12500000000E+03 0.  0.
         21    1    1    2  503  502  0.29429640990E+02  0.10427707903E+02  0.23711231933E+02  0.39205399892E+02  0.00000000000E+00 0. -1.
          2    1    1    2  501    0  0.40062687355E+02  0.20470662135E+03 -0.43395595244E+03  0.48148477483E+03  0.00000000000E+00 0.  1.
<mgrwt>
<rscale>  4 0.25809172E+03</rscale>
<asrwt>0</asrwt>
<pdfrwt beam="1">  1       21 0.38510619E+00 0.25809172E+03</pdfrwt>
<pdfrwt beam="2">  1        2 0.72658924E-01 0.25809172E+03</pdfrwt>
<totfact> 0.81419913E+00</totfact>
</mgrwt>
</event>
<event>
 5    0  0.1141006E+000  0.2162805E+03  0.7546771E-02  0.1136687E+00
          1   -1    0    0  503    0 -0.00000000000E+00  0.00000000000E+00  0.86093013068E+03  0.86093013068E+03  0.00000000000E+00 0. -1.
         21   -1    0    0  501  502  0.00000000000E+00 -0.00000000000E+00 -0.13842983577E+03  0.13842983577E+03  0.00000000000E+00 0. -1.
         25    1    1    2    0    0 -0.93097111557E+02  0.20450376722E+03  0.41243003577E+02  0.26041284210E+03  0.12500000000E+03 0.  0.
         21    1    1    2  503  502  0.14835674960E+02 -0.12485798441E+03  0.14834855359E+03  0.19446569588E+03  0.00000000000E+00 0. -1.
          1    1    1    2  501    0  0.78261436597E+02 -0.79645782805E+02  0.53290873774E+03  0.54448142846E+03  0.00000000000E+00 0. -1.
<mgrwt>
<rscale>  4 0.21628050E+03</rscale>
<asrwt>0</asrwt>
<pdfrwt beam="1">  1       21 0.21296898E-01 0.21628050E+03</pdfrwt>
<pdfrwt beam="2">  1        1 0.13245079E+00 0.21628050E+03</pdfrwt>
<totfact> 0.46748852E+03</totfact>
</mgrwt>
</event>
<event>
 5    0  0.1141006E+000  0.5048705E+03  0.7546771E-02  0.1012515E+00
         21   -1    0    0  501  502  0.00000000000E+00  0.00000000000E+00  0.40782524420E+03  0.40782524420E+03  0.00000000000E+00 0. -1.
          1   -1    0    0  503    0 -0.00000000000E+00 -0.00000000000E+00 -0.82878443452E+03  0.82878443452E+03  0.00000000000E+00 0. -1.
         25    1    1    2    0    0  0.47187877448E+03 -0.90605828257E+02  0.57126785828E+02  0.49976740948E+03  0.12500000000E+03 0.  0.
         21    1    1    2  503  502  0.22227960174E+02 -0.38062762569E+02 -0.72169384985E+02  0.84565218837E+02  0.00000000000E+00 0. -1.
          1    1    1    2  501    0 -0.49410673466E+03  0.12866859083E+03 -0.40591659116E+03  0.65227705040E+03  0.00000000000E+00 0. -1.
<mgrwt>
<rscale>  4 0.50487050E+03</rscale>
<asrwt>0</asrwt>
<pdfrwt beam="1">  1       21 0.62742346E-01 0.50487050E+03</pdfrwt>
<pdfrwt beam="2">  1        1 0.12750530E+00 0.50487050E+03</pdfrwt>
<totfact> 0.50963429E+02</totfact>
</mgrwt>
</event>
<event>
 5    0  0.1141006E+000  0.3337621E+03  0.7546771E-02  0.1069484E+00
          2   -1    0    0  503    0 -0.00000000000E+00  0.00000000000E+00  0.43013316929E+04  0.43013316929E+04  0.00000000000E+00 0.  1.
         21   -1    0    0  501  502  0.00000000000E+00 -0.00000000000E+00 -0.11232762176E+03  0.11232762176E+03  0.00000000000E+00 0. -1.
         25    1    1    2    0    0 -0.10094910894E+03 -0.29541959355E+03  0.16535110439E+03  0.37473917139E+03  0.12500000000E+03 0.  0.
         21    1    1    2  503  502 -0.36981821484E+01  0.45181006082E+02  0.17688778045E+03  0.18260418049E+03  0.00000000000E+00 0. -1.
          2    1    1    2  501    0  0.10464729109E+03  0.25023858747E+03  0.38467651863E+04  0.38563159628E+04  0.00000000000E+00 0.  1.
<mgrwt>
<rscale>  4 0.33376215E+03</rscale>
<asrwt>0</asrwt>
<pdfrwt beam="1">  1       21 0.17281176E-01 0.33376215E+03</pdfrwt>
<pdfrwt beam="2">  1        2 0.66174321E+00 0.33376215E+03</pdfrwt>
<totfact> 0.92093884E+01</totfact>
</mgrwt>
</event>
<event>
 5    0  0.1141006E+000  0.2806712E+03  0.7546771E-02  0.1095323E+00
         21   -1    0    0  501  502  0.00000000000E+00  0.00000000000E+00  0.21392263049E+04  0.21392263049E+04  0.00000000000E+00 0.  1.
          2   -1    0    0  503    0 -0.00000000000E+00 -0.00000000000E+00 -0.11242410220E+04  0.11242410220E+04  0.00000000000E+00 0. -1.
         25    1    1    2    0    0  0.66092437334E+02  0.24494794083E+03  0.21086388428E+04  0.21275221440E+04  0.12500000000E+03 0.  0.
         21    1    1    2  503  502  0.47252912582E+02 -0.13992566191E+03 -0.63549749017E+03  0.65243320626E+03  0.00000000000E+00 0.  1.
          2    1    1    2  501    0 -0.11334534992E+03 -0.10502227892E+03 -0.45815606967E+03  0.48351197668E+03  0.00000000000E+00 0. -1.
<mgrwt>
<rscale>  4 0.28067122E+03</rscale>
<asrwt>0</asrwt>
<pdfrwt beam="1">  1       21 0.32911174E+00 0.28067122E+03</pdfrwt>
<pdfrwt beam="2">  1        2 0.17296016E+00 0.28067122E+03</pdfrwt>
<totfact> 0.57863711E+00</totfact>
</mgrwt>
</event>
<event>
 5    0  0.1141006E+000  0.2474114E+03  0.7546771E-02  0.1114952E+00
         21   -1    0    0  501  502  0.00000000000E+00  0.00000000000E+00  0.80512736603E+02  0.80512736603E+02  0.00000000000E+00 0.  1.
          2   -1    0    0  503    0 -0.00000000000E+00 -0.00000000000E+00 -0.46981307880E+04  0.46981307880E+04  0.00000000000E+00 0. -1.
         25    1    1    2    0    0 -0.33324190307E+02  0.20622838545E+03 -0.15752801477E+03  0.28996676372E+03  0.12500000000E+03 0.  0.
         21    1    1    2  503  502  0.10906244902E+03  0.99004221570E+02 -0.69293709501E+03  0.70841955882E+03  0.00000000000E+00 0. -1.
          2    1    1    2  501    0 -0.75738258712E+02 -0.30523260702E+03 -0.37671529416E+04  0.37802572020E+04  0.00000000000E+00 0. -1.
<mgrwt>
<rscale>  4 0.24741140E+03</rscale>
<asrwt>0</asrwt>
<pdfrwt beam="1">  1       21 0.12386577E-01 0.24741140E+03</pdfrwt>
<pdfrwt beam="2">  1        2 0.72278920E+00 0.24741140E+03</pdfrwt>
<totfact> 0.77518563E+01</totfact>
</mgrwt>
</event>
<event>
 5    0  0.1141006E+000  0.3713583E+03  0.7546771E-02  0.1054175E+00
          2   -1    0    0  503    0 -0.00000000000E+00  0.00000000000E+00  0.10853629701E+04  0.10853629701E+04  0.00000000000E+00 0. -1.
         21   -1    0    0  501  502  0.00000000000E+00 -0.00000000000E+00 -0.40212208102E+03  0.40212208102E+03  0.00000000000E+00 0. -1.
         25    1    1    2    0    0  0.33409224507E+03  0.70426089941E+02 -0.23855307184E+03  0.43486783100E+03  0.12500000000E+03 0.  0.
         21    1    1    2  503  502  0.83734494997E+02 -0.10868245610E+02  0.12321393421E+03  0.14936953504E+03  0.00000000000E+00 0. -1.
          2    1    1    2  501    0 -0.41782674006E+03 -0.59557844331E+02  0.79858002674E+03  0.90324768510E+03  0.00000000000E+00 0. -1.
<mgrwt>
<rscale>  4 0.37135835E+03</rscale>
<asrwt>0</asrwt>
<pdfrwt beam="1">  1       21 0.61864936E-01 0.37135835E+03</pdfrwt>
<pdfrwt beam="2">  1        2 0.16697892E+00 0.37135835E+03</pdfrwt>
<totfact> 0.66271690E+02</totfact>
</mgrwt>
</event>
<event>
 5    0  0.1141006E+000  0.2462405E+03  0.7546771E-02  0.1115704E+00
         21   -1    0    0  501  502  0.00000000000E+00  0.00000000000E+00  0.49079792280E+02  0.49079792280E+02  0.00000000000E+00 0.  1.
          2   -1    0    0  503    0 -0.00000000000E+00 -0.00000000000E+00 -0.23841908708E+04  0.23841908708E+04  0.00000000000E+00 0. -1.
         25    1    1    2    0    0 -0.83712403912E+02 -0.19334097836E+03 -0.32093238001E+03  0.40374632261E+03  0.12500000000E+03 0.  0.
         21    1    1    2  503  502  0.20436319171E+02 -0.18303957641E+02 -0.17717864753E+03  0.17929013121E+03  0.00000000000E+00 0. -1.
          2    1    1    2  501    0  0.63276084740E+02  0.21164493600E+03 -0.18370000509E+04  0.18502342092E+04  0.00000000000E+00 0. -1.
<mgrwt>
<rscale>  4 0.24624047E+03</rscale>
<asrwt>0</asrwt>
<pdfrwt beam="1">  1       21 0.75507364E-02 0.24624047E+03</pdfrwt>
<pdfrwt beam="2">  1        2 0.36679864E+00 0.24624047E+03</pdfrwt>
<totfact> 0.78398262E+03</totfact>
</mgrwt>
</event>
<event>
 5    0  0.1141006E+000  0.7430549E+03  0.7546771E-02  0.9646310E-01
         -1   -1    0    0    0  501 -0.00000000000E+00  0.00000000000E+00  0.19931095039E+04  0.19931095039E+04  0.00000000000E+00 0. -1.
         21   -1    0    0  503  502  0.00000000000E+00 -0.00000000000E+00 -0.43134726915E+03  0.43134726915E+03  0.00000000000E+00 0. -1.
         25    1    1    2    0    0  0.11300081343E+03  0.71505010295E+03  0.30874456423E+03  0.79687768165E+03  0.12500000000E+03 0.  0.
         21    1    1    2  503  501  0.77069730599E+01  0.18987777262E+02  0.70085083833E+03  0.70115036241E+03  0.00000000000E+00 0. -1.
         -1    1    1    2    0  502 -0.12070778649E+03 -0.73403788022E+03  0.55216683217E+03  0.92642872897E+03  0.00000000000E+00 0. -1.
<mgrwt>
<rscale>  4 0.74305488E+03</rscale>
<asrwt>0</asrwt>
<pdfrwt beam="1">  1       21 0.66361119E-01 0.74305488E+03</pdfrwt>
<pdfrwt beam="2">  1       -1 0.30663223E+00 0.74305488E+03</pdfrwt>
<totfact> 0.54388473E+00</totfact>
</mgrwt>
</event>
<event>
 5    0  0.1141006E+000  0.3963468E+03  0.7546771E-02  0.1045052E+00
         21   -1    0    0  501  502  0.00000000000E+00  0.00000000000E+00  0.25491884282E+03  0.25491884282E+03  0.00000000000E+00 0. -1.
          1   -1    0    0  503    0 -0.00000000000E+00 -0.00000000000E+00 -0.89690339581E+03  0.89690339581E+03  0.00000000000E+00 0. -1.
         25    1    1    2    0    0 -0.40243615291E+03 -0.47547195657E+02 -0.42009361606E+03  0.59692481875E+03  0.12500000000E+03 0.  0.
         21    1    1    2  503  502  0.51231468297E+02 -0.54066499087E+02 -0.17002945008E+03  0.18562829408E+03  0.00000000000E+00 0. -1.
          1    1    1    2  501    0  0.35120468461E+03  0.10161369474E+03 -0.51861486843E+02  0.36926912580E+03  0.00000000000E+00 0. -1.
<mgrwt>
<rscale>  4 0.39634684E+03</rscale>
<asrwt>0</asrwt>
<pdfrwt beam="1">  1       21 0.39218283E-01 0.39634684E+03</pdfrwt>
<pdfrwt beam="2">  1        1 0.13798514E+00 0.39634684E+03</pdfrwt>
<totfact> 0.12511298E+03</totfact>
</mgrwt>
</event>
<event>
 5    0  0.1141006E+000  0.2403255E+03  0.7546771E-02  0.1119576E+00
         21   -1    0    0  501  502  0.00000000000E+00  0.00000000000E+00  0.11809260423E+03  0.11809260423E+03  0.00000000000E+00 0. -1.
          2   -1    0    0  503    0 -0.00000000000E+00 -0.00000000000E+00 -0.55581271777E+03  0.55581271777E+03  0.00000000000E+00 0.  1.
         25    1    1    2    0    0 -0.10506612941E+02  0.21310066577E+03 -0.16311169017E+03  0.29623083252E+03  0.12500000000E+03 0.  0.
         21    1    1    2  503  502  0.41099113618E+02 -0.15600440874E+02 -0.11101253791E+03  0.11939972558E+03  0.00000000000E+00 0.  1.
          2    1    1    2  501    0 -0.30592500677E+02 -0.19750022489E+03 -0.16359588546E+03  0.25827476390E+03  0.00000000000E+00 0.  1.
<mgrwt>
<rscale>  4 0.24032554E+03</rscale>
<asrwt>0</asrwt>
<pdfrwt beam="1">  1       21 0.18168093E-01 0.24032554E+03</pdfrwt>
<pdfrwt beam="2">  1        2 0.85509648E-01 0.24032554E+03</pdfrwt>
<totfact> 0.18950269E+04</totfact>
</mgrwt>
</event>
<event>
 5    0  0.1141006E+000  0.2220969E+03  0.7546771E-02  0.1132329E+00
         21   -1    0    0  501  502  0.00000000000E+00  0.00000000000E+00  0.98288242156E+02  0.98288242156E+02  0.00000000000E+00 0. -1.
          2   -1    0    0  503    0 -0.00000000000E+00 -0.00000000000E+00 -0.76617776072E+03  0.76617776072E+03  0.00000000000E+00 0.  1.
         25    1    1    2    0    0  0.20746676666E+03  0.54585672155E+02 -0.13681790162E+03  0.28348931739E+03  0.12500000000E+03 0.  0.
         21    1    1    2  503  502 -0.32828251922E+02 -0.24282774445E+02 -0.33627514499E+02  0.52897608551E+02  0.00000000000E+00 0.  1.
          2    1    1    2  501    0 -0.17463851474E+03 -0.30302897709E+02 -0.49744410245E+03  0.52807907694E+03  0.00000000000E+00 0.  1.
<mgrwt>
<rscale>  4 0.22209693E+03</rscale>
<asrwt>0</asrwt>
<pdfrwt beam="1">  1       21 0.15121268E-01 0.22209693E+03</pdfrwt>
<pdfrwt beam="2">  1        2 0.11787350E+00 0.22209693E+03</pdfrwt>
<totfact> 0.18200459E+04</totfact>
</mgrwt>
</event>
<event>
 5    0  0.1141006E+000  0.2561630E+03  0.7546771E-02  0.1109471E+00
         21   -1    0    0  501  502  0.00000000000E+00  0.00000000000E+00  0.89259062277E+02  0.89259062277E+02  0.00000000000E+00 0.  1.
          2   -1    0    0  503    0 -0.00000000000E+00 -0.00000000000E+00 -0.25791824952E+04  0.25791824952E+04  0.00000000000E+00 0. -1.
         25    1    1    2    0    0  0.43005301590E+02 -0.22004682684E+03 -0.11866021800E+03  0.28279906171E+03  0.12500000000E+03 0.  0.
         21    1    1    2  503  502 -0.39097504855E+02 -0.10701657443E+00 -0.25911227338E+03  0.26204540933E+03  0.00000000000E+00 0. -1.
          2    1    1    2  501    0 -0.39077967349E+01  0.22015384341E+03 -0.21121509416E+04  0.21235970865E+04  0.00000000000E+00 0. -1.
<mgrwt>
<rscale>  4 0.25616297E+03</rscale>
<asrwt>0</asrwt>
<pdfrwt beam="1">  1       21 0.13732162E-01 0.25616297E+03</pdfrwt>
<pdfrwt beam="2">  1        2 0.39679734E+00 0.25616297E+03</pdfrwt>
<totfact> 0.21065338E+03</totfact>
</mgrwt>
</event>
<event>
 5    0  0.1141006E+000  0.2758604E+03  0.7546771E-02  0.1097972E+00
         21   -1    0    0  501  502  0.00000000000E+00  0.00000000000E+00  0.15841424485E+03  0.15841424485E+03  0.00000000000E+00 0.  1.
          2   -1    0    0  503    0 -0.00000000000E+00 -0.00000000000E+00 -0.69497854351E+03  0.69497854351E+03  0.00000000000E+00 0.  1.
         25    1    1    2    0    0 -0.18457644835E+03 -0.16650930191E+03 -0.32846862472E+02  0.28017446223E+03  0.12500000000E+03 0.  0.
         21    1    1    2  503  502 -0.71252524401E+01  0.23189794775E+02 -0.10844098778E+03  0.11112148143E+03  0.00000000000E+00 0.  1.
          2    1    1    2  501    0  0.19170170079E+03  0.14331950714E+03 -0.39527644841E+03  0.46209684470E+03  0.00000000000E+00 0.  1.
<mgrwt>
<rscale>  4 0.27586042E+03</rscale>
<asrwt>0</asrwt>
<pdfrwt beam="1">  1       21 0.24371422E-01 0.27586042E+03</pdfrwt>
<pdfrwt beam="2">  1        2 0.10691978E+00 0.27586042E+03</pdfrwt>
<totfact> 0.83045126E+03</totfact>
</mgrwt>
</event>
<event>
 5    0  0.1141006E+000  0.2573253E+03  0.7546771E-02  0.1108761E+00
          2   -1    0    0  503    0 -0.00000000000E+00  0.00000000000E+00  0.21612411855E+04  0.21612411855E+04  0.00000000000E+00 0.  1.
         21   -1    0    0  501  502  0.00000000000E+00 -0.00000000000E+00 -0.60825077204E+02  0.60825077204E+02  0.00000000000E+00 0.  1.
         25    1    1    2    0    0 -0.15824523133E+03  0.15984295296E+03  0.25426322892E+03  0.36175421550E+03  0.12500000000E+03 0.  0.
         21    1    1    2  503  502  0.29500797384E+02 -0.14776935682E+02  0.37067995911E+03  0.37214551852E+03  0.00000000000E+00 0. -1.
          2    1    1    2  501    0  0.12874443395E+03 -0.14506601728E+03  0.14754729203E+04  0.14881665287E+04  0.00000000000E+00 0.  1.
<mgrwt>
<rscale>  4 0.25732532E+03</rscale>
<asrwt>0</asrwt>
<pdfrwt beam="1">  1       21 0.93577059E-02 0.25732532E+03</pdfrwt>
<pdfrwt beam="2">  1        2 0.33249858E+00 0.25732532E+03</pdfrwt>
<totfact> 0.70436110E+03</totfact>
</mgrwt>
</event>
<event>
 5    0  0.1141006E+000  0.2421414E+03  0.7546771E-02  0.1118374E+00
         21   -1    0    0  501  502  0.00000000000E+00  0.00000000000E+00  0.18497376488E+03  0.18497376488E+03  0.00000000000E+00 0.  1.
          2   -1    0    0  503    0 -0.00000000000E+00 -0.00000000000E+00 -0.17256112569E+04  0.17256112569E+04  0.00000000000E+00 0. -1.
         25    1    1    2    0    0 -0.17057999708E+03 -0.11400388117E+03  0.82994119229E+02  0.25417994443E+03  0.12500000000E+03 0.  0.
         21    1    1    2  503  502 -0.15575810553E+02 -0.18022784524E+02 -0.83692356699E+03  0.83726249385E+03  0.00000000000E+00 0.  1.
          2    1    1    2  501    0  0.18615580763E+03  0.13202666570E+03 -0.78670804422E+03  0.81914258345E+03  0.00000000000E+00 0. -1.
<mgrwt>
<rscale>  4 0.24214137E+03</rscale>
<asrwt>0</asrwt>
<pdfrwt beam="1">  1       21 0.28457503E-01 0.24214137E+03</pdfrwt>
<pdfrwt beam="2">  1        2 0.26547865E+00 0.24214137E+03</pdfrwt>
<totfact> 0.15350643E+03</totfact>
</mgrwt>
</event>
<event>
 5    0  0.1141006E+000  0.4050814E+03  0.7546771E-02  0.1042034E+00
         21   -1    0    0  501  502  0.00000000000E+00  0.00000000000E+00  0.37103752127E+03  0.37103752127E+03  0.00000000000E+00 0.  1.
          2   -1    0    0  503    0 -0.00000000000E+00 -0.00000000000E+00 -0.59779003035E+03  0.59779003035E+03  0.00000000000E+00 0.  1.
         25    1    1    2    0    0 -0.35055836610E+02  0.34985097807E+03 -0.78447293067E+02  0.38131823498E+03  0.12500000000E+03 0.  0.
         21    1    1    2  503  502 -0.10783145165E+03  0.50850373542E+02 -0.10682208688E+03  0.16007604661E+03  0.00000000000E+00 0.  1.
          2    1    1    2  501    0  0.14288728826E+03 -0.40070135161E+03 -0.41483129126E+02  0.42743327003E+03  0.00000000000E+00 0.  1.
<mgrwt>
<rscale>  4 0.40508137E+03</rscale>
<asrwt>0</asrwt>
<pdfrwt beam="1">  1       21 0.57082696E-01 0.40508137E+03</pdfrwt>
<pdfrwt beam="2">  1        2 0.91967696E-01 0.40508137E+03</pdfrwt>
<totfact> 0.17123328E+03</totfact>
</mgrwt>
</event>
<event>
 5    0  0.1141006E+000  0.3767958E+03  0.7546771E-02  0.1052124E+00
         21   -1    0    0  501  502  0.00000000000E+00  0.00000000000E+00  0.15212242795E+03  0.15212242795E+03  0.00000000000E+00 0.  1.
          1   -1    0    0  503    0 -0.00000000000E+00 -0.00000000000E+00 -0.13941752619E+04  0.13941752619E+04  0.00000000000E+00 0.  1.
         25    1    1    2    0    0 -0.25428364254E+03  0.24837445547E+03 -0.16645955523E+03  0.41192696503E+03  0.12500000000E+03 0.  0.
         21    1    1    2  503  502  0.82494151102E+01 -0.23096873177E+02 -0.11242237127E+03  0.11506653710E+03  0.00000000000E+00 0.  1.
          1    1    1    2  501    0  0.24603422743E+03 -0.22527758229E+03 -0.96317090749E+03  0.10193041878E+04  0.00000000000E+00 0.  1.
<mgrwt>
<rscale>  4 0.37679576E+03</rscale>
<asrwt>0</asrwt>
<pdfrwt beam="1">  1       21 0.23403449E-01 0.37679576E+03</pdfrwt>
<pdfrwt beam="2">  1        1 0.21448851E+00 0.37679576E+03</pdfrwt>
<totfact> 0.15237574E+03</totfact>
</mgrwt>
</event>
<event>
 5    0  0.1141006E+000  0.2750854E+03  0.7546771E-02  0.1098404E+00
         21   -1    0    0  501  502  0.00000000000E+00  0.00000000000E+00  0.34614262144E+03  0.34614262144E+03  0.00000000000E+00 0. -1.
          1   -1    0    0  503    0 -0.00000000000E+00 -0.00000000000E+00 -0.31921380682E+03  0.31921380682E+03  0.00000000000E+00 0. -1.
         25    1    1    2    0    0  0.10904767042E+03 -0.19434415613E+03 -0.16887440752E+03  0.30627538419E+03  0.12500000000E+03 0.  0.
         21    1    1    2  503  502  0.23875445473E+02 -0.18068934226E+02 -0.13258171936E+02  0.32746028823E+02  0.00000000000E+00 0.  1.
          1    1    1    2  501    0 -0.13292311589E+03  0.21241309035E+03  0.20906139408E+03  0.32633501526E+03  0.00000000000E+00 0. -1.
<mgrwt>
<rscale>  4 0.27508545E+03</rscale>
<asrwt>0</asrwt>
<pdfrwt beam="1">  1       21 0.53252711E-01 0.27508545E+03</pdfrwt>
<pdfrwt beam="2">  1        1 0.49109816E-01 0.27508545E+03</pdfrwt>
<totfact> 0.28823338E+03</totfact>
</mgrwt>
</event>
<event>
 5    0  0.1141006E+000  0.2870464E+03  0.7546771E-02  0.1091901E+00
          3   -1    0    0  503    0 -0.00000000000E+00  0.00000000000E+00  0.95475304350E+02  0.95475304350E+02  0.00000000000E+00 0.  1.
         21   -1    0    0  501  502  0.00000000000E+00 -0.00000000000E+00 -0.90052236149E+03  0.90052236149E+03  0.00000000000E+00 0.  1.
         25    1    1    2    0    0 -0.25840011516E+03  0.45325896166E-01 -0.57051844374E+03  0.63866025101E+03  0.12500000000E+03 0.  0.
         21    1    1    2  503  502  0.18176733772E+02 -0.20213060815E+02 -0.13822985103E+02  0.30496498082E+02  0.00000000000E+00 0.  1.
          3    1    1    2  501    0  0.24022338139E+03  0.20167734919E+02 -0.22070562830E+03  0.32684091675E+03  0.00000000000E+00 0.  1.
<mgrwt>
<rscale>  4 0.28704638E+03</rscale>
<asrwt>0</asrwt>
<pdfrwt beam="1">  1       21 0.13854191E+00 0.28704638E+03</pdfrwt>
<pdfrwt beam="2">  1        3 0.14688508E-01 0.28704638E+03</pdfrwt>
<totfact> 0.68205465E+02</totfact>
</mgrwt>
</event>
<event>
 5    0  0.1141006E+000  0.3892138E+03  0.7546771E-02  0.1047580E+00
          1   -1    0    0  503    0 -0.00000000000E+00  0.00000000000E+00  0.47605358595E+03  0.47605358595E+03  0.00000000000E+00 0. -1.
         21   -1    0    0  501  502  0.00000000000E+00 -0.00000000000E+00 -0.34503382534E+03  0.34503382534E+03  0.00000000000E+00 0. -1.
         25    1    1    2    0    0 -0.46115984718E+02 -0.35163936313E+03 -0.35212133608E+01  0.37605096023E+03  0.12500000000E+03 0.  0.
         21    1    1    2  503  502 -0.85903076025E+01 -0.32206930309E+02  0.26376787725E+02  0.42506642720E+02  0.00000000000E+00 0.  1.
          1    1    1    2  501    0  0.54706292320E+02  0.38384629344E+03  0.10816418625E+03  0.40252980833E+03  0.00000000000E+00 0. -1.
<mgrwt>
<rscale>  4 0.38921378E+03</rscale>
<asrwt>0</asrwt>
<pdfrwt beam="1">  1       21 0.53082127E-01 0.38921378E+03</pdfrwt>
<pdfrwt beam="2">  1        1 0.73239014E-01 0.38921378E+03</pdfrwt>
<totfact> 0.16805966E+03</totfact>
</mgrwt>
</event>
<event>
 5    0  0.1141006E+000  0.2380336E+03  0.7546771E-02  0.1121110E+00
         21   -1    0    0  501  502  0.00000000000E+00  0.00000000000E+00  0.38719417360E+02  0.38719417360E+02  0.00000000000E+00 0. -1.
          2   -1    0    0  503    0 -0.00000000000E+00 -0.00000000000E+00 -0.17138266005E+04  0.17138266005E+04  0.00000000000E+00 0. -1.
         25    1    1    2    0    0 -0.19782500213E+03  0.73630650917E+02 -0.70295124286E+03  0.74452780611E+03  0.12500000000E+03 0.  0.
         21    1    1    2  503  502 -0.14437436605E+01 -0.66321475296E+02 -0.27663980716E+03  0.28448234635E+03  0.00000000000E+00 0. -1.
          2    1    1    2  501    0  0.19926874579E+03 -0.73091756209E+01 -0.69551613311E+03  0.72353586539E+03  0.00000000000E+00 0. -1.
<mgrwt>
<rscale>  4 0.23803363E+03</rscale>
<asrwt>0</asrwt>
<pdfrwt beam="1">  1       21 0.59568352E-02 0.23803363E+03</pdfrwt>
<pdfrwt beam="2">  1        2 0.26366555E+00 0.23803363E+03</pdfrwt>
<totfact> 0.26749120E+04</totfact>
</mgrwt>
</event>
<event>
 5    0  0.1141006E+000  0.3001277E+03  0.7546771E-02  0.1085177E+00
          1   -1    0    0  503    0 -0.00000000000E+00  0.00000000000E+00  0.12761728785E+04  0.12761728785E+04  0.00000000000E+00 0. -1.
         21   -1    0    0  501  502  0.00000000000E+00 -0.00000000000E+00 -0.13300875514E+03  0.13300875514E+03  0.00000000000E+00 0. -1.
         25    1    1    2    0    0  0.22341586163E+03  0.15664284683E+03  0.81426379135E+02  0.31097730449E+03  0.12500000000E+03 0.  0.
         21    1    1    2  503  502 -0.43741852646E+02 -0.31253498150E+02  0.12297845225E+03  0.13421561212E+03  0.00000000000E+00 0.  1.
          1    1    1    2  501    0 -0.17967400898E+03 -0.12538934868E+03  0.93875929194E+03  0.96398871698E+03  0.00000000000E+00 0. -1.
<mgrwt>
<rscale>  4 0.30012769E+03</rscale>
<asrwt>0</asrwt>
<pdfrwt beam="1">  1       21 0.20462886E-01 0.30012769E+03</pdfrwt>
<pdfrwt beam="2">  1        1 0.19633428E+00 0.30012769E+03</pdfrwt>
<totfact> 0.24280642E+03</totfact>
</mgrwt>
</event>
<event>
 5    0  0.1141006E+000  0.4204811E+03  0.7546771E-02  0.1036910E+00
         21   -1    0    0  501  502  0.00000000000E+00  0.00000000000E+00  0.42878392730E+03  0.42878392730E+03  0.00000000000E+00 0. -1.
          2   -1    0    0  503    0 -0.00000000000E+00 -0.00000000000E+00 -0.21702417329E+04  0.21702417329E+04  0.00000000000E+00 0. -1.
         25    1    1    2    0    0  0.10941806033E+03 -0.38991398574E+03  0.29372293854E+03  0.51565821318E+03  0.12500000000E+03 0.  0.
         21    1    1    2  503  502  0.43384107046E+02  0.74849846594E+02 -0.26109854846E+03  0.27505841614E+03  0.00000000000E+00 0.  1.
          2    1    1    2  501    0 -0.15280216738E+03  0.31506413914E+03 -0.17740821956E+04  0.18083090308E+04  0.00000000000E+00 0. -1.
<mgrwt>
<rscale>  4 0.42048114E+03</rscale>
<asrwt>0</asrwt>
<pdfrwt beam="1">  1       21 0.65966758E-01 0.42048114E+03</pdfrwt>
<pdfrwt beam="2">  1        2 0.33388335E+00 0.42048114E+03</pdfrwt>
<totfact> 0.14362657E+02</totfact>
</mgrwt>
</event>
<event>
 5    0  0.1141006E+000  0.2266265E+03  0.7546771E-02  0.1129037E+00
          1   -1    0    0  503    0 -0.00000000000E+00  0.00000000000E+00  0.22329040788E+04  0.22329040788E+04  0.00000000000E+00 0. -1.
         21   -1    0    0  501  502  0.00000000000E+00 -0.00000000000E+00 -0.92775447589E+02  0.92775447589E+02  0.00000000000E+00 0. -1.
         25    1    1    2    0    0 -0.20125822395E+03  0.11224297537E+03  0.22341011073E+03  0.34444220967E+03  0.12500000000E+03 0.  0.
         21    1    1    2  503  502  0.19292902570E+03  0.82102963794E+02  0.15677960102E+04  0.15817543536E+04  0.00000000000E+00 0. -1.
          1    1    1    2  501    0  0.83291982479E+01 -0.19434593917E+03  0.34892251027E+03  0.39948296308E+03  0.00000000000E+00 0. -1.
<mgrwt>
<rscale>  4 0.22662652E+03</rscale>
<asrwt>0</asrwt>
<pdfrwt beam="1">  1       21 0.14273147E-01 0.22662652E+03</pdfrwt>
<pdfrwt beam="2">  1        1 0.34352366E+00 0.22662652E+03</pdfrwt>
<totfact> 0.11490252E+03</totfact>
</mgrwt>
</event>
<event>
 5    0  0.1141006E+000  0.3300803E+03  0.7546771E-02  0.1071101E+00
          1   -1    0    0  503    0 -0.00000000000E+00  0.00000000000E+00  0.55687701412E+03  0.55687701412E+03  0.00000000000E+00 0.  1.
         21   -1    0    0  501  502  0.00000000000E+00 -0.00000000000E+00 -0.26713513299E+03  0.26713513299E+03  0.00000000000E+00 0.  1.
         25    1    1    2    0    0  0.92114949186E+02  0.28012387341E+03  0.37333839403E+02  0.32244900974E+03  0.12500000000E+03 0.  0.
         21    1    1    2  503  502 -0.65666966498E+02  0.42689322025E+02  0.13683702740E+03  0.15766705671E+03  0.00000000000E+00 0.  1.
          1    1    1    2  501    0 -0.26447982688E+02 -0.32281319544E+03  0.11557101432E+03  0.34389608066E+03  0.00000000000E+00 0.  1.
<mgrwt>
<rscale>  4 0.33008032E+03</rscale>
<asrwt>0</asrwt>
<pdfrwt beam="1">  1       21 0.41097713E-01 0.33008032E+03</pdfrwt>
<pdfrwt beam="2">  1        1 0.85673387E-01 0.33008032E+03</pdfrwt>
<totfact> 0.23563482E+03</totfact>
</mgrwt>
</event>
<event>
 5    0  0.1141006E+000  0.3732977E+03  0.7546771E-02  0.1053439E+00
          2   -1    0    0  503    0 -0.00000000000E+00  0.00000000000E+00  0.35685831919E+04  0.35685831919E+04  0.00000000000E+00 0. -1.
         21   -1    0    0  501  502  0.00000000000E+00 -0.00000000000E+00 -0.43793303605E+02  0.43793303605E+02  0.00000000000E+00 0. -1.
         25    1    1    2    0    0  0.54677392146E+02 -0.34747167562E+03  0.11073608008E+04  0.11685885185E+04  0.12500000000E+03 0.  0.
         21    1    1    2  503  502 -0.35008502067E+02  0.61555527340E+02  0.53550620078E+03  0.54016809350E+03  0.00000000000E+00 0.  1.
          2    1    1    2  501    0 -0.19668890079E+02  0.28591614828E+03  0.18819228867E+04  0.19036198834E+04  0.00000000000E+00 0. -1.
<mgrwt>
<rscale>  4 0.37329771E+03</rscale>
<asrwt>0</asrwt>
<pdfrwt beam="1">  1       21 0.67374341E-02 0.37329771E+03</pdfrwt>
<pdfrwt beam="2">  1        2 0.54901257E+00 0.37329771E+03</pdfrwt>
<totfact> 0.17785553E+03</totfact>
</mgrwt>
</event>
<event>
 5    0  0.1141006E+000  0.2838810E+03  0.7546771E-02  0.1093588E+00
          2   -1    0    0  503    0 -0.00000000000E+00  0.00000000000E+00  0.34111072724E+04  0.34111072724E+04  0.00000000000E+00 0.  1.
         21   -1    0    0  501  502  0.00000000000E+00 -0.00000000000E+00 -0.69684174897E+02  0.69684174897E+02  0.00000000000E+00 0. -1.
         25    1    1    2    0    0  0.53112076271E+02  0.24824603281E+03  0.25693426077E+03  0.38221355262E+03  0.12500000000E+03 0.  0.
         21    1    1    2  503  502 -0.20045869975E+02  0.14803841109E+02  0.14204904810E+03  0.14421831604E+03  0.00000000000E+00 0.  1.
          2    1    1    2  501    0 -0.33066206296E+02 -0.26304987391E+03  0.29424397886E+04  0.29543595787E+04  0.00000000000E+00 0.  1.
<mgrwt>
<rscale>  4 0.28388104E+03</rscale>
<asrwt>0</asrwt>
<pdfrwt beam="1">  1       21 0.10720645E-01 0.28388104E+03</pdfrwt>
<pdfrwt beam="2">  1        2 0.52478560E+00 0.28388104E+03</pdfrwt>
<totfact> 0.10378187E+03</totfact>
</mgrwt>
</event>
<event>
 5    0  0.1141006E+000  0.3053242E+03  0.7546771E-02  0.1082609E+00
          2   -1    0    0  503    0 -0.00000000000E+00  0.00000000000E+00  0.25447384172E+04  0.25447384172E+04  0.00000000000E+00 0. -1.
         21   -1    0    0  501  502  0.00000000000E+00 -0.00000000000E+00 -0.88602027990E+02  0.88602027990E+02  0.00000000000E+00 0. -1.
         25    1    1    2    0    0  0.28292376697E+03 -0.40608527203E+02  0.23561920973E+03  0.39094286333E+03  0.12500000000E+03 0.  0.
         21    1    1    2  503  502 -0.57739190164E+02 -0.30302117398E+02  0.27585745051E+03  0.28345963629E+03  0.00000000000E+00 0. -1.
          2    1    1    2  501    0 -0.22518457680E+03  0.70910644601E+02  0.19446597289E+04  0.19589379456E+04  0.00000000000E+00 0. -1.
<mgrwt>
<rscale>  4 0.30532419E+03</rscale>
<asrwt>0</asrwt>
<pdfrwt beam="1">  1       21 0.13631083E-01 0.30532419E+03</pdfrwt>
<pdfrwt beam="2">  1        2 0.39149816E+00 0.30532419E+03</pdfrwt>
<totfact> 0.21805964E+03</totfact>
</mgrwt>
</event>
<event>
 5    0  0.1141006E+000  0.3155702E+03  0.7546771E-02  0.1077706E+00
          1   -1    0    0  503    0 -0.00000000000E+00  0.00000000000E+00  0.12182461649E+04  0.12182461649E+04  0.00000000000E+00 0.  1.
         21   -1    0    0  501  502  0.00000000000E+00 -0.00000000000E+00 -0.10350169739E+03  0.10350169739E+03  0.00000000000E+00 0. -1.
         25    1    1    2    0    0 -0.23599783618E+03  0.16012728849E+03  0.35563689341E+03  0.47269263497E+03  0.12500000000E+03 0.  0.
         21    1    1    2  503  502 -0.28124357640E+02 -0.25350352452E+02  0.30089310791E+03  0.30326602554E+03  0.00000000000E+00 0. -1.
          1    1    1    2  501    0  0.26412219382E+03 -0.13477693604E+03  0.45821446621E+03  0.54578920180E+03  0.00000000000E+00 0.  1.
<mgrwt>
<rscale>  4 0.31557019E+03</rscale>
<asrwt>0</asrwt>
<pdfrwt beam="1">  1       21 0.15923339E-01 0.31557019E+03</pdfrwt>
<pdfrwt beam="2">  1        1 0.18742248E+00 0.31557019E+03</pdfrwt>
<totfact> 0.42395039E+03</totfact>
</mgrwt>
</event>
<event>
 5    0  0.1141006E+000  0.3512705E+03  0.7546771E-02  0.1062095E+00
          2   -1    0    0  503    0 -0.00000000000E+00  0.00000000000E+00  0.13057308376E+04  0.13057308376E+04  0.00000000000E+00 0. -1.
         21   -1    0    0  501  502  0.00000000000E+00 -0.00000000000E+00 -0.93368989895E+02  0.93368989895E+02  0.00000000000E+00 0. -1.
         25    1    1    2    0    0 -0.31385235270E+03 -0.96242857319E+02  0.53154011969E+03  0.63712313230E+03  0.12500000000E+03 0.  0.
         21    1    1    2  503  502  0.79911916012E+02  0.65658927271E+00  0.25047318245E+03  0.26291283833E+03  0.00000000000E+00 0. -1.
          2    1    1    2  501    0  0.23394043668E+03  0.95586268047E+02  0.43034854555E+03  0.49906385685E+03  0.00000000000E+00 0. -1.
<mgrwt>
<rscale>  4 0.35127053E+03</rscale>
<asrwt>0</asrwt>
<pdfrwt beam="1">  1       21 0.14364461E-01 0.35127053E+03</pdfrwt>
<pdfrwt beam="2">  1        2 0.20088165E+00 0.35127053E+03</pdfrwt>
<totfact> 0.90683324E+03</totfact>
</mgrwt>
</event>
<event>
 5    0  0.1141006E+000  0.3245476E+03  0.7546771E-02  0.1073575E+00
          2   -1    0    0  503    0 -0.00000000000E+00  0.00000000000E+00  0.31334936339E+03  0.31334936339E+03  0.00000000000E+00 0.  1.
         21   -1    0    0  501  502  0.00000000000E+00 -0.00000000000E+00 -0.10993151551E+04  0.10993151551E+04  0.00000000000E+00 0. -1.
         25    1    1    2    0    0  0.13773023983E+03 -0.26960092087E+03 -0.80067937255E+03  0.86508192278E+03  0.12500000000E+03 0.  0.
         21    1    1    2  503  502  0.10635569951E+02  0.18270311147E+02  0.20049996555E+03  0.20161139800E+03  0.00000000000E+00 0.  1.
          2    1    1    2  501    0 -0.14836580978E+03  0.25133060972E+03 -0.18578638471E+03  0.34597119770E+03  0.00000000000E+00 0.  1.
<mgrwt>
<rscale>  4 0.32454763E+03</rscale>
<asrwt>0</asrwt>
<pdfrwt beam="1">  1       21 0.16912541E+00 0.32454763E+03</pdfrwt>
<pdfrwt beam="2">  1        2 0.48207595E-01 0.32454763E+03</pdfrwt>
<totfact> 0.25899172E+02</totfact>
</mgrwt>
</event>
<event>
 5    0  0.1141006E+000  0.6549408E+03  0.7546771E-02  0.9797552E-01
          4   -1    0    0  503    0 -0.00000000000E+00  0.00000000000E+00  0.40628868524E+03  0.40628868524E+03  0.00000000000E+00 0. -1.
         21   -1    0    0  501  502  0.00000000000E+00 -0.00000000000E+00 -0.19493672077E+04  0.19493672077E+04  0.00000000000E+00 0. -1.
         25    1    1    2    0    0 -0.46813879464E+03  0.42905992085E+03 -0.14795774878E+04  0.16149368066E+04  0.12500000000E+03 0.  0.
         21    1    1    2  503  502 -0.15029503663E+02  0.46110705191E+02  0.29393346674E+02  0.56710245479E+02  0.00000000000E+00 0. -1.
          4    1    1    2  501    0  0.48316829830E+03 -0.47517062604E+03 -0.92894381294E+02  0.68400884088E+03  0.00000000000E+00 0. -1.
<mgrwt>
<rscale>  4 0.65494081E+03</rscale>
<asrwt>0</asrwt>
<pdfrwt beam="1">  1       21 0.29990265E+00 0.65494081E+03</pdfrwt>
<pdfrwt beam="2">  1        4 0.62505951E-01 0.65494081E+03</pdfrwt>
<totfact> 0.27335638E+00</totfact>
</mgrwt>
</event>
<event>
 5    0  0.1141006E+000  0.2715446E+03  0.7546771E-02  0.1100399E+00
          2   -1    0    0  503    0 -0.00000000000E+00  0.00000000000E+00  0.10682100188E+04  0.10682100188E+04  0.00000000000E+00 0.  1.
         21   -1    0    0  501  502  0.00000000000E+00 -0.00000000000E+00 -0.10169600100E+03  0.10169600100E+03  0.00000000000E+00 0. -1.
         25    1    1    2    0    0  0.22581134133E+03  0.49979133813E+02  0.16917396690E+03  0.31262358639E+03  0.12500000000E+03 0.  0.
         21    1    1    2  503  502  0.37735717500E+02  0.15626149820E+02  0.72212385705E+02  0.82962579412E+02  0.00000000000E+00 0. -1.
          2    1    1    2  501    0 -0.26354705883E+03 -0.65605283633E+02  0.72512766515E+03  0.77431985395E+03  0.00000000000E+00 0.  1.
<mgrwt>
<rscale>  4 0.27154465E+03</rscale>
<asrwt>0</asrwt>
<pdfrwt beam="1">  1       21 0.15645539E-01 0.27154465E+03</pdfrwt>
<pdfrwt beam="2">  1        2 0.16433999E+00 0.27154465E+03</pdfrwt>
<totfact> 0.10808734E+04</totfact>
</mgrwt>
</event>
<event>
 5    0  0.1141006E+000  0.4114684E+03  0.7546771E-02  0.1039879E+00
         21   -1    0    0  501  502  0.00000000000E+00  0.00000000000E+00  0.67643376666E+03  0.67643376666E+03  0.00000000000E+00 0.  1.
          2   -1    0    0  503    0 -0.00000000000E+00 -0.00000000000E+00 -0.81051796034E+03  0.81051796034E+03  0.00000000000E+00 0. -1.
         25    1    1    2    0    0  0.38895724413E+03  0.12060525869E+03  0.50491983074E+03  0.66060760037E+03  0.12500000000E+03 0.  0.
         21    1    1    2  503  502 -0.70410147448E+02 -0.25788229235E+02 -0.42382961509E+03  0.43041162189E+03  0.00000000000E+00 0. -1.
          2    1    1    2  501    0 -0.31854709668E+03 -0.94817029451E+02 -0.21517440934E+03  0.39593250475E+03  0.00000000000E+00 0. -1.
<mgrwt>
<rscale>  4 0.41146837E+03</rscale>
<asrwt>0</asrwt>
<pdfrwt beam="1">  1       21 0.10406673E+00 0.41146837E+03</pdfrwt>
<pdfrwt beam="2">  1        2 0.12469507E+00 0.41146837E+03</pdfrwt>
<totfact> 0.29552770E+02</totfact>
</mgrwt>
</event>
<event>
 5    0  0.1141006E+000  0.2903228E+03  0.7546771E-02  0.1090181E+00
          2   -1    0    0  503    0 -0.00000000000E+00  0.00000000000E+00  0.25705028870E+04  0.25705028870E+04  0.00000000000E+00 0. -1.
         21   -1    0    0  501  502  0.00000000000E+00 -0.00000000000E+00 -0.46162488750E+02  0.46162488750E+02  0.00000000000E+00 0. -1.
         25    1    1    2    0    0  0.24804917074E+03  0.76198876512E+02  0.64652787614E+03  0.70778383319E+03  0.12500000000E+03 0.  0.
         21    1    1    2  503  502  0.25451820921E+02 -0.64395288823E+02  0.37677595290E+03  0.38308571768E+03  0.00000000000E+00 0. -1.
          2    1    1    2  501    0 -0.27350099167E+03 -0.11803587690E+02  0.15010365692E+04  0.15257958249E+04  0.00000000000E+00 0. -1.
<mgrwt>
<rscale>  4 0.29032283E+03</rscale>
<asrwt>0</asrwt>
<pdfrwt beam="1">  1       21 0.71019234E-02 0.29032283E+03</pdfrwt>
<pdfrwt beam="2">  1        2 0.39546187E+00 0.29032283E+03</pdfrwt>
<totfact> 0.67860481E+03</totfact>
</mgrwt>
</event>
<event>
 5    0  0.1141006E+000  0.2590341E+03  0.7546771E-02  0.1107725E+00
          1   -1    0    0  503    0 -0.00000000000E+00  0.00000000000E+00  0.57537744655E+03  0.57537744655E+03  0.00000000000E+00 0. -1.
         21   -1    0    0  501  502  0.00000000000E+00 -0.00000000000E+00 -0.12293199928E+03  0.12293199928E+03  0.00000000000E+00 0. -1.
         25    1    1    2    0    0 -0.22480112217E+03 -0.33258681655E+02  0.19490643372E+03  0.32443058169E+03  0.12500000000E+03 0.  0.
         21    1    1    2  503  502  0.59309576221E+01 -0.28554940476E+02  0.80634012267E+02  0.85746165034E+02  0.00000000000E+00 0. -1.
          1    1    1    2  501    0  0.21887016454E+03  0.61813622131E+02  0.17690500128E+03  0.28813269909E+03  0.00000000000E+00 0. -1.
<mgrwt>
<rscale>  4 0.25903414E+03</rscale>
<asrwt>0</asrwt>
<pdfrwt beam="1">  1       21 0.18912616E-01 0.25903414E+03</pdfrwt>
<pdfrwt beam="2">  1        1 0.88519606E-01 0.25903414E+03</pdfrwt>
<totfact> 0.10438590E+04</totfact>
</mgrwt>
</event>
<event>
 5    0  0.1141006E+000  0.3645098E+03  0.7546771E-02  0.1056812E+00
          1   -1    0    0  503    0 -0.00000000000E+00  0.00000000000E+00  0.15408985705E+04  0.15408985705E+04  0.00000000000E+00 0.  1.
         21   -1    0    0  501  502  0.00000000000E+00 -0.00000000000E+00 -0.19744244885E+03  0.19744244885E+03  0.00000000000E+00 0.  1.
         25    1    1    2    0    0 -0.34520130998E+03 -0.27303239760E+02  0.66254757117E+02  0.37406430484E+03  0.12500000000E+03 0.  0.
         21    1    1    2  503  502  0.17976941025E+02 -0.30446016134E+02  0.67951948642E+03  0.68043872812E+03  0.00000000000E+00 0. -1.
          1    1    1    2  501    0  0.32722436895E+03  0.57749255893E+02  0.59768187808E+03  0.68383798635E+03  0.00000000000E+00 0.  1.
<mgrwt>
<rscale>  4 0.36450984E+03</rscale>
<asrwt>0</asrwt>
<pdfrwt beam="1">  1       21 0.30375762E-01 0.36450984E+03</pdfrwt>
<pdfrwt beam="2">  1        1 0.23706131E+00 0.36450984E+03</pdfrwt>
<totfact> 0.73229969E+02</totfact>
</mgrwt>
</event>
<event>
 5    0  0.1141006E+000  0.4399510E+03  0.7546771E-02  0.1030762E+00
         21   -1    0    0  501  502  0.00000000000E+00  0.00000000000E+00  0.88482395861E+02  0.88482395861E+02  0.00000000000E+00 0. -1.
          2   -1    0    0  503    0 -0.00000000000E+00 -0.00000000000E+00 -0.25012547611E+04  0.25012547611E+04  0.00000000000E+00 0. -1.
         25    1    1    2    0    0 -0.45200577203E+02 -0.42647018347E+03 -0.88974474063E+03  0.99558556289E+03  0.12500000000E+03 0.  0.
         21    1    1    2  503  502 -0.35174293634E+02  0.20896541408E+02 -0.30792746035E+03  0.31063357387E+03  0.00000000000E+00 0. -1.
          2    1    1    2  501    0  0.80374870837E+02  0.40557364206E+03 -0.12151001643E+04  0.12835180202E+04  0.00000000000E+00 0. -1.
<mgrwt>
<rscale>  4 0.43995104E+03</rscale>
<asrwt>0</asrwt>
<pdfrwt beam="1">  1       21 0.13612676E-01 0.43995104E+03</pdfrwt>
<pdfrwt beam="2">  1        2 0.38480845E+00 0.43995104E+03</pdfrwt>
<totfact> 0.22065921E+03</totfact>
</mgrwt>
</event>
<event>
 5    0  0.1141006E+000  0.3112742E+03  0.7546771E-02  0.1079737E+00
          2   -1    0    0  503    0 -0.00000000000E+00  0.00000000000E+00  0.18903500443E+04  0.18903500443E+04  0.00000000000E+00 0.  1.
         21   -1    0    0  501  502  0.00000000000E+00 -0.00000000000E+00 -0.11385704438E+03  0.11385704438E+03  0.00000000000E+00 0.  1.
         25    1    1    2    0    0  0.84132711231E+02  0.25085467694E+03  0.12321988748E+03  0.31751302762E+03  0.12500000000E+03 0.  0.
         21    1    1    2  503  502  0.58413010228E+01  0.22456556699E+02  0.29045539522E+02  0.37176082399E+02  0.00000000000E+00 0. -1.
          2    1    1    2  501    0 -0.89974012254E+02 -0.27331123363E+03  0.16242275729E+04  0.16495179787E+04  0.00000000000E+00 0.  1.
<mgrwt>
<rscale>  4 0.31127421E+03</rscale>
<asrwt>0</asrwt>
<pdfrwt beam="1">  1       21 0.17516470E-01 0.31127421E+03</pdfrwt>
<pdfrwt beam="2">  1        2 0.29082306E+00 0.31127421E+03</pdfrwt>
<totfact> 0.30773412E+03</totfact>
</mgrwt>
</event>
<event>
 5    0  0.1141006E+000  0.4104428E+03  0.7546771E-02  0.1040223E+00
          2   -1    0    0  503    0 -0.00000000000E+00  0.00000000000E+00  0.14697201518E+04  0.14697201518E+04  0.00000000000E+00 0. -1.
         21   -1    0    0  501  502  0.00000000000E+00 -0.00000000000E+00 -0.48399606897E+03  0.48399606897E+03  0.00000000000E+00 0. -1.
         25    1    1    2    0    0 -0.28993929537E+03  0.25654576312E+03 -0.33996567399E+03  0.53017184296E+03  0.12500000000E+03 0.  0.
         21    1    1    2  503  502 -0.33246186080E+01  0.63238173946E+02  0.35061717631E+03  0.35628994380E+03  0.00000000000E+00 0. -1.
          2    1    1    2  501    0  0.29326391398E+03 -0.31978393707E+03  0.97507258056E+03  0.10672544341E+04  0.00000000000E+00 0. -1.
<mgrwt>
<rscale>  4 0.41044279E+03</rscale>
<asrwt>0</asrwt>
<pdfrwt beam="1">  1       21 0.74460935E-01 0.41044279E+03</pdfrwt>
<pdfrwt beam="2">  1        2 0.22611079E+00 0.41044279E+03</pdfrwt>
<totfact> 0.26119308E+02</totfact>
</mgrwt>
</event>
