<event>
 5    0  0.1609797E+000  0.3270832E+03  0.7546771E-02  0.1073121E+00
         21   -1    0    0  502  501  0.00000000000E+00  0.00000000000E+00  0.17230476298E+03  0.17230476298E+03  0.00000000000E+00 0.  1.
         21   -1    0    0  503  502 -0.00000000000E+00 -0.00000000000E+00 -0.11960840646E+04  0.11960840646E+04  0.00000000000E+00 0.  1.
         25    1    1    2    0    0  0.27436304840E+03 -0.11020456546E+03 -0.30278530498E+02  0.32243126086E+03  0.12500000000E+03 0.  0.
         21    1    1    2  503  504 -0.20450355601E+03  0.25856129920E+02 -0.50741657346E+03  0.54768770563E+03  0.00000000000E+00 0.  1.
         21    1    1    2  504  501 -0.69859492381E+02  0.84348435535E+02 -0.48608419762E+03  0.49826986105E+03  0.00000000000E+00 0.  1.
<mgrwt>
<rscale>  4 0.32555334E+03</rscale>
<asrwt>0</asrwt>
<pdfrwt beam="1">  1       21 0.26508424E-01 0.32708324E+03</pdfrwt>
<pdfrwt beam="2">  1       21 0.18401294E+00 0.32708324E+03</pdfrwt>
<totfact> 0.20876186E+03</totfact>
</mgrwt>
</event>
<event>
 5    0  0.1609797E+000  0.3221693E+03  0.7546771E-02  0.1074655E+00
         21   -1    0    0  502  501  0.00000000000E+00  0.00000000000E+00  0.50680433843E+03  0.50680433843E+03  0.00000000000E+00 0. -1.
         21   -1    0    0  503  502 -0.00000000000E+00 -0.00000000000E+00 -0.95986600236E+03  0.95986600236E+03  0.00000000000E+00 0. -1.
         25    1    1    2    0    0 -0.29140590570E+03  0.11851313139E+03  0.39512832263E+03  0.52030198494E+03  0.12500000000E+03 0.  0.
         21    1    1    2  503  504  0.54729512023E+01 -0.41614518425E+02  0.59225633652E+01  0.42388655268E+02  0.00000000000E+00 0.  1.
         21    1    1    2  504  501  0.28593295450E+03 -0.76898612968E+02 -0.85411254992E+03  0.90397970059E+03  0.00000000000E+00 0. -1.
<mgrwt>
<rscale>  4 0.32216932E+03</rscale>
<asrwt>0</asrwt>
<pdfrwt beam="1">  1       21 0.77969899E-01 0.32216932E+03</pdfrwt>
<pdfrwt beam="2">  1       21 0.14767169E+00 0.32216932E+03</pdfrwt>
<totfact> 0.40433123E+02</totfact>
</mgrwt>
</event>
<event>
 5    0  0.1609797E+000  0.2403106E+03  0.7546771E-02  0.1119586E+00
         21   -1    0    0  502  501  0.00000000000E+00  0.00000000000E+00  0.93082612661E+03  0.93082612661E+03  0.00000000000E+00 0. -1.
         21   -1    0    0  503  502 -0.00000000000E+00 -0.00000000000E+00 -0.30105389877E+03  0.30105389877E+03  0.00000000000E+00 0. -1.
         25    1    1    2    0    0 -0.18490944928E+03 -0.99969477896E+02  0.86063304232E+03  0.89470645157E+03  0.12500000000E+03 0.  0.
         21    1    1    2  503  504  0.50263018708E+02  0.61696772121E+02 -0.16683053358E+02  0.81309206176E+02  0.00000000000E+00 0. -1.
         21    1    1    2  504  501  0.13464643057E+03  0.38272705775E+02 -0.21417776112E+03  0.25586436764E+03  0.00000000000E+00 0. -1.
<mgrwt>
<rscale>  4 0.24031059E+03</rscale>
<asrwt>0</asrwt>
<pdfrwt beam="1">  1       21 0.14320402E+00 0.24031059E+03</pdfrwt>
<pdfrwt beam="2">  1       21 0.46315985E-01 0.24031059E+03</pdfrwt>
<totfact> 0.14432729E+03</totfact>
</mgrwt>
</event>
<event>
 5    0  0.1609797E+000  0.2498231E+03  0.7546771E-02  0.1113417E+00
         21   -1    0    0  502  501  0.00000000000E+00  0.00000000000E+00  0.19504050830E+03  0.19504050830E+03  0.00000000000E+00 0.  1.
         21   -1    0    0  503  502 -0.00000000000E+00 -0.00000000000E+00 -0.88869739560E+03  0.88869739560E+03  0.00000000000E+00 0. -1.
         25    1    1    2    0    0 -0.21550684779E+03 -0.18531012159E+02  0.93355952824E+02  0.26669633252E+03  0.12500000000E+03 0.  0.
         21    1    1    2  503  504  0.30403631757E+02  0.15791594374E+02 -0.11472635335E+03  0.11973258300E+03  0.00000000000E+00 0.  1.
         21    1    1    2  504  501  0.18510321603E+03  0.27394177851E+01 -0.67228648677E+03  0.69730898839E+03  0.00000000000E+00 0. -1.
<mgrwt>
<rscale>  4 0.24982314E+03</rscale>
<asrwt>0</asrwt>
<pdfrwt beam="1">  1       21 0.30006233E-01 0.24982314E+03</pdfrwt>
<pdfrwt beam="2">  1       21 0.13672267E+00 0.24982314E+03</pdfrwt>
<totfact> 0.38769353E+03</totfact>
</mgrwt>
</event>
<event>
 5    0  0.1609797E+000  0.1949658E+03  0.7546771E-02  0.1154057E+00
         21   -1    0    0  502  501  0.00000000000E+00  0.00000000000E+00  0.11820933171E+03  0.11820933171E+03  0.00000000000E+00 0. -1.
         21   -1    0    0  503  502 -0.00000000000E+00 -0.00000000000E+00 -0.49056586073E+03  0.49056586073E+03  0.00000000000E+00 0. -1.
         25    1    1    2    0    0 -0.18362142923E+03 -0.83392842734E+02 -0.15043520280E+03  0.28093939868E+03  0.12500000000E+03 0.  0.
         21    1    1    2  503  504  0.83983120776E+02  0.10573949586E+03 -0.15584722485E+03  0.20620951252E+03  0.00000000000E+00 0. -1.
         21    1    1    2  504  501  0.99638308451E+02 -0.22346653129E+02 -0.66074101372E+02  0.12162628124E+03  0.00000000000E+00 0. -1.
<mgrwt>
<rscale>  4 0.19496580E+03</rscale>
<asrwt>0</asrwt>
<pdfrwt beam="1">  1       21 0.18186051E-01 0.19496580E+03</pdfrwt>
<pdfrwt beam="2">  1       21 0.75471671E-01 0.19496580E+03</pdfrwt>
<totfact> 0.43138438E+04</totfact>
</mgrwt>
</event>
<event>
 5    0  0.1609797E+000  0.2738678E+03  0.7546771E-02  0.1099086E+00
         21   -1    0    0  502  501  0.00000000000E+00  0.00000000000E+00  0.41398794527E+03  0.41398794527E+03  0.00000000000E+00 0.  1.
         21   -1    0    0  503  502 -0.00000000000E+00 -0.00000000000E+00 -0.40555621164E+03  0.40555621164E+03  0.00000000000E+00 0.  1.
         25    1    1    2    0    0 -0.14287395316E+03 -0.30266043505E+03 -0.98464691604E+02  0.37058953160E+03  0.12500000000E+03 0.  0.
         21    1    1    2  503  504  0.15129434051E+03  0.13316515210E+03 -0.60648569403E+02  0.21047846487E+03  0.00000000000E+00 0.  1.
         21    1    1    2  504  501 -0.84203873529E+01  0.16949528295E+03  0.16754499464E+03  0.23847616043E+03  0.00000000000E+00 0.  1.
<mgrwt>
<rscale>  4 0.27386781E+03</rscale>
<asrwt>0</asrwt>
<pdfrwt beam="1">  1       21 0.63690453E-01 0.27386781E+03</pdfrwt>
<pdfrwt beam="2">  1       21 0.62393263E-01 0.27386781E+03</pdfrwt>
<totfact> 0.51409356E+03</totfact>
</mgrwt>
</event>
<event>
 5    0  0.1609797E+000  0.2523691E+03  0.7546771E-02  0.1111817E+00
         21   -1    0    0  502  501  0.00000000000E+00  0.00000000000E+00  0.32556068100E+03  0.32556068100E+03  0.00000000000E+00 0. -1.
         21   -1    0    0  503  502 -0.00000000000E+00 -0.00000000000E+00 -0.50195080110E+03  0.50195080110E+03  0.00000000000E+00 0.  1.
         25    1    1    2    0    0  0.20961274040E+03  0.72785172066E+02  0.24040616970E+03  0.35022179921E+03  0.12500000000E+03 0.  0.
         21    1    1    2  503  504 -0.22326857519E+02 -0.68432208064E+01 -0.11632347398E+02  0.26088881610E+02  0.00000000000E+00 0. -1.
         21    1    1    2  504  501 -0.18728588288E+03 -0.65941951259E+02 -0.40516394239E+03  0.45120080128E+03  0.00000000000E+00 0.  1.
<mgrwt>
<rscale>  4 0.25236908E+03</rscale>
<asrwt>0</asrwt>
<pdfrwt beam="1">  1       21 0.50086259E-01 0.25236908E+03</pdfrwt>
<pdfrwt beam="2">  1       21 0.77223200E-01 0.25236908E+03</pdfrwt>
<totfact> 0.54258787E+03</totfact>
</mgrwt>
</event>
<event>
 5    0  0.1609797E+000  0.3053090E+03  0.7546771E-02  0.1082616E+00
         21   -1    0    0  502  501  0.00000000000E+00  0.00000000000E+00  0.90666325929E+02  0.90666325929E+02  0.00000000000E+00 0. -1.
         21   -1    0    0  503  502 -0.00000000000E+00 -0.00000000000E+00 -0.25600276025E+04  0.25600276025E+04  0.00000000000E+00 0. -1.
         25    1    1    2    0    0 -0.27459492366E+03  0.46756843455E+02 -0.20246327888E+03  0.36633994295E+03  0.12500000000E+03 0.  0.
         21    1    1    2  503  504  0.25422748142E+02 -0.59506289971E+01 -0.13042356134E+03  0.13301139598E+03  0.00000000000E+00 0. -1.
         21    1    1    2  504  501  0.24917217551E+03 -0.40806214458E+02 -0.21364744363E+04  0.21513425895E+04  0.00000000000E+00 0. -1.
<mgrwt>
<rscale>  4 0.30530898E+03</rscale>
<asrwt>0</asrwt>
<pdfrwt beam="1">  1       21 0.13948667E-01 0.30530898E+03</pdfrwt>
<pdfrwt beam="2">  1       21 0.39385036E+00 0.30530898E+03</pdfrwt>
<totfact> 0.36850544E+02</totfact>
</mgrwt>
</event>
<event>
 5    0  0.1609797E+000  0.2788496E+03  0.7546771E-02  0.1096319E+00
         21   -1    0    0  502  501  0.00000000000E+00  0.00000000000E+00  0.70168340822E+02  0.70168340822E+02  0.00000000000E+00 0.  1.
         21   -1    0    0  503  502 -0.00000000000E+00 -0.00000000000E+00 -0.10062003258E+04  0.10062003258E+04  0.00000000000E+00 0.  1.
         25    1    1    2    0    0  0.23461145351E+03  0.84199474621E+02 -0.45584238480E+03  0.53436819275E+03  0.12500000000E+03 0.  0.
         21    1    1    2  503  504 -0.27841478082E+02 -0.42362164629E+01 -0.37443874184E+02  0.46852290719E+02  0.00000000000E+00 0.  1.
         21    1    1    2  504  501 -0.20676997543E+03 -0.79963258159E+02 -0.44274572604E+03  0.49514818320E+03  0.00000000000E+00 0.  1.
<mgrwt>
<rscale>  4 0.27884958E+03</rscale>
<asrwt>0</asrwt>
<pdfrwt beam="1">  1       21 0.10795129E-01 0.27884958E+03</pdfrwt>
<pdfrwt beam="2">  1       21 0.15480006E+00 0.27884958E+03</pdfrwt>
<totfact> 0.18522074E+04</totfact>
</mgrwt>
</event>
<event>
 5    0  0.1609797E+000  0.2419133E+03  0.7546771E-02  0.1118525E+00
         21   -1    0    0  502  501  0.00000000000E+00  0.00000000000E+00  0.14232281476E+03  0.14232281476E+03  0.00000000000E+00 0.  1.
         21   -1    0    0  503  502 -0.00000000000E+00 -0.00000000000E+00 -0.10996975995E+04  0.10996975995E+04  0.00000000000E+00 0.  1.
         25    1    1    2    0    0 -0.19405720490E+02  0.20620493552E+03  0.19300583864E+02  0.24268203468E+03  0.12500000000E+03 0.  0.
         21    1    1    2  503  504  0.73812171256E+01 -0.12910979177E+03 -0.70121459691E+03  0.71303978263E+03  0.00000000000E+00 0.  1.
         21    1    1    2  504  501  0.12024503365E+02 -0.77095143745E+02 -0.27546077172E+03  0.28629859697E+03  0.00000000000E+00 0.  1.
<mgrwt>
<rscale>  4 0.24191333E+03</rscale>
<asrwt>0</asrwt>
<pdfrwt beam="1">  1       21 0.21895819E-01 0.24191333E+03</pdfrwt>
<pdfrwt beam="2">  1       21 0.16918423E+00 0.24191333E+03</pdfrwt>
<totfact> 0.40445778E+03</totfact>
</mgrwt>
</event>
<event>
 5    0  0.1609797E+000  0.2811578E+03  0.7546771E-02  0.1095058E+00
         21   -1    0    0  502  501  0.00000000000E+00  0.00000000000E+00  0.45042216952E+03  0.45042216952E+03  0.00000000000E+00 0.  1.
         21   -1    0    0  503  502 -0.00000000000E+00 -0.00000000000E+00 -0.21457921415E+03  0.21457921415E+03  0.00000000000E+00 0.  1.
         25    1    1    2    0    0 -0.11413405424E+03  0.22449532122E+03  0.28105422078E+03  0.39754396814E+03  0.12500000000E+03 0.  0.
         21    1    1    2  503  504  0.12252686156E+03 -0.18449621408E+03 -0.28498349539E+02  0.22330212883E+03  0.00000000000E+00 0.  1.
         21    1    1    2  504  501 -0.83928073132E+01 -0.39999107142E+02 -0.16712915866E+02  0.44155286700E+02  0.00000000000E+00 0. -1.
<mgrwt>
<rscale>  4 0.28115784E+03</rscale>
<asrwt>0</asrwt>
<pdfrwt beam="1">  1       21 0.69295718E-01 0.28115784E+03</pdfrwt>
<pdfrwt beam="2">  1       21 0.33012187E-01 0.28115784E+03</pdfrwt>
<totfact> 0.15959617E+04</totfact>
</mgrwt>
</event>
<event>
 5    0  0.1609797E+000  0.2692495E+03  0.7546771E-02  0.1101710E+00
         21   -1    0    0  502  501  0.00000000000E+00  0.00000000000E+00  0.54992041708E+03  0.54992041708E+03  0.00000000000E+00 0.  1.
         21   -1    0    0  503  502 -0.00000000000E+00 -0.00000000000E+00 -0.19134630384E+03  0.19134630384E+03  0.00000000000E+00 0.  1.
         25    1    1    2    0    0 -0.50726165233E+02 -0.23301744238E+03  0.41093008963E+03  0.49128282165E+03  0.12500000000E+03 0.  0.
         21    1    1    2  503  504  0.62607456585E+01  0.14892760033E+03 -0.37550190354E+02  0.15371611455E+03  0.00000000000E+00 0.  1.
         21    1    1    2  504  501  0.44465419574E+02  0.84089842045E+02 -0.14805786035E+02  0.96267784711E+02  0.00000000000E+00 0.  1.
<mgrwt>
<rscale>  4 0.26924946E+03</rscale>
<asrwt>0</asrwt>
<pdfrwt beam="1">  1       21 0.84603140E-01 0.26924946E+03</pdfrwt>
<pdfrwt beam="2">  1       21 0.29437893E-01 0.26924946E+03</pdfrwt>
<totfact> 0.12809726E+04</totfact>
</mgrwt>
</event>
<event>
 5    0  0.1609797E+000  0.2425705E+03  0.7546771E-02  0.1118092E+00
         21   -1    0    0  502  501  0.00000000000E+00  0.00000000000E+00  0.35862890090E+03  0.35862890090E+03  0.00000000000E+00 0. -1.
         21   -1    0    0  503  502 -0.00000000000E+00 -0.00000000000E+00 -0.15811548206E+03  0.15811548206E+03  0.00000000000E+00 0. -1.
         25    1    1    2    0    0 -0.83902715447E+02 -0.19019927163E+03  0.17795384843E+03  0.30084547655E+03  0.12500000000E+03 0.  0.
         21    1    1    2  503  504  0.20519733263E+02  0.68771346260E+02  0.32043334962E+02  0.78596010300E+02  0.00000000000E+00 0. -1.
         21    1    1    2  504  501  0.63382982184E+02  0.12142792537E+03 -0.94837645584E+01  0.13730289611E+03  0.00000000000E+00 0. -1.
<mgrwt>
<rscale>  4 0.24257046E+03</rscale>
<asrwt>0</asrwt>
<pdfrwt beam="1">  1       21 0.55173677E-01 0.24257046E+03</pdfrwt>
<pdfrwt beam="2">  1       21 0.24325459E-01 0.24257046E+03</pdfrwt>
<totfact> 0.48328523E+04</totfact>
</mgrwt>
</event>
<event>
 5    0  0.1609797E+000  0.3433688E+03  0.7546771E-02  0.1065370E+00
         21   -1    0    0  502  501  0.00000000000E+00  0.00000000000E+00  0.22662471991E+03  0.22662471991E+03  0.00000000000E+00 0.  1.
         21   -1    0    0  503  502 -0.00000000000E+00 -0.00000000000E+00 -0.60778343098E+03  0.60778343098E+03  0.00000000000E+00 0.  1.
         25    1    1    2    0    0  0.25674453805E+03 -0.19068125722E+03 -0.31341281169E+02  0.34479613626E+03  0.12500000000E+03 0.  0.
         21    1    1    2  503  504 -0.10424221549E+03  0.14881988111E+03 -0.15612322896E+03  0.23955846703E+03  0.00000000000E+00 0.  1.
         21    1    1    2  504  501 -0.15250232256E+03  0.41861376111E+02 -0.19369420093E+03  0.25005354761E+03  0.00000000000E+00 0.  1.
<mgrwt>
<rscale>  4 0.34336875E+03</rscale>
<asrwt>0</asrwt>
<pdfrwt beam="1">  1       21 0.34865342E-01 0.34336875E+03</pdfrwt>
<pdfrwt beam="2">  1       21 0.93505143E-01 0.34336875E+03</pdfrwt>
<totfact> 0.70046090E+03</totfact>
</mgrwt>
</event>
<event>
 5    0  0.1609797E+000  0.2365012E+03  0.7546771E-02  0.1122146E+00
         21   -1    0    0  502  501  0.00000000000E+00  0.00000000000E+00  0.13951654490E+03  0.13951654490E+03  0.00000000000E+00 0.  1.
         21   -1    0    0  503  502 -0.00000000000E+00 -0.00000000000E+00 -0.13441136004E+04  0.13441136004E+04  0.00000000000E+00 0.  1.
         25    1    1    2    0    0 -0.11358119299E+02 -0.20044653962E+03  0.24250290861E+02  0.23774124322E+03  0.12500000000E+03 0.  0.
         21    1    1    2  503  504  0.20130252096E+02  0.63246064117E+02 -0.47394187746E+03  0.47856681340E+03  0.00000000000E+00 0.  1.
         21    1    1    2  504  501 -0.87721327975E+01  0.13720047550E+03 -0.75490546892E+03  0.76732208870E+03  0.00000000000E+00 0.  1.
<mgrwt>
<rscale>  4 0.23650121E+03</rscale>
<asrwt>0</asrwt>
<pdfrwt beam="1">  1       21 0.21464083E-01 0.23650121E+03</pdfrwt>
<pdfrwt beam="2">  1       21 0.20678671E+00 0.23650121E+03</pdfrwt>
<totfact> 0.23576517E+03</totfact>
</mgrwt>
</event>
<event>
 5    0  0.1609797E+000  0.2960610E+03  0.7546771E-02  0.1087226E+00
         21   -1    0    0  502  501  0.00000000000E+00  0.00000000000E+00  0.93477883102E+03  0.93477883102E+03  0.00000000000E+00 0. -1.
         21   -1    0    0  503  502 -0.00000000000E+00 -0.00000000000E+00 -0.17861515220E+03  0.17861515220E+03  0.00000000000E+00 0. -1.
         25    1    1    2    0    0  0.23923594574E+03  0.19445666224E+03  0.66075133904E+03  0.73977331884E+03  0.12500000000E+03 0.  0.
         21    1    1    2  503  504 -0.15815750541E+03 -0.63789441517E+02 -0.32489574793E+02  0.17360432552E+03  0.00000000000E+00 0. -1.
         21    1    1    2  504  501 -0.81078440330E+02 -0.13066722073E+03  0.12790191458E+03  0.20001633886E+03  0.00000000000E+00 0. -1.
<mgrwt>
<rscale>  4 0.29606102E+03</rscale>
<asrwt>0</asrwt>
<pdfrwt beam="1">  1       21 0.14381213E+00 0.29606102E+03</pdfrwt>
<pdfrwt beam="2">  1       21 0.27479255E-01 0.29606102E+03</pdfrwt>
<totfact> 0.39198627E+03</totfact>
</mgrwt>
</event>
<event>
 5    0  0.1609797E+000  0.2444495E+03  0.7546771E-02  0.1116864E+00
         21   -1    0    0  502  501  0.00000000000E+00  0.00000000000E+00  0.43670265488E+02  0.43670265488E+02  0.00000000000E+00 0. -1.
         21   -1    0    0  503  502 -0.00000000000E+00 -0.00000000000E+00 -0.12985196225E+04  0.12985196225E+04  0.00000000000E+00 0. -1.
         25    1    1    2    0    0 -0.20561614317E+03  0.43041432787E+02 -0.84227557230E+03  0.87703118700E+03  0.12500000000E+03 0.  0.
         21    1    1    2  503  504  0.22987549348E+02  0.85122257774E+01 -0.58746552083E+02  0.63655657991E+02  0.00000000000E+00 0. -1.
         21    1    1    2  504  501  0.18262859382E+03 -0.51553658564E+02 -0.35382723266E+03  0.40150304303E+03  0.00000000000E+00 0. -1.
<mgrwt>
<rscale>  4 0.24444951E+03</rscale>
<asrwt>0</asrwt>
<pdfrwt beam="1">  1       21 0.67185018E-02 0.24444951E+03</pdfrwt>
<pdfrwt beam="2">  1       21 0.19977227E+00 0.24444951E+03</pdfrwt>
<totfact> 0.21107266E+04</totfact>
</mgrwt>
</event>
<event>
 5    0  0.1609797E+000  0.2858738E+03  0.7546771E-02  0.1092523E+00
         21   -1    0    0  502  501  0.00000000000E+00  0.00000000000E+00  0.73432605031E+03  0.73432605031E+03  0.00000000000E+00 0.  1.
         21   -1    0    0  503  502 -0.00000000000E+00 -0.00000000000E+00 -0.85930266581E+03  0.85930266581E+03  0.00000000000E+00 0.  1.
         25    1    1    2    0    0  0.12215738145E+03  0.22622197057E+03  0.68520608225E+03  0.74244944674E+03  0.12500000000E+03 0.  0.
         21    1    1    2  503  504 -0.82925902081E+01 -0.36858651266E+02 -0.83579213286E+02  0.91721383107E+02  0.00000000000E+00 0.  1.
         21    1    1    2  504  501 -0.11386479124E+03 -0.18936331930E+03 -0.72660348447E+03  0.75945788627E+03  0.00000000000E+00 0.  1.
<mgrwt>
<rscale>  4 0.28587376E+03</rscale>
<asrwt>0</asrwt>
<pdfrwt beam="1">  1       21 0.11297324E+00 0.28587376E+03</pdfrwt>
<pdfrwt beam="2">  1       21 0.13220041E+00 0.28587376E+03</pdfrwt>
<totfact> 0.23064130E+02</totfact>
</mgrwt>
</event>
<event>
 5    0  0.1609797E+000  0.2546507E+03  0.7546771E-02  0.1110400E+00
         21   -1    0    0  502  501  0.00000000000E+00  0.00000000000E+00  0.32775197855E+03  0.32775197855E+03  0.00000000000E+00 0.  1.
         21   -1    0    0  503  502 -0.00000000000E+00 -0.00000000000E+00 -0.13056080530E+04  0.13056080530E+04  0.00000000000E+00 0.  1.
         25    1    1    2    0    0  0.15108742672E+03 -0.17506486702E+03  0.25293561593E+03  0.36479657891E+03  0.12500000000E+03 0.  0.
         21    1    1    2  503  504 -0.95300968027E+01  0.15990475468E+03 -0.54022822527E+03  0.56347749618E+03  0.00000000000E+00 0.  1.
         21    1    1    2  504  501 -0.14155732992E+03  0.15160112343E+02 -0.69056346512E+03  0.70508595647E+03  0.00000000000E+00 0.  1.
<mgrwt>
<rscale>  4 0.25465069E+03</rscale>
<asrwt>0</asrwt>
<pdfrwt beam="1">  1       21 0.50423382E-01 0.25465069E+03</pdfrwt>
<pdfrwt beam="2">  1       21 0.20086278E+00 0.25465069E+03</pdfrwt>
<totfact> 0.46432550E+02</totfact>
</mgrwt>
</event>
<event>
 5    0  0.1609797E+000  0.2963673E+03  0.7546771E-02  0.1087071E+00
         21   -1    0    0  502  501  0.00000000000E+00  0.00000000000E+00  0.86514678359E+02  0.86514678359E+02  0.00000000000E+00 0. -1.
         21   -1    0    0  503  502 -0.00000000000E+00 -0.00000000000E+00 -0.11005271308E+04  0.11005271308E+04  0.00000000000E+00 0. -1.
         25    1    1    2    0    0 -0.99730539640E+02  0.24952431239E+03 -0.33884994421E+03  0.45016979874E+03  0.12500000000E+03 0.  0.
         21    1    1    2  503  504  0.66053682945E+02 -0.10164214625E+03 -0.16565825304E+03  0.20527267651E+03  0.00000000000E+00 0. -1.
         21    1    1    2  504  501  0.33676856696E+02 -0.14788216615E+03 -0.50950425519E+03  0.53159933390E+03  0.00000000000E+00 0. -1.
<mgrwt>
<rscale>  4 0.29636728E+03</rscale>
<asrwt>0</asrwt>
<pdfrwt beam="1">  1       21 0.13309949E-01 0.29636728E+03</pdfrwt>
<pdfrwt beam="2">  1       21 0.16931188E+00 0.29636728E+03</pdfrwt>
<totfact> 0.98305353E+03</totfact>
</mgrwt>
</event>
<event>
 5    0  0.1609797E+000  0.3092178E+03  0.7546771E-02  0.1080721E+00
         21   -1    0    0  502  501  0.00000000000E+00  0.00000000000E+00  0.83132254777E+03  0.83132254777E+03  0.00000000000E+00 0.  1.
         21   -1    0    0  503  502 -0.00000000000E+00 -0.00000000000E+00 -0.54945245705E+03  0.54945245705E+03  0.00000000000E+00 0. -1.
         25    1    1    2    0    0  0.19539046244E+03 -0.21096632909E+03  0.73982943112E+03  0.80352772943E+03  0.12500000000E+03 0.  0.
         21    1    1    2  503  504 -0.13976150604E+03  0.15947641137E+03 -0.45430621034E+03  0.50135829216E+03  0.00000000000E+00 0. -1.
         21    1    1    2  504  501 -0.55628956400E+02  0.51489917718E+02 -0.36531300474E+01  0.75888983231E+02  0.00000000000E+00 0. -1.
<mgrwt>
<rscale>  4 0.30921783E+03</rscale>
<asrwt>0</asrwt>
<pdfrwt beam="1">  1       21 0.12789578E+00 0.30921783E+03</pdfrwt>
<pdfrwt beam="2">  1       21 0.84531147E-01 0.30921783E+03</pdfrwt>
<totfact> 0.49323835E+02</totfact>
</mgrwt>
</event>
<event>
 5    0  0.1609797E+000  0.3305795E+03  0.7546771E-02  0.1070881E+00
         21   -1    0    0  502  501  0.00000000000E+00  0.00000000000E+00  0.20322027611E+03  0.20322027611E+03  0.00000000000E+00 0.  1.
         21   -1    0    0  503  502 -0.00000000000E+00 -0.00000000000E+00 -0.57452923885E+03  0.57452923885E+03  0.00000000000E+00 0.  1.
         25    1    1    2    0    0  0.21644306036E+03  0.21635668658E+03 -0.55962487948E+02  0.33528288692E+03  0.12500000000E+03 0.  0.
         21    1    1    2  503  504 -0.17868025395E+03 -0.16553243976E+03 -0.27513155442E+03  0.36745747237E+03  0.00000000000E+00 0.  1.
         21    1    1    2  504  501 -0.37762806411E+02 -0.50824246821E+02 -0.40214920382E+02  0.75009155670E+02  0.00000000000E+00 0.  1.
<mgrwt>
<rscale>  4 0.33057951E+03</rscale>
<asrwt>0</asrwt>
<pdfrwt beam="1">  1       21 0.31264658E-01 0.33057951E+03</pdfrwt>
<pdfrwt beam="2">  1       21 0.88389114E-01 0.33057951E+03</pdfrwt>
<totfact> 0.99958349E+03</totfact>
</mgrwt>
</event>
<event>
 5    0  0.1618931E+000  0.3774356E+03  0.7546771E-02  0.1051886E+00
         21   -1    0    0  502  501  0.00000000000E+00  0.00000000000E+00  0.13524963883E+03  0.13524963883E+03  0.00000000000E+00 0.  1.
         21   -1    0    0  503  502 -0.00000000000E+00 -0.00000000000E+00 -0.12284770283E+04  0.12284770283E+04  0.00000000000E+00 0.  1.
         25    1    1    2    0    0  0.13062153306E+03  0.33131658229E+03 -0.27048371426E+03  0.46434804003E+03  0.12500000000E+03 0.  0.
         21    1    1    2  503  504 -0.13428473580E+03 -0.31018238139E+03 -0.79800703985E+03  0.86663760341E+03  0.00000000000E+00 0.  1.
         21    1    1    2  504  501  0.36632027466E+01 -0.21134200908E+02 -0.24736635343E+02  0.32741023663E+02  0.00000000000E+00 0. -1.
<mgrwt>
<rscale>  4 0.37743564E+03</rscale>
<asrwt>0</asrwt>
<pdfrwt beam="1">  1       21 0.20807636E-01 0.37743564E+03</pdfrwt>
<pdfrwt beam="2">  1       21 0.18899648E+00 0.37743564E+03</pdfrwt>
<totfact> 0.29938080E+03</totfact>
</mgrwt>
</event>
<event>
 5    0  0.1609797E+000  0.2789041E+03  0.7546771E-02  0.1096289E+00
         21   -1    0    0  502  501  0.00000000000E+00  0.00000000000E+00  0.43764690656E+03  0.43764690656E+03  0.00000000000E+00 0.  1.
         21   -1    0    0  503  502 -0.00000000000E+00 -0.00000000000E+00 -0.23934301564E+03  0.23934301564E+03  0.00000000000E+00 0.  1.
         25    1    1    2    0    0 -0.28480276796E+02 -0.28795959824E+03  0.22438890270E+02  0.31600689895E+03  0.12500000000E+03 0.  0.
         21    1    1    2  503  504  0.23732274956E+02  0.23303300056E+03  0.19272372633E+03  0.30333155938E+03  0.00000000000E+00 0.  1.
         21    1    1    2  504  501  0.47480018402E+01  0.54926597681E+02 -0.16858725684E+02  0.57651463867E+02  0.00000000000E+00 0.  1.
<mgrwt>
<rscale>  4 0.27890412E+03</rscale>
<asrwt>0</asrwt>
<pdfrwt beam="1">  1       21 0.67330293E-01 0.27890412E+03</pdfrwt>
<pdfrwt beam="2">  1       21 0.36822002E-01 0.27890412E+03</pdfrwt>
<totfact> 0.13684134E+04</totfact>
</mgrwt>
</event>
<event>
 5    0  0.1609797E+000  0.2815296E+03  0.7546771E-02  0.1094856E+00
         21   -1    0    0  502  501  0.00000000000E+00  0.00000000000E+00  0.38479188779E+03  0.38479188779E+03  0.00000000000E+00 0. -1.
         21   -1    0    0  503  502 -0.00000000000E+00 -0.00000000000E+00 -0.24330053306E+03  0.24330053306E+03  0.00000000000E+00 0. -1.
         25    1    1    2    0    0  0.24247128671E+03  0.69581442599E+02  0.22323963302E+03  0.35929769799E+03  0.12500000000E+03 0.  0.
         21    1    1    2  503  504 -0.21497303438E+03 -0.53568796824E+02 -0.83900039448E+02  0.23690132571E+03  0.00000000000E+00 0. -1.
         21    1    1    2  504  501 -0.27498252327E+02 -0.16012645775E+02  0.21517611545E+01  0.31893397151E+02  0.00000000000E+00 0. -1.
<mgrwt>
<rscale>  4 0.28152958E+03</rscale>
<asrwt>0</asrwt>
<pdfrwt beam="1">  1       21 0.59198752E-01 0.28152958E+03</pdfrwt>
<pdfrwt beam="2">  1       21 0.37430851E-01 0.28152958E+03</pdfrwt>
<totfact> 0.17520907E+04</totfact>
</mgrwt>
</event>
<event>
 5    0  0.1609797E+000  0.2908877E+03  0.7546771E-02  0.1089887E+00
         21   -1    0    0  502  501  0.00000000000E+00  0.00000000000E+00  0.56357377434E+03  0.56357377434E+03  0.00000000000E+00 0.  1.
         21   -1    0    0  503  502 -0.00000000000E+00 -0.00000000000E+00 -0.27614145610E+03  0.27614145610E+03  0.00000000000E+00 0. -1.
         25    1    1    2    0    0 -0.23365695595E+03  0.12354975596E+03  0.38567009277E+03  0.48396956073E+03  0.12500000000E+03 0.  0.
         21    1    1    2  503  504  0.26009100688E+03 -0.52061112092E+02 -0.83783673118E+02  0.27816792614E+03  0.00000000000E+00 0. -1.
         21    1    1    2  504  501 -0.26434050925E+02 -0.71488643865E+02 -0.14454101409E+02  0.77577743571E+02  0.00000000000E+00 0. -1.
<mgrwt>
<rscale>  4 0.29088766E+03</rscale>
<asrwt>0</asrwt>
<pdfrwt beam="1">  1       21 0.86703657E-01 0.29088766E+03</pdfrwt>
<pdfrwt beam="2">  1       21 0.42483301E-01 0.29088766E+03</pdfrwt>
<totfact> 0.57342434E+03</totfact>
</mgrwt>
</event>
<event>
 5    0  0.1609797E+000  0.2143395E+03  0.7546771E-02  0.1138175E+00
         21   -1    0    0  502  501  0.00000000000E+00  0.00000000000E+00  0.47513475645E+03  0.47513475645E+03  0.00000000000E+00 0. -1.
         21   -1    0    0  503  502 -0.00000000000E+00 -0.00000000000E+00 -0.18772237271E+03  0.18772237271E+03  0.00000000000E+00 0. -1.
         25    1    1    2    0    0 -0.13372807614E+03 -0.16310640234E+03  0.33934527016E+03  0.41864914811E+03  0.12500000000E+03 0.  0.
         21    1    1    2  503  504  0.90092998519E+02  0.88572687869E+02  0.24714068445E+02  0.12873482279E+03  0.00000000000E+00 0. -1.
         21    1    1    2  504  501  0.43635077624E+02  0.74533714473E+02 -0.76646954861E+02  0.11547315827E+03  0.00000000000E+00 0. -1.
<mgrwt>
<rscale>  4 0.21433948E+03</rscale>
<asrwt>0</asrwt>
<pdfrwt beam="1">  1       21 0.73097655E-01 0.21433948E+03</pdfrwt>
<pdfrwt beam="2">  1       21 0.28880365E-01 0.21433948E+03</pdfrwt>
<totfact> 0.19067951E+04</totfact>
</mgrwt>
</event>
<event>
 5    0  0.1609797E+000  0.2755621E+03  0.7546771E-02  0.1098138E+00
         21   -1    0    0  502  501  0.00000000000E+00  0.00000000000E+00  0.52028298660E+03  0.52028298660E+03  0.00000000000E+00 0. -1.
         21   -1    0    0  503  502 -0.00000000000E+00 -0.00000000000E+00 -0.11564081360E+04  0.11564081360E+04  0.00000000000E+00 0. -1.
         25    1    1    2    0    0  0.19227125792E+03 -0.15058556568E+03  0.45297503925E+03  0.52958062218E+03  0.12500000000E+03 0.  0.
         21    1    1    2  503  504 -0.21039903882E+03  0.19109410769E+03 -0.10505683901E+04  0.10883375652E+04  0.00000000000E+00 0. -1.
         21    1    1    2  504  501  0.18127780901E+02 -0.40508542012E+02 -0.38531798536E+02  0.58772935223E+02  0.00000000000E+00 0. -1.
<mgrwt>
<rscale>  4 0.27556211E+03</rscale>
<asrwt>0</asrwt>
<pdfrwt beam="1">  1       21 0.80043537E-01 0.27556211E+03</pdfrwt>
<pdfrwt beam="2">  1       21 0.17790894E+00 0.27556211E+03</pdfrwt>
<totfact> 0.23632615E+02</totfact>
</mgrwt>
</event>
<event>
 5    0  0.1609797E+000  0.2307078E+03  0.7546771E-02  0.1126143E+00
         21   -1    0    0  502  501  0.00000000000E+00  0.00000000000E+00  0.56824953109E+02  0.56824953109E+02  0.00000000000E+00 0. -1.
         21   -1    0    0  503  502 -0.00000000000E+00 -0.00000000000E+00 -0.12689645098E+04  0.12689645098E+04  0.00000000000E+00 0. -1.
         25    1    1    2    0    0  0.10603160405E+03  0.17278658199E+03 -0.64468458376E+03  0.68727077379E+03  0.12500000000E+03 0.  0.
         21    1    1    2  503  504 -0.93161542403E+02  0.22926172708E+02 -0.20713810502E+03  0.22827806931E+03  0.00000000000E+00 0. -1.
         21    1    1    2  504  501 -0.12870061651E+02 -0.19571275470E+03 -0.36031686794E+03  0.41024061983E+03  0.00000000000E+00 0. -1.
<mgrwt>
<rscale>  4 0.23070776E+03</rscale>
<asrwt>0</asrwt>
<pdfrwt beam="1">  1       21 0.87423009E-02 0.23070776E+03</pdfrwt>
<pdfrwt beam="2">  1       21 0.19522530E+00 0.23070776E+03</pdfrwt>
<totfact> 0.14402531E+04</totfact>
</mgrwt>
</event>
<event>
 5    0  0.1609797E+000  0.2517947E+03  0.7546771E-02  0.1112176E+00
         21   -1    0    0  502  501  0.00000000000E+00  0.00000000000E+00  0.35301426072E+03  0.35301426072E+03  0.00000000000E+00 0. -1.
         21   -1    0    0  503  502 -0.00000000000E+00 -0.00000000000E+00 -0.18978322181E+03  0.18978322181E+03  0.00000000000E+00 0.  1.
         25    1    1    2    0    0  0.19290494163E+03 -0.10277776997E+03  0.19367363539E+03  0.31766344384E+03  0.12500000000E+03 0.  0.
         21    1    1    2  503  504 -0.16391724738E+03  0.89089152655E+02 -0.41683916184E+02  0.19116299322E+03  0.00000000000E+00 0.  1.
         21    1    1    2  504  501 -0.28987694253E+02  0.13688617315E+02  0.11241319704E+02  0.33971045477E+02  0.00000000000E+00 0. -1.
<mgrwt>
<rscale>  4 0.25179473E+03</rscale>
<asrwt>0</asrwt>
<pdfrwt beam="1">  1       21 0.54309886E-01 0.25179473E+03</pdfrwt>
<pdfrwt beam="2">  1       21 0.29197419E-01 0.25179473E+03</pdfrwt>
<totfact> 0.34974948E+04</totfact>
</mgrwt>
</event>
<event>
 5    0  0.1609797E+000  0.2496213E+03  0.7546771E-02  0.1113544E+00
         21   -1    0    0  502  501  0.00000000000E+00  0.00000000000E+00  0.62627697014E+03  0.62627697014E+03  0.00000000000E+00 0. -1.
         21   -1    0    0  503  502 -0.00000000000E+00 -0.00000000000E+00 -0.41651159567E+03  0.41651159567E+03  0.00000000000E+00 0. -1.
         25    1    1    2    0    0  0.59020657795E+02 -0.20785180997E+03  0.56819565468E+03  0.62061027622E+03  0.12500000000E+03 0.  0.
         21    1    1    2  503  504 -0.19254713215E+02  0.15855571849E+03 -0.25422044978E+03  0.30023107256E+03  0.00000000000E+00 0. -1.
         21    1    1    2  504  501 -0.39765944580E+02  0.49296091488E+02 -0.10420983043E+03  0.12194721703E+03  0.00000000000E+00 0. -1.
<mgrwt>
<rscale>  4 0.24962134E+03</rscale>
<asrwt>0</asrwt>
<pdfrwt beam="1">  1       21 0.96350303E-01 0.24962134E+03</pdfrwt>
<pdfrwt beam="2">  1       21 0.64078707E-01 0.24962134E+03</pdfrwt>
<totfact> 0.19228769E+03</totfact>
</mgrwt>
</event>
<event>
 5    0  0.1609797E+000  0.2702986E+03  0.7546771E-02  0.1101109E+00
         21   -1    0    0  502  501  0.00000000000E+00  0.00000000000E+00  0.16477591567E+03  0.16477591567E+03  0.00000000000E+00 0.  1.
         21   -1    0    0  503  502 -0.00000000000E+00 -0.00000000000E+00 -0.48641228195E+03  0.48641228195E+03  0.00000000000E+00 0.  1.
         25    1    1    2    0    0  0.23213964523E+03 -0.59561043564E+02 -0.40675736586E+02  0.27334199887E+03  0.12500000000E+03 0.  0.
         21    1    1    2  503  504 -0.56277484430E+02  0.42962050585E+02 -0.11745813738E+03  0.13714702724E+03  0.00000000000E+00 0.  1.
         21    1    1    2  504  501 -0.17586216080E+03  0.16598992979E+02 -0.16350249232E+03  0.24069917151E+03  0.00000000000E+00 0.  1.
<mgrwt>
<rscale>  4 0.27029860E+03</rscale>
<asrwt>0</asrwt>
<pdfrwt beam="1">  1       21 0.25350141E-01 0.27029860E+03</pdfrwt>
<pdfrwt beam="2">  1       21 0.74832660E-01 0.27029860E+03</pdfrwt>
<totfact> 0.22644000E+04</totfact>
</mgrwt>
</event>
<event>
 5    0  0.1609797E+000  0.2590784E+03  0.7546771E-02  0.1107698E+00
         21   -1    0    0  502  501  0.00000000000E+00  0.00000000000E+00  0.29003676583E+02  0.29003676583E+02  0.00000000000E+00 0. -1.
         21   -1    0    0  503  502 -0.00000000000E+00 -0.00000000000E+00 -0.22564444101E+04  0.22564444101E+04  0.00000000000E+00 0. -1.
         25    1    1    2    0    0 -0.11353074042E+03  0.19648769305E+03 -0.84015027563E+03  0.87918947228E+03  0.12500000000E+03 0.  0.
         21    1    1    2  503  504  0.11284206445E+02 -0.22042229312E+02 -0.91713333989E+02  0.94997520070E+02  0.00000000000E+00 0.  1.
         21    1    1    2  504  501  0.10224653397E+03 -0.17444546374E+03 -0.12955771239E+04  0.13112610944E+04  0.00000000000E+00 0. -1.
<mgrwt>
<rscale>  4 0.25907845E+03</rscale>
<asrwt>0</asrwt>
<pdfrwt beam="1">  1       21 0.44621020E-02 0.25907845E+03</pdfrwt>
<pdfrwt beam="2">  1       21 0.34714546E+00 0.25907845E+03</pdfrwt>
<totfact> 0.55169787E+03</totfact>
</mgrwt>
</event>
<event>
 5    0  0.1609797E+000  0.4962320E+03  0.7546771E-02  0.1014897E+00
         21   -1    0    0  502  501  0.00000000000E+00  0.00000000000E+00  0.20767587102E+03  0.20767587102E+03  0.00000000000E+00 0. -1.
         21   -1    0    0  503  502 -0.00000000000E+00 -0.00000000000E+00 -0.11825836483E+04  0.11825836483E+04  0.00000000000E+00 0. -1.
         25    1    1    2    0    0  0.47181903188E+03  0.77811165449E+02 -0.51179342832E+03  0.71149510861E+03  0.12500000000E+03 0.  0.
         21    1    1    2  503  504 -0.32897117309E+03 -0.12259225395E+02 -0.37338575404E+03  0.49778433348E+03  0.00000000000E+00 0. -1.
         21    1    1    2  504  501 -0.14284785879E+03 -0.65551940054E+02 -0.89728594904E+02  0.18098007721E+03  0.00000000000E+00 0.  1.
<mgrwt>
<rscale>  4 0.49573824E+03</rscale>
<asrwt>0</asrwt>
<pdfrwt beam="1">  1       21 0.31950133E-01 0.49623203E+03</pdfrwt>
<pdfrwt beam="2">  1       21 0.18193595E+00 0.49623203E+03</pdfrwt>
<totfact> 0.13772975E+03</totfact>
</mgrwt>
</event>
<event>
 5    0  0.1609797E+000  0.5151176E+03  0.7546771E-02  0.1011325E+00
         21   -1    0    0  502  501  0.00000000000E+00  0.00000000000E+00  0.47827867920E+03  0.47827867920E+03  0.00000000000E+00 0.  1.
         21   -1    0    0  503  502 -0.00000000000E+00 -0.00000000000E+00 -0.58186025842E+03  0.58186025842E+03  0.00000000000E+00 0.  1.
         25    1    1    2    0    0 -0.46314819906E+00 -0.47696591228E+03  0.10545247908E+03  0.50422407849E+03  0.12500000000E+03 0.  0.
         21    1    1    2  503  504  0.35572416109E+02  0.98659687636E+02  0.27432874167E+02  0.10840522744E+03  0.00000000000E+00 0. -1.
         21    1    1    2  504  501 -0.35109267910E+02  0.37830622465E+03 -0.23646693247E+03  0.44750963168E+03  0.00000000000E+00 0.  1.
<mgrwt>
<rscale>  4 0.50951588E+03</rscale>
<asrwt>0</asrwt>
<pdfrwt beam="1">  1       21 0.73581335E-01 0.51511755E+03</pdfrwt>
<pdfrwt beam="2">  1       21 0.89516963E-01 0.51511755E+03</pdfrwt>
<totfact> 0.14790527E+03</totfact>
</mgrwt>
</event>
<event>
 5    0  0.1609797E+000  0.3276033E+03  0.7546771E-02  0.1072202E+00
         21   -1    0    0  502  501  0.00000000000E+00  0.00000000000E+00  0.86586940099E+03  0.86586940099E+03  0.00000000000E+00 0. -1.
         21   -1    0    0  503  502 -0.00000000000E+00 -0.00000000000E+00 -0.13623970530E+03  0.13623970530E+03  0.00000000000E+00 0. -1.
         25    1    1    2    0    0 -0.14880432827E+03  0.26373514019E+03  0.56589849948E+03  0.65388459532E+03  0.12500000000E+03 0.  0.
         21    1    1    2  503  504  0.10596509978E+03 -0.22133465972E+03  0.11646696622E+03  0.27162876907E+03  0.00000000000E+00 0. -1.
         21    1    1    2  504  501  0.42839228489E+02 -0.42400480470E+02  0.47264229987E+02  0.76595741905E+02  0.00000000000E+00 0.  1.
<mgrwt>
<rscale>  4 0.32760335E+03</rscale>
<asrwt>0</asrwt>
<pdfrwt beam="1">  1       21 0.13321067E+00 0.32760335E+03</pdfrwt>
<pdfrwt beam="2">  1       21 0.20959955E-01 0.32760335E+03</pdfrwt>
<totfact> 0.79330502E+03</totfact>
</mgrwt>
</event>
<event>
 5    0  0.1609797E+000  0.2582749E+03  0.7546771E-02  0.1108184E+00
         21   -1    0    0  502  501  0.00000000000E+00  0.00000000000E+00  0.23409450775E+03  0.23409450775E+03  0.00000000000E+00 0. -1.
         21   -1    0    0  503  502 -0.00000000000E+00 -0.00000000000E+00 -0.30548356794E+03  0.30548356794E+03  0.00000000000E+00 0. -1.
         25    1    1    2    0    0 -0.84544439089E+02 -0.22201902797E+03  0.24381731654E+02  0.26955459521E+03  0.12500000000E+03 0.  0.
         21    1    1    2  503  504  0.28597770099E+02  0.84952050411E+01 -0.11188200303E+01  0.29853856059E+02  0.00000000000E+00 0. -1.
         21    1    1    2  504  501  0.55946668989E+02  0.21352382293E+03 -0.94651971814E+02  0.24016962443E+03  0.00000000000E+00 0. -1.
<mgrwt>
<rscale>  4 0.25827492E+03</rscale>
<asrwt>0</asrwt>
<pdfrwt beam="1">  1       21 0.36014540E-01 0.25827492E+03</pdfrwt>
<pdfrwt beam="2">  1       21 0.46997471E-01 0.25827492E+03</pdfrwt>
<totfact> 0.31201972E+04</totfact>
</mgrwt>
</event>
<event>
 5    0  0.1609797E+000  0.2680019E+03  0.7546771E-02  0.1102429E+00
         21   -1    0    0  502  501  0.00000000000E+00  0.00000000000E+00  0.97233829401E+02  0.97233829401E+02  0.00000000000E+00 0.  1.
         21   -1    0    0  503  502 -0.00000000000E+00 -0.00000000000E+00 -0.72695440393E+03  0.72695440393E+03  0.00000000000E+00 0.  1.
         25    1    1    2    0    0 -0.18699596452E+03 -0.14571377865E+03 -0.22211409627E+03  0.34807997328E+03  0.12500000000E+03 0.  0.
         21    1    1    2  503  504  0.12230058079E+03  0.13180405381E+03 -0.30265009789E+03  0.35203241671E+03  0.00000000000E+00 0.  1.
         21    1    1    2  504  501  0.64695383725E+02  0.13909724840E+02 -0.10495638036E+03  0.12407584334E+03  0.00000000000E+00 0.  1.
<mgrwt>
<rscale>  4 0.26800186E+03</rscale>
<asrwt>0</asrwt>
<pdfrwt beam="1">  1       21 0.14959051E-01 0.26800186E+03</pdfrwt>
<pdfrwt beam="2">  1       21 0.11183914E+00 0.26800186E+03</pdfrwt>
<totfact> 0.23758155E+04</totfact>
</mgrwt>
</event>
<event>
 5    0  0.1609797E+000  0.2627972E+03  0.7546771E-02  0.1105474E+00
         21   -1    0    0  502  501  0.00000000000E+00  0.00000000000E+00  0.12461146206E+04  0.12461146206E+04  0.00000000000E+00 0. -1.
         21   -1    0    0  503  502 -0.00000000000E+00 -0.00000000000E+00 -0.54767449743E+02  0.54767449743E+02  0.00000000000E+00 0. -1.
         25    1    1    2    0    0 -0.18411864416E+02  0.23043080423E+03  0.79329741735E+03  0.83569321205E+03  0.12500000000E+03 0.  0.
         21    1    1    2  503  504  0.35255583890E+00 -0.18969861564E+03  0.27299272235E+03  0.33243152006E+03  0.00000000000E+00 0. -1.
         21    1    1    2  504  501  0.18059308577E+02 -0.40732188596E+02  0.12505703114E+03  0.13275733822E+03  0.00000000000E+00 0. -1.
<mgrwt>
<rscale>  4 0.26279717E+03</rscale>
<asrwt>0</asrwt>
<pdfrwt beam="1">  1       21 0.19170992E+00 0.26279717E+03</pdfrwt>
<pdfrwt beam="2">  1       21 0.84257624E-02 0.26279717E+03</pdfrwt>
<totfact> 0.15889934E+04</totfact>
</mgrwt>
</event>
<event>
 5    0  0.1609797E+000  0.2385716E+03  0.7546771E-02  0.1120748E+00
         21   -1    0    0  502  501  0.00000000000E+00  0.00000000000E+00  0.37254690812E+02  0.37254690812E+02  0.00000000000E+00 0. -1.
         21   -1    0    0  503  502 -0.00000000000E+00 -0.00000000000E+00 -0.18079257387E+04  0.18079257387E+04  0.00000000000E+00 0. -1.
         25    1    1    2    0    0  0.13433757748E+03  0.15246251704E+03 -0.47323293103E+03  0.52996774509E+03  0.12500000000E+03 0.  0.
         21    1    1    2  503  504 -0.13372742009E+03 -0.12396278611E+03 -0.11969415899E+04  0.12107514050E+04  0.00000000000E+00 0. -1.
         21    1    1    2  504  501 -0.61015739303E+00 -0.28499730932E+02 -0.10049652703E+03  0.10446127943E+03  0.00000000000E+00 0. -1.
<mgrwt>
<rscale>  4 0.23857159E+03</rscale>
<asrwt>0</asrwt>
<pdfrwt beam="1">  1       21 0.57314900E-02 0.23857159E+03</pdfrwt>
<pdfrwt beam="2">  1       21 0.27814246E+00 0.23857159E+03</pdfrwt>
<totfact> 0.93140407E+03</totfact>
</mgrwt>
</event>
<event>
 5    0  0.1609797E+000  0.3366572E+03  0.7546771E-02  0.1068229E+00
         21   -1    0    0  502  501  0.00000000000E+00  0.00000000000E+00  0.36167118839E+03  0.36167118839E+03  0.00000000000E+00 0.  1.
         21   -1    0    0  503  502 -0.00000000000E+00 -0.00000000000E+00 -0.36623075739E+03  0.36623075739E+03  0.00000000000E+00 0.  1.
         25    1    1    2    0    0 -0.31288087649E+03 -0.11307154958E+03 -0.98176667285E+02  0.36870486327E+03  0.12500000000E+03 0.  0.
         21    1    1    2  503  504  0.23850658488E+02  0.20378085864E+02 -0.17554688787E+02  0.35948399021E+02  0.00000000000E+00 0.  1.
         21    1    1    2  504  501  0.28903021800E+03  0.92693463718E+02  0.11117178708E+03  0.32324868349E+03  0.00000000000E+00 0.  1.
<mgrwt>
<rscale>  4 0.33665722E+03</rscale>
<asrwt>0</asrwt>
<pdfrwt beam="1">  1       21 0.55641721E-01 0.33665722E+03</pdfrwt>
<pdfrwt beam="2">  1       21 0.56343193E-01 0.33665722E+03</pdfrwt>
<totfact> 0.83416277E+03</totfact>
</mgrwt>
</event>
<event>
 5    0  0.1609797E+000  0.2210206E+03  0.7546771E-02  0.1133124E+00
         21   -1    0    0  502  501  0.00000000000E+00  0.00000000000E+00  0.45045516079E+03  0.45045516079E+03  0.00000000000E+00 0. -1.
         21   -1    0    0  503  502 -0.00000000000E+00 -0.00000000000E+00 -0.18541968994E+03  0.18541968994E+03  0.00000000000E+00 0. -1.
         25    1    1    2    0    0 -0.13274614409E+03 -0.15497365289E+03  0.27604674511E+03  0.36532886191E+03  0.12500000000E+03 0.  0.
         21    1    1    2  503  504  0.74306857492E+02  0.16316968736E+03 -0.64854800246E+02  0.19066200738E+03  0.00000000000E+00 0. -1.
         21    1    1    2  504  501  0.58439286593E+02 -0.81960344717E+01  0.53843525991E+02  0.79883981434E+02  0.00000000000E+00 0. -1.
<mgrwt>
<rscale>  4 0.22102056E+03</rscale>
<asrwt>0</asrwt>
<pdfrwt beam="1">  1       21 0.69300794E-01 0.22102056E+03</pdfrwt>
<pdfrwt beam="2">  1       21 0.28526106E-01 0.22102056E+03</pdfrwt>
<totfact> 0.21902994E+04</totfact>
</mgrwt>
</event>
<event>
 5    0  0.1609797E+000  0.2586893E+03  0.7546771E-02  0.1107933E+00
         21   -1    0    0  502  501  0.00000000000E+00  0.00000000000E+00  0.62408187894E+03  0.62408187894E+03  0.00000000000E+00 0.  1.
         21   -1    0    0  503  502 -0.00000000000E+00 -0.00000000000E+00 -0.20055868531E+03  0.20055868531E+03  0.00000000000E+00 0.  1.
         25    1    1    2    0    0  0.19196539985E+03  0.11897558598E+03  0.48326346749E+03  0.54788181555E+03  0.12500000000E+03 0.  0.
         21    1    1    2  503  504 -0.17041872161E+02  0.33285273902E+02 -0.47584660576E+00  0.37397343427E+02  0.00000000000E+00 0. -1.
         21    1    1    2  504  501 -0.17492352769E+03 -0.15226085989E+03 -0.59264427257E+02  0.23936140527E+03  0.00000000000E+00 0.  1.
<mgrwt>
<rscale>  4 0.25868935E+03</rscale>
<asrwt>0</asrwt>
<pdfrwt beam="1">  1       21 0.96012596E-01 0.25868935E+03</pdfrwt>
<pdfrwt beam="2">  1       21 0.30855183E-01 0.25868935E+03</pdfrwt>
<totfact> 0.87389464E+03</totfact>
</mgrwt>
</event>
<event>
 5    0  0.1609797E+000  0.2972690E+03  0.7546771E-02  0.1086614E+00
         21   -1    0    0  502  501  0.00000000000E+00  0.00000000000E+00  0.35186223114E+03  0.35186223114E+03  0.00000000000E+00 0. -1.
         21   -1    0    0  503  502 -0.00000000000E+00 -0.00000000000E+00 -0.25535257405E+03  0.25535257405E+03  0.00000000000E+00 0. -1.
         25    1    1    2    0    0  0.18851365855E+03  0.19288982673E+03  0.13151520506E+03  0.32506173856E+03  0.12500000000E+03 0.  0.
         21    1    1    2  503  504 -0.18277412490E+03 -0.15474296387E+03 -0.41447943548E+02  0.24304258397E+03  0.00000000000E+00 0. -1.
         21    1    1    2  504  501 -0.57395336454E+01 -0.38146862860E+02  0.64423955792E+01  0.39110482653E+02  0.00000000000E+00 0. -1.
<mgrwt>
<rscale>  4 0.29726904E+03</rscale>
<asrwt>0</asrwt>
<pdfrwt beam="1">  1       21 0.54132651E-01 0.29726904E+03</pdfrwt>
<pdfrwt beam="2">  1       21 0.39285011E-01 0.29726904E+03</pdfrwt>
<totfact> 0.19123679E+04</totfact>
</mgrwt>
</event>
<event>
 5    0  0.1609797E+000  0.2522597E+03  0.7546771E-02  0.1111885E+00
         21   -1    0    0  502  501  0.00000000000E+00  0.00000000000E+00  0.53502697099E+03  0.53502697099E+03  0.00000000000E+00 0. -1.
         21   -1    0    0  503  502 -0.00000000000E+00 -0.00000000000E+00 -0.13080297481E+03  0.13080297481E+03  0.00000000000E+00 0. -1.
         25    1    1    2    0    0 -0.21903004930E+03 -0.59826581811E+01  0.32114063733E+03  0.40837025313E+03  0.12500000000E+03 0.  0.
         21    1    1    2  503  504  0.87658469674E+02  0.54920822488E+02  0.37921549142E+02  0.11017417092E+03  0.00000000000E+00 0. -1.
         21    1    1    2  504  501  0.13137157963E+03 -0.48938164307E+02  0.45161809711E+02  0.14728552175E+03  0.00000000000E+00 0. -1.
<mgrwt>
<rscale>  4 0.25225970E+03</rscale>
<asrwt>0</asrwt>
<pdfrwt beam="1">  1       21 0.82311840E-01 0.25225970E+03</pdfrwt>
<pdfrwt beam="2">  1       21 0.20123535E-01 0.25225970E+03</pdfrwt>
<totfact> 0.28535630E+04</totfact>
</mgrwt>
</event>
<event>
 5    0  0.1609797E+000  0.2628459E+03  0.7546771E-02  0.1105445E+00
         21   -1    0    0  502  501  0.00000000000E+00  0.00000000000E+00  0.20603820243E+03  0.20603820243E+03  0.00000000000E+00 0. -1.
         21   -1    0    0  503  502 -0.00000000000E+00 -0.00000000000E+00 -0.37838592471E+03  0.37838592471E+03  0.00000000000E+00 0. -1.
         25    1    1    2    0    0 -0.14509437392E+03 -0.18002947984E+03 -0.21937893446E+03  0.34236691990E+03  0.12500000000E+03 0.  0.
         21    1    1    2  503  504  0.39029728273E+02  0.23692722596E+02  0.24448820512E+02  0.51791984105E+02  0.00000000000E+00 0. -1.
         21    1    1    2  504  501  0.10606464565E+03  0.15633675725E+03  0.22582391661E+02  0.19026522314E+03  0.00000000000E+00 0. -1.
<mgrwt>
<rscale>  4 0.26284595E+03</rscale>
<asrwt>0</asrwt>
<pdfrwt beam="1">  1       21 0.31698185E-01 0.26284595E+03</pdfrwt>
<pdfrwt beam="2">  1       21 0.58213219E-01 0.26284595E+03</pdfrwt>
<totfact> 0.25530760E+04</totfact>
</mgrwt>
</event>
<event>
 5    0  0.1609797E+000  0.3806496E+03  0.7546771E-02  0.1052526E+00
         21   -1    0    0  502  501  0.00000000000E+00  0.00000000000E+00  0.93945105901E+02  0.93945105901E+02  0.00000000000E+00 0. -1.
         21   -1    0    0  503  502 -0.00000000000E+00 -0.00000000000E+00 -0.18326930389E+04  0.18326930389E+04  0.00000000000E+00 0.  1.
         25    1    1    2    0    0  0.19873708615E+03 -0.27464369501E+03 -0.41989303554E+03  0.55395013306E+03  0.12500000000E+03 0.  0.
         21    1    1    2  503  504 -0.70979933012E+02  0.23547308341E+03 -0.80398274017E+03  0.84075797373E+03  0.00000000000E+00 0.  1.
         21    1    1    2  504  501 -0.12775715313E+03  0.39170611600E+02 -0.51487215730E+03  0.53193003803E+03  0.00000000000E+00 0.  1.
<mgrwt>
<rscale>  4 0.37572181E+03</rscale>
<asrwt>0</asrwt>
<pdfrwt beam="1">  1       21 0.14453095E-01 0.38064963E+03</pdfrwt>
<pdfrwt beam="2">  1       21 0.28195275E+00 0.38064963E+03</pdfrwt>
<totfact> 0.15479055E+03</totfact>
</mgrwt>
</event>
<event>
 5    0  0.1609797E+000  0.2839563E+03  0.7546771E-02  0.1093548E+00
         21   -1    0    0  502  501  0.00000000000E+00  0.00000000000E+00  0.30581970221E+03  0.30581970221E+03  0.00000000000E+00 0.  1.
         21   -1    0    0  503  502 -0.00000000000E+00 -0.00000000000E+00 -0.72296779289E+03  0.72296779289E+03  0.00000000000E+00 0. -1.
         25    1    1    2    0    0  0.22647260608E+03 -0.11970899314E+03  0.19613061922E+03  0.34599465912E+03  0.12500000000E+03 0.  0.
         21    1    1    2  503  504 -0.19950016985E+03  0.14662023773E+03 -0.58533406769E+03  0.63554211715E+03  0.00000000000E+00 0. -1.
         21    1    1    2  504  501 -0.26972436226E+02 -0.26911244588E+02 -0.27944642215E+02  0.47250718828E+02  0.00000000000E+00 0.  1.
<mgrwt>
<rscale>  4 0.28395627E+03</rscale>
<asrwt>0</asrwt>
<pdfrwt beam="1">  1       21 0.47049185E-01 0.28395627E+03</pdfrwt>
<pdfrwt beam="2">  1       21 0.11122581E+00 0.28395627E+03</pdfrwt>
<totfact> 0.25693029E+03</totfact>
</mgrwt>
</event>
<event>
 5    0  0.1609797E+000  0.2862898E+03  0.7546771E-02  0.1092302E+00
         21   -1    0    0  502  501  0.00000000000E+00  0.00000000000E+00  0.76828936589E+02  0.76828936589E+02  0.00000000000E+00 0. -1.
         21   -1    0    0  503  502 -0.00000000000E+00 -0.00000000000E+00 -0.10581812337E+04  0.10581812337E+04  0.00000000000E+00 0. -1.
         25    1    1    2    0    0  0.25750709709E+03  0.51892538074E+01 -0.60765749518E+03  0.67172127021E+03  0.12500000000E+03 0.  0.
         21    1    1    2  503  504 -0.12252953437E+03  0.30240922862E+02 -0.12220683446E+03  0.17567729107E+03  0.00000000000E+00 0. -1.
         21    1    1    2  504  501 -0.13497756272E+03 -0.35430176670E+02 -0.25148796748E+03  0.28761160902E+03  0.00000000000E+00 0. -1.
<mgrwt>
<rscale>  4 0.28628977E+03</rscale>
<asrwt>0</asrwt>
<pdfrwt beam="1">  1       21 0.11819837E-01 0.28628977E+03</pdfrwt>
<pdfrwt beam="2">  1       21 0.16279711E+00 0.28628977E+03</pdfrwt>
<totfact> 0.13663474E+04</totfact>
</mgrwt>
</event>
<event>
 5    0  0.1609797E+000  0.2225283E+03  0.7546771E-02  0.1132012E+00
         21   -1    0    0  502  501  0.00000000000E+00  0.00000000000E+00  0.34392043214E+03  0.34392043214E+03  0.00000000000E+00 0.  1.
         21   -1    0    0  503  502 -0.00000000000E+00 -0.00000000000E+00 -0.22966977658E+03  0.22966977658E+03  0.00000000000E+00 0.  1.
         25    1    1    2    0    0 -0.21797405065E+03 -0.12771923174E+02  0.18166515279E+03  0.31032730547E+03  0.12500000000E+03 0.  0.
         21    1    1    2  503  504  0.12314206591E+03  0.71340718376E+02 -0.47536147023E+02  0.15004383283E+03  0.00000000000E+00 0.  1.
         21    1    1    2  504  501  0.94831984742E+02 -0.58568795201E+02 -0.19878350214E+02  0.11321907043E+03  0.00000000000E+00 0.  1.
<mgrwt>
<rscale>  4 0.22252828E+03</rscale>
<asrwt>0</asrwt>
<pdfrwt beam="1">  1       21 0.52910836E-01 0.22252828E+03</pdfrwt>
<pdfrwt beam="2">  1       21 0.35333811E-01 0.22252828E+03</pdfrwt>
<totfact> 0.25711807E+04</totfact>
</mgrwt>
</event>
<event>
 5    0  0.1609797E+000  0.2877487E+03  0.7546771E-02  0.1091530E+00
         21   -1    0    0  502  501  0.00000000000E+00  0.00000000000E+00  0.32649137860E+03  0.32649137860E+03  0.00000000000E+00 0. -1.
         21   -1    0    0  503  502 -0.00000000000E+00 -0.00000000000E+00 -0.23544971899E+03  0.23544971899E+03  0.00000000000E+00 0. -1.
         25    1    1    2    0    0  0.71693378964E+02  0.24906695480E+03  0.30131153376E+02  0.28932192271E+03  0.12500000000E+03 0.  0.
         21    1    1    2  503  504  0.83517011363E+01 -0.22376641245E+02 -0.24296060098E+01  0.24007664831E+02  0.00000000000E+00 0.  1.
         21    1    1    2  504  501 -0.80045080101E+02 -0.22669031355E+03  0.63340112251E+02  0.24861151004E+03  0.00000000000E+00 0. -1.
<mgrwt>
<rscale>  4 0.28774866E+03</rscale>
<asrwt>0</asrwt>
<pdfrwt beam="1">  1       21 0.50229443E-01 0.28774866E+03</pdfrwt>
<pdfrwt beam="2">  1       21 0.36223033E-01 0.28774866E+03</pdfrwt>
<totfact> 0.26511428E+04</totfact>
</mgrwt>
</event>
<event>
 5    0  0.1609797E+000  0.2636158E+03  0.7546771E-02  0.1104990E+00
         21   -1    0    0  502  501  0.00000000000E+00  0.00000000000E+00  0.22401892989E+03  0.22401892989E+03  0.00000000000E+00 0.  1.
         21   -1    0    0  503  502 -0.00000000000E+00 -0.00000000000E+00 -0.49711636621E+03  0.49711636621E+03  0.00000000000E+00 0. -1.
         25    1    1    2    0    0 -0.30929143360E+02 -0.23002533375E+03  0.92426374713E+02  0.27934906626E+03  0.12500000000E+03 0.  0.
         21    1    1    2  503  504  0.74917682659E+01  0.60073100435E+02 -0.36419103939E+02  0.70648815414E+02  0.00000000000E+00 0.  1.
         21    1    1    2  504  501  0.23437375095E+02  0.16995223332E+03 -0.32910470710E+03  0.37113741443E+03  0.00000000000E+00 0. -1.
<mgrwt>
<rscale>  4 0.26361575E+03</rscale>
<asrwt>0</asrwt>
<pdfrwt beam="1">  1       21 0.34464451E-01 0.26361575E+03</pdfrwt>
<pdfrwt beam="2">  1       21 0.76479440E-01 0.26361575E+03</pdfrwt>
<totfact> 0.11841918E+04</totfact>
</mgrwt>
</event>
<event>
 5    0  0.1609797E+000  0.2691168E+03  0.7546771E-02  0.1101786E+00
         21   -1    0    0  502  501  0.00000000000E+00  0.00000000000E+00  0.25911714811E+03  0.25911714811E+03  0.00000000000E+00 0.  1.
         21   -1    0    0  503  502 -0.00000000000E+00 -0.00000000000E+00 -0.33661011427E+03  0.33661011427E+03  0.00000000000E+00 0. -1.
         25    1    1    2    0    0 -0.11290110884E+03 -0.20988609757E+03  0.10137814233E+03  0.28757844507E+03  0.12500000000E+03 0.  0.
         21    1    1    2  503  504  0.50934889214E+02  0.16797129478E+03 -0.11561870441E+03  0.21018183465E+03  0.00000000000E+00 0. -1.
         21    1    1    2  504  501  0.61966219630E+02  0.41914802787E+02 -0.63252404075E+02  0.97966982648E+02  0.00000000000E+00 0.  1.
<mgrwt>
<rscale>  4 0.26911677E+03</rscale>
<asrwt>0</asrwt>
<pdfrwt beam="1">  1       21 0.39864177E-01 0.26911677E+03</pdfrwt>
<pdfrwt beam="2">  1       21 0.51786172E-01 0.26911677E+03</pdfrwt>
<totfact> 0.20637708E+04</totfact>
</mgrwt>
</event>
<event>
 5    0  0.1609797E+000  0.3185894E+03  0.7546771E-02  0.1076300E+00
         21   -1    0    0  502  501  0.00000000000E+00  0.00000000000E+00  0.32264941698E+03  0.32264941698E+03  0.00000000000E+00 0.  1.
         21   -1    0    0  503  502 -0.00000000000E+00 -0.00000000000E+00 -0.29853876854E+03  0.29853876854E+03  0.00000000000E+00 0.  1.
         25    1    1    2    0    0  0.45227391562E+02 -0.28953189453E+03  0.10781777835E+02  0.31877183318E+03  0.12500000000E+03 0.  0.
         21    1    1    2  503  504  0.12449992220E+02  0.10686855650E+03  0.25174864646E+02  0.11049735058E+03  0.00000000000E+00 0.  1.
         21    1    1    2  504  501 -0.57677383781E+02  0.18266333803E+03 -0.11845994036E+02  0.19191900176E+03  0.00000000000E+00 0.  1.
<mgrwt>
<rscale>  4 0.31858945E+03</rscale>
<asrwt>0</asrwt>
<pdfrwt beam="1">  1       21 0.49638372E-01 0.31858945E+03</pdfrwt>
<pdfrwt beam="2">  1       21 0.45929041E-01 0.31858945E+03</pdfrwt>
<totfact> 0.16516192E+04</totfact>
</mgrwt>
</event>
<event>
 5    0  0.1609797E+000  0.3006822E+03  0.7546771E-02  0.1084900E+00
         21   -1    0    0  502  501  0.00000000000E+00  0.00000000000E+00  0.13088298455E+03  0.13088298455E+03  0.00000000000E+00 0. -1.
         21   -1    0    0  503  502 -0.00000000000E+00 -0.00000000000E+00 -0.66050933038E+03  0.66050933038E+03  0.00000000000E+00 0. -1.
         25    1    1    2    0    0 -0.20266407358E+03 -0.18360838984E+03 -0.20346189604E+03  0.36305166393E+03  0.12500000000E+03 0.  0.
         21    1    1    2  503  504  0.15949199673E+03  0.15775365162E+03 -0.28866245589E+03  0.36558162571E+03  0.00000000000E+00 0. -1.
         21    1    1    2  504  501  0.43172076853E+02  0.25854738227E+02 -0.37501993889E+02  0.62759025281E+02  0.00000000000E+00 0.  1.
<mgrwt>
<rscale>  4 0.30068217E+03</rscale>
<asrwt>0</asrwt>
<pdfrwt beam="1">  1       21 0.20135843E-01 0.30068217E+03</pdfrwt>
<pdfrwt beam="2">  1       21 0.10161682E+00 0.30068217E+03</pdfrwt>
<totfact> 0.17016783E+04</totfact>
</mgrwt>
</event>
<event>
 5    0  0.1609797E+000  0.2528105E+03  0.7546771E-02  0.1111541E+00
         21   -1    0    0  502  501  0.00000000000E+00  0.00000000000E+00  0.52892569998E+02  0.52892569998E+02  0.00000000000E+00 0. -1.
         21   -1    0    0  503  502 -0.00000000000E+00 -0.00000000000E+00 -0.12089500281E+04  0.12089500281E+04  0.00000000000E+00 0. -1.
         25    1    1    2    0    0 -0.20304277274E+03  0.84034469175E+02 -0.81786577294E+03  0.85604765178E+03  0.12500000000E+03 0.  0.
         21    1    1    2  503  504  0.15883038472E+03 -0.45472585091E+02 -0.23877202493E+03  0.29035655150E+03  0.00000000000E+00 0. -1.
         21    1    1    2  504  501  0.44212388021E+02 -0.38561884085E+02 -0.99419660206E+02  0.11543839480E+03  0.00000000000E+00 0.  1.
<mgrwt>
<rscale>  4 0.25281052E+03</rscale>
<asrwt>0</asrwt>
<pdfrwt beam="1">  1       21 0.81373190E-02 0.25281052E+03</pdfrwt>
<pdfrwt beam="2">  1       21 0.18599230E+00 0.25281052E+03</pdfrwt>
<totfact> 0.18557424E+04</totfact>
</mgrwt>
</event>
<event>
 5    0  0.1609797E+000  0.3093057E+03  0.7546771E-02  0.1080679E+00
         21   -1    0    0  502  501  0.00000000000E+00  0.00000000000E+00  0.12830888609E+03  0.12830888609E+03  0.00000000000E+00 0.  1.
         21   -1    0    0  503  502 -0.00000000000E+00 -0.00000000000E+00 -0.16294428878E+04  0.16294428878E+04  0.00000000000E+00 0.  1.
         25    1    1    2    0    0  0.18096118670E+02 -0.28234297446E+03 -0.97780412450E+02  0.32439333193E+03  0.12500000000E+03 0.  0.
         21    1    1    2  503  504 -0.20764369056E+02  0.18796792460E+02 -0.12077863056E+03  0.12398369259E+03  0.00000000000E+00 0. -1.
         21    1    1    2  504  501  0.26682503867E+01  0.26354618200E+03 -0.12825749587E+04  0.13093747494E+04  0.00000000000E+00 0.  1.
<mgrwt>
<rscale>  4 0.30930571E+03</rscale>
<asrwt>0</asrwt>
<pdfrwt beam="1">  1       21 0.19739829E-01 0.30930571E+03</pdfrwt>
<pdfrwt beam="2">  1       21 0.25068352E+00 0.30930571E+03</pdfrwt>
<totfact> 0.13977216E+03</totfact>
</mgrwt>
</event>
<event>
 5    0  0.1609797E+000  0.2521913E+03  0.7546771E-02  0.1111928E+00
         21   -1    0    0  502  501  0.00000000000E+00  0.00000000000E+00  0.24958670444E+03  0.24958670444E+03  0.00000000000E+00 0.  1.
         21   -1    0    0  503  502 -0.00000000000E+00 -0.00000000000E+00 -0.58379122924E+03  0.58379122924E+03  0.00000000000E+00 0.  1.
         25    1    1    2    0    0  0.24127325649E+03 -0.97584744625E+02  0.64178004334E+02  0.29576913788E+03  0.12500000000E+03 0.  0.
         21    1    1    2  503  504 -0.16126950019E+03  0.14160586227E+03 -0.39095926313E+03  0.44599239607E+03  0.00000000000E+00 0.  1.
         21    1    1    2  504  501 -0.80003756305E+02 -0.44021117650E+02 -0.74232660092E+01  0.91616399734E+02  0.00000000000E+00 0. -1.
<mgrwt>
<rscale>  4 0.25219125E+03</rscale>
<asrwt>0</asrwt>
<pdfrwt beam="1">  1       21 0.38397955E-01 0.25219125E+03</pdfrwt>
<pdfrwt beam="2">  1       21 0.89814035E-01 0.25219125E+03</pdfrwt>
<totfact> 0.66328280E+03</totfact>
</mgrwt>
</event>
<event>
 5    0  0.1609797E+000  0.3629547E+03  0.7546771E-02  0.1057420E+00
         21   -1    0    0  502  501  0.00000000000E+00  0.00000000000E+00  0.17175260523E+04  0.17175260523E+04  0.00000000000E+00 0. -1.
         21   -1    0    0  503  502 -0.00000000000E+00 -0.00000000000E+00 -0.13978087194E+03  0.13978087194E+03  0.00000000000E+00 0.  1.
         25    1    1    2    0    0 -0.31580829302E+03 -0.12796973422E+03  0.14420481159E+04  0.14870235034E+04  0.12500000000E+03 0.  0.
         21    1    1    2  503  504  0.36085332819E+02  0.26778477089E+02  0.32385157965E+02  0.55389859508E+02  0.00000000000E+00 0.  1.
         21    1    1    2  504  501  0.27972296020E+03  0.10119125713E+03  0.10331190646E+03  0.31489356139E+03  0.00000000000E+00 0.  1.
<mgrwt>
<rscale>  4 0.36295472E+03</rscale>
<asrwt>0</asrwt>
<pdfrwt beam="1">  1       21 0.26423476E+00 0.36295472E+03</pdfrwt>
<pdfrwt beam="2">  1       21 0.21504751E-01 0.36295472E+03</pdfrwt>
<totfact> 0.94902178E+02</totfact>
</mgrwt>
</event>
<event>
 5    0  0.1609797E+000  0.3098379E+03  0.7546771E-02  0.1080424E+00
         21   -1    0    0  502  501  0.00000000000E+00  0.00000000000E+00  0.19970264699E+04  0.19970264699E+04  0.00000000000E+00 0.  1.
         21   -1    0    0  503  502 -0.00000000000E+00 -0.00000000000E+00 -0.96447345035E+02  0.96447345035E+02  0.00000000000E+00 0. -1.
         25    1    1    2    0    0  0.27373207675E+03 -0.10621698777E+03  0.16395853887E+04  0.16703522219E+04  0.12500000000E+03 0.  0.
         21    1    1    2  503  504 -0.23275835976E+03  0.50173086211E+02  0.12151335529E+03  0.26731870143E+03  0.00000000000E+00 0. -1.
         21    1    1    2  504  501 -0.40973716987E+02  0.56043901561E+02  0.13948038079E+03  0.15580289154E+03  0.00000000000E+00 0.  1.
<mgrwt>
<rscale>  4 0.30983791E+03</rscale>
<asrwt>0</asrwt>
<pdfrwt beam="1">  1       21 0.30723481E+00 0.30983791E+03</pdfrwt>
<pdfrwt beam="2">  1       21 0.14838055E-01 0.30983791E+03</pdfrwt>
<totfact> 0.10971676E+03</totfact>
</mgrwt>
</event>
<event>
 5    0  0.1609797E+000  0.3951085E+03  0.7546771E-02  0.1045682E+00
         21   -1    0    0  502  501  0.00000000000E+00  0.00000000000E+00  0.30862141303E+03  0.30862141303E+03  0.00000000000E+00 0.  1.
         21   -1    0    0  503  502 -0.00000000000E+00 -0.00000000000E+00 -0.55528918465E+03  0.55528918465E+03  0.00000000000E+00 0.  1.
         25    1    1    2    0    0 -0.37170107513E+03 -0.24093753222E+02  0.95261764605E+01  0.39301138181E+03  0.12500000000E+03 0.  0.
         21    1    1    2  503  504  0.42576946318E+02 -0.41528580419E+02 -0.40652802182E+02  0.72042138188E+02  0.00000000000E+00 0.  1.
         21    1    1    2  504  501  0.32912412881E+03  0.65622333641E+02 -0.21554114590E+03  0.39885707768E+03  0.00000000000E+00 0.  1.
<mgrwt>
<rscale>  4 0.39455419E+03</rscale>
<asrwt>0</asrwt>
<pdfrwt beam="1">  1       21 0.47480218E-01 0.39510851E+03</pdfrwt>
<pdfrwt beam="2">  1       21 0.85429104E-01 0.39510851E+03</pdfrwt>
<totfact> 0.44959463E+03</totfact>
</mgrwt>
</event>
<event>
 5    0  0.1609797E+000  0.2599938E+03  0.7546771E-02  0.1107147E+00
         21   -1    0    0  502  501  0.00000000000E+00  0.00000000000E+00  0.37019568569E+03  0.37019568569E+03  0.00000000000E+00 0.  1.
         21   -1    0    0  503  502 -0.00000000000E+00 -0.00000000000E+00 -0.74563865199E+03  0.74563865199E+03  0.00000000000E+00 0.  1.
         25    1    1    2    0    0 -0.91464248997E+02 -0.20882059761E+03  0.30128567758E+03  0.39795704586E+03  0.12500000000E+03 0.  0.
         21    1    1    2  503  504  0.43180975593E+02  0.63890990781E+02 -0.33166243343E+03  0.34050936126E+03  0.00000000000E+00 0.  1.
         21    1    1    2  504  501  0.48283273404E+02  0.14492960683E+03 -0.34506621044E+03  0.37736793056E+03  0.00000000000E+00 0.  1.
<mgrwt>
<rscale>  4 0.25999375E+03</rscale>
<asrwt>0</asrwt>
<pdfrwt beam="1">  1       21 0.56953183E-01 0.25999375E+03</pdfrwt>
<pdfrwt beam="2">  1       21 0.11471364E+00 0.25999375E+03</pdfrwt>
<totfact> 0.16156727E+03</totfact>
</mgrwt>
</event>
<event>
 5    0  0.1609797E+000  0.2250397E+03  0.7546771E-02  0.1130181E+00
         21   -1    0    0  502  501  0.00000000000E+00  0.00000000000E+00  0.50976895304E+03  0.50976895304E+03  0.00000000000E+00 0.  1.
         21   -1    0    0  503  502 -0.00000000000E+00 -0.00000000000E+00 -0.31332018784E+03  0.31332018784E+03  0.00000000000E+00 0. -1.
         25    1    1    2    0    0  0.10228945675E+03 -0.17253138032E+03  0.37030871815E+03  0.43929916560E+03  0.12500000000E+03 0.  0.
         21    1    1    2  503  504  0.54935089608E+02  0.15763706113E+03 -0.14930752513E+03  0.22396438148E+03  0.00000000000E+00 0. -1.
         21    1    1    2  504  501 -0.15722454636E+03  0.14894319189E+02 -0.24552427816E+02  0.15982559380E+03  0.00000000000E+00 0. -1.
<mgrwt>
<rscale>  4 0.22503973E+03</rscale>
<asrwt>0</asrwt>
<pdfrwt beam="1">  1       21 0.78425992E-01 0.22503973E+03</pdfrwt>
<pdfrwt beam="2">  1       21 0.48203106E-01 0.22503973E+03</pdfrwt>
<totfact> 0.57764396E+03</totfact>
</mgrwt>
</event>
<event>
 5    0  0.1609797E+000  0.2581080E+03  0.7546771E-02  0.1108285E+00
         21   -1    0    0  502  501  0.00000000000E+00  0.00000000000E+00  0.49128530228E+03  0.49128530228E+03  0.00000000000E+00 0.  1.
         21   -1    0    0  503  502 -0.00000000000E+00 -0.00000000000E+00 -0.15896449071E+03  0.15896449071E+03  0.00000000000E+00 0.  1.
         25    1    1    2    0    0 -0.12275715305E+03  0.18954006292E+03  0.14764129298E+02  0.25852994718E+03  0.12500000000E+03 0.  0.
         21    1    1    2  503  504  0.87703491622E+02 -0.16316782043E+03  0.26361231860E+03  0.32219108396E+03  0.00000000000E+00 0.  1.
         21    1    1    2  504  501  0.35053661425E+02 -0.26372242485E+02  0.53944363674E+02  0.69528761856E+02  0.00000000000E+00 0.  1.
<mgrwt>
<rscale>  4 0.25810803E+03</rscale>
<asrwt>0</asrwt>
<pdfrwt beam="1">  1       21 0.75582354E-01 0.25810803E+03</pdfrwt>
<pdfrwt beam="2">  1       21 0.24456076E-01 0.25810803E+03</pdfrwt>
<totfact> 0.23853200E+04</totfact>
</mgrwt>
</event>
<event>
 5    0  0.1609797E+000  0.2093023E+03  0.7546771E-02  0.1142120E+00
         21   -1    0    0  502  501  0.00000000000E+00  0.00000000000E+00  0.22849238893E+04  0.22849238893E+04  0.00000000000E+00 0. -1.
         21   -1    0    0  503  502 -0.00000000000E+00 -0.00000000000E+00 -0.33039807581E+02  0.33039807581E+02  0.00000000000E+00 0.  1.
         25    1    1    2    0    0  0.12302878403E+03  0.18325201717E+03  0.14870138226E+04  0.15084934511E+04  0.12500000000E+03 0.  0.
         21    1    1    2  503  504 -0.12003038578E+03 -0.59724050814E+02  0.49176296730E+03  0.50971077266E+03  0.00000000000E+00 0.  1.
         21    1    1    2  504  501 -0.29983982456E+01 -0.12352796635E+03  0.27310729181E+03  0.29975947308E+03  0.00000000000E+00 0.  1.
<mgrwt>
<rscale>  4 0.20930232E+03</rscale>
<asrwt>0</asrwt>
<pdfrwt beam="1">  1       21 0.35152663E+00 0.20930232E+03</pdfrwt>
<pdfrwt beam="2">  1       21 0.50830491E-02 0.20930232E+03</pdfrwt>
<totfact> 0.43887009E+03</totfact>
</mgrwt>
</event>
<event>
 5    0  0.1609797E+000  0.3044201E+03  0.7546771E-02  0.1083052E+00
         21   -1    0    0  502  501  0.00000000000E+00  0.00000000000E+00  0.20420428914E+04  0.20420428914E+04  0.00000000000E+00 0. -1.
         21   -1    0    0  503  502 -0.00000000000E+00 -0.00000000000E+00 -0.43338299389E+02  0.43338299389E+02  0.00000000000E+00 0. -1.
         25    1    1    2    0    0  0.22117350107E+02 -0.27669011456E+03  0.10173727561E+04  0.10619411102E+04  0.12500000000E+03 0.  0.
         21    1    1    2  503  504 -0.72552005592E+01  0.10033080359E+03  0.51327991706E+03  0.52304414855E+03  0.00000000000E+00 0. -1.
         21    1    1    2  504  501 -0.14862149547E+02  0.17635931097E+03  0.46805191883E+03  0.50039593201E+03  0.00000000000E+00 0. -1.
<mgrwt>
<rscale>  4 0.30442010E+03</rscale>
<asrwt>0</asrwt>
<pdfrwt beam="1">  1       21 0.31416037E+00 0.30442010E+03</pdfrwt>
<pdfrwt beam="2">  1       21 0.66674322E-02 0.30442010E+03</pdfrwt>
<totfact> 0.41839985E+03</totfact>
</mgrwt>
</event>
<event>
 5    0  0.1609797E+000  0.2516787E+03  0.7546771E-02  0.1112249E+00
         21   -1    0    0  502  501  0.00000000000E+00  0.00000000000E+00  0.26547949236E+03  0.26547949236E+03  0.00000000000E+00 0.  1.
         21   -1    0    0  503  502 -0.00000000000E+00 -0.00000000000E+00 -0.21718464344E+03  0.21718464344E+03  0.00000000000E+00 0.  1.
         25    1    1    2    0    0 -0.20318019853E+03 -0.80218225913E+02  0.13642479579E+02  0.25204815828E+03  0.12500000000E+03 0.  0.
         21    1    1    2  503  504  0.40286967085E+02  0.33247165092E+01 -0.16038413663E+02  0.43489356969E+02  0.00000000000E+00 0.  1.
         21    1    1    2  504  501  0.16289323144E+03  0.76893509404E+02  0.50690782998E+02  0.18712662055E+03  0.00000000000E+00 0.  1.
<mgrwt>
<rscale>  4 0.25167868E+03</rscale>
<asrwt>0</asrwt>
<pdfrwt beam="1">  1       21 0.40842999E-01 0.25167868E+03</pdfrwt>
<pdfrwt beam="2">  1       21 0.33413022E-01 0.25167868E+03</pdfrwt>
<totfact> 0.48521352E+04</totfact>
</mgrwt>
</event>
<event>
 5    0  0.1609797E+000  0.2367436E+03  0.7546771E-02  0.1121981E+00
         21   -1    0    0  502  501  0.00000000000E+00  0.00000000000E+00  0.48586972375E+02  0.48586972375E+02  0.00000000000E+00 0.  1.
         21   -1    0    0  503  502 -0.00000000000E+00 -0.00000000000E+00 -0.11796492176E+04  0.11796492176E+04  0.00000000000E+00 0. -1.
         25    1    1    2    0    0  0.74106184129E+02  0.18689782379E+03 -0.36137456382E+03  0.43201747469E+03  0.12500000000E+03 0.  0.
         21    1    1    2  503  504 -0.47617525805E+02 -0.15312499420E+03 -0.62979698427E+03  0.64989147864E+03  0.00000000000E+00 0. -1.
         21    1    1    2  504  501 -0.26488658325E+02 -0.33772829590E+02 -0.13989069709E+03  0.14632723660E+03  0.00000000000E+00 0. -1.
<mgrwt>
<rscale>  4 0.23674358E+03</rscale>
<asrwt>0</asrwt>
<pdfrwt beam="1">  1       21 0.74749189E-02 0.23674358E+03</pdfrwt>
<pdfrwt beam="2">  1       21 0.18148449E+00 0.23674358E+03</pdfrwt>
<totfact> 0.23316317E+04</totfact>
</mgrwt>
</event>
<event>
 5    0  0.1609797E+000  0.2949852E+03  0.7546771E-02  0.1087775E+00
         21   -1    0    0  502  501  0.00000000000E+00  0.00000000000E+00  0.62187091225E+03  0.62187091225E+03  0.00000000000E+00 0. -1.
         21   -1    0    0  503  502 -0.00000000000E+00 -0.00000000000E+00 -0.13415344323E+03  0.13415344323E+03  0.00000000000E+00 0. -1.
         25    1    1    2    0    0  0.93467284208E+02  0.25031003288E+03  0.22334473495E+03  0.36999880595E+03  0.12500000000E+03 0.  0.
         21    1    1    2  503  504 -0.41682652364E+02 -0.82964620171E+02  0.39312147134E+02  0.10082666622E+03  0.00000000000E+00 0. -1.
         21    1    1    2  504  501 -0.51784631844E+02 -0.16734541271E+03  0.22506058693E+03  0.28519888331E+03  0.00000000000E+00 0. -1.
<mgrwt>
<rscale>  4 0.29498516E+03</rscale>
<asrwt>0</asrwt>
<pdfrwt beam="1">  1       21 0.95672446E-01 0.29498516E+03</pdfrwt>
<pdfrwt beam="2">  1       21 0.20638992E-01 0.29498516E+03</pdfrwt>
<totfact> 0.18806580E+04</totfact>
</mgrwt>
</event>
<event>
 5    0  0.1609797E+000  0.2661358E+03  0.7546771E-02  0.1103512E+00
         21   -1    0    0  502  501  0.00000000000E+00  0.00000000000E+00  0.95008279953E+03  0.95008279953E+03  0.00000000000E+00 0. -1.
         21   -1    0    0  503  502 -0.00000000000E+00 -0.00000000000E+00 -0.15944461710E+03  0.15944461710E+03  0.00000000000E+00 0. -1.
         25    1    1    2    0    0 -0.23297724434E+03  0.30412023625E+02  0.81641306019E+03  0.85869585560E+03  0.12500000000E+03 0.  0.
         21    1    1    2  503  504  0.67554190905E+02 -0.37033229535E+01 -0.46347038894E+02  0.82008117427E+02  0.00000000000E+00 0. -1.
         21    1    1    2  504  501  0.16542305343E+03 -0.26708700672E+02  0.20572161123E+02  0.16882344361E+03  0.00000000000E+00 0. -1.
<mgrwt>
<rscale>  4 0.26613584E+03</rscale>
<asrwt>0</asrwt>
<pdfrwt beam="1">  1       21 0.14616658E+00 0.26613584E+03</pdfrwt>
<pdfrwt beam="2">  1       21 0.24529942E-01 0.26613584E+03</pdfrwt>
<totfact> 0.47610378E+03</totfact>
</mgrwt>
</event>
<event>
 5    0  0.1609797E+000  0.2121113E+03  0.7546771E-02  0.1139905E+00
         21   -1    0    0  502  501  0.00000000000E+00  0.00000000000E+00  0.45609310942E+02  0.45609310942E+02  0.00000000000E+00 0. -1.
         21   -1    0    0  503  502 -0.00000000000E+00 -0.00000000000E+00 -0.18123839464E+04  0.18123839464E+04  0.00000000000E+00 0. -1.
         25    1    1    2    0    0  0.21223602748E+03 -0.90889350597E+02 -0.82868526556E+03  0.86928089520E+03  0.12500000000E+03 0.  0.
         21    1    1    2  503  504 -0.13198719999E+03  0.78890211340E+02 -0.23423820590E+03  0.28019961369E+03  0.00000000000E+00 0. -1.
         21    1    1    2  504  501 -0.80248827481E+02  0.11999139257E+02 -0.70385116401E+03  0.70851274847E+03  0.00000000000E+00 0. -1.
<mgrwt>
<rscale>  4 0.21211127E+03</rscale>
<asrwt>0</asrwt>
<pdfrwt beam="1">  1       21 0.70168164E-02 0.21211127E+03</pdfrwt>
<pdfrwt beam="2">  1       21 0.27882833E+00 0.21211127E+03</pdfrwt>
<totfact> 0.66732426E+03</totfact>
</mgrwt>
</event>
<event>
 5    0  0.1609797E+000  0.4750761E+03  0.7546771E-02  0.1021956E+00
         21   -1    0    0  502  501  0.00000000000E+00  0.00000000000E+00  0.12462003663E+04  0.12462003663E+04  0.00000000000E+00 0. -1.
         21   -1    0    0  503  502 -0.00000000000E+00 -0.00000000000E+00 -0.14796725908E+04  0.14796725908E+04  0.00000000000E+00 0. -1.
         25    1    1    2    0    0 -0.43471532788E+03  0.45479037370E+02  0.11641221396E+04  0.12497404191E+04  0.12500000000E+03 0.  0.
         21    1    1    2  503  504  0.21677933728E+03 -0.74517855205E+02 -0.47112045144E+03  0.52392811680E+03  0.00000000000E+00 0. -1.
         21    1    1    2  504  501  0.21793599060E+03  0.29038817836E+02 -0.92647391269E+03  0.95220442125E+03  0.00000000000E+00 0. -1.
<mgrwt>
<rscale>  4 0.46987489E+03</rscale>
<asrwt>0</asrwt>
<pdfrwt beam="1">  1       21 0.19172313E+00 0.47507606E+03</pdfrwt>
<pdfrwt beam="2">  1       21 0.22764194E+00 0.47507606E+03</pdfrwt>
<totfact> 0.10000802E+01</totfact>
</mgrwt>
</event>
<event>
 5    0  0.1609797E+000  0.2594641E+03  0.7546771E-02  0.1107466E+00
         21   -1    0    0  502  501  0.00000000000E+00  0.00000000000E+00  0.51202129389E+02  0.51202129389E+02  0.00000000000E+00 0.  1.
         21   -1    0    0  503  502 -0.00000000000E+00 -0.00000000000E+00 -0.22007844757E+04  0.22007844757E+04  0.00000000000E+00 0.  1.
         25    1    1    2    0    0  0.12048585201E+03  0.19282054157E+03 -0.34575160250E+03  0.43227973862E+03  0.12500000000E+03 0.  0.
         21    1    1    2  503  504 -0.40985457582E+02 -0.10851894020E+03 -0.66972340950E+03  0.67969523564E+03  0.00000000000E+00 0.  1.
         21    1    1    2  504  501 -0.79500394428E+02 -0.84301601373E+02 -0.11341073343E+04  0.11400116308E+04  0.00000000000E+00 0.  1.
<mgrwt>
<rscale>  4 0.25946407E+03</rscale>
<asrwt>0</asrwt>
<pdfrwt beam="1">  1       21 0.78772508E-02 0.25946407E+03</pdfrwt>
<pdfrwt beam="2">  1       21 0.33858222E+00 0.25946407E+03</pdfrwt>
<totfact> 0.23300692E+03</totfact>
</mgrwt>
</event>
<event>
 5    0  0.1609797E+000  0.2726892E+03  0.7546771E-02  0.1099750E+00
         21   -1    0    0  502  501  0.00000000000E+00  0.00000000000E+00  0.10317037766E+04  0.10317037766E+04  0.00000000000E+00 0. -1.
         21   -1    0    0  503  502 -0.00000000000E+00 -0.00000000000E+00 -0.86494221608E+02  0.86494221608E+02  0.00000000000E+00 0. -1.
         25    1    1    2    0    0  0.18686175788E+03 -0.15432777759E+03  0.76476487791E+03  0.81192653484E+03  0.12500000000E+03 0.  0.
         21    1    1    2  503  504 -0.98988042066E+02  0.89899459815E+02  0.12890798846E+03  0.18573587385E+03  0.00000000000E+00 0. -1.
         21    1    1    2  504  501 -0.87873715814E+02  0.64428317778E+02  0.51536688604E+02  0.12053558950E+03  0.00000000000E+00 0. -1.
<mgrwt>
<rscale>  4 0.27268916E+03</rscale>
<asrwt>0</asrwt>
<pdfrwt beam="1">  1       21 0.15872365E+00 0.27268916E+03</pdfrwt>
<pdfrwt beam="2">  1       21 0.13306804E-01 0.27268916E+03</pdfrwt>
<totfact> 0.11903976E+04</totfact>
</mgrwt>
</event>
<event>
 5    0  0.1609797E+000  0.3740230E+03  0.7546771E-02  0.1053165E+00
         21   -1    0    0  502  501  0.00000000000E+00  0.00000000000E+00  0.15698811909E+04  0.15698811909E+04  0.00000000000E+00 0.  1.
         21   -1    0    0  503  502 -0.00000000000E+00 -0.00000000000E+00 -0.94760890537E+02  0.94760890537E+02  0.00000000000E+00 0. -1.
         25    1    1    2    0    0 -0.35183900475E+03  0.21852105095E+02  0.99275170473E+03  0.10608718806E+04  0.12500000000E+03 0.  0.
         21    1    1    2  503  504  0.23918473048E+03 -0.20197880208E+02  0.25611129392E+03  0.35101322558E+03  0.00000000000E+00 0. -1.
         21    1    1    2  504  501  0.11265427427E+03 -0.16542248867E+01  0.22625730175E+03  0.25275697531E+03  0.00000000000E+00 0. -1.
<mgrwt>
<rscale>  4 0.37402299E+03</rscale>
<asrwt>0</asrwt>
<pdfrwt beam="1">  1       21 0.24152016E+00 0.37402299E+03</pdfrwt>
<pdfrwt beam="2">  1       21 0.14578600E-01 0.37402299E+03</pdfrwt>
<totfact> 0.26837566E+03</totfact>
</mgrwt>
</event>
<event>
 5    0  0.1609797E+000  0.2553559E+03  0.7546771E-02  0.1109966E+00
         21   -1    0    0  502  501  0.00000000000E+00  0.00000000000E+00  0.72634203557E+02  0.72634203557E+02  0.00000000000E+00 0.  1.
         21   -1    0    0  503  502 -0.00000000000E+00 -0.00000000000E+00 -0.17578233328E+04  0.17578233328E+04  0.00000000000E+00 0.  1.
         25    1    1    2    0    0 -0.17890143147E+03  0.13257417331E+03 -0.19118539613E+03  0.31899606472E+03  0.12500000000E+03 0.  0.
         21    1    1    2  503  504  0.76701664106E+02 -0.90207621731E+02 -0.76272874598E+03  0.77186507904E+03  0.00000000000E+00 0.  1.
         21    1    1    2  504  501  0.10219976736E+03 -0.42366551579E+02 -0.73127498710E+03  0.73959639257E+03  0.00000000000E+00 0.  1.
<mgrwt>
<rscale>  4 0.25535590E+03</rscale>
<asrwt>0</asrwt>
<pdfrwt beam="1">  1       21 0.11174493E-01 0.25535590E+03</pdfrwt>
<pdfrwt beam="2">  1       21 0.27043435E+00 0.25535590E+03</pdfrwt>
<totfact> 0.31639482E+03</totfact>
</mgrwt>
</event>
<event>
 5    0  0.1609797E+000  0.3216459E+03  0.7546771E-02  0.1074894E+00
         21   -1    0    0  502  501  0.00000000000E+00  0.00000000000E+00  0.16590579263E+03  0.16590579263E+03  0.00000000000E+00 0. -1.
         21   -1    0    0  503  502 -0.00000000000E+00 -0.00000000000E+00 -0.18569554309E+04  0.18569554309E+04  0.00000000000E+00 0. -1.
         25    1    1    2    0    0 -0.58342385228E+02  0.29056371553E+03 -0.17833558994E+02  0.32213994245E+03  0.12500000000E+03 0.  0.
         21    1    1    2  503  504  0.17692766346E+02 -0.49513149328E+02 -0.46941156771E+03  0.47234712430E+03  0.00000000000E+00 0. -1.
         21    1    1    2  504  501  0.40649618882E+02 -0.24105056620E+03 -0.12038045116E+04  0.12283741568E+04  0.00000000000E+00 0. -1.
<mgrwt>
<rscale>  4 0.32164593E+03</rscale>
<asrwt>0</asrwt>
<pdfrwt beam="1">  1       21 0.25523967E-01 0.32164593E+03</pdfrwt>
<pdfrwt beam="2">  1       21 0.28568547E+00 0.32164593E+03</pdfrwt>
<totfact> 0.52407970E+02</totfact>
</mgrwt>
</event>
<event>
 5    0  0.1609797E+000  0.1944071E+03  0.7546771E-02  0.1154545E+00
         21   -1    0    0  502  501  0.00000000000E+00  0.00000000000E+00  0.54205646460E+03  0.54205646460E+03  0.00000000000E+00 0. -1.
         21   -1    0    0  503  502 -0.00000000000E+00 -0.00000000000E+00 -0.19482274794E+03  0.19482274794E+03  0.00000000000E+00 0. -1.
         25    1    1    2    0    0  0.18138390904E+03 -0.13601395924E+03  0.38980004780E+03  0.46794123224E+03  0.12500000000E+03 0.  0.
         21    1    1    2  503  504 -0.11170322594E+03  0.87603344535E+02 -0.93494648059E+02  0.16998001610E+03  0.00000000000E+00 0. -1.
         21    1    1    2  504  501 -0.69680683102E+02  0.48410614702E+02  0.50928316922E+02  0.98957964196E+02  0.00000000000E+00 0. -1.
<mgrwt>
<rscale>  4 0.19440706E+03</rscale>
<asrwt>0</asrwt>
<pdfrwt beam="1">  1       21 0.83393302E-01 0.19440706E+03</pdfrwt>
<pdfrwt beam="2">  1       21 0.29972731E-01 0.19440706E+03</pdfrwt>
<totfact> 0.13346310E+04</totfact>
</mgrwt>
</event>
<event>
 5    0  0.1609797E+000  0.3673254E+03  0.7546771E-02  0.1055720E+00
         21   -1    0    0  502  501  0.00000000000E+00  0.00000000000E+00  0.17615984902E+03  0.17615984902E+03  0.00000000000E+00 0. -1.
         21   -1    0    0  503  502 -0.00000000000E+00 -0.00000000000E+00 -0.87317428546E+03  0.87317428546E+03  0.00000000000E+00 0. -1.
         25    1    1    2    0    0 -0.12481974675E+01 -0.34540032589E+03 -0.15426500184E+03  0.39840385781E+03  0.12500000000E+03 0.  0.
         21    1    1    2  503  504 -0.13188608427E+02  0.17591652538E+03 -0.18974962234E+03  0.25908585927E+03  0.00000000000E+00 0. -1.
         21    1    1    2  504  501  0.14436805894E+02  0.16948380051E+03 -0.35299981225E+03  0.39184441740E+03  0.00000000000E+00 0. -1.
<mgrwt>
<rscale>  4 0.36732539E+03</rscale>
<asrwt>0</asrwt>
<pdfrwt beam="1">  1       21 0.27101515E-01 0.36732539E+03</pdfrwt>
<pdfrwt beam="2">  1       21 0.13433451E+00 0.36732539E+03</pdfrwt>
<totfact> 0.46492776E+03</totfact>
</mgrwt>
</event>
<event>
 5    0  0.1609797E+000  0.5165529E+03  0.7546771E-02  0.1009546E+00
         21   -1    0    0  502  501  0.00000000000E+00  0.00000000000E+00  0.62912783344E+03  0.62912783344E+03  0.00000000000E+00 0. -1.
         21   -1    0    0  503  502 -0.00000000000E+00 -0.00000000000E+00 -0.69883124365E+03  0.69883124365E+03  0.00000000000E+00 0.  1.
         25    1    1    2    0    0 -0.49874950906E+03  0.49505839481E+02  0.38531109364E+03  0.64443117538E+03  0.12500000000E+03 0.  0.
         21    1    1    2  503  504  0.54436661941E+02 -0.36499229151E+02 -0.56125133630E+02  0.86287742565E+02  0.00000000000E+00 0. -1.
         21    1    1    2  504  501  0.44431284712E+03 -0.13006610330E+02 -0.39888937021E+03  0.59724015914E+03  0.00000000000E+00 0.  1.
<mgrwt>
<rscale>  4 0.51655290E+03</rscale>
<asrwt>0</asrwt>
<pdfrwt beam="1">  1       21 0.96788897E-01 0.51655290E+03</pdfrwt>
<pdfrwt beam="2">  1       21 0.10751250E+00 0.51655290E+03</pdfrwt>
<totfact> 0.49824562E+02</totfact>
</mgrwt>
</event>
<event>
 5    0  0.2084353E+000  0.2912068E+03  0.7546771E-02  0.1089721E+00
         21   -1    0    0  502  501  0.00000000000E+00  0.00000000000E+00  0.14842599191E+04  0.14842599191E+04  0.00000000000E+00 0.  1.
         21   -1    0    0  503  502 -0.00000000000E+00 -0.00000000000E+00 -0.91449826351E+02  0.91449826351E+02  0.00000000000E+00 0.  1.
         25    1    1    2    0    0 -0.25602397220E+03  0.60233713214E+02  0.20027527504E+03  0.35342829590E+03  0.12500000000E+03 0.  0.
         21    1    1    2  503  504  0.24359973137E+03 -0.43962929848E+02  0.11041002222E+04  0.11315082275E+04  0.00000000000E+00 0.  1.
         21    1    1    2  504  501  0.12424240834E+02 -0.16270783366E+02  0.88434595564E+02  0.90773222066E+02  0.00000000000E+00 0. -1.
<mgrwt>
<rscale>  4 0.29120676E+03</rscale>
<asrwt>0</asrwt>
<pdfrwt beam="1">  1       21 0.22834766E+00 0.29120676E+03</pdfrwt>
<pdfrwt beam="2">  1       21 0.14069205E-01 0.29120676E+03</pdfrwt>
<totfact> 0.36313751E+03</totfact>
</mgrwt>
</event>
<event>
 5    0  0.1609797E+000  0.3396921E+03  0.7546771E-02  0.1066927E+00
         21   -1    0    0  502  501  0.00000000000E+00  0.00000000000E+00  0.35527292907E+03  0.35527292907E+03  0.00000000000E+00 0.  1.
         21   -1    0    0  503  502 -0.00000000000E+00 -0.00000000000E+00 -0.64472385556E+03  0.64472385556E+03  0.00000000000E+00 0. -1.
         25    1    1    2    0    0  0.22414545508E+03  0.22254103733E+03  0.21194044270E+03  0.40038662513E+03  0.12500000000E+03 0.  0.
         21    1    1    2  503  504 -0.10775832946E+03 -0.11003494960E+03 -0.16162900877E+03  0.22325654342E+03  0.00000000000E+00 0. -1.
         21    1    1    2  504  501 -0.11638712562E+03 -0.11250608773E+03 -0.33976236041E+03  0.37635361608E+03  0.00000000000E+00 0. -1.
<mgrwt>
<rscale>  4 0.33969206E+03</rscale>
<asrwt>0</asrwt>
<pdfrwt beam="1">  1       21 0.54657373E-01 0.33969206E+03</pdfrwt>
<pdfrwt beam="2">  1       21 0.99188287E-01 0.33969206E+03</pdfrwt>
<totfact> 0.23986094E+03</totfact>
</mgrwt>
</event>
