<event>
 5    0  0.2396052E+000  0.4803215E+03  0.7546771E-02  0.1019047E+00
         21   -1    0    0  501  502  0.00000000000E+00  0.00000000000E+00  0.50996994950E+03  0.50996994950E+03  0.00000000000E+00 0.  1.
         -4   -1    0    0    0  501 -0.00000000000E+00 -0.00000000000E+00 -0.26461094835E+03  0.26461094835E+03  0.00000000000E+00 0.  1.
         25    1    1    2    0    0 -0.18134961301E+03  0.10008778976E+03  0.76936754777E+02  0.25386908444E+03  0.12500000000E+03 0.  0.
         21    1    1    2  503  502  0.17423809171E+03 -0.63727669171E+02  0.31715528157E+03  0.36743380499E+03  0.00000000000E+00 0.  1.
         -4    1    1    2    0  503  0.71115213031E+01 -0.36360120594E+02 -0.14873303520E+03  0.15327800841E+03  0.00000000000E+00 0.  1.
<mgrwt>
<rscale>  4 0.48032150E+03</rscale>
<asrwt>0</asrwt>
<pdfrwt beam="1">  1       21 0.78456915E-01 0.48032150E+03</pdfrwt>
<pdfrwt beam="2">  1       -4 0.40709377E-01 0.48032150E+03</pdfrwt>
<totfact> 0.34366746E+02</totfact>
</mgrwt>
</event>
<event>
 5    0  0.2396052E+000  0.6543836E+03  0.7546771E-02  0.9798588E-01
         21   -1    0    0  501  502  0.00000000000E+00  0.00000000000E+00  0.24146022226E+03  0.24146022226E+03  0.00000000000E+00 0. -1.
          2   -1    0    0  503    0 -0.00000000000E+00 -0.00000000000E+00 -0.85899765642E+03  0.85899765642E+03  0.00000000000E+00 0. -1.
         25    1    1    2    0    0 -0.14986316487E+02  0.20334576976E+03 -0.34314022168E+03  0.41826343792E+03  0.12500000000E+03 0.  0.
         21    1    1    2  503  502  0.56936013880E+02 -0.22240431730E+03  0.13758265491E+03  0.26764599186E+03  0.00000000000E+00 0. -1.
          2    1    1    2  501    0 -0.41949697392E+02  0.19058547530E+02 -0.41197986739E+03  0.41454844889E+03  0.00000000000E+00 0. -1.
<mgrwt>
<rscale>  4 0.65438355E+03</rscale>
<asrwt>0</asrwt>
<pdfrwt beam="1">  1       21 0.37147726E-01 0.65438355E+03</pdfrwt>
<pdfrwt beam="2">  1        2 0.13215349E+00 0.65438355E+03</pdfrwt>
<totfact> 0.25682364E+03</totfact>
</mgrwt>
</event>
<event>
 5    0  0.2396052E+000  0.6188038E+03  0.7546771E-02  0.9867144E-01
         21   -1    0    0  501  502  0.00000000000E+00  0.00000000000E+00  0.93352226998E+03  0.93352226998E+03  0.00000000000E+00 0. -1.
          2   -1    0    0  503    0 -0.00000000000E+00 -0.00000000000E+00 -0.16126348783E+03  0.16126348783E+03  0.00000000000E+00 0. -1.
         25    1    1    2    0    0  0.22868279465E+03  0.44696794842E+02  0.74752826743E+03  0.79291685229E+03  0.12500000000E+03 0.  0.
         21    1    1    2  503  502 -0.22182428243E+03  0.63834995012E+01  0.70598564572E+02  0.23287532858E+03  0.00000000000E+00 0. -1.
          2    1    1    2  501    0 -0.68585122159E+01 -0.51080294344E+02 -0.45868049860E+02  0.68993576933E+02  0.00000000000E+00 0. -1.
<mgrwt>
<rscale>  4 0.61880375E+03</rscale>
<asrwt>0</asrwt>
<pdfrwt beam="1">  1       21 0.14361881E+00 0.61880375E+03</pdfrwt>
<pdfrwt beam="2">  1        2 0.24809768E-01 0.61880375E+03</pdfrwt>
<totfact> 0.78299744E+02</totfact>
</mgrwt>
</event>
<event>
 5    0  0.2396052E+000  0.5509867E+03  0.7546771E-02  0.1001266E+00
          4   -1    0    0  503    0 -0.00000000000E+00  0.00000000000E+00  0.20905697105E+03  0.20905697105E+03  0.00000000000E+00 0.  1.
         21   -1    0    0  501  502  0.00000000000E+00 -0.00000000000E+00 -0.94920748789E+03  0.94920748789E+03  0.00000000000E+00 0. -1.
         25    1    1    2    0    0 -0.30304626014E+03  0.76580521064E+02 -0.70572764576E+03  0.78190672204E+03  0.12500000000E+03 0.  0.
         21    1    1    2  503  502  0.12371507257E+03 -0.10591605224E+03 -0.90333861080E+02  0.18623596795E+03  0.00000000000E+00 0.  1.
          4    1    1    2  501    0  0.17933118757E+03  0.29335531171E+02  0.55910990000E+02  0.19012176895E+03  0.00000000000E+00 0.  1.
<mgrwt>
<rscale>  4 0.55098670E+03</rscale>
<asrwt>0</asrwt>
<pdfrwt beam="1">  1       21 0.14603192E+00 0.55098670E+03</pdfrwt>
<pdfrwt beam="2">  1        4 0.32162610E-01 0.55098670E+03</pdfrwt>
<totfact> 0.11623695E+02</totfact>
</mgrwt>
</event>
<event>
 5    0  0.2396052E+000  0.4232865E+03  0.7546771E-02  0.1036002E+00
          2   -1    0    0  503    0 -0.00000000000E+00  0.00000000000E+00  0.15161482101E+03  0.15161482101E+03  0.00000000000E+00 0.  1.
         21   -1    0    0  501  502  0.00000000000E+00 -0.00000000000E+00 -0.89868148564E+03  0.89868148564E+03  0.00000000000E+00 0.  1.
         25    1    1    2    0    0 -0.88051477016E+02  0.20649772958E+03 -0.67611211531E+03  0.72328899300E+03  0.12500000000E+03 0.  0.
         21    1    1    2  503  502  0.11438460828E+03 -0.17697990292E+02 -0.72121226165E+02  0.13637642295E+03  0.00000000000E+00 0. -1.
          2    1    1    2  501    0 -0.26333131266E+02 -0.18879973929E+03  0.11666768406E+01  0.19063089071E+03  0.00000000000E+00 0.  1.
<mgrwt>
<rscale>  4 0.42328654E+03</rscale>
<asrwt>0</asrwt>
<pdfrwt beam="1">  1       21 0.13825869E+00 0.42328654E+03</pdfrwt>
<pdfrwt beam="2">  1        2 0.23325357E-01 0.42328654E+03</pdfrwt>
<totfact> 0.96927726E+02</totfact>
</mgrwt>
</event>
<event>
 5    0  0.2396052E+000  0.9808406E+03  0.7546771E-02  0.9329812E-01
         21   -1    0    0  501  502  0.00000000000E+00  0.00000000000E+00  0.72973785179E+03  0.72973785179E+03  0.00000000000E+00 0. -1.
          2   -1    0    0  503    0 -0.00000000000E+00 -0.00000000000E+00 -0.49103402178E+03  0.49103402178E+03  0.00000000000E+00 0. -1.
         25    1    1    2    0    0  0.28394689081E+03 -0.83347714291E+02 -0.19671485081E+03  0.37668874526E+03  0.12500000000E+03 0.  0.
         21    1    1    2  503  502 -0.31405751139E+03  0.12136997903E+03  0.59151429757E+03  0.68062615032E+03  0.00000000000E+00 0. -1.
          2    1    1    2  501    0  0.30110620586E+02 -0.38022264738E+02 -0.15609561675E+03  0.16345697800E+03  0.00000000000E+00 0. -1.
<mgrwt>
<rscale>  4 0.98084055E+03</rscale>
<asrwt>0</asrwt>
<pdfrwt beam="1">  1       21 0.11226736E+00 0.98084055E+03</pdfrwt>
<pdfrwt beam="2">  1        2 0.75543695E-01 0.98084055E+03</pdfrwt>
<totfact> 0.40384811E+02</totfact>
</mgrwt>
</event>
<event>
 5    0  0.2396052E+000  0.6841284E+03  0.7546771E-02  0.9744766E-01
         21   -1    0    0  501  502  0.00000000000E+00  0.00000000000E+00  0.17748442115E+03  0.17748442115E+03  0.00000000000E+00 0. -1.
          1   -1    0    0  503    0 -0.00000000000E+00 -0.00000000000E+00 -0.12315097036E+04  0.12315097036E+04  0.00000000000E+00 0.  1.
         25    1    1    2    0    0  0.40243641635E+03  0.38649792207E+01 -0.26504809540E+03  0.49784083816E+03  0.12500000000E+03 0.  0.
         21    1    1    2  503  502 -0.25395098534E+03 -0.12308656901E+02 -0.26821453894E+03  0.36956953999E+03  0.00000000000E+00 0.  1.
          1    1    1    2  501    0 -0.14848543100E+03  0.84436776806E+01 -0.52076264809E+03  0.54158374658E+03  0.00000000000E+00 0.  1.
<mgrwt>
<rscale>  4 0.68412844E+03</rscale>
<asrwt>0</asrwt>
<pdfrwt beam="1">  1       21 0.27305295E-01 0.68412844E+03</pdfrwt>
<pdfrwt beam="2">  1        1 0.18946304E+00 0.68412844E+03</pdfrwt>
<totfact> 0.13741722E+03</totfact>
</mgrwt>
</event>
<event>
 5    0  0.2396052E+000  0.5661629E+03  0.7546771E-02  0.9978206E-01
         -1   -1    0    0    0  501 -0.00000000000E+00  0.00000000000E+00  0.91600375670E+03  0.91600375670E+03  0.00000000000E+00 0.  1.
         21   -1    0    0  501  502  0.00000000000E+00 -0.00000000000E+00 -0.87174621381E+03  0.87174621381E+03  0.00000000000E+00 0.  1.
         25    1    1    2    0    0  0.17005863989E+03 -0.30305917973E+03 -0.27858619722E+03  0.46260142315E+03  0.12500000000E+03 0.  0.
         21    1    1    2  503  502 -0.18499084313E+02 -0.10554827384E+03 -0.43659192911E+03  0.44954996029E+03  0.00000000000E+00 0.  1.
         -1    1    1    2    0  503 -0.15155955558E+03  0.40860745357E+03  0.75943566922E+03  0.87559858707E+03  0.00000000000E+00 0.  1.
<mgrwt>
<rscale>  4 0.56616287E+03</rscale>
<asrwt>0</asrwt>
<pdfrwt beam="1">  1       21 0.13411480E+00 0.56616287E+03</pdfrwt>
<pdfrwt beam="2">  1       -1 0.14092365E+00 0.56616287E+03</pdfrwt>
<totfact> 0.13778856E+01</totfact>
</mgrwt>
</event>
<event>
 5    0  0.2396052E+000  0.4191304E+03  0.7546771E-02  0.1037350E+00
          1   -1    0    0  503    0 -0.00000000000E+00  0.00000000000E+00  0.10976459538E+04  0.10976459538E+04  0.00000000000E+00 0.  1.
         21   -1    0    0  501  502  0.00000000000E+00 -0.00000000000E+00 -0.32222122739E+03  0.32222122739E+03  0.00000000000E+00 0. -1.
         25    1    1    2    0    0 -0.20515923683E+03 -0.65292645744E+02 -0.18797156935E+03  0.31194831772E+03  0.12500000000E+03 0.  0.
         21    1    1    2  503  502  0.87476488520E+02 -0.10789808872E+03  0.18535346288E+02  0.14013455197E+03  0.00000000000E+00 0.  1.
          1    1    1    2  501    0  0.11768274831E+03  0.17319073446E+03  0.94486094942E+03  0.96778431145E+03  0.00000000000E+00 0.  1.
<mgrwt>
<rscale>  4 0.41913039E+03</rscale>
<asrwt>0</asrwt>
<pdfrwt beam="1">  1       21 0.49572497E-01 0.41913039E+03</pdfrwt>
<pdfrwt beam="2">  1        1 0.16886861E+00 0.41913039E+03</pdfrwt>
<totfact> 0.53597304E+02</totfact>
</mgrwt>
</event>
<event>
 5    0  0.2396052E+000  0.4214080E+03  0.7546771E-02  0.1036609E+00
          2   -1    0    0  503    0 -0.00000000000E+00  0.00000000000E+00  0.28410180527E+03  0.28410180527E+03  0.00000000000E+00 0. -1.
         21   -1    0    0  501  502  0.00000000000E+00 -0.00000000000E+00 -0.62232869203E+03  0.62232869203E+03  0.00000000000E+00 0.  1.
         25    1    1    2    0    0 -0.57628500043E+02  0.20022499500E+03 -0.24712465710E+03  0.34656411930E+03  0.12500000000E+03 0.  0.
         21    1    1    2  503  502  0.10791578479E+03 -0.13050501458E+03 -0.29412632517E+03  0.33939309155E+03  0.00000000000E+00 0.  1.
          2    1    1    2  501    0 -0.50287284745E+02 -0.69719980417E+02  0.20302409551E+03  0.22047328644E+03  0.00000000000E+00 0. -1.
<mgrwt>
<rscale>  4 0.42140796E+03</rscale>
<asrwt>0</asrwt>
<pdfrwt beam="1">  1       21 0.95742876E-01 0.42140796E+03</pdfrwt>
<pdfrwt beam="2">  1        2 0.43707970E-01 0.42140796E+03</pdfrwt>
<totfact> 0.12113446E+03</totfact>
</mgrwt>
</event>
<event>
 5    0  0.2396052E+000  0.6432364E+03  0.7546771E-02  0.9819554E-01
          3   -1    0    0  503    0 -0.00000000000E+00  0.00000000000E+00  0.61310552206E+03  0.61310552206E+03  0.00000000000E+00 0.  1.
         21   -1    0    0  501  502  0.00000000000E+00 -0.00000000000E+00 -0.48698014776E+03  0.48698014776E+03  0.00000000000E+00 0.  1.
         25    1    1    2    0    0 -0.17041578395E+03 -0.12357196141E+03  0.96904054217E+02  0.26330014202E+03  0.12500000000E+03 0.  0.
         21    1    1    2  503  502  0.19296413558E+03  0.12298375507E+03 -0.37102047458E+03  0.43590865349E+03  0.00000000000E+00 0.  1.
          3    1    1    2  501    0 -0.22548351633E+02  0.58820634322E+00  0.40024179467E+03  0.40087687430E+03  0.00000000000E+00 0.  1.
<mgrwt>
<rscale>  4 0.64323645E+03</rscale>
<asrwt>0</asrwt>
<pdfrwt beam="1">  1       21 0.74920023E-01 0.64323645E+03</pdfrwt>
<pdfrwt beam="2">  1        3 0.94323926E-01 0.64323645E+03</pdfrwt>
<totfact> 0.73694724E+01</totfact>
</mgrwt>
</event>
<event>
 5    0  0.2396052E+000  0.5269144E+03  0.7546771E-02  0.1006983E+00
         21   -1    0    0  501  502  0.00000000000E+00  0.00000000000E+00  0.22648840909E+03  0.22648840909E+03  0.00000000000E+00 0. -1.
          2   -1    0    0  503    0 -0.00000000000E+00 -0.00000000000E+00 -0.13997440352E+04  0.13997440352E+04  0.00000000000E+00 0. -1.
         25    1    1    2    0    0  0.23182347197E+03 -0.11427368481E+03 -0.15287363344E+03  0.32526288599E+03  0.12500000000E+03 0.  0.
         21    1    1    2  503  502 -0.16762865258E+03  0.10099106721E+03  0.70580823355E+02  0.20803897098E+03  0.00000000000E+00 0. -1.
          2    1    1    2  501    0 -0.64194819390E+02  0.13282617605E+02 -0.10909628161E+04  0.10929305874E+04  0.00000000000E+00 0. -1.
<mgrwt>
<rscale>  4 0.52691438E+03</rscale>
<asrwt>0</asrwt>
<pdfrwt beam="1">  1       21 0.34844371E-01 0.52691438E+03</pdfrwt>
<pdfrwt beam="2">  1        2 0.21534523E+00 0.52691438E+03</pdfrwt>
<totfact> 0.14037582E+03</totfact>
</mgrwt>
</event>
<event>
 5    0  0.2396052E+000  0.9637070E+03  0.7546771E-02  0.9349271E-01
          1   -1    0    0  503    0 -0.00000000000E+00  0.00000000000E+00  0.23050345561E+03  0.23050345561E+03  0.00000000000E+00 0.  1.
         21   -1    0    0  501  502  0.00000000000E+00 -0.00000000000E+00 -0.13039319685E+04  0.13039319685E+04  0.00000000000E+00 0.  1.
         25    1    1    2    0    0  0.36675827147E+03 -0.27246519215E+02 -0.10092964693E+03  0.40133003392E+03  0.12500000000E+03 0.  0.
         21    1    1    2  503  502 -0.34940292640E+03 -0.16436531328E+02 -0.10126040316E+04  0.10713167082E+04  0.00000000000E+00 0.  1.
          1    1    1    2  501    0 -0.17355345067E+02  0.43683050544E+02  0.40105165634E+02  0.61788681955E+02  0.00000000000E+00 0.  1.
<mgrwt>
<rscale>  4 0.96370700E+03</rscale>
<asrwt>0</asrwt>
<pdfrwt beam="1">  1       21 0.20060491E+00 0.96370700E+03</pdfrwt>
<pdfrwt beam="2">  1        1 0.35462071E-01 0.96370700E+03</pdfrwt>
<totfact> 0.13673059E+02</totfact>
</mgrwt>
</event>
<event>
 5    0  0.2396052E+000  0.8476947E+03  0.7546771E-02  0.9493436E-01
         21   -1    0    0  501  502  0.00000000000E+00  0.00000000000E+00  0.86148227092E+03  0.86148227092E+03  0.00000000000E+00 0. -1.
          2   -1    0    0  503    0 -0.00000000000E+00 -0.00000000000E+00 -0.83440569321E+03  0.83440569321E+03  0.00000000000E+00 0.  1.
         25    1    1    2    0    0 -0.14084714869E+03  0.33692937663E+03  0.10626608319E+03  0.40034585619E+03  0.12500000000E+03 0.  0.
         21    1    1    2  503  502  0.14299152144E+03 -0.35946583284E+03  0.54642993966E+03  0.66951321058E+03  0.00000000000E+00 0. -1.
          2    1    1    2  501    0 -0.21443727536E+01  0.22536456203E+02 -0.62561944514E+03  0.62602889736E+03  0.00000000000E+00 0.  1.
<mgrwt>
<rscale>  4 0.84769471E+03</rscale>
<asrwt>0</asrwt>
<pdfrwt beam="1">  1       21 0.13253574E+00 0.84769471E+03</pdfrwt>
<pdfrwt beam="2">  1        2 0.12837011E+00 0.84769471E+03</pdfrwt>
<totfact> 0.13828772E+02</totfact>
</mgrwt>
</event>
<event>
 5    0  0.2396052E+000  0.4946553E+03  0.7546771E-02  0.1015183E+00
         21   -1    0    0  501  502  0.00000000000E+00  0.00000000000E+00  0.36027922774E+03  0.36027922774E+03  0.00000000000E+00 0. -1.
          2   -1    0    0  503    0 -0.00000000000E+00 -0.00000000000E+00 -0.52555683179E+03  0.52555683179E+03  0.00000000000E+00 0. -1.
         25    1    1    2    0    0 -0.14396712041E+03 -0.15569929195E+03  0.19317172282E+03  0.31290432366E+03  0.12500000000E+03 0.  0.
         21    1    1    2  503  502  0.12047039857E+03  0.18012898566E+03 -0.38701256211E+01  0.21673612130E+03  0.00000000000E+00 0. -1.
          2    1    1    2  501    0  0.23496721836E+02 -0.24429693710E+02 -0.35457920125E+03  0.35619561456E+03  0.00000000000E+00 0. -1.
<mgrwt>
<rscale>  4 0.49465534E+03</rscale>
<asrwt>0</asrwt>
<pdfrwt beam="1">  1       21 0.55427574E-01 0.49465534E+03</pdfrwt>
<pdfrwt beam="2">  1        2 0.80854897E-01 0.49465534E+03</pdfrwt>
<totfact> 0.20840518E+03</totfact>
</mgrwt>
</event>
<event>
 5    0  0.2396052E+000  0.3753546E+03  0.7546771E-02  0.1052664E+00
         21   -1    0    0  501  502  0.00000000000E+00  0.00000000000E+00  0.12096769931E+03  0.12096769931E+03  0.00000000000E+00 0. -1.
          2   -1    0    0  503    0 -0.00000000000E+00 -0.00000000000E+00 -0.46493819330E+03  0.46493819330E+03  0.00000000000E+00 0. -1.
         25    1    1    2    0    0  0.26937877974E+02 -0.20235848825E+03 -0.21861947689E+03  0.32418217519E+03  0.12500000000E+03 0.  0.
         21    1    1    2  503  502 -0.13065512300E+02  0.11370419072E+03 -0.90223488949E+01  0.11480746221E+03  0.00000000000E+00 0. -1.
          2    1    1    2  501    0 -0.13872365674E+02  0.88654297526E+02 -0.11632866821E+03  0.14691625521E+03  0.00000000000E+00 0. -1.
<mgrwt>
<rscale>  4 0.37535463E+03</rscale>
<asrwt>0</asrwt>
<pdfrwt beam="1">  1       21 0.18610415E-01 0.37535463E+03</pdfrwt>
<pdfrwt beam="2">  1        2 0.71528954E-01 0.37535463E+03</pdfrwt>
<totfact> 0.21823983E+04</totfact>
</mgrwt>
</event>
<event>
 5    0  0.2396052E+000  0.9042383E+03  0.7546771E-02  0.9420299E-01
         21   -1    0    0  501  502  0.00000000000E+00  0.00000000000E+00  0.32722233519E+03  0.32722233519E+03  0.00000000000E+00 0. -1.
          1   -1    0    0  503    0 -0.00000000000E+00 -0.00000000000E+00 -0.27620701130E+04  0.27620701130E+04  0.00000000000E+00 0.  1.
         25    1    1    2    0    0 -0.24302542086E+03  0.24540981718E+03 -0.40188176239E+03  0.54444585084E+03  0.12500000000E+03 0.  0.
         21    1    1    2  503  502  0.32503581857E+03 -0.22494957559E+03  0.10197963300E+03  0.40822841702E+03  0.00000000000E+00 0. -1.
          1    1    1    2  501    0 -0.82010397714E+02 -0.20460241590E+02 -0.21349456484E+04  0.21366181803E+04  0.00000000000E+00 0.  1.
<mgrwt>
<rscale>  4 0.90423834E+03</rscale>
<asrwt>0</asrwt>
<pdfrwt beam="1">  1       21 0.50341897E-01 0.90423834E+03</pdfrwt>
<pdfrwt beam="2">  1        1 0.42493387E+00 0.90423834E+03</pdfrwt>
<totfact> 0.33751865E+01</totfact>
</mgrwt>
</event>
<event>
 5    0  0.2396052E+000  0.4444909E+03  0.7546771E-02  0.1029378E+00
         21   -1    0    0  501  502  0.00000000000E+00  0.00000000000E+00  0.64724535943E+03  0.64724535943E+03  0.00000000000E+00 0. -1.
         -1   -1    0    0    0  501 -0.00000000000E+00 -0.00000000000E+00 -0.13197507049E+03  0.13197507049E+03  0.00000000000E+00 0.  1.
         25    1    1    2    0    0  0.21067321504E+03 -0.14507534585E+02  0.44787064741E+03  0.51069246021E+03  0.12500000000E+03 0.  0.
         21    1    1    2  503  502 -0.17112535494E+03  0.12111114525E+02  0.11504808927E+03  0.20655902072E+03  0.00000000000E+00 0.  1.
         -1    1    1    2    0  503 -0.39547860103E+02  0.23964200598E+01 -0.47648447745E+02  0.61968949001E+02  0.00000000000E+00 0.  1.
<mgrwt>
<rscale>  4 0.44449093E+03</rscale>
<asrwt>0</asrwt>
<pdfrwt beam="1">  1       21 0.99576207E-01 0.44449093E+03</pdfrwt>
<pdfrwt beam="2">  1       -1 0.20303857E-01 0.44449093E+03</pdfrwt>
<totfact> 0.13832241E+03</totfact>
</mgrwt>
</event>
<event>
 5    0  0.2396052E+000  0.3343114E+03  0.7546771E-02  0.1069245E+00
         21   -1    0    0  501  502  0.00000000000E+00  0.00000000000E+00  0.10974155499E+03  0.10974155499E+03  0.00000000000E+00 0. -1.
          2   -1    0    0  503    0 -0.00000000000E+00 -0.00000000000E+00 -0.18112458297E+04  0.18112458297E+04  0.00000000000E+00 0. -1.
         25    1    1    2    0    0 -0.22828858504E+03  0.27787597899E+02 -0.17844644511E+03  0.31679009207E+03  0.12500000000E+03 0.  0.
         21    1    1    2  503  502  0.33746138689E+02  0.46245978450E+02  0.90969912789E+01  0.57967643126E+02  0.00000000000E+00 0.  1.
          2    1    1    2  501    0  0.19454244635E+03 -0.74033576350E+02 -0.15321548209E+04  0.15462296495E+04  0.00000000000E+00 0. -1.
<mgrwt>
<rscale>  4 0.33431142E+03</rscale>
<asrwt>0</asrwt>
<pdfrwt beam="1">  1       21 0.16883317E-01 0.33431142E+03</pdfrwt>
<pdfrwt beam="2">  1        2 0.27865319E+00 0.33431142E+03</pdfrwt>
<totfact> 0.36016392E+03</totfact>
</mgrwt>
</event>
<event>
 5    0  0.2396052E+000  0.5563558E+03  0.7546771E-02  0.1000033E+00
          2   -1    0    0  503    0 -0.00000000000E+00  0.00000000000E+00  0.49780419314E+03  0.49780419314E+03  0.00000000000E+00 0.  1.
         21   -1    0    0  501  502  0.00000000000E+00 -0.00000000000E+00 -0.41531225632E+03  0.41531225632E+03  0.00000000000E+00 0.  1.
         25    1    1    2    0    0  0.14024994021E+03  0.23114532054E+03 -0.78040968807E+02  0.30791816729E+03  0.12500000000E+03 0.  0.
         21    1    1    2  503  502 -0.18801827148E+03 -0.16933432650E+03 -0.14377325726E+03  0.29102531512E+03  0.00000000000E+00 0.  1.
          2    1    1    2  501    0  0.47768331262E+02 -0.61810994038E+02  0.30430616288E+03  0.31417296705E+03  0.00000000000E+00 0.  1.
<mgrwt>
<rscale>  4 0.55635577E+03</rscale>
<asrwt>0</asrwt>
<pdfrwt beam="1">  1       21 0.63894193E-01 0.55635577E+03</pdfrwt>
<pdfrwt beam="2">  1        2 0.76585261E-01 0.55635577E+03</pdfrwt>
<totfact> 0.16069918E+03</totfact>
</mgrwt>
</event>
<event>
 5    0  0.2396052E+000  0.5551296E+03  0.7546771E-02  0.1000314E+00
         21   -1    0    0  501  502  0.00000000000E+00  0.00000000000E+00  0.10070946916E+03  0.10070946916E+03  0.00000000000E+00 0. -1.
          2   -1    0    0  503    0 -0.00000000000E+00 -0.00000000000E+00 -0.26358013533E+04  0.26358013533E+04  0.00000000000E+00 0. -1.
         25    1    1    2    0    0 -0.18698070469E+02  0.32387019635E+03 -0.46703502428E+03  0.58222696247E+03  0.12500000000E+03 0.  0.
         21    1    1    2  503  502 -0.23117723350E+02 -0.20393967185E+03 -0.21631488520E+03  0.29819112737E+03  0.00000000000E+00 0. -1.
          2    1    1    2  501    0  0.41815793819E+02 -0.11993052450E+03 -0.18517419746E+04  0.18560927326E+04  0.00000000000E+00 0. -1.
<mgrwt>
<rscale>  4 0.55512964E+03</rscale>
<asrwt>0</asrwt>
<pdfrwt beam="1">  1       21 0.15493765E-01 0.55512964E+03</pdfrwt>
<pdfrwt beam="2">  1        2 0.40550788E+00 0.55512964E+03</pdfrwt>
<totfact> 0.14141856E+03</totfact>
</mgrwt>
</event>
<event>
 5    0  0.2396052E+000  0.5817342E+03  0.7546771E-02  0.9944043E-01
         21   -1    0    0  501  502  0.00000000000E+00  0.00000000000E+00  0.30873494371E+02  0.30873494371E+02  0.00000000000E+00 0.  1.
          2   -1    0    0  503    0 -0.00000000000E+00 -0.00000000000E+00 -0.32498441735E+04  0.32498441735E+04  0.00000000000E+00 0.  1.
         25    1    1    2    0    0  0.18789049694E+03 -0.15631803769E+03 -0.19346703729E+04  0.19540503115E+04  0.12500000000E+03 0.  0.
         21    1    1    2  503  502 -0.19151008426E+03  0.17860435094E+03 -0.79852570696E+03  0.84036833069E+03  0.00000000000E+00 0.  1.
          2    1    1    2  501    0  0.36195873145E+01 -0.22286313255E+02 -0.48577459927E+03  0.48629902577E+03  0.00000000000E+00 0.  1.
<mgrwt>
<rscale>  4 0.58173425E+03</rscale>
<asrwt>0</asrwt>
<pdfrwt beam="1">  1       21 0.47497690E-02 0.58173425E+03</pdfrwt>
<pdfrwt beam="2">  1        2 0.49997596E+00 0.58173425E+03</pdfrwt>
<totfact> 0.49922571E+03</totfact>
</mgrwt>
</event>
<event>
 5    0  0.2396052E+000  0.6605188E+03  0.7546771E-02  0.9787239E-01
         21   -1    0    0  501  502  0.00000000000E+00  0.00000000000E+00  0.13947160982E+03  0.13947160982E+03  0.00000000000E+00 0.  1.
          1   -1    0    0  503    0 -0.00000000000E+00 -0.00000000000E+00 -0.15895853564E+04  0.15895853564E+04  0.00000000000E+00 0. -1.
         25    1    1    2    0    0  0.20687783775E+03  0.13832361024E+03 -0.45825060217E+02  0.28223535754E+03  0.12500000000E+03 0.  0.
         21    1    1    2  503  502 -0.19301974026E+03 -0.12265116595E+03 -0.59763217034E+03  0.63989385031E+03  0.00000000000E+00 0.  1.
          1    1    1    2  501    0 -0.13858097484E+02 -0.15672444292E+02 -0.80665651600E+03  0.80692775834E+03  0.00000000000E+00 0. -1.
<mgrwt>
<rscale>  4 0.66051879E+03</rscale>
<asrwt>0</asrwt>
<pdfrwt beam="1">  1       21 0.21457171E-01 0.66051879E+03</pdfrwt>
<pdfrwt beam="2">  1        1 0.24455159E+00 0.66051879E+03</pdfrwt>
<totfact> 0.12482965E+03</totfact>
</mgrwt>
</event>
<event>
 5    0  0.2396052E+000  0.6693701E+03  0.7546771E-02  0.9771096E-01
         21   -1    0    0  501  502  0.00000000000E+00  0.00000000000E+00  0.60772514915E+03  0.60772514915E+03  0.00000000000E+00 0.  1.
         -2   -1    0    0    0  501 -0.00000000000E+00 -0.00000000000E+00 -0.51983086610E+03  0.51983086610E+03  0.00000000000E+00 0. -1.
         25    1    1    2    0    0 -0.30146006633E+03 -0.10936550288E+03  0.44764640915E+03  0.56466918850E+03  0.12500000000E+03 0.  0.
         21    1    1    2  503  502 -0.19898934107E+01  0.12785693934E+03 -0.12463295410E+03  0.17856295770E+03  0.00000000000E+00 0. -1.
         -2    1    1    2    0  503  0.30344995974E+03 -0.18491436455E+02 -0.23511917200E+03  0.38432386906E+03  0.00000000000E+00 0. -1.
<mgrwt>
<rscale>  4 0.66937010E+03</rscale>
<asrwt>0</asrwt>
<pdfrwt beam="1">  1       21 0.93496177E-01 0.66937010E+03</pdfrwt>
<pdfrwt beam="2">  1       -2 0.79973980E-01 0.66937010E+03</pdfrwt>
<totfact> 0.96506288E+01</totfact>
</mgrwt>
</event>
<event>
 5    0  0.2396052E+000  0.4804410E+03  0.7546771E-02  0.1019014E+00
          2   -1    0    0  503    0 -0.00000000000E+00  0.00000000000E+00  0.27390465896E+04  0.27390465896E+04  0.00000000000E+00 0.  1.
         21   -1    0    0  501  502  0.00000000000E+00 -0.00000000000E+00 -0.44588051530E+02  0.44588051530E+02  0.00000000000E+00 0. -1.
         25    1    1    2    0    0 -0.17271654960E+03 -0.10093923284E+03  0.36859624360E+03  0.43761618574E+03  0.12500000000E+03 0.  0.
         21    1    1    2  503  502  0.11776042288E+03 -0.62850947384E+02  0.10882564841E+04  0.10964123011E+04  0.00000000000E+00 0.  1.
          2    1    1    2  501    0  0.54956126720E+02  0.16379018022E+03  0.12376058104E+04  0.12496061543E+04  0.00000000000E+00 0.  1.
<mgrwt>
<rscale>  4 0.48044097E+03</rscale>
<asrwt>0</asrwt>
<pdfrwt beam="1">  1       21 0.68597024E-02 0.48044097E+03</pdfrwt>
<pdfrwt beam="2">  1        2 0.42139165E+00 0.48044097E+03</pdfrwt>
<totfact> 0.54839635E+03</totfact>
</mgrwt>
</event>
<event>
 5    0  0.2396052E+000  0.4180838E+03  0.7546771E-02  0.1037692E+00
         21   -1    0    0  501  502  0.00000000000E+00  0.00000000000E+00  0.25246783929E+03  0.25246783929E+03  0.00000000000E+00 0. -1.
          2   -1    0    0  503    0 -0.00000000000E+00 -0.00000000000E+00 -0.14681263420E+04  0.14681263420E+04  0.00000000000E+00 0.  1.
         25    1    1    2    0    0  0.90507826270E+02 -0.32129352665E+03  0.27815185377E+02  0.35751906441E+03  0.12500000000E+03 0.  0.
         21    1    1    2  503  502 -0.36226003739E+02  0.46270637000E+02  0.25097397404E+02  0.63899722627E+02  0.00000000000E+00 0. -1.
          2    1    1    2  501    0 -0.54281822531E+02  0.27502288965E+03 -0.12685710855E+04  0.12991753942E+04  0.00000000000E+00 0.  1.
<mgrwt>
<rscale>  4 0.41808379E+03</rscale>
<asrwt>0</asrwt>
<pdfrwt beam="1">  1       21 0.38841206E-01 0.41808379E+03</pdfrwt>
<pdfrwt beam="2">  1        2 0.22586559E+00 0.41808379E+03</pdfrwt>
<totfact> 0.10595119E+03</totfact>
</mgrwt>
</event>
<event>
 5    0  0.2396052E+000  0.3818339E+03  0.7546771E-02  0.1050258E+00
          2   -1    0    0  503    0 -0.00000000000E+00  0.00000000000E+00  0.54371521331E+03  0.54371521331E+03  0.00000000000E+00 0. -1.
         21   -1    0    0  501  502  0.00000000000E+00 -0.00000000000E+00 -0.17682084466E+03  0.17682084466E+03  0.00000000000E+00 0. -1.
         25    1    1    2    0    0 -0.23503377982E+03  0.57866560924E+02  0.15480321543E+02  0.27286270702E+03  0.12500000000E+03 0.  0.
         21    1    1    2  503  502  0.92877722578E+02  0.28467954783E+02  0.66355393395E+02  0.11764239896E+03  0.00000000000E+00 0.  1.
          2    1    1    2  501    0  0.14215605724E+03 -0.86334515708E+02  0.28505865371E+03  0.33003095199E+03  0.00000000000E+00 0. -1.
<mgrwt>
<rscale>  4 0.38183393E+03</rscale>
<asrwt>0</asrwt>
<pdfrwt beam="1">  1       21 0.27203207E-01 0.38183393E+03</pdfrwt>
<pdfrwt beam="2">  1        2 0.83648494E-01 0.38183393E+03</pdfrwt>
<totfact> 0.88064235E+03</totfact>
</mgrwt>
</event>
<event>
 5    0  0.2396052E+000  0.1287524E+04  0.7546771E-02  0.9039518E-01
         21   -1    0    0  501  502  0.00000000000E+00  0.00000000000E+00  0.77499501419E+03  0.77499501419E+03  0.00000000000E+00 0. -1.
         -2   -1    0    0    0  501 -0.00000000000E+00 -0.00000000000E+00 -0.16192321433E+04  0.16192321433E+04  0.00000000000E+00 0. -1.
         25    1    1    2    0    0  0.21673241861E+03 -0.58353002661E+03  0.20402666207E+03  0.66688238248E+03  0.12500000000E+03 0.  0.
         21    1    1    2  503  502 -0.21518955255E+03  0.60467079671E+03  0.36042294760E+02  0.64283151986E+03  0.00000000000E+00 0.  1.
         -2    1    1    2    0  503 -0.15428660605E+01 -0.21140770103E+02 -0.10843060859E+04  0.10845132551E+04  0.00000000000E+00 0. -1.
<mgrwt>
<rscale>  4 0.12875237E+04</rscale>
<asrwt>0</asrwt>
<pdfrwt beam="1">  1       21 0.11923000E+00 0.12875237E+04</pdfrwt>
<pdfrwt beam="2">  1       -2 0.24911263E+00 0.12875237E+04</pdfrwt>
<totfact> 0.22476667E+00</totfact>
</mgrwt>
</event>
<event>
 5    0  0.2396052E+000  0.3676269E+03  0.7546771E-02  0.1055604E+00
         21   -1    0    0  501  502  0.00000000000E+00  0.00000000000E+00  0.44355131716E+02  0.44355131716E+02  0.00000000000E+00 0. -1.
          1   -1    0    0  503    0 -0.00000000000E+00 -0.00000000000E+00 -0.16604121431E+04  0.16604121431E+04  0.00000000000E+00 0. -1.
         25    1    1    2    0    0 -0.74859658603E+02 -0.21669642065E+03 -0.50370258417E+03  0.56736460985E+03  0.12500000000E+03 0.  0.
         21    1    1    2  503  502  0.47352231226E+02  0.81847367058E+02 -0.34103871957E+03  0.35390483684E+03  0.00000000000E+00 0.  1.
          1    1    1    2  501    0  0.27507427377E+02  0.13484905359E+03 -0.77131570764E+03  0.78349782812E+03  0.00000000000E+00 0. -1.
<mgrwt>
<rscale>  4 0.36762688E+03</rscale>
<asrwt>0</asrwt>
<pdfrwt beam="1">  1       21 0.68238665E-02 0.36762688E+03</pdfrwt>
<pdfrwt beam="2">  1        1 0.25544802E+00 0.36762688E+03</pdfrwt>
<totfact> 0.96338460E+03</totfact>
</mgrwt>
</event>
<event>
 5    0  0.2396052E+000  0.4438970E+03  0.7546771E-02  0.1029558E+00
          1   -1    0    0  503    0 -0.00000000000E+00  0.00000000000E+00  0.10475366482E+04  0.10475366482E+04  0.00000000000E+00 0. -1.
         21   -1    0    0  501  502  0.00000000000E+00 -0.00000000000E+00 -0.14682831050E+03  0.14682831050E+03  0.00000000000E+00 0. -1.
         25    1    1    2    0    0 -0.63558783225E+02  0.35685788307E+03  0.52294866811E+03  0.64845013464E+03  0.12500000000E+03 0.  0.
         21    1    1    2  503  502 -0.65937602475E+01 -0.49440413691E+02  0.14684379937E+03  0.15508363419E+03  0.00000000000E+00 0.  1.
          1    1    1    2  501    0  0.70152543472E+02 -0.30741746938E+03  0.23091587018E+03  0.39083118982E+03  0.00000000000E+00 0. -1.
<mgrwt>
<rscale>  4 0.44389702E+03</rscale>
<asrwt>0</asrwt>
<pdfrwt beam="1">  1       21 0.22588971E-01 0.44389702E+03</pdfrwt>
<pdfrwt beam="2">  1        1 0.16115948E+00 0.44389702E+03</pdfrwt>
<totfact> 0.28279236E+03</totfact>
</mgrwt>
</event>
<event>
 5    0  0.2396052E+000  0.6204243E+03  0.7546771E-02  0.9863915E-01
         -3   -1    0    0    0  501 -0.00000000000E+00  0.00000000000E+00  0.86163844048E+02  0.86163844048E+02  0.00000000000E+00 0. -1.
         21   -1    0    0  501  502  0.00000000000E+00 -0.00000000000E+00 -0.21686453873E+04  0.21686453873E+04  0.00000000000E+00 0. -1.
         25    1    1    2    0    0 -0.30769017193E+03 -0.77571831653E+02 -0.15657658371E+04  0.16024787947E+04  0.12500000000E+03 0.  0.
         21    1    1    2  503  502  0.94353048824E+02  0.14040572733E+03 -0.16573906587E+03  0.23682420494E+03  0.00000000000E+00 0.  1.
         -3    1    1    2    0  503  0.21333712310E+03 -0.62833895678E+02 -0.35097664037E+03  0.41550623175E+03  0.00000000000E+00 0. -1.
<mgrwt>
<rscale>  4 0.62042429E+03</rscale>
<asrwt>0</asrwt>
<pdfrwt beam="1">  1       21 0.33363774E+00 0.62042429E+03</pdfrwt>
<pdfrwt beam="2">  1       -3 0.13255977E-01 0.62042429E+03</pdfrwt>
<totfact> 0.39674763E+01</totfact>
</mgrwt>
</event>
<event>
 5    0  0.2396052E+000  0.5168995E+03  0.7546771E-02  0.1009460E+00
          2   -1    0    0  503    0 -0.00000000000E+00  0.00000000000E+00  0.20886701217E+04  0.20886701217E+04  0.00000000000E+00 0. -1.
         21   -1    0    0  501  502  0.00000000000E+00 -0.00000000000E+00 -0.65944749480E+02  0.65944749480E+02  0.00000000000E+00 0. -1.
         25    1    1    2    0    0  0.20475217793E+03  0.18707189667E+03  0.49921881125E+03  0.58460565375E+03  0.12500000000E+03 0.  0.
         21    1    1    2  503  502 -0.16848758816E+02 -0.65915198787E+02  0.97938055333E+03  0.98174078164E+03  0.00000000000E+00 0.  1.
          2    1    1    2  501    0 -0.18790341911E+03 -0.12115669788E+03  0.54412600766E+03  0.58826843580E+03  0.00000000000E+00 0. -1.
<mgrwt>
<rscale>  4 0.51689948E+03</rscale>
<asrwt>0</asrwt>
<pdfrwt beam="1">  1       21 0.10145348E-01 0.51689948E+03</pdfrwt>
<pdfrwt beam="2">  1        2 0.32133381E+00 0.51689948E+03</pdfrwt>
<totfact> 0.62322197E+03</totfact>
</mgrwt>
</event>
<event>
 5    0  0.2396052E+000  0.4264334E+03  0.7546771E-02  0.1034993E+00
         21   -1    0    0  501  502  0.00000000000E+00  0.00000000000E+00  0.69251970263E+03  0.69251970263E+03  0.00000000000E+00 0. -1.
          2   -1    0    0  503    0 -0.00000000000E+00 -0.00000000000E+00 -0.16841180947E+04  0.16841180947E+04  0.00000000000E+00 0.  1.
         25    1    1    2    0    0  0.19665647441E+03 -0.55554831461E+02  0.37056661869E+03  0.44125358595E+03  0.12500000000E+03 0.  0.
         21    1    1    2  503  502 -0.79321476133E+02 -0.16823423381E+03  0.24548945891E+03  0.30799306557E+03  0.00000000000E+00 0. -1.
          2    1    1    2  501    0 -0.11733499828E+03  0.22378906527E+03 -0.16076544697E+04  0.16273911458E+04  0.00000000000E+00 0.  1.
<mgrwt>
<rscale>  4 0.42643341E+03</rscale>
<asrwt>0</asrwt>
<pdfrwt beam="1">  1       21 0.10654149E+00 0.42643341E+03</pdfrwt>
<pdfrwt beam="2">  1        2 0.25909509E+00 0.42643341E+03</pdfrwt>
<totfact> 0.85215965E+01</totfact>
</mgrwt>
</event>
<event>
 5    0  0.2396052E+000  0.3960048E+03  0.7546771E-02  0.1045172E+00
         21   -1    0    0  501  502  0.00000000000E+00  0.00000000000E+00  0.30145060412E+03  0.30145060412E+03  0.00000000000E+00 0.  1.
          2   -1    0    0  503    0 -0.00000000000E+00 -0.00000000000E+00 -0.18938933840E+04  0.18938933840E+04  0.00000000000E+00 0.  1.
         25    1    1    2    0    0 -0.20002996118E+03 -0.95984883772E+02  0.10130426320E+02  0.25485821317E+03  0.12500000000E+03 0.  0.
         21    1    1    2  503  502  0.68308560414E+02  0.36045930764E+02  0.15700092913E+03  0.17497045550E+03  0.00000000000E+00 0.  1.
          2    1    1    2  501    0  0.13172140076E+03  0.59938953008E+02 -0.17595741353E+04  0.17655153194E+04  0.00000000000E+00 0.  1.
<mgrwt>
<rscale>  4 0.39600479E+03</rscale>
<asrwt>0</asrwt>
<pdfrwt beam="1">  1       21 0.46377017E-01 0.39600479E+03</pdfrwt>
<pdfrwt beam="2">  1        2 0.29136821E+00 0.39600479E+03</pdfrwt>
<totfact> 0.43628404E+02</totfact>
</mgrwt>
</event>
<event>
 5    0  0.2396052E+000  0.6578816E+03  0.7546771E-02  0.9792101E-01
          2   -1    0    0  503    0 -0.00000000000E+00  0.00000000000E+00  0.13642212950E+04  0.13642212950E+04  0.00000000000E+00 0. -1.
         21   -1    0    0  501  502  0.00000000000E+00 -0.00000000000E+00 -0.10640056525E+03  0.10640056525E+03  0.00000000000E+00 0.  1.
         25    1    1    2    0    0  0.21043877732E+03  0.22752675077E+02  0.71797314792E+02  0.25608986242E+03  0.12500000000E+03 0.  0.
         21    1    1    2  503  502 -0.20632473028E+03 -0.58015392861E+02  0.84864508631E+03  0.87529090173E+03  0.00000000000E+00 0. -1.
          2    1    1    2  501    0 -0.41140470348E+01  0.35262717784E+02  0.33737832867E+03  0.33924109613E+03  0.00000000000E+00 0. -1.
<mgrwt>
<rscale>  4 0.65788162E+03</rscale>
<asrwt>0</asrwt>
<pdfrwt beam="1">  1       21 0.16369319E-01 0.65788162E+03</pdfrwt>
<pdfrwt beam="2">  1        2 0.20988019E+00 0.65788162E+03</pdfrwt>
<totfact> 0.62794020E+03</totfact>
</mgrwt>
</event>
<event>
 5    0  0.2396052E+000  0.1119551E+04  0.7546771E-02  0.9186343E-01
         21   -1    0    0  501  502  0.00000000000E+00  0.00000000000E+00  0.17572992061E+04  0.17572992061E+04  0.00000000000E+00 0.  1.
          2   -1    0    0  503    0 -0.00000000000E+00 -0.00000000000E+00 -0.34182024469E+03  0.34182024469E+03  0.00000000000E+00 0.  1.
         25    1    1    2    0    0 -0.18059035468E+03 -0.14144812132E+03 -0.79390882766E+02  0.27303545464E+03  0.12500000000E+03 0.  0.
         21    1    1    2  503  502  0.10501981688E+03  0.10184685524E+03  0.16460245911E+04  0.16525129042E+04  0.00000000000E+00 0.  1.
          2    1    1    2  501    0  0.75570537797E+02  0.39601266079E+02 -0.15115474692E+03  0.17357109199E+03  0.00000000000E+00 0.  1.
<mgrwt>
<rscale>  4 0.11195514E+04</rscale>
<asrwt>0</asrwt>
<pdfrwt beam="1">  1       21 0.27035372E+00 0.11195514E+04</pdfrwt>
<pdfrwt beam="2">  1        2 0.52587731E-01 0.11195514E+04</pdfrwt>
<totfact> 0.41054658E+01</totfact>
</mgrwt>
</event>
<event>
 5    0  0.2396052E+000  0.4383627E+03  0.7546771E-02  0.1031250E+00
          2   -1    0    0  503    0 -0.00000000000E+00  0.00000000000E+00  0.75485740109E+03  0.75485740109E+03  0.00000000000E+00 0.  1.
         21   -1    0    0  501  502  0.00000000000E+00 -0.00000000000E+00 -0.12173589158E+03  0.12173589158E+03  0.00000000000E+00 0.  1.
         25    1    1    2    0    0 -0.24472686848E+03 -0.87491649919E+02  0.21278294493E+03  0.35839588532E+03  0.12500000000E+03 0.  0.
         21    1    1    2  503  502  0.77303117885E+02  0.10022257918E+03  0.24295612665E+03  0.27394893117E+03  0.00000000000E+00 0. -1.
          2    1    1    2  501    0  0.16742375060E+03 -0.12730929264E+02  0.17738243793E+03  0.24424847616E+03  0.00000000000E+00 0.  1.
<mgrwt>
<rscale>  4 0.43836271E+03</rscale>
<asrwt>0</asrwt>
<pdfrwt beam="1">  1       21 0.18728599E-01 0.43836271E+03</pdfrwt>
<pdfrwt beam="2">  1        2 0.11613190E+00 0.43836271E+03</pdfrwt>
<totfact> 0.12050630E+04</totfact>
</mgrwt>
</event>
<event>
 5    0  0.2396052E+000  0.6947206E+03  0.7546771E-02  0.9726303E-01
         21   -1    0    0  501  502  0.00000000000E+00  0.00000000000E+00  0.28403570851E+03  0.28403570851E+03  0.00000000000E+00 0. -1.
         -4   -1    0    0    0  501 -0.00000000000E+00 -0.00000000000E+00 -0.49491056063E+03  0.49491056063E+03  0.00000000000E+00 0. -1.
         25    1    1    2    0    0  0.20747410366E+03 -0.21357749628E+03 -0.21389037769E+03  0.38734344486E+03  0.12500000000E+03 0.  0.
         21    1    1    2  503  502 -0.20926621139E+03  0.23544463465E+03  0.68651751263E+02  0.32239662865E+03  0.00000000000E+00 0. -1.
         -4    1    1    2    0  503  0.17921077287E+01 -0.21867138367E+02 -0.65636225692E+02  0.69206195630E+02  0.00000000000E+00 0. -1.
<mgrwt>
<rscale>  4 0.69472060E+03</rscale>
<asrwt>0</asrwt>
<pdfrwt beam="1">  1       21 0.43697802E-01 0.69472060E+03</pdfrwt>
<pdfrwt beam="2">  1       -4 0.76140084E-01 0.69472060E+03</pdfrwt>
<totfact> 0.32193830E+02</totfact>
</mgrwt>
</event>
<event>
 5    0  0.2396052E+000  0.7280145E+03  0.7546771E-02  0.9670488E-01
          2   -1    0    0  503    0 -0.00000000000E+00  0.00000000000E+00  0.34162074465E+03  0.34162074465E+03  0.00000000000E+00 0.  1.
         21   -1    0    0  501  502  0.00000000000E+00 -0.00000000000E+00 -0.16031462553E+04  0.16031462553E+04  0.00000000000E+00 0.  1.
         25    1    1    2    0    0 -0.38084289594E+03 -0.54026811132E+00 -0.34023851538E+03  0.52576501464E+03  0.12500000000E+03 0.  0.
         21    1    1    2  503  502 -0.20532995455E+03 -0.74673259186E+02 -0.78183978599E+03  0.81179427002E+03  0.00000000000E+00 0.  1.
          2    1    1    2  501    0  0.58617285048E+03  0.75213527298E+02 -0.13944720928E+03  0.60720771529E+03  0.00000000000E+00 0.  1.
<mgrwt>
<rscale>  4 0.72801451E+03</rscale>
<asrwt>0</asrwt>
<pdfrwt beam="1">  1       21 0.24663788E+00 0.72801451E+03</pdfrwt>
<pdfrwt beam="2">  1        2 0.52557038E-01 0.72801451E+03</pdfrwt>
<totfact> 0.62879612E+01</totfact>
</mgrwt>
</event>
<event>
 5    0  0.2396052E+000  0.3752084E+03  0.7546771E-02  0.1052719E+00
          3   -1    0    0  503    0 -0.00000000000E+00  0.00000000000E+00  0.91008162058E+03  0.91008162058E+03  0.00000000000E+00 0.  1.
         21   -1    0    0  501  502  0.00000000000E+00 -0.00000000000E+00 -0.15665127895E+03  0.15665127895E+03  0.00000000000E+00 0.  1.
         25    1    1    2    0    0 -0.12568080419E+03 -0.21906717579E+03  0.46097393475E+02  0.28554520086E+03  0.12500000000E+03 0.  0.
         21    1    1    2  503  502 -0.42846171764E+02  0.66537648147E+02  0.74180162601E+02  0.10847004001E+03  0.00000000000E+00 0. -1.
          3    1    1    2  501    0  0.16852697595E+03  0.15252952765E+03  0.63315278555E+03  0.67271765867E+03  0.00000000000E+00 0.  1.
<mgrwt>
<rscale>  4 0.37520837E+03</rscale>
<asrwt>0</asrwt>
<pdfrwt beam="1">  1       21 0.24100197E-01 0.37520837E+03</pdfrwt>
<pdfrwt beam="2">  1        3 0.14001255E+00 0.37520837E+03</pdfrwt>
<totfact> 0.31776659E+02</totfact>
</mgrwt>
</event>
<event>
 5    0  0.2396052E+000  0.4088353E+03  0.7546771E-02  0.1040763E+00
         21   -1    0    0  501  502  0.00000000000E+00  0.00000000000E+00  0.43210140020E+03  0.43210140020E+03  0.00000000000E+00 0. -1.
          2   -1    0    0  503    0 -0.00000000000E+00 -0.00000000000E+00 -0.18887469512E+03  0.18887469512E+03  0.00000000000E+00 0. -1.
         25    1    1    2    0    0  0.16307824377E+03 -0.15455545670E+03  0.18833153626E+03  0.31870938225E+03  0.12500000000E+03 0.  0.
         21    1    1    2  503  502 -0.11822533633E+03  0.94524272396E+02  0.12751202071E+03  0.19791761834E+03  0.00000000000E+00 0. -1.
          2    1    1    2  501    0 -0.44852907438E+02  0.60031184306E+02 -0.72616851886E+02  0.10434909474E+03  0.00000000000E+00 0. -1.
<mgrwt>
<rscale>  4 0.40883530E+03</rscale>
<asrwt>0</asrwt>
<pdfrwt beam="1">  1       21 0.66477138E-01 0.40883530E+03</pdfrwt>
<pdfrwt beam="2">  1        2 0.29057646E-01 0.40883530E+03</pdfrwt>
<totfact> 0.44236045E+03</totfact>
</mgrwt>
</event>
<event>
 5    0  0.2396052E+000  0.4072747E+03  0.7546771E-02  0.1041289E+00
          1   -1    0    0  503    0 -0.00000000000E+00  0.00000000000E+00  0.13658638030E+03  0.13658638030E+03  0.00000000000E+00 0. -1.
         21   -1    0    0  501  502  0.00000000000E+00 -0.00000000000E+00 -0.50598605277E+03  0.50598605277E+03  0.00000000000E+00 0. -1.
         25    1    1    2    0    0 -0.15569184348E+03 -0.13600265841E+03 -0.23302913620E+03  0.33565495906E+03  0.12500000000E+03 0.  0.
         21    1    1    2  503  502  0.11691152449E+03  0.11685322045E+03 -0.18075875484E+03  0.24494225266E+03  0.00000000000E+00 0. -1.
          1    1    1    2  501    0  0.38780318991E+02  0.19149437960E+02  0.44388218568E+02  0.61975221362E+02  0.00000000000E+00 0. -1.
<mgrwt>
<rscale>  4 0.40727473E+03</rscale>
<asrwt>0</asrwt>
<pdfrwt beam="1">  1       21 0.77844008E-01 0.40727473E+03</pdfrwt>
<pdfrwt beam="2">  1        1 0.21013289E-01 0.40727473E+03</pdfrwt>
<totfact> 0.35902458E+03</totfact>
</mgrwt>
</event>
<event>
 5    0  0.2396052E+000  0.6392369E+03  0.7546771E-02  0.9827188E-01
          2   -1    0    0  503    0 -0.00000000000E+00  0.00000000000E+00  0.13434164171E+04  0.13434164171E+04  0.00000000000E+00 0. -1.
         21   -1    0    0  501  502  0.00000000000E+00 -0.00000000000E+00 -0.24438643326E+04  0.24438643326E+04  0.00000000000E+00 0. -1.
         25    1    1    2    0    0 -0.81460138163E+02  0.29967362775E+03 -0.11781393028E+04  0.12247764098E+04  0.12500000000E+03 0.  0.
         21    1    1    2  503  502  0.29695300540E+03  0.63315755100E+02 -0.11890879905E+04  0.12272408979E+04  0.00000000000E+00 0. -1.
          2    1    1    2  501    0 -0.21549286724E+03 -0.36298938285E+03  0.12667793778E+04  0.13352634421E+04  0.00000000000E+00 0. -1.
<mgrwt>
<rscale>  4 0.63923690E+03</rscale>
<asrwt>0</asrwt>
<pdfrwt beam="1">  1       21 0.37597912E+00 0.63923690E+03</pdfrwt>
<pdfrwt beam="2">  1        2 0.20667945E+00 0.63923690E+03</pdfrwt>
<totfact> 0.17171308E+00</totfact>
</mgrwt>
</event>
<event>
 5    0  0.2396052E+000  0.3992895E+03  0.7546771E-02  0.1044026E+00
          1   -1    0    0  503    0 -0.00000000000E+00  0.00000000000E+00  0.82353532559E+03  0.82353532559E+03  0.00000000000E+00 0.  1.
         21   -1    0    0  501  502  0.00000000000E+00 -0.00000000000E+00 -0.14186030171E+03  0.14186030171E+03  0.00000000000E+00 0. -1.
         25    1    1    2    0    0  0.20104618698E+03  0.36338010564E+02  0.12590286717E+03  0.27058557292E+03  0.12500000000E+03 0.  0.
         21    1    1    2  503  502 -0.14710984902E+03 -0.40649674691E+02  0.17270453683E+02  0.15359678480E+03  0.00000000000E+00 0. -1.
          1    1    1    2  501    0 -0.53936337960E+02  0.43116641271E+01  0.53850170302E+03  0.54121326957E+03  0.00000000000E+00 0.  1.
<mgrwt>
<rscale>  4 0.39928946E+03</rscale>
<asrwt>0</asrwt>
<pdfrwt beam="1">  1       21 0.21824662E-01 0.39928946E+03</pdfrwt>
<pdfrwt beam="2">  1        1 0.12669774E+00 0.39928946E+03</pdfrwt>
<totfact> 0.45739665E+03</totfact>
</mgrwt>
</event>
<event>
 5    0  0.2396052E+000  0.3779712E+03  0.7546771E-02  0.1051686E+00
         21   -1    0    0  501  502  0.00000000000E+00  0.00000000000E+00  0.89669167883E+02  0.89669167883E+02  0.00000000000E+00 0. -1.
         -1   -1    0    0    0  501 -0.00000000000E+00 -0.00000000000E+00 -0.12594335093E+04  0.12594335093E+04  0.00000000000E+00 0.  1.
         25    1    1    2    0    0  0.55642156101E+02 -0.23173672345E+03 -0.17995546378E+03  0.32373898047E+03  0.12500000000E+03 0.  0.
         21    1    1    2  503  502 -0.49658677524E+02  0.68884821183E+02 -0.17620339329E+03  0.19559841167E+03  0.00000000000E+00 0.  1.
         -1    1    1    2    0  503 -0.59834785767E+01  0.16285190227E+03 -0.81360548432E+03  0.82976528501E+03  0.00000000000E+00 0.  1.
<mgrwt>
<rscale>  4 0.37797116E+03</rscale>
<asrwt>0</asrwt>
<pdfrwt beam="1">  1       21 0.13795257E-01 0.37797116E+03</pdfrwt>
<pdfrwt beam="2">  1       -1 0.19375900E+00 0.37797116E+03</pdfrwt>
<totfact> 0.75524567E+02</totfact>
</mgrwt>
</event>
<event>
 5    0  0.2396052E+000  0.3757240E+03  0.7546771E-02  0.1052526E+00
          1   -1    0    0  503    0 -0.00000000000E+00  0.00000000000E+00  0.88748170737E+03  0.88748170737E+03  0.00000000000E+00 0. -1.
         21   -1    0    0  501  502  0.00000000000E+00 -0.00000000000E+00 -0.14480728197E+03  0.14480728197E+03  0.00000000000E+00 0. -1.
         25    1    1    2    0    0  0.15892086485E+03 -0.15689210274E+03  0.35170988798E+03  0.43496645674E+03  0.12500000000E+03 0.  0.
         21    1    1    2  503  502  0.10180536166E+03  0.44048067342E+02  0.26358465532E+03  0.28597453456E+03  0.00000000000E+00 0.  1.
          1    1    1    2  501    0 -0.26072622651E+03  0.11284403540E+03  0.12737988210E+03  0.31134799804E+03  0.00000000000E+00 0. -1.
<mgrwt>
<rscale>  4 0.37572402E+03</rscale>
<asrwt>0</asrwt>
<pdfrwt beam="1">  1       21 0.22278044E-01 0.37572402E+03</pdfrwt>
<pdfrwt beam="2">  1        1 0.13653564E+00 0.37572402E+03</pdfrwt>
<totfact> 0.39162524E+03</totfact>
</mgrwt>
</event>
<event>
 5    0  0.2396052E+000  0.5530417E+03  0.7546771E-02  0.1000792E+00
         21   -1    0    0  501  502  0.00000000000E+00  0.00000000000E+00  0.13466941081E+03  0.13466941081E+03  0.00000000000E+00 0. -1.
          2   -1    0    0  503    0 -0.00000000000E+00 -0.00000000000E+00 -0.19932294787E+04  0.19932294787E+04  0.00000000000E+00 0. -1.
         25    1    1    2    0    0 -0.27178745765E+03  0.48047310888E+01 -0.12643973453E+03  0.32481304476E+03  0.12500000000E+03 0.  0.
         21    1    1    2  503  502  0.21606797150E+03 -0.36291750572E+02 -0.31045121784E+03  0.37997686526E+03  0.00000000000E+00 0. -1.
          2    1    1    2  501    0  0.55719486148E+02  0.31487019483E+02 -0.14216691155E+04  0.14231089795E+04  0.00000000000E+00 0. -1.
<mgrwt>
<rscale>  4 0.55304169E+03</rscale>
<asrwt>0</asrwt>
<pdfrwt beam="1">  1       21 0.20718372E-01 0.55304169E+03</pdfrwt>
<pdfrwt beam="2">  1        2 0.30665068E+00 0.55304169E+03</pdfrwt>
<totfact> 0.18491704E+03</totfact>
</mgrwt>
</event>
