<event>
 5    0  0.4025551E-002  0.6774003E+03  0.7546771E-02  0.9756681E-01
         -2   -1    0    0    0  501 -0.00000000000E+00  0.00000000000E+00  0.31689212723E+03  0.31689212723E+03  0.00000000000E+00 0. -1.
          2   -1    0    0  503    0  0.00000000000E+00 -0.00000000000E+00 -0.42305533408E+03  0.42305533408E+03  0.00000000000E+00 0.  1.
         25    1    1    2    0    0  0.90940554125E+02 -0.18252772795E+03  0.18815712254E+03  0.30432656574E+03  0.12500000000E+03 0.  0.
         21    1    1    2  502  501 -0.61549754761E+02  0.19368849249E+03 -0.33031522095E+03  0.38782953682E+03  0.00000000000E+00 0.  1.
         21    1    1    2  503  502 -0.29390799364E+02 -0.11160764541E+02  0.35994891564E+02  0.47791358750E+02  0.00000000000E+00 0. -1.
<mgrwt>
<rscale>  4 0.67740028E+03</rscale>
<asrwt>0</asrwt>
<pdfrwt beam="1">  1        2 0.65085435E-01 0.67740028E+03</pdfrwt>
<pdfrwt beam="2">  1       -2 0.48752635E-01 0.67740028E+03</pdfrwt>
<totfact> 0.30038123E+02</totfact>
</mgrwt>
</event>
<event>
 5    0  0.4025551E-002  0.4909087E+03  0.7546771E-02  0.1016179E+00
         -1   -1    0    0    0  501 -0.00000000000E+00  0.00000000000E+00  0.67926369873E+02  0.67926369873E+02  0.00000000000E+00 0.  1.
          1   -1    0    0  503    0  0.00000000000E+00 -0.00000000000E+00 -0.88695816688E+03  0.88695816688E+03  0.00000000000E+00 0. -1.
         25    1    1    2    0    0 -0.11482140818E+03 -0.16963532675E+03 -0.62432808401E+03  0.66885772503E+03  0.12500000000E+03 0.  0.
         21    1    1    2  502  501  0.96183530021E+02  0.15722930401E+03 -0.18642053593E+03  0.26215442339E+03  0.00000000000E+00 0.  1.
         21    1    1    2  503  502  0.18637878156E+02  0.12406022740E+02 -0.82831770766E+01  0.23872388336E+02  0.00000000000E+00 0. -1.
<mgrwt>
<rscale>  4 0.49090874E+03</rscale>
<asrwt>0</asrwt>
<pdfrwt beam="1">  1        1 0.13645511E+00 0.49090874E+03</pdfrwt>
<pdfrwt beam="2">  1       -1 0.10450210E-01 0.49090874E+03</pdfrwt>
<totfact> 0.11095208E+03</totfact>
</mgrwt>
</event>
<event>
 5    0  0.4025551E-002  0.6041400E+03  0.7546771E-02  0.9896854E-01
         -2   -1    0    0    0  501 -0.00000000000E+00  0.00000000000E+00  0.41816306282E+03  0.41816306282E+03  0.00000000000E+00 0. -1.
          2   -1    0    0  502    0  0.00000000000E+00 -0.00000000000E+00 -0.21820741923E+03  0.21820741923E+03  0.00000000000E+00 0.  1.
         25    1    1    2    0    0 -0.28484101808E+03 -0.96880833509E+01  0.13987789662E+03  0.34120241867E+03  0.12500000000E+03 0.  0.
         21    1    1    2  502  503  0.21880936297E+02 -0.35516769748E+01  0.17955009997E+02  0.28526692177E+02  0.00000000000E+00 0. -1.
         21    1    1    2  503  501  0.26296008179E+03  0.13239760326E+02  0.42122736969E+02  0.26664137120E+03  0.00000000000E+00 0.  1.
<mgrwt>
<rscale>  4 0.60413999E+03</rscale>
<asrwt>0</asrwt>
<pdfrwt beam="1">  1        2 0.33570372E-01 0.60413999E+03</pdfrwt>
<pdfrwt beam="2">  1       -2 0.64332779E-01 0.60413999E+03</pdfrwt>
<totfact> 0.35342399E+02</totfact>
</mgrwt>
</event>
<event>
 5    0  0.4025551E-002  0.5689130E+03  0.7546771E-02  0.9972087E-01
         -2   -1    0    0    0  501 -0.00000000000E+00  0.00000000000E+00  0.23598609763E+03  0.23598609763E+03  0.00000000000E+00 0. -1.
          2   -1    0    0  502    0  0.00000000000E+00 -0.00000000000E+00 -0.40793047873E+03  0.40793047873E+03  0.00000000000E+00 0.  1.
         25    1    1    2    0    0  0.20835877095E+03 -0.11949985181E+03  0.69687444358E+02  0.27959780384E+03  0.12500000000E+03 0.  0.
         21    1    1    2  502  503 -0.47033959525E+02  0.62596166026E+01  0.59943936190E+01  0.47825818378E+02  0.00000000000E+00 0. -1.
         21    1    1    2  503  501 -0.16132481142E+03  0.11324023521E+03 -0.24762621908E+03  0.31649295414E+03  0.00000000000E+00 0.  1.
<mgrwt>
<rscale>  4 0.56891298E+03</rscale>
<asrwt>0</asrwt>
<pdfrwt beam="1">  1        2 0.62758535E-01 0.56891298E+03</pdfrwt>
<pdfrwt beam="2">  1       -2 0.36305554E-01 0.56891298E+03</pdfrwt>
<totfact> 0.55977761E+02</totfact>
</mgrwt>
</event>
<event>
 5    0  0.4025551E-002  0.4747116E+03  0.7546771E-02  0.1020599E+00
         -3   -1    0    0    0  501 -0.00000000000E+00  0.00000000000E+00  0.80163829323E+02  0.80163829323E+02  0.00000000000E+00 0. -1.
          3   -1    0    0  503    0  0.00000000000E+00 -0.00000000000E+00 -0.11110365462E+04  0.11110365462E+04  0.00000000000E+00 0.  1.
         25    1    1    2    0    0 -0.80234925563E+01 -0.21242937344E+03 -0.29075510801E+03  0.38125339076E+03  0.12500000000E+03 0.  0.
         21    1    1    2  502  501  0.93381918672E+02  0.14831138111E+03 -0.64009041046E+03  0.66365064761E+03  0.00000000000E+00 0.  1.
         21    1    1    2  503  502 -0.85358426115E+02  0.64117992329E+02 -0.10002719844E+03  0.14629633720E+03  0.00000000000E+00 0. -1.
<mgrwt>
<rscale>  4 0.47471157E+03</rscale>
<asrwt>0</asrwt>
<pdfrwt beam="1">  1        3 0.17092868E+00 0.47471157E+03</pdfrwt>
<pdfrwt beam="2">  1       -3 0.12332898E-01 0.47471157E+03</pdfrwt>
<totfact> 0.32412930E+01</totfact>
</mgrwt>
</event>
<event>
 5    0  0.4025551E-002  0.9372678E+03  0.7546771E-02  0.9380158E-01
         -1   -1    0    0    0  501 -0.00000000000E+00  0.00000000000E+00  0.37998082234E+03  0.37998082234E+03  0.00000000000E+00 0.  1.
          1   -1    0    0  503    0  0.00000000000E+00 -0.00000000000E+00 -0.57797058764E+03  0.57797058764E+03  0.00000000000E+00 0. -1.
         25    1    1    2    0    0 -0.22038848973E+03 -0.27008897760E+03 -0.39755360934E+03  0.54331667978E+03  0.12500000000E+03 0.  0.
         21    1    1    2  502  501  0.19440020145E+03  0.21507157123E+03  0.11830257997E+03  0.31311774065E+03  0.00000000000E+00 0.  1.
         21    1    1    2  503  502  0.25988288280E+02  0.55017406361E+02  0.81261264071E+02  0.10151698956E+03  0.00000000000E+00 0.  1.
<mgrwt>
<rscale>  4 0.93726781E+03</rscale>
<asrwt>0</asrwt>
<pdfrwt beam="1">  1        1 0.88918552E-01 0.93726781E+03</pdfrwt>
<pdfrwt beam="2">  1       -1 0.58458588E-01 0.93726781E+03</pdfrwt>
<totfact> 0.10783791E+02</totfact>
</mgrwt>
</event>
<event>
 5    0  0.4025551E-002  0.6040152E+03  0.7546771E-02  0.9897111E-01
          2   -1    0    0  503    0  0.00000000000E+00  0.00000000000E+00  0.13661552500E+04  0.13661552500E+04  0.00000000000E+00 0.  1.
         -2   -1    0    0    0  501 -0.00000000000E+00 -0.00000000000E+00 -0.10756009373E+03  0.10756009373E+03  0.00000000000E+00 0. -1.
         25    1    1    2    0    0 -0.23159073298E+03 -0.18222748228E+03  0.66554779355E+03  0.73852555027E+03  0.12500000000E+03 0.  0.
         21    1    1    2  502  501  0.24227958859E+03  0.14760474797E+03  0.62531964918E+03  0.68666674910E+03  0.00000000000E+00 0. -1.
         21    1    1    2  503  502 -0.10688855610E+02  0.34622734312E+02 -0.32272286427E+02  0.48523044388E+02  0.00000000000E+00 0. -1.
<mgrwt>
<rscale>  4 0.60401518E+03</rscale>
<asrwt>0</asrwt>
<pdfrwt beam="1">  1        2 0.21017772E+00 0.60401518E+03</pdfrwt>
<pdfrwt beam="2">  1       -2 0.16547708E-01 0.60401518E+03</pdfrwt>
<totfact> 0.45699956E+02</totfact>
</mgrwt>
</event>
<event>
 5    0  0.4025551E-002  0.5226956E+03  0.7546771E-02  0.1008019E+00
          2   -1    0    0  503    0  0.00000000000E+00  0.00000000000E+00  0.22191677026E+03  0.22191677026E+03  0.00000000000E+00 0. -1.
         -2   -1    0    0    0  501 -0.00000000000E+00 -0.00000000000E+00 -0.30778506116E+03  0.30778506116E+03  0.00000000000E+00 0.  1.
         25    1    1    2    0    0  0.17664658358E+03 -0.14360160000E+03 -0.48276561790E+01  0.25975708128E+03  0.12500000000E+03 0.  0.
         21    1    1    2  502  501 -0.79349904076E+02  0.13021812858E+03 -0.18736454254E+02  0.15363665905E+03  0.00000000000E+00 0.  1.
         21    1    1    2  503  502 -0.97296679504E+02  0.13383471419E+02 -0.62304180463E+02  0.11630809109E+03  0.00000000000E+00 0.  1.
<mgrwt>
<rscale>  4 0.52269558E+03</rscale>
<asrwt>0</asrwt>
<pdfrwt beam="1">  1        2 0.34141041E-01 0.52269558E+03</pdfrwt>
<pdfrwt beam="2">  1       -2 0.47351548E-01 0.52269558E+03</pdfrwt>
<totfact> 0.65417653E+02</totfact>
</mgrwt>
</event>
<event>
 5    0  0.4025551E-002  0.5662156E+03  0.7546771E-02  0.9978088E-01
          1   -1    0    0  502    0  0.00000000000E+00  0.00000000000E+00  0.23024573130E+04  0.23024573130E+04  0.00000000000E+00 0. -1.
         -1   -1    0    0    0  501 -0.00000000000E+00 -0.00000000000E+00 -0.44322999963E+02  0.44322999963E+02  0.00000000000E+00 0.  1.
         25    1    1    2    0    0  0.11660642159E+03  0.22490621990E+03  0.16037826852E+04  0.16284728326E+04  0.12500000000E+03 0.  0.
         21    1    1    2  502  503  0.35993528997E+02 -0.42513807222E+02  0.89265920923E+02  0.10522054254E+03  0.00000000000E+00 0. -1.
         21    1    1    2  503  501 -0.15259995059E+03 -0.18239241268E+03  0.56508570696E+03  0.61308693782E+03  0.00000000000E+00 0.  1.
<mgrwt>
<rscale>  4 0.56621560E+03</rscale>
<asrwt>0</asrwt>
<pdfrwt beam="1">  1        1 0.35422411E+00 0.56621560E+03</pdfrwt>
<pdfrwt beam="2">  1       -1 0.68189249E-02 0.56621560E+03</pdfrwt>
<totfact> 0.22516384E+02</totfact>
</mgrwt>
</event>
<event>
 5    0  0.4025551E-002  0.4787549E+03  0.7546771E-02  0.1019478E+00
          2   -1    0    0  503    0  0.00000000000E+00  0.00000000000E+00  0.27799928817E+04  0.27799928817E+04  0.00000000000E+00 0.  1.
         -2   -1    0    0    0  501 -0.00000000000E+00 -0.00000000000E+00 -0.37615533276E+02  0.37615533276E+02  0.00000000000E+00 0. -1.
         25    1    1    2    0    0 -0.58890002890E+02 -0.20710778963E+03  0.22051999179E+04  0.22192100728E+04  0.12500000000E+03 0.  0.
         21    1    1    2  502  501  0.52703767031E+02  0.16453766183E+03  0.52643294571E+03  0.55405954152E+03  0.00000000000E+00 0. -1.
         21    1    1    2  503  502  0.61862358594E+01  0.42570127796E+02  0.10744484783E+02  0.44338800704E+02  0.00000000000E+00 0. -1.
<mgrwt>
<rscale>  4 0.47875490E+03</rscale>
<asrwt>0</asrwt>
<pdfrwt beam="1">  1        2 0.42769105E+00 0.47875490E+03</pdfrwt>
<pdfrwt beam="2">  1       -2 0.57870073E-02 0.47875490E+03</pdfrwt>
<totfact> 0.42182016E+02</totfact>
</mgrwt>
</event>
<event>
 5    0  0.4025551E-002  0.7973680E+03  0.7546771E-02  0.9563835E-01
         -2   -1    0    0    0  501 -0.00000000000E+00  0.00000000000E+00  0.46940843957E+03  0.46940843957E+03  0.00000000000E+00 0. -1.
          2   -1    0    0  503    0  0.00000000000E+00 -0.00000000000E+00 -0.44016469808E+03  0.44016469808E+03  0.00000000000E+00 0.  1.
         25    1    1    2    0    0  0.17245845632E+03  0.15892229676E+03 -0.33286405558E+03  0.42593625704E+03  0.12500000000E+03 0.  0.
         21    1    1    2  502  501 -0.21597097706E+03 -0.15799247315E+03  0.26209646336E+03  0.37456593627E+03  0.00000000000E+00 0. -1.
         21    1    1    2  503  502  0.43512520735E+02 -0.92982360794E+00  0.10001133370E+03  0.10907094435E+03  0.00000000000E+00 0. -1.
<mgrwt>
<rscale>  4 0.79736799E+03</rscale>
<asrwt>0</asrwt>
<pdfrwt beam="1">  1        2 0.67717646E-01 0.79736799E+03</pdfrwt>
<pdfrwt beam="2">  1       -2 0.72216683E-01 0.79736799E+03</pdfrwt>
<totfact> 0.12485392E+02</totfact>
</mgrwt>
</event>
<event>
 5    0  0.4025551E-002  0.5752950E+03  0.7546771E-02  0.9958030E-01
         -1   -1    0    0    0  501 -0.00000000000E+00  0.00000000000E+00  0.59805155230E+03  0.59805155230E+03  0.00000000000E+00 0. -1.
          1   -1    0    0  503    0  0.00000000000E+00 -0.00000000000E+00 -0.58408942653E+03  0.58408942653E+03  0.00000000000E+00 0.  1.
         25    1    1    2    0    0  0.48740912338E+02 -0.24794722065E+03 -0.32339302621E+03  0.42902395057E+03  0.12500000000E+03 0.  0.
         21    1    1    2  502  501 -0.68483220975E+02  0.26293178812E+03 -0.11861993751E+03  0.29646882861E+03  0.00000000000E+00 0.  1.
         21    1    1    2  503  502  0.19742308637E+02 -0.14984567473E+02  0.45597508949E+03  0.45664819965E+03  0.00000000000E+00 0. -1.
<mgrwt>
<rscale>  4 0.57529498E+03</rscale>
<asrwt>0</asrwt>
<pdfrwt beam="1">  1        1 0.89859911E-01 0.57529498E+03</pdfrwt>
<pdfrwt beam="2">  1       -1 0.92007932E-01 0.57529498E+03</pdfrwt>
<totfact> 0.42643424E+01</totfact>
</mgrwt>
</event>
<event>
 5    0  0.4025551E-002  0.5628332E+03  0.7546771E-02  0.9985664E-01
          1   -1    0    0  503    0  0.00000000000E+00  0.00000000000E+00  0.16644028002E+04  0.16644028002E+04  0.00000000000E+00 0. -1.
         -1   -1    0    0    0  501 -0.00000000000E+00 -0.00000000000E+00 -0.47581818520E+02  0.47581818520E+02  0.00000000000E+00 0.  1.
         25    1    1    2    0    0 -0.16044315042E+03  0.19912147032E+03  0.10168227511E+04  0.10559094997E+04  0.12500000000E+03 0.  0.
         21    1    1    2  502  501  0.60567140968E+02 -0.11907314522E+03  0.36161531210E+03  0.38550282285E+03  0.00000000000E+00 0. -1.
         21    1    1    2  503  502  0.99876009451E+02 -0.80048325105E+02  0.23838291844E+03  0.27057229611E+03  0.00000000000E+00 0.  1.
<mgrwt>
<rscale>  4 0.56283323E+03</rscale>
<asrwt>0</asrwt>
<pdfrwt beam="1">  1        1 0.25606193E+00 0.56283323E+03</pdfrwt>
<pdfrwt beam="2">  1       -1 0.73202810E-02 0.56283323E+03</pdfrwt>
<totfact> 0.53636628E+02</totfact>
</mgrwt>
</event>
<event>
 5    0  0.4025551E-002  0.1055730E+04  0.7546771E-02  0.9249448E-01
         -2   -1    0    0    0  501 -0.00000000000E+00  0.00000000000E+00  0.12639227125E+03  0.12639227125E+03  0.00000000000E+00 0. -1.
          2   -1    0    0  503    0  0.00000000000E+00 -0.00000000000E+00 -0.27207586375E+04  0.27207586375E+04  0.00000000000E+00 0.  1.
         25    1    1    2    0    0 -0.18274549007E+03  0.48139148960E+03 -0.18196899814E+04  0.18952652344E+04  0.12500000000E+03 0.  0.
         21    1    1    2  502  501  0.13919491263E+03 -0.44635434848E+03 -0.76288095145E+03  0.89475961811E+03  0.00000000000E+00 0. -1.
         21    1    1    2  503  502  0.43550577433E+02 -0.35037141123E+02 -0.11795433427E+02  0.57126056248E+02  0.00000000000E+00 0. -1.
<mgrwt>
<rscale>  4 0.10557301E+04</rscale>
<asrwt>0</asrwt>
<pdfrwt beam="1">  1        2 0.41857823E+00 0.10557301E+04</pdfrwt>
<pdfrwt beam="2">  1       -2 0.19444966E-01 0.10557301E+04</pdfrwt>
<totfact> 0.58491287E+01</totfact>
</mgrwt>
</event>
<event>
 5    0  0.4025551E-002  0.4551905E+03  0.7546771E-02  0.1026185E+00
          2   -1    0    0  502    0  0.00000000000E+00  0.00000000000E+00  0.38923539345E+03  0.38923539345E+03  0.00000000000E+00 0. -1.
         -2   -1    0    0    0  501 -0.00000000000E+00 -0.00000000000E+00 -0.18240875907E+03  0.18240875907E+03  0.00000000000E+00 0.  1.
         25    1    1    2    0    0  0.91683317925E+02  0.19260361797E+03  0.21188560437E+03  0.32561095464E+03  0.12500000000E+03 0.  0.
         21    1    1    2  502  503 -0.11051825610E+02 -0.19825949362E+02 -0.45751943207E+02  0.51073000936E+02  0.00000000000E+00 0.  1.
         21    1    1    2  503  501 -0.80631492315E+02 -0.17277766861E+03  0.40692973218E+02  0.19496019694E+03  0.00000000000E+00 0.  1.
<mgrwt>
<rscale>  4 0.45519049E+03</rscale>
<asrwt>0</asrwt>
<pdfrwt beam="1">  1        2 0.59882368E-01 0.45519049E+03</pdfrwt>
<pdfrwt beam="2">  1       -2 0.28062886E-01 0.45519049E+03</pdfrwt>
<totfact> 0.95393786E+02</totfact>
</mgrwt>
</event>
<event>
 5    0  0.4025551E-002  0.4922019E+03  0.7546771E-02  0.1015835E+00
          1   -1    0    0  503    0  0.00000000000E+00  0.00000000000E+00  0.33787249000E+03  0.33787249000E+03  0.00000000000E+00 0. -1.
         -1   -1    0    0    0  501 -0.00000000000E+00 -0.00000000000E+00 -0.31046278462E+03  0.31046278462E+03  0.00000000000E+00 0.  1.
         25    1    1    2    0    0 -0.16626904007E+03  0.11311579425E+03 -0.17380063805E+03  0.29372136180E+03  0.12500000000E+03 0.  0.
         21    1    1    2  502  501 -0.21453877323E+02 -0.45062286654E+02  0.13550457343E+03  0.14440349009E+03  0.00000000000E+00 0. -1.
         21    1    1    2  503  502  0.18772291739E+03 -0.68053507594E+02  0.65705769998E+02  0.21021042272E+03  0.00000000000E+00 0.  1.
<mgrwt>
<rscale>  4 0.49220193E+03</rscale>
<asrwt>0</asrwt>
<pdfrwt beam="1">  1        1 0.51980383E-01 0.49220193E+03</pdfrwt>
<pdfrwt beam="2">  1       -1 0.47763505E-01 0.49220193E+03</pdfrwt>
<totfact> 0.33498791E+02</totfact>
</mgrwt>
</event>
<event>
 5    0  0.4025551E-002  0.5386241E+03  0.7546771E-02  0.1004162E+00
          2   -1    0    0  502    0  0.00000000000E+00  0.00000000000E+00  0.30718757818E+03  0.30718757818E+03  0.00000000000E+00 0. -1.
         -2   -1    0    0    0  501 -0.00000000000E+00 -0.00000000000E+00 -0.36711780779E+03  0.36711780779E+03  0.00000000000E+00 0.  1.
         25    1    1    2    0    0 -0.30787765317E+02  0.21409081534E+03  0.10660555943E+02  0.25004281865E+03  0.12500000000E+03 0.  0.
         21    1    1    2  502  503 -0.96630806226E+02  0.24000457485E+02  0.68157699114E+02  0.12066070868E+03  0.00000000000E+00 0. -1.
         21    1    1    2  503  501  0.12741857154E+03 -0.23809127282E+03 -0.13874848467E+03  0.30360185864E+03  0.00000000000E+00 0.  1.
<mgrwt>
<rscale>  4 0.53862409E+03</rscale>
<asrwt>0</asrwt>
<pdfrwt beam="1">  1        2 0.47259628E-01 0.53862409E+03</pdfrwt>
<pdfrwt beam="2">  1       -2 0.56479662E-01 0.53862409E+03</pdfrwt>
<totfact> 0.31866669E+02</totfact>
</mgrwt>
</event>
<event>
 5    0  0.4025551E-002  0.4955256E+03  0.7546771E-02  0.1014953E+00
         -1   -1    0    0    0  501 -0.00000000000E+00  0.00000000000E+00  0.36614145745E+03  0.36614145745E+03  0.00000000000E+00 0. -1.
          1   -1    0    0  503    0  0.00000000000E+00 -0.00000000000E+00 -0.19523757485E+03  0.19523757485E+03  0.00000000000E+00 0.  1.
         25    1    1    2    0    0  0.23471957646E+03  0.37207305175E+02  0.25413540399E+02  0.26971931923E+03  0.12500000000E+03 0.  0.
         21    1    1    2  502  501 -0.21742549799E+03 -0.10006494466E+02  0.11054663709E+03  0.24411992152E+03  0.00000000000E+00 0. -1.
         21    1    1    2  503  502 -0.17294078467E+02 -0.27200810709E+02  0.34943705110E+02  0.47539791544E+02  0.00000000000E+00 0. -1.
<mgrwt>
<rscale>  4 0.49552557E+03</rscale>
<asrwt>0</asrwt>
<pdfrwt beam="1">  1        1 0.30036550E-01 0.49552557E+03</pdfrwt>
<pdfrwt beam="2">  1       -1 0.56329455E-01 0.49552557E+03</pdfrwt>
<totfact> 0.49568211E+02</totfact>
</mgrwt>
</event>
<event>
 5    0  0.4025551E-002  0.6426671E+03  0.7546771E-02  0.9820637E-01
         -1   -1    0    0    0  501 -0.00000000000E+00  0.00000000000E+00  0.13092210458E+03  0.13092210458E+03  0.00000000000E+00 0. -1.
          1   -1    0    0  502    0  0.00000000000E+00 -0.00000000000E+00 -0.12671719306E+04  0.12671719306E+04  0.00000000000E+00 0.  1.
         25    1    1    2    0    0  0.47414838660E+02 -0.21776201099E+03 -0.13750899945E+03  0.29017612804E+03  0.12500000000E+03 0.  0.
         21    1    1    2  502  503 -0.13554864527E+01  0.61362574868E+02  0.28604465102E+02  0.67715717243E+02  0.00000000000E+00 0.  1.
         21    1    1    2  503  501 -0.46059352208E+02  0.15639943612E+03 -0.10273452917E+04  0.10402021899E+04  0.00000000000E+00 0.  1.
<mgrwt>
<rscale>  4 0.64266706E+03</rscale>
<asrwt>0</asrwt>
<pdfrwt beam="1">  1        1 0.19494953E+00 0.64266706E+03</pdfrwt>
<pdfrwt beam="2">  1       -1 0.20141862E-01 0.64266706E+03</pdfrwt>
<totfact> 0.19761817E+02</totfact>
</mgrwt>
</event>
<event>
 5    0  0.4025551E-002  0.5156890E+03  0.7546771E-02  0.1009763E+00
         -3   -1    0    0    0  501 -0.00000000000E+00  0.00000000000E+00  0.10369519238E+03  0.10369519238E+03  0.00000000000E+00 0. -1.
          3   -1    0    0  503    0  0.00000000000E+00 -0.00000000000E+00 -0.95824033559E+03  0.95824033559E+03  0.00000000000E+00 0.  1.
         25    1    1    2    0    0 -0.77141829773E+02  0.21142384606E+03 -0.34202718958E+03  0.42808702736E+03  0.12500000000E+03 0.  0.
         21    1    1    2  502  501  0.50279333217E+02 -0.24212564400E+03 -0.53346180158E+03  0.58799177934E+03  0.00000000000E+00 0.  1.
         21    1    1    2  503  502  0.26862496556E+02  0.30701797935E+02  0.20943847950E+02  0.45856721259E+02  0.00000000000E+00 0. -1.
<mgrwt>
<rscale>  4 0.51568902E+03</rscale>
<asrwt>0</asrwt>
<pdfrwt beam="1">  1        3 0.14742159E+00 0.51568902E+03</pdfrwt>
<pdfrwt beam="2">  1       -3 0.15953106E-01 0.51568902E+03</pdfrwt>
<totfact> 0.30551418E+01</totfact>
</mgrwt>
</event>
<event>
 5    0  0.4025551E-002  0.5295832E+03  0.7546771E-02  0.1006333E+00
          2   -1    0    0  503    0  0.00000000000E+00  0.00000000000E+00  0.39969240631E+03  0.39969240631E+03  0.00000000000E+00 0. -1.
         -2   -1    0    0    0  501 -0.00000000000E+00 -0.00000000000E+00 -0.23862048111E+03  0.23862048111E+03  0.00000000000E+00 0.  1.
         25    1    1    2    0    0 -0.20530350563E+03 -0.18929589957E+02  0.29418255682E+03  0.38036329415E+03  0.12500000000E+03 0.  0.
         21    1    1    2  502  501  0.17462472667E+03  0.27838540059E+02 -0.75914238328E+02  0.19243635587E+03  0.00000000000E+00 0. -1.
         21    1    1    2  503  502  0.30678778958E+02 -0.89089501021E+01 -0.57196393286E+02  0.65513237405E+02  0.00000000000E+00 0. -1.
<mgrwt>
<rscale>  4 0.52958321E+03</rscale>
<asrwt>0</asrwt>
<pdfrwt beam="1">  1        2 0.61491139E-01 0.52958321E+03</pdfrwt>
<pdfrwt beam="2">  1       -2 0.36710843E-01 0.52958321E+03</pdfrwt>
<totfact> 0.56105061E+02</totfact>
</mgrwt>
</event>
<event>
 5    0  0.4025551E-002  0.6400516E+03  0.7546771E-02  0.9825628E-01
         -1   -1    0    0    0  501 -0.00000000000E+00  0.00000000000E+00  0.56198194218E+03  0.56198194218E+03  0.00000000000E+00 0. -1.
          1   -1    0    0  502    0  0.00000000000E+00 -0.00000000000E+00 -0.20125880365E+03  0.20125880365E+03  0.00000000000E+00 0.  1.
         25    1    1    2    0    0  0.22575802695E+03  0.27743007688E+02  0.40758060826E+03  0.48320111076E+03  0.12500000000E+03 0.  0.
         21    1    1    2  502  503 -0.62071040477E+01 -0.27279867462E+02  0.35807759321E+02  0.45441335115E+02  0.00000000000E+00 0. -1.
         21    1    1    2  503  501 -0.21955092290E+03 -0.46314022585E+00 -0.82665229049E+02  0.23459829995E+03  0.00000000000E+00 0.  1.
<mgrwt>
<rscale>  4 0.64005155E+03</rscale>
<asrwt>0</asrwt>
<pdfrwt beam="1">  1        1 0.30962893E-01 0.64005155E+03</pdfrwt>
<pdfrwt beam="2">  1       -1 0.86458760E-01 0.64005155E+03</pdfrwt>
<totfact> 0.19800746E+02</totfact>
</mgrwt>
</event>
<event>
 5    0  0.4025551E-002  0.4655295E+03  0.7546771E-02  0.1023190E+00
         -1   -1    0    0    0  501 -0.00000000000E+00  0.00000000000E+00  0.25769312893E+03  0.25769312893E+03  0.00000000000E+00 0. -1.
          1   -1    0    0  502    0  0.00000000000E+00 -0.00000000000E+00 -0.44357646248E+03  0.44357646248E+03  0.00000000000E+00 0.  1.
         25    1    1    2    0    0  0.12787699399E+03  0.17220092162E+03 -0.27406887874E+02  0.24976352917E+03  0.12500000000E+03 0.  0.
         21    1    1    2  502  503 -0.34984954528E+01 -0.10716938644E+03  0.10683042980E+03  0.15136134775E+03  0.00000000000E+00 0. -1.
         21    1    1    2  503  501 -0.12437849854E+03 -0.65031535184E+02 -0.26530687548E+03  0.30014471450E+03  0.00000000000E+00 0.  1.
<mgrwt>
<rscale>  4 0.46552951E+03</rscale>
<asrwt>0</asrwt>
<pdfrwt beam="1">  1        1 0.68242532E-01 0.46552951E+03</pdfrwt>
<pdfrwt beam="2">  1       -1 0.39645097E-01 0.46552951E+03</pdfrwt>
<totfact> 0.33045991E+02</totfact>
</mgrwt>
</event>
<event>
 5    0  0.4025551E-002  0.8174692E+03  0.7546771E-02  0.9535070E-01
         -2   -1    0    0    0  501 -0.00000000000E+00  0.00000000000E+00  0.12057584050E+04  0.12057584050E+04  0.00000000000E+00 0.  1.
          2   -1    0    0  502    0  0.00000000000E+00 -0.00000000000E+00 -0.23599440367E+03  0.23599440367E+03  0.00000000000E+00 0. -1.
         25    1    1    2    0    0 -0.87172171696E+02  0.41288827220E+03  0.37228018171E+03  0.57644882386E+03  0.12500000000E+03 0.  0.
         21    1    1    2  502  503 -0.11637466225E+02 -0.70742477340E+02  0.48726367328E+03  0.49250971160E+03  0.00000000000E+00 0.  1.
         21    1    1    2  503  501  0.98809637921E+02 -0.34214579486E+03  0.11022014634E+03  0.37279427322E+03  0.00000000000E+00 0. -1.
<mgrwt>
<rscale>  4 0.81746920E+03</rscale>
<asrwt>0</asrwt>
<pdfrwt beam="1">  1        2 0.36306832E-01 0.81746920E+03</pdfrwt>
<pdfrwt beam="2">  1       -2 0.18550129E+00 0.81746920E+03</pdfrwt>
<totfact> 0.24095196E+01</totfact>
</mgrwt>
</event>
<event>
 5    0  0.4025551E-002  0.6718205E+03  0.7546771E-02  0.9766675E-01
         -2   -1    0    0    0  501 -0.00000000000E+00  0.00000000000E+00  0.18697861401E+03  0.18697861401E+03  0.00000000000E+00 0.  1.
          2   -1    0    0  503    0  0.00000000000E+00 -0.00000000000E+00 -0.10062365626E+04  0.10062365626E+04  0.00000000000E+00 0. -1.
         25    1    1    2    0    0  0.82945875686E+02  0.29040296463E+03 -0.30911906543E+03  0.44988164752E+03  0.12500000000E+03 0.  0.
         21    1    1    2  502  501 -0.79355864369E+02 -0.31399683798E+03 -0.58286016391E+03  0.66679632434E+03  0.00000000000E+00 0. -1.
         21    1    1    2  503  502 -0.35900113164E+01  0.23593873352E+02  0.72721280744E+02  0.76537204770E+02  0.00000000000E+00 0.  1.
<mgrwt>
<rscale>  4 0.67182047E+03</rscale>
<asrwt>0</asrwt>
<pdfrwt beam="1">  1        2 0.15480562E+00 0.67182047E+03</pdfrwt>
<pdfrwt beam="2">  1       -2 0.28765941E-01 0.67182047E+03</pdfrwt>
<totfact> 0.28013460E+02</totfact>
</mgrwt>
</event>
<event>
 5    0  0.4025551E-002  0.5360496E+03  0.7546771E-02  0.1004775E+00
          1   -1    0    0  502    0  0.00000000000E+00  0.00000000000E+00  0.94974739066E+03  0.94974739066E+03  0.00000000000E+00 0. -1.
         -1   -1    0    0    0  501 -0.00000000000E+00 -0.00000000000E+00 -0.75638318063E+02  0.75638318063E+02  0.00000000000E+00 0.  1.
         25    1    1    2    0    0 -0.17382904724E+03  0.16737503058E+03  0.57160264115E+03  0.63291825531E+03  0.12500000000E+03 0.  0.
         21    1    1    2  502  503  0.84992712804E+01 -0.19775245082E+02  0.61148049353E+01  0.22376075835E+02  0.00000000000E+00 0. -1.
         21    1    1    2  503  501  0.16532977596E+03 -0.14759978550E+03  0.29639162650E+03  0.37009137758E+03  0.00000000000E+00 0.  1.
<mgrwt>
<rscale>  4 0.53604961E+03</rscale>
<asrwt>0</asrwt>
<pdfrwt beam="1">  1        1 0.14611497E+00 0.53604961E+03</pdfrwt>
<pdfrwt beam="2">  1       -1 0.11636665E-01 0.53604961E+03</pdfrwt>
<totfact> 0.83305966E+02</totfact>
</mgrwt>
</event>
<event>
 5    0  0.4025551E-002  0.1075369E+04  0.7546771E-02  0.9229537E-01
         -2   -1    0    0    0  501 -0.00000000000E+00  0.00000000000E+00  0.20888680190E+03  0.20888680190E+03  0.00000000000E+00 0. -1.
          2   -1    0    0  503    0  0.00000000000E+00 -0.00000000000E+00 -0.18815294723E+04  0.18815294723E+04  0.00000000000E+00 0.  1.
         25    1    1    2    0    0  0.35776299939E+03  0.35586018645E+03 -0.87022665543E+03  0.10136815416E+04  0.12500000000E+03 0.  0.
         21    1    1    2  502  501  0.95819284629E+02 -0.11098945545E+03 -0.38980996469E+03  0.41647545317E+03  0.00000000000E+00 0.  1.
         21    1    1    2  503  502 -0.45358228401E+03 -0.24487073100E+03 -0.41260605024E+03  0.66025927935E+03  0.00000000000E+00 0. -1.
<mgrwt>
<rscale>  4 0.10753688E+04</rscale>
<asrwt>0</asrwt>
<pdfrwt beam="1">  1        2 0.28946607E+00 0.10753688E+04</pdfrwt>
<pdfrwt beam="2">  1       -2 0.32136431E-01 0.10753688E+04</pdfrwt>
<totfact> 0.69781126E+01</totfact>
</mgrwt>
</event>
<event>
 5    0  0.4025551E-002  0.6548494E+03  0.7546771E-02  0.9797722E-01
          2   -1    0    0  503    0  0.00000000000E+00  0.00000000000E+00  0.64975633584E+03  0.64975633584E+03  0.00000000000E+00 0.  1.
         -2   -1    0    0    0  501 -0.00000000000E+00 -0.00000000000E+00 -0.18574277152E+03  0.18574277152E+03  0.00000000000E+00 0. -1.
         25    1    1    2    0    0 -0.18891549197E+03  0.24046238318E+03  0.36405513408E+03  0.49160183226E+03  0.12500000000E+03 0.  0.
         21    1    1    2  502  501  0.20232861981E+03 -0.21684756348E+03  0.10790579971E+03  0.31560005988E+03  0.00000000000E+00 0. -1.
         21    1    1    2  503  502 -0.13413127843E+02 -0.23614819702E+02 -0.79473694640E+01  0.28297215224E+02  0.00000000000E+00 0. -1.
<mgrwt>
<rscale>  4 0.65484943E+03</rscale>
<asrwt>0</asrwt>
<pdfrwt beam="1">  1        2 0.99962512E-01 0.65484943E+03</pdfrwt>
<pdfrwt beam="2">  1       -2 0.28575811E-01 0.65484943E+03</pdfrwt>
<totfact> 0.50844189E+02</totfact>
</mgrwt>
</event>
<event>
 5    0  0.4025551E-002  0.4938531E+03  0.7546771E-02  0.1015396E+00
         -1   -1    0    0    0  501 -0.00000000000E+00  0.00000000000E+00  0.69513279724E+02  0.69513279724E+02  0.00000000000E+00 0.  1.
          1   -1    0    0  503    0  0.00000000000E+00 -0.00000000000E+00 -0.87713782097E+03  0.87713782097E+03  0.00000000000E+00 0. -1.
         25    1    1    2    0    0  0.12316503513E+02 -0.21801835423E+03 -0.56432853965E+03  0.61787976152E+03  0.12500000000E+03 0.  0.
         21    1    1    2  502  501 -0.20129621523E+02  0.18695866264E+03 -0.21846357622E+03  0.28824482187E+03  0.00000000000E+00 0.  1.
         21    1    1    2  503  502  0.78131180095E+01  0.31059691592E+02 -0.24832425378E+02  0.40526517306E+02  0.00000000000E+00 0.  1.
<mgrwt>
<rscale>  4 0.49385312E+03</rscale>
<asrwt>0</asrwt>
<pdfrwt beam="1">  1        1 0.13494428E+00 0.49385312E+03</pdfrwt>
<pdfrwt beam="2">  1       -1 0.10694351E-01 0.49385312E+03</pdfrwt>
<totfact> 0.10896042E+03</totfact>
</mgrwt>
</event>
<event>
 5    0  0.4025551E-002  0.5775119E+03  0.7546771E-02  0.9953192E-01
         -1   -1    0    0    0  501 -0.00000000000E+00  0.00000000000E+00  0.10244781003E+03  0.10244781003E+03  0.00000000000E+00 0.  1.
          1   -1    0    0  503    0  0.00000000000E+00 -0.00000000000E+00 -0.16658602266E+04  0.16658602266E+04  0.00000000000E+00 0. -1.
         25    1    1    2    0    0 -0.15495981784E+03 -0.24695961292E+03 -0.84929482051E+03  0.90660260738E+03  0.12500000000E+03 0.  0.
         21    1    1    2  502  501  0.15101437409E+03  0.21139535867E+03 -0.76019746143E+03  0.80336387722E+03  0.00000000000E+00 0.  1.
         21    1    1    2  503  502  0.39454437504E+01  0.35564254252E+02  0.46079865344E+02  0.58341552062E+02  0.00000000000E+00 0.  1.
<mgrwt>
<rscale>  4 0.57751188E+03</rscale>
<asrwt>0</asrwt>
<pdfrwt beam="1">  1        1 0.25628618E+00 0.57751188E+03</pdfrwt>
<pdfrwt beam="2">  1       -1 0.15761202E-01 0.57751188E+03</pdfrwt>
<totfact> 0.15856530E+02</totfact>
</mgrwt>
</event>
<event>
 5    0  0.4025551E-002  0.7903761E+03  0.7546771E-02  0.9574053E-01
          4   -1    0    0  502    0  0.00000000000E+00  0.00000000000E+00  0.25668310141E+03  0.25668310141E+03  0.00000000000E+00 0.  1.
         -4   -1    0    0    0  501 -0.00000000000E+00 -0.00000000000E+00 -0.85130635701E+03  0.85130635701E+03  0.00000000000E+00 0. -1.
         25    1    1    2    0    0 -0.21486936797E+02  0.38917588595E+03 -0.38732997474E+02  0.41115058525E+03  0.12500000000E+03 0.  0.
         21    1    1    2  502  503 -0.20828339754E+02 -0.71766949542E+02 -0.22188576965E+03  0.23413160734E+03  0.00000000000E+00 0.  1.
         21    1    1    2  503  501  0.42315276551E+02 -0.31740893640E+03 -0.33400448847E+03  0.46270726583E+03  0.00000000000E+00 0. -1.
<mgrwt>
<rscale>  4 0.79037606E+03</rscale>
<asrwt>0</asrwt>
<pdfrwt beam="1">  1        4 0.39489709E-01 0.79037606E+03</pdfrwt>
<pdfrwt beam="2">  1       -4 0.13097021E+00 0.79037606E+03</pdfrwt>
<totfact> 0.52615736E+00</totfact>
</mgrwt>
</event>
<event>
 5    0  0.4025551E-002  0.4105170E+03  0.7546771E-02  0.1040198E+00
         -2   -1    0    0    0  501 -0.00000000000E+00  0.00000000000E+00  0.14761213416E+03  0.14761213416E+03  0.00000000000E+00 0.  1.
          2   -1    0    0  502    0  0.00000000000E+00 -0.00000000000E+00 -0.40412489636E+03  0.40412489636E+03  0.00000000000E+00 0. -1.
         25    1    1    2    0    0 -0.15784405728E+03  0.14584971883E+03 -0.14255906197E+03  0.28659199754E+03  0.12500000000E+03 0.  0.
         21    1    1    2  502  503  0.52443483844E+02 -0.25226194860E+02  0.14317974306E+02  0.59930662378E+02  0.00000000000E+00 0.  1.
         21    1    1    2  503  501  0.10540057344E+03 -0.12062352397E+03 -0.12827167454E+03  0.20521437061E+03  0.00000000000E+00 0. -1.
<mgrwt>
<rscale>  4 0.41051701E+03</rscale>
<asrwt>0</asrwt>
<pdfrwt beam="1">  1        2 0.62173061E-01 0.41051701E+03</pdfrwt>
<pdfrwt beam="2">  1       -2 0.22709559E-01 0.41051701E+03</pdfrwt>
<totfact> 0.13359460E+03</totfact>
</mgrwt>
</event>
<event>
 5    0  0.4025551E-002  0.6761861E+03  0.7546771E-02  0.9758847E-01
          2   -1    0    0  502    0  0.00000000000E+00  0.00000000000E+00  0.29334052550E+03  0.29334052550E+03  0.00000000000E+00 0. -1.
         -2   -1    0    0    0  501 -0.00000000000E+00 -0.00000000000E+00 -0.56103621550E+03  0.56103621550E+03  0.00000000000E+00 0.  1.
         25    1    1    2    0    0 -0.21652636350E+03  0.96317305000E+02  0.32400975629E+02  0.26988055238E+03  0.12500000000E+03 0.  0.
         21    1    1    2  502  503  0.27287029153E+03 -0.20783848567E+03 -0.30564335096E+03  0.45942669721E+03  0.00000000000E+00 0.  1.
         21    1    1    2  503  501 -0.56343928033E+02  0.11152118066E+03  0.55466853279E+01  0.12506949141E+03  0.00000000000E+00 0. -1.
<mgrwt>
<rscale>  4 0.67618612E+03</rscale>
<asrwt>0</asrwt>
<pdfrwt beam="1">  1        2 0.45129312E-01 0.67618612E+03</pdfrwt>
<pdfrwt beam="2">  1       -2 0.86313264E-01 0.67618612E+03</pdfrwt>
<totfact> 0.13259964E+02</totfact>
</mgrwt>
</event>
<event>
 5    0  0.4025551E-002  0.5069497E+03  0.7546771E-02  0.1011981E+00
         -1   -1    0    0    0  501 -0.00000000000E+00  0.00000000000E+00  0.76408693476E+03  0.76408693476E+03  0.00000000000E+00 0.  1.
          1   -1    0    0  502    0  0.00000000000E+00 -0.00000000000E+00 -0.99454152002E+02  0.99454152002E+02  0.00000000000E+00 0. -1.
         25    1    1    2    0    0  0.10473423999E+01 -0.23382069288E+03  0.24605504796E+03  0.36171991923E+03  0.12500000000E+03 0.  0.
         21    1    1    2  502  503 -0.36599364210E+02  0.41921297950E+00  0.90524106393E+02  0.97643755757E+02  0.00000000000E+00 0.  1.
         21    1    1    2  503  501  0.35552021810E+02  0.23340147990E+03  0.32805362841E+03  0.40417741177E+03  0.00000000000E+00 0.  1.
<mgrwt>
<rscale>  4 0.50694965E+03</rscale>
<asrwt>0</asrwt>
<pdfrwt beam="1">  1        1 0.15300639E-01 0.50694965E+03</pdfrwt>
<pdfrwt beam="2">  1       -1 0.11755183E+00 0.50694965E+03</pdfrwt>
<totfact> 0.24982037E+02</totfact>
</mgrwt>
</event>
<event>
 5    0  0.4025551E-002  0.7958287E+03  0.7546771E-02  0.9566075E-01
         -2   -1    0    0    0  501 -0.00000000000E+00  0.00000000000E+00  0.15597534831E+03  0.15597534831E+03  0.00000000000E+00 0.  1.
          2   -1    0    0  502    0  0.00000000000E+00 -0.00000000000E+00 -0.16174897546E+04  0.16174897546E+04  0.00000000000E+00 0. -1.
         25    1    1    2    0    0  0.40288362479E+03 -0.36501432201E+02 -0.60848488129E+03  0.74130049267E+03  0.12500000000E+03 0.  0.
         21    1    1    2  502  503 -0.58743660157E+02 -0.59590929904E+01  0.41904025142E+02  0.72403561521E+02  0.00000000000E+00 0.  1.
         21    1    1    2  503  501 -0.34413996463E+03  0.42460525191E+02 -0.89493355013E+03  0.95976104870E+03  0.00000000000E+00 0.  1.
<mgrwt>
<rscale>  4 0.79582874E+03</rscale>
<asrwt>0</asrwt>
<pdfrwt beam="1">  1        2 0.24884457E+00 0.79582874E+03</pdfrwt>
<pdfrwt beam="2">  1       -2 0.23996208E-01 0.79582874E+03</pdfrwt>
<totfact> 0.17055951E+02</totfact>
</mgrwt>
</event>
<event>
 5    0  0.4025551E-002  0.5534285E+03  0.7546771E-02  0.1000703E+00
          1   -1    0    0  502    0  0.00000000000E+00  0.00000000000E+00  0.14810241235E+03  0.14810241235E+03  0.00000000000E+00 0.  1.
         -1   -1    0    0    0  501 -0.00000000000E+00 -0.00000000000E+00 -0.57591846340E+03  0.57591846340E+03  0.00000000000E+00 0. -1.
         25    1    1    2    0    0  0.14461540102E+03 -0.18316321205E+03 -0.34799764699E+03  0.43725248858E+03  0.12500000000E+03 0.  0.
         21    1    1    2  502  503  0.17682282473E+02  0.16108997013E+02 -0.45416079243E+02  0.51330138827E+02  0.00000000000E+00 0. -1.
         21    1    1    2  503  501 -0.16229768350E+03  0.16705421503E+03 -0.34402324822E+02  0.23543824834E+03  0.00000000000E+00 0.  1.
<mgrwt>
<rscale>  4 0.55342849E+03</rscale>
<asrwt>0</asrwt>
<pdfrwt beam="1">  1        1 0.22784987E-01 0.55342849E+03</pdfrwt>
<pdfrwt beam="2">  1       -1 0.88602840E-01 0.55342849E+03</pdfrwt>
<totfact> 0.28079224E+02</totfact>
</mgrwt>
</event>
<event>
 5    0  0.4025551E-002  0.5137065E+03  0.7546771E-02  0.1010262E+00
         -1   -1    0    0    0  501 -0.00000000000E+00  0.00000000000E+00  0.16844545646E+03  0.16844545646E+03  0.00000000000E+00 0.  1.
          1   -1    0    0  503    0  0.00000000000E+00 -0.00000000000E+00 -0.51068486240E+03  0.51068486240E+03  0.00000000000E+00 0. -1.
         25    1    1    2    0    0  0.24500216184E+03 -0.67769344582E+02 -0.12399452229E+03  0.30922222580E+03  0.12500000000E+03 0.  0.
         21    1    1    2  502  501 -0.20618975606E+03  0.48925558538E+02 -0.24117333039E+03  0.32104906334E+03  0.00000000000E+00 0. -1.
         21    1    1    2  503  502 -0.38812405788E+02  0.18843786044E+02  0.22928446733E+02  0.48859029719E+02  0.00000000000E+00 0. -1.
<mgrwt>
<rscale>  4 0.51370647E+03</rscale>
<asrwt>0</asrwt>
<pdfrwt beam="1">  1        1 0.78566900E-01 0.51370647E+03</pdfrwt>
<pdfrwt beam="2">  1       -1 0.25914686E-01 0.51370647E+03</pdfrwt>
<totfact> 0.57323025E+02</totfact>
</mgrwt>
</event>
