<event>
 5    0  0.1943430E+001  0.2740720E+03  0.7546771E-02  0.1098971E+00
         21   -1    0    0  503  501  0.00000000000E+00  0.00000000000E+00  0.87771859851E+02  0.87771859851E+02  0.00000000000E+00 0.  1.
         21   -1    0    0  504  502 -0.00000000000E+00 -0.00000000000E+00 -0.18365882271E+04  0.18365882271E+04  0.00000000000E+00 0.  1.
         25    1    1    2    0    0 -0.53827777136E+02  0.23437493922E+03 -0.18239814102E+03  0.32668505257E+03  0.12500000000E+03 0.  0.
         21    1    1    2  503  502  0.34724787848E+02  0.27536165379E+02 -0.37795040571E+03  0.38053982771E+03  0.00000000000E+00 0.  1.
         21    1    1    2  504  501  0.19102989288E+02 -0.26191110460E+03 -0.11884678205E+04  0.12171352066E+04  0.00000000000E+00 0.  1.
<mgrwt>
<rscale>  4 0.27407202E+03</rscale>
<asrwt>0</asrwt>
<pdfrwt beam="1">  1       21 0.13503362E-01 0.27407202E+03</pdfrwt>
<pdfrwt beam="2">  1       21 0.28255205E+00 0.27407202E+03</pdfrwt>
<totfact> 0.18771613E+03</totfact>
</mgrwt>
</event>
<event>
 5    0  0.1943430E+001  0.4067276E+03  0.7546771E-02  0.1041475E+00
         21   -1    0    0  504  501  0.00000000000E+00  0.00000000000E+00  0.34807521660E+03  0.34807521660E+03  0.00000000000E+00 0.  1.
         21   -1    0    0  503  502 -0.00000000000E+00 -0.00000000000E+00 -0.52247387051E+03  0.52247387051E+03  0.00000000000E+00 0.  1.
         25    1    1    2    0    0  0.27495068101E+03  0.23775045199E+03 -0.12912722052E+03  0.40548981922E+03  0.12500000000E+03 0.  0.
         21    1    1    2  503  501 -0.30952555086E+03 -0.26117558200E+03 -0.21063311772E+01  0.40499776283E+03  0.00000000000E+00 0.  1.
         21    1    1    2  504  502  0.34574869842E+02  0.23425130004E+02 -0.43165102214E+02  0.60061505055E+02  0.00000000000E+00 0.  1.
<mgrwt>
<rscale>  4 0.40672756E+03</rscale>
<asrwt>0</asrwt>
<pdfrwt beam="1">  1       21 0.53550033E-01 0.40672756E+03</pdfrwt>
<pdfrwt beam="2">  1       21 0.80380595E-01 0.40672756E+03</pdfrwt>
<totfact> 0.39926144E+03</totfact>
</mgrwt>
</event>
<event>
 5    0  0.1943430E+001  0.2856639E+03  0.7546771E-02  0.1092635E+00
         21   -1    0    0  504  501  0.00000000000E+00  0.00000000000E+00  0.62485444106E+03  0.62485444106E+03  0.00000000000E+00 0. -1.
         21   -1    0    0  503  502 -0.00000000000E+00 -0.00000000000E+00 -0.27533422342E+03  0.27533422342E+03  0.00000000000E+00 0. -1.
         25    1    1    2    0    0 -0.13707726014E+03 -0.21207032199E+03  0.48446955893E+03  0.56044602796E+03  0.12500000000E+03 0.  0.
         21    1    1    2  503  501  0.14415979152E+03  0.24159863801E+03 -0.11940871379E+03  0.30563113112E+03  0.00000000000E+00 0. -1.
         21    1    1    2  504  502 -0.70825313782E+01 -0.29528316015E+02 -0.15540627506E+02  0.34111505400E+02  0.00000000000E+00 0. -1.
<mgrwt>
<rscale>  4 0.28566392E+03</rscale>
<asrwt>0</asrwt>
<pdfrwt beam="1">  1       21 0.96131452E-01 0.28566392E+03</pdfrwt>
<pdfrwt beam="2">  1       21 0.42359111E-01 0.28566392E+03</pdfrwt>
<totfact> 0.45396395E+03</totfact>
</mgrwt>
</event>
<event>
 5    0  0.1943430E+001  0.2570988E+03  0.7546771E-02  0.1108899E+00
         21   -1    0    0  504  501  0.00000000000E+00  0.00000000000E+00  0.10492458150E+03  0.10492458150E+03  0.00000000000E+00 0. -1.
         21   -1    0    0  503  502 -0.00000000000E+00 -0.00000000000E+00 -0.10545924871E+04  0.10545924871E+04  0.00000000000E+00 0. -1.
         25    1    1    2    0    0 -0.21665061374E+02  0.20130605342E+03 -0.16935972944E+03  0.29206372590E+03  0.12500000000E+03 0.  0.
         21    1    1    2  503  501  0.55832276535E+02 -0.28329026001E+03 -0.62665782287E+03  0.68997872538E+03  0.00000000000E+00 0. -1.
         21    1    1    2  504  502 -0.34167215161E+02  0.81984206588E+02 -0.15365035328E+03  0.17747461730E+03  0.00000000000E+00 0.  1.
<mgrwt>
<rscale>  4 0.25709885E+03</rscale>
<asrwt>0</asrwt>
<pdfrwt beam="1">  1       21 0.16142243E-01 0.25709885E+03</pdfrwt>
<pdfrwt beam="2">  1       21 0.16224500E+00 0.25709885E+03</pdfrwt>
<totfact> 0.79428396E+03</totfact>
</mgrwt>
</event>
<event>
 5    0  0.1943430E+001  0.3052163E+03  0.7546771E-02  0.1082662E+00
         21   -1    0    0  503  501  0.00000000000E+00  0.00000000000E+00  0.28349743663E+03  0.28349743663E+03  0.00000000000E+00 0.  1.
         21   -1    0    0  504  502 -0.00000000000E+00 -0.00000000000E+00 -0.82537517278E+03  0.82537517278E+03  0.00000000000E+00 0.  1.
         25    1    1    2    0    0 -0.76884823973E+01 -0.26579908611E+03  0.98815511559E+02  0.30999640685E+03  0.12500000000E+03 0.  0.
         21    1    1    2  503  502 -0.91091349963E+02 -0.75779502203E+02 -0.12259882050E+03  0.17050113718E+03  0.00000000000E+00 0.  1.
         21    1    1    2  504  501  0.98779832360E+02  0.34157858831E+03 -0.51809442722E+03  0.62837506538E+03  0.00000000000E+00 0.  1.
<mgrwt>
<rscale>  4 0.30521635E+03</rscale>
<asrwt>0</asrwt>
<pdfrwt beam="1">  1       21 0.43614990E-01 0.30521635E+03</pdfrwt>
<pdfrwt beam="2">  1       21 0.12698080E+00 0.30521635E+03</pdfrwt>
<totfact> 0.21324903E+03</totfact>
</mgrwt>
</event>
<event>
 5    0  0.1943430E+001  0.2544109E+03  0.7546771E-02  0.1110549E+00
         21   -1    0    0  504  501  0.00000000000E+00  0.00000000000E+00  0.49016986464E+03  0.49016986464E+03  0.00000000000E+00 0. -1.
         21   -1    0    0  503  502 -0.00000000000E+00 -0.00000000000E+00 -0.28293004853E+04  0.28293004853E+04  0.00000000000E+00 0. -1.
         25    1    1    2    0    0  0.12712828528E+03  0.18085144834E+03  0.44683453760E+03  0.51396006779E+03  0.12500000000E+03 0.  0.
         21    1    1    2  503  501 -0.16947187382E+03 -0.20151633908E+03 -0.26133200998E+04  0.26265512550E+04  0.00000000000E+00 0. -1.
         21    1    1    2  504  502  0.42343588538E+02  0.20664890745E+02 -0.17264505841E+03  0.17895902714E+03  0.00000000000E+00 0.  1.
<mgrwt>
<rscale>  4 0.25441093E+03</rscale>
<asrwt>0</asrwt>
<pdfrwt beam="1">  1       21 0.75410749E-01 0.25441093E+03</pdfrwt>
<pdfrwt beam="2">  1       21 0.43527699E+00 0.25441093E+03</pdfrwt>
<totfact> 0.72644912E+00</totfact>
</mgrwt>
</event>
<event>
 5    0  0.1943430E+001  0.2501839E+03  0.7546771E-02  0.1113189E+00
         21   -1    0    0  503  501  0.00000000000E+00  0.00000000000E+00  0.10246751633E+03  0.10246751633E+03  0.00000000000E+00 0. -1.
         21   -1    0    0  504  502 -0.00000000000E+00 -0.00000000000E+00 -0.68193857181E+03  0.68193857181E+03  0.00000000000E+00 0. -1.
         25    1    1    2    0    0 -0.12556331993E+03 -0.18200037941E+03 -0.26498624755E+03  0.36705993627E+03  0.12500000000E+03 0.  0.
         21    1    1    2  503  502  0.41438277526E+02 -0.16151301248E+02 -0.11717702119E+03  0.12533335418E+03  0.00000000000E+00 0. -1.
         21    1    1    2  504  501  0.84125042409E+02  0.19815168066E+03 -0.19730778673E+03  0.29201279769E+03  0.00000000000E+00 0. -1.
<mgrwt>
<rscale>  4 0.25018390E+03</rscale>
<asrwt>0</asrwt>
<pdfrwt beam="1">  1       21 0.15764233E-01 0.25018390E+03</pdfrwt>
<pdfrwt beam="2">  1       21 0.10491363E+00 0.25018390E+03</pdfrwt>
<totfact> 0.25423203E+04</totfact>
</mgrwt>
</event>
<event>
 5    0  0.1943430E+001  0.2557892E+03  0.7546771E-02  0.1109700E+00
         21   -1    0    0  504  501  0.00000000000E+00  0.00000000000E+00  0.46069875828E+03  0.46069875828E+03  0.00000000000E+00 0. -1.
         21   -1    0    0  501  502 -0.00000000000E+00 -0.00000000000E+00 -0.20912602604E+03  0.20912602604E+03  0.00000000000E+00 0. -1.
         25    1    1    2    0    0  0.17978356548E+03 -0.15644154162E+03  0.29799670078E+03  0.40152598924E+03  0.12500000000E+03 0.  0.
         21    1    1    2  503  502 -0.27155899532E+02  0.33252696130E+02 -0.57601690393E+02  0.71841070533E+02  0.00000000000E+00 0.  1.
         21    1    1    2  504  503 -0.15262766595E+03  0.12318884549E+03  0.11177721855E+02  0.19645772454E+03  0.00000000000E+00 0. -1.
<mgrwt>
<rscale>  4 0.25578921E+03</rscale>
<asrwt>0</asrwt>
<pdfrwt beam="1">  1       21 0.70876732E-01 0.25578921E+03</pdfrwt>
<pdfrwt beam="2">  1       21 0.32173235E-01 0.25578921E+03</pdfrwt>
<totfact> 0.16165605E+04</totfact>
</mgrwt>
</event>
<event>
 5    0  0.1943430E+001  0.2666528E+03  0.7546771E-02  0.1103211E+00
         21   -1    0    0  503  501  0.00000000000E+00  0.00000000000E+00  0.10915557684E+04  0.10915557684E+04  0.00000000000E+00 0.  1.
         21   -1    0    0  504  502 -0.00000000000E+00 -0.00000000000E+00 -0.20650968116E+03  0.20650968116E+03  0.00000000000E+00 0.  1.
         25    1    1    2    0    0  0.11762065906E+03 -0.20220219340E+03  0.96856554788E+03  0.10042233651E+04  0.12500000000E+03 0.  0.
         21    1    1    2  503  502  0.29202560578E+02 -0.27276256464E+01 -0.46569730823E+01  0.29697085451E+02  0.00000000000E+00 0.  1.
         21    1    1    2  504  501 -0.14682321964E+03  0.20492981905E+03 -0.78862487560E+02  0.26414499902E+03  0.00000000000E+00 0.  1.
<mgrwt>
<rscale>  4 0.26665285E+03</rscale>
<asrwt>0</asrwt>
<pdfrwt beam="1">  1       21 0.16793165E+00 0.26665285E+03</pdfrwt>
<pdfrwt beam="2">  1       21 0.31770721E-01 0.26665285E+03</pdfrwt>
<totfact> 0.19741803E+03</totfact>
</mgrwt>
</event>
<event>
 5    0  0.1943430E+001  0.2521325E+03  0.7546771E-02  0.1111964E+00
         21   -1    0    0  503  501  0.00000000000E+00  0.00000000000E+00  0.67968824069E+03  0.67968824069E+03  0.00000000000E+00 0. -1.
         21   -1    0    0  504  502 -0.00000000000E+00 -0.00000000000E+00 -0.49736980710E+03  0.49736980710E+03  0.00000000000E+00 0. -1.
         25    1    1    2    0    0  0.74569558216E+02 -0.19273657234E+03  0.51955360655E+03  0.57294760267E+03  0.12500000000E+03 0.  0.
         21    1    1    2  503  502  0.75002755855E+02 -0.85307391520E+02 -0.25302282983E+03  0.27735053065E+03  0.00000000000E+00 0. -1.
         21    1    1    2  504  501 -0.14957231407E+03  0.27804396386E+03 -0.84212343128E+02  0.32675991448E+03  0.00000000000E+00 0. -1.
<mgrwt>
<rscale>  4 0.25213254E+03</rscale>
<asrwt>0</asrwt>
<pdfrwt beam="1">  1       21 0.10456742E+00 0.25213254E+03</pdfrwt>
<pdfrwt beam="2">  1       21 0.76518432E-01 0.25213254E+03</pdfrwt>
<totfact> 0.10640399E+03</totfact>
</mgrwt>
</event>
<event>
 5    0  0.1943430E+001  0.3044058E+03  0.7546771E-02  0.1083059E+00
         21   -1    0    0  503  501  0.00000000000E+00  0.00000000000E+00  0.21539642699E+03  0.21539642699E+03  0.00000000000E+00 0. -1.
         21   -1    0    0  504  502 -0.00000000000E+00 -0.00000000000E+00 -0.13135950644E+04  0.13135950644E+04  0.00000000000E+00 0.  1.
         25    1    1    2    0    0 -0.24737540804E+03  0.18981343613E+03 -0.12975021548E+03  0.36011644152E+03  0.12500000000E+03 0.  0.
         21    1    1    2  503  502  0.25772323688E+02 -0.62612721681E+02 -0.90243332610E+03  0.90496987444E+03  0.00000000000E+00 0.  1.
         21    1    1    2  504  501  0.22160308435E+03 -0.12720071445E+03 -0.66015095860E+02  0.26390517545E+03  0.00000000000E+00 0. -1.
<mgrwt>
<rscale>  4 0.30440578E+03</rscale>
<asrwt>0</asrwt>
<pdfrwt beam="1">  1       21 0.33137912E-01 0.30440578E+03</pdfrwt>
<pdfrwt beam="2">  1       21 0.20209155E+00 0.30440578E+03</pdfrwt>
<totfact> 0.10332072E+03</totfact>
</mgrwt>
</event>
<event>
 5    0  0.1943430E+001  0.1990919E+03  0.7546771E-02  0.1150507E+00
         21   -1    0    0  503  501  0.00000000000E+00  0.00000000000E+00  0.13987351694E+04  0.13987351694E+04  0.00000000000E+00 0.  1.
         21   -1    0    0  504  502 -0.00000000000E+00 -0.00000000000E+00 -0.13781121411E+03  0.13781121411E+03  0.00000000000E+00 0.  1.
         25    1    1    2    0    0 -0.84317709407E+02 -0.20400054796E+03  0.70272136791E+03  0.74710643191E+03  0.12500000000E+03 0.  0.
         21    1    1    2  503  502 -0.22214623453E+02  0.11551582594E+03 -0.76161367999E+02  0.14013546844E+03  0.00000000000E+00 0.  1.
         21    1    1    2  504  501  0.10653233286E+03  0.88484722017E+02  0.63436395538E+03  0.64930448317E+03  0.00000000000E+00 0.  1.
<mgrwt>
<rscale>  4 0.19909193E+03</rscale>
<asrwt>0</asrwt>
<pdfrwt beam="1">  1       21 0.21519002E+00 0.19909193E+03</pdfrwt>
<pdfrwt beam="2">  1       21 0.21201726E-01 0.19909193E+03</pdfrwt>
<totfact> 0.22138384E+03</totfact>
</mgrwt>
</event>
<event>
 5    0  0.1943430E+001  0.2659393E+03  0.7546771E-02  0.1103626E+00
         21   -1    0    0  503  501  0.00000000000E+00  0.00000000000E+00  0.10966118964E+04  0.10966118964E+04  0.00000000000E+00 0. -1.
         21   -1    0    0  504  502 -0.00000000000E+00 -0.00000000000E+00 -0.76864278868E+03  0.76864278868E+03  0.00000000000E+00 0.  1.
         25    1    1    2    0    0  0.19725172034E+03 -0.12680822977E+03  0.10323067249E+04  0.10659600098E+04  0.12500000000E+03 0.  0.
         21    1    1    2  503  502  0.48074858941E+02  0.56948742862E+02 -0.33714893675E+02  0.81798810696E+02  0.00000000000E+00 0.  1.
         21    1    1    2  504  501 -0.24532657928E+03  0.69859486903E+02 -0.67062272349E+03  0.71749586456E+03  0.00000000000E+00 0.  1.
<mgrwt>
<rscale>  4 0.26593933E+03</rscale>
<asrwt>0</asrwt>
<pdfrwt beam="1">  1       21 0.16870952E+00 0.26593933E+03</pdfrwt>
<pdfrwt beam="2">  1       21 0.11825274E+00 0.26593933E+03</pdfrwt>
<totfact> 0.10940451E+02</totfact>
</mgrwt>
</event>
<event>
 5    0  0.1943430E+001  0.2645991E+03  0.7546771E-02  0.1104411E+00
         21   -1    0    0  504  501  0.00000000000E+00  0.00000000000E+00  0.14221214334E+04  0.14221214334E+04  0.00000000000E+00 0. -1.
         21   -1    0    0  503  502 -0.00000000000E+00 -0.00000000000E+00 -0.88257060516E+02  0.88257060516E+02  0.00000000000E+00 0. -1.
         25    1    1    2    0    0  0.17028607550E+03 -0.16168303710E+03  0.41286161885E+03  0.49113996815E+03  0.12500000000E+03 0.  0.
         21    1    1    2  503  501 -0.15248753988E+03  0.17608006836E+03  0.95235011454E+03  0.98042204227E+03  0.00000000000E+00 0. -1.
         21    1    1    2  504  502 -0.17798535615E+02 -0.14397031260E+02 -0.31347360518E+02  0.38816483490E+02  0.00000000000E+00 0. -1.
<mgrwt>
<rscale>  4 0.26459906E+03</rscale>
<asrwt>0</asrwt>
<pdfrwt beam="1">  1       21 0.21878790E+00 0.26459906E+03</pdfrwt>
<pdfrwt beam="2">  1       21 0.13578010E-01 0.26459906E+03</pdfrwt>
<totfact> 0.45258274E+03</totfact>
</mgrwt>
</event>
<event>
 5    0  0.1943430E+001  0.2752428E+03  0.7546771E-02  0.1098316E+00
         21   -1    0    0  503  501  0.00000000000E+00  0.00000000000E+00  0.27522350696E+03  0.27522350696E+03  0.00000000000E+00 0.  1.
         21   -1    0    0  504  502 -0.00000000000E+00 -0.00000000000E+00 -0.77270434687E+03  0.77270434687E+03  0.00000000000E+00 0.  1.
         25    1    1    2    0    0 -0.14528449102E+03 -0.22928388251E+03  0.12888766362E+03  0.32544694183E+03  0.12500000000E+03 0.  0.
         21    1    1    2  503  502  0.50123574419E+01  0.97760960297E+02 -0.45339330237E+03  0.46384029118E+03  0.00000000000E+00 0.  1.
         21    1    1    2  504  501  0.14027213358E+03  0.13152292222E+03 -0.17297520115E+03  0.25864062082E+03  0.00000000000E+00 0.  1.
<mgrwt>
<rscale>  4 0.27524282E+03</rscale>
<asrwt>0</asrwt>
<pdfrwt beam="1">  1       21 0.42342078E-01 0.27524282E+03</pdfrwt>
<pdfrwt beam="2">  1       21 0.11887759E+00 0.27524282E+03</pdfrwt>
<totfact> 0.27265135E+03</totfact>
</mgrwt>
</event>
