<event>
 5    0  0.1856407E+000  0.2504533E+03  0.7546771E-02  0.1113019E+00
         21   -1    0    0  502  501  0.00000000000E+00  0.00000000000E+00  0.27363809502E+03  0.27363809502E+03  0.00000000000E+00 0. -1.
         21   -1    0    0  503  502 -0.00000000000E+00 -0.00000000000E+00 -0.22144884023E+03  0.22144884023E+03  0.00000000000E+00 0.  1.
         25    1    1    2    0    0 -0.46173006426E+02  0.21206111115E+03  0.87805638523E+02  0.26539911745E+03  0.12500000000E+03 0.  0.
         21    1    1    2  503  504  0.16027612441E+01 -0.42478582617E+02 -0.33845544384E+02  0.54337093218E+02  0.00000000000E+00 0.  1.
         21    1    1    2  504  501  0.44570245182E+02 -0.16958252853E+03 -0.17708393515E+01  0.17535072458E+03  0.00000000000E+00 0.  1.
<mgrwt>
<rscale>  4 0.25045331E+03</rscale>
<asrwt>0</asrwt>
<pdfrwt beam="1">  1       21 0.42098168E-01 0.25045331E+03</pdfrwt>
<pdfrwt beam="2">  1       21 0.34069052E-01 0.25045331E+03</pdfrwt>
<totfact> 0.43902227E+04</totfact>
</mgrwt>
</event>
<event>
 5    0  0.2490215E+000  0.2880266E+03  0.7546771E-02  0.1091384E+00
         21   -1    0    0  502  501  0.00000000000E+00  0.00000000000E+00  0.93413677938E+02  0.93413677938E+02  0.00000000000E+00 0. -1.
         21   -1    0    0  503  502 -0.00000000000E+00 -0.00000000000E+00 -0.10129752116E+04  0.10129752116E+04  0.00000000000E+00 0. -1.
         25    1    1    2    0    0  0.23115273302E+03 -0.11790983781E+03 -0.23283251763E+03  0.37036508624E+03  0.12500000000E+03 0.  0.
         21    1    1    2  503  504 -0.18945748710E+03  0.10887963196E+03 -0.52268623144E+03  0.56652432447E+03  0.00000000000E+00 0. -1.
         21    1    1    2  504  501 -0.41695245920E+02  0.90302058447E+01 -0.16404278459E+03  0.16949947884E+03  0.00000000000E+00 0. -1.
<mgrwt>
<rscale>  4 0.28802659E+03</rscale>
<asrwt>0</asrwt>
<pdfrwt beam="1">  1       21 0.14371336E-01 0.28802659E+03</pdfrwt>
<pdfrwt beam="2">  1       21 0.15584233E+00 0.28802659E+03</pdfrwt>
<totfact> 0.10785089E+04</totfact>
</mgrwt>
</event>
<event>
 5    0  0.1856407E+000  0.4134689E+03  0.7546771E-02  0.1039213E+00
         21   -1    0    0  502  501  0.00000000000E+00  0.00000000000E+00  0.75505402539E+03  0.75505402539E+03  0.00000000000E+00 0.  1.
         21   -1    0    0  503  502 -0.00000000000E+00 -0.00000000000E+00 -0.29025231020E+03  0.29025231020E+03  0.00000000000E+00 0.  1.
         25    1    1    2    0    0 -0.82760193650E+02  0.39752648477E+03  0.25341860637E+02  0.42560987494E+03  0.12500000000E+03 0.  0.
         21    1    1    2  503  504  0.54113690070E+02 -0.27743410738E+02  0.32016602353E+02  0.68724457935E+02  0.00000000000E+00 0.  1.
         21    1    1    2  504  501  0.28646503580E+02 -0.36978307404E+03  0.40744325220E+03  0.55097200271E+03  0.00000000000E+00 0.  1.
<mgrwt>
<rscale>  4 0.41346892E+03</rscale>
<asrwt>0</asrwt>
<pdfrwt beam="1">  1       21 0.11616216E+00 0.41346892E+03</pdfrwt>
<pdfrwt beam="2">  1       21 0.44654202E-01 0.41346892E+03</pdfrwt>
<totfact> 0.24133248E+03</totfact>
</mgrwt>
</event>
<event>
 5    0  0.1856407E+000  0.2259971E+03  0.7546771E-02  0.1129489E+00
         21   -1    0    0  502  501  0.00000000000E+00  0.00000000000E+00  0.22972438208E+04  0.22972438208E+04  0.00000000000E+00 0. -1.
         21   -1    0    0  503  502 -0.00000000000E+00 -0.00000000000E+00 -0.48017373654E+02  0.48017373654E+02  0.00000000000E+00 0.  1.
         25    1    1    2    0    0  0.17563338539E+02 -0.20445231665E+03  0.19089852675E+04  0.19240475493E+04  0.12500000000E+03 0.  0.
         21    1    1    2  503  504 -0.41228660399E+02  0.11251225805E+03  0.79695242978E+02  0.14391018867E+03  0.00000000000E+00 0.  1.
         21    1    1    2  504  501  0.23665321860E+02  0.91940058606E+02  0.26054593669E+03  0.27730345645E+03  0.00000000000E+00 0.  1.
<mgrwt>
<rscale>  4 0.22599713E+03</rscale>
<asrwt>0</asrwt>
<pdfrwt beam="1">  1       21 0.35342204E+00 0.22599713E+03</pdfrwt>
<pdfrwt beam="2">  1       21 0.73872900E-02 0.22599713E+03</pdfrwt>
<totfact> 0.22041853E+03</totfact>
</mgrwt>
</event>
<event>
 5    0  0.1988717E+000  0.2418498E+03  0.7546771E-02  0.1118567E+00
         21   -1    0    0  502  501  0.00000000000E+00  0.00000000000E+00  0.12292531122E+04  0.12292531122E+04  0.00000000000E+00 0. -1.
         21   -1    0    0  503  502 -0.00000000000E+00 -0.00000000000E+00 -0.10732130898E+03  0.10732130898E+03  0.00000000000E+00 0. -1.
         25    1    1    2    0    0  0.31837641896E+03 -0.10360782633E+02  0.50774190568E+03  0.61228892914E+03  0.12500000000E+03 0.  0.
         21    1    1    2  503  504 -0.15982930206E+03 -0.61770720177E+02  0.46281288618E+03  0.49351473664E+03  0.00000000000E+00 0. -1.
         21    1    1    2  504  501 -0.15854711690E+03  0.72131502809E+02  0.15137701132E+03  0.23077075536E+03  0.00000000000E+00 0. -1.
<mgrwt>
<rscale>  4 0.24184983E+03</rscale>
<asrwt>0</asrwt>
<pdfrwt beam="1">  1       21 0.18911585E+00 0.24184983E+03</pdfrwt>
<pdfrwt beam="2">  1       21 0.16510971E-01 0.24184983E+03</pdfrwt>
<totfact> 0.49958687E+03</totfact>
</mgrwt>
</event>
<event>
 5    0  0.1856407E+000  0.2583564E+03  0.7546771E-02  0.1108135E+00
         21   -1    0    0  502  501  0.00000000000E+00  0.00000000000E+00  0.59538230143E+02  0.59538230143E+02  0.00000000000E+00 0.  1.
         21   -1    0    0  503  502 -0.00000000000E+00 -0.00000000000E+00 -0.10325158964E+04  0.10325158964E+04  0.00000000000E+00 0.  1.
         25    1    1    2    0    0 -0.16206833131E+03  0.15766060383E+03 -0.45373010679E+03  0.52212931331E+03  0.12500000000E+03 0.  0.
         21    1    1    2  503  504  0.62956687797E+02 -0.92506611504E+02 -0.19727839799E+03  0.22680340391E+03  0.00000000000E+00 0.  1.
         21    1    1    2  504  501  0.99111643510E+02 -0.65153992322E+02 -0.32196916147E+03  0.34312140932E+03  0.00000000000E+00 0.  1.
<mgrwt>
<rscale>  4 0.25835636E+03</rscale>
<asrwt>0</asrwt>
<pdfrwt beam="1">  1       21 0.91597284E-02 0.25835636E+03</pdfrwt>
<pdfrwt beam="2">  1       21 0.15884859E+00 0.25835636E+03</pdfrwt>
<totfact> 0.23373544E+04</totfact>
</mgrwt>
</event>
<event>
 5    0  0.1876321E+000  0.2687124E+03  0.7546771E-02  0.1102019E+00
         21   -1    0    0  502  501  0.00000000000E+00  0.00000000000E+00  0.49598011779E+03  0.49598011779E+03  0.00000000000E+00 0. -1.
         21   -1    0    0  503  502 -0.00000000000E+00 -0.00000000000E+00 -0.17792095817E+03  0.17792095817E+03  0.00000000000E+00 0. -1.
         25    1    1    2    0    0 -0.19205396312E+03  0.14034472198E+03  0.33434282476E+03  0.42894229240E+03  0.12500000000E+03 0.  0.
         21    1    1    2  503  504  0.15125836500E+03 -0.12625720862E+03  0.44485320543E+01  0.19707806866E+03  0.00000000000E+00 0. -1.
         21    1    1    2  504  501  0.40795598125E+02 -0.14087513363E+02 -0.20732197189E+02  0.47880714900E+02  0.00000000000E+00 0.  1.
<mgrwt>
<rscale>  4 0.26871242E+03</rscale>
<asrwt>0</asrwt>
<pdfrwt beam="1">  1       21 0.76304633E-01 0.26871242E+03</pdfrwt>
<pdfrwt beam="2">  1       21 0.27372455E-01 0.26871242E+03</pdfrwt>
<totfact> 0.18692965E+04</totfact>
</mgrwt>
</event>
<event>
 5    0  0.1856407E+000  0.2692178E+03  0.7546771E-02  0.1101728E+00
         21   -1    0    0  502  501  0.00000000000E+00  0.00000000000E+00  0.16267983988E+04  0.16267983988E+04  0.00000000000E+00 0.  1.
         21   -1    0    0  503  502 -0.00000000000E+00 -0.00000000000E+00 -0.80867477914E+02  0.80867477914E+02  0.00000000000E+00 0.  1.
         25    1    1    2    0    0  0.14081692655E+03  0.22990950218E+03  0.12492924773E+04  0.12841512683E+04  0.12500000000E+03 0.  0.
         21    1    1    2  503  504 -0.10063568538E+03 -0.11653251506E+03  0.74836499754E+02  0.17119541447E+03  0.00000000000E+00 0.  1.
         21    1    1    2  504  501 -0.40181241172E+02 -0.11337698712E+03  0.22180194377E+03  0.25231919390E+03  0.00000000000E+00 0.  1.
<mgrwt>
<rscale>  4 0.26921777E+03</rscale>
<asrwt>0</asrwt>
<pdfrwt beam="1">  1       21 0.25027665E+00 0.26921777E+03</pdfrwt>
<pdfrwt beam="2">  1       21 0.12441152E-01 0.26921777E+03</pdfrwt>
<totfact> 0.33952908E+03</totfact>
</mgrwt>
</event>
<event>
 5    0  0.1856407E+000  0.2445299E+03  0.7546771E-02  0.1116811E+00
         21   -1    0    0  502  501  0.00000000000E+00  0.00000000000E+00  0.41936267103E+03  0.41936267103E+03  0.00000000000E+00 0. -1.
         21   -1    0    0  503  502 -0.00000000000E+00 -0.00000000000E+00 -0.38486211206E+03  0.38486211206E+03  0.00000000000E+00 0. -1.
         25    1    1    2    0    0  0.70044053574E+02 -0.20413969859E+03  0.33861888229E+03  0.42055550576E+03  0.12500000000E+03 0.  0.
         21    1    1    2  503  504 -0.14433025874E+02  0.46229946347E+02 -0.17039573555E+02  0.51340697717E+02  0.00000000000E+00 0. -1.
         21    1    1    2  504  501 -0.55611027700E+02  0.15790975225E+03 -0.28707874977E+03  0.33232857961E+03  0.00000000000E+00 0. -1.
<mgrwt>
<rscale>  4 0.24452993E+03</rscale>
<asrwt>0</asrwt>
<pdfrwt beam="1">  1       21 0.64517333E-01 0.24452993E+03</pdfrwt>
<pdfrwt beam="2">  1       21 0.59209556E-01 0.24452993E+03</pdfrwt>
<totfact> 0.56961290E+03</totfact>
</mgrwt>
</event>
<event>
 5    0  0.1856407E+000  0.2658303E+03  0.7546771E-02  0.1103690E+00
         21   -1    0    0  502  501  0.00000000000E+00  0.00000000000E+00  0.68143862655E+02  0.68143862655E+02  0.00000000000E+00 0. -1.
         21   -1    0    0  503  502 -0.00000000000E+00 -0.00000000000E+00 -0.94459549806E+03  0.94459549806E+03  0.00000000000E+00 0. -1.
         25    1    1    2    0    0 -0.23459855805E+03  0.20702888462E+01 -0.51061287279E+03  0.57566594080E+03  0.12500000000E+03 0.  0.
         21    1    1    2  503  504  0.14767447164E+03  0.13468549277E+02 -0.25921196073E+03  0.29863019268E+03  0.00000000000E+00 0. -1.
         21    1    1    2  504  501  0.86924086408E+02 -0.15538838124E+02 -0.10662680188E+03  0.13844322724E+03  0.00000000000E+00 0. -1.
<mgrwt>
<rscale>  4 0.26583034E+03</rscale>
<asrwt>0</asrwt>
<pdfrwt beam="1">  1       21 0.10483672E-01 0.26583034E+03</pdfrwt>
<pdfrwt beam="2">  1       21 0.14532237E+00 0.26583034E+03</pdfrwt>
<totfact> 0.23249370E+04</totfact>
</mgrwt>
</event>
<event>
 5    0  0.1856407E+000  0.3578422E+03  0.7546771E-02  0.1059442E+00
         21   -1    0    0  502  501  0.00000000000E+00  0.00000000000E+00  0.57606422846E+03  0.57606422846E+03  0.00000000000E+00 0. -1.
         21   -1    0    0  503  502 -0.00000000000E+00 -0.00000000000E+00 -0.24711160702E+04  0.24711160702E+04  0.00000000000E+00 0.  1.
         25    1    1    2    0    0 -0.24999797749E+03 -0.22391835748E+03  0.48842989428E+03  0.60566259683E+03  0.12500000000E+03 0.  0.
         21    1    1    2  503  504  0.35126927496E+03  0.95493537353E+02 -0.15539489672E+04  0.15960158244E+04  0.00000000000E+00 0.  1.
         21    1    1    2  504  501 -0.10127129747E+03  0.12842482013E+03 -0.82953276879E+03  0.84550187736E+03  0.00000000000E+00 0.  1.
<mgrwt>
<rscale>  4 0.35784223E+03</rscale>
<asrwt>0</asrwt>
<pdfrwt beam="1">  1       21 0.88625267E-01 0.35784223E+03</pdfrwt>
<pdfrwt beam="2">  1       21 0.38017170E+00 0.35784223E+03</pdfrwt>
<totfact> 0.98495744E+00</totfact>
</mgrwt>
</event>
<event>
 5    0  0.1856407E+000  0.2626618E+03  0.7546771E-02  0.1105554E+00
         21   -1    0    0  502  501  0.00000000000E+00  0.00000000000E+00  0.43409472028E+03  0.43409472028E+03  0.00000000000E+00 0.  1.
         21   -1    0    0  503  502 -0.00000000000E+00 -0.00000000000E+00 -0.14628870642E+03  0.14628870642E+03  0.00000000000E+00 0.  1.
         25    1    1    2    0    0 -0.17781631213E+03  0.14747063762E+03  0.17644575799E+03  0.31642429637E+03  0.12500000000E+03 0.  0.
         21    1    1    2  503  504  0.99259012090E+02 -0.93380115119E+02  0.32254470644E+02  0.14004480803E+03  0.00000000000E+00 0.  1.
         21    1    1    2  504  501  0.78557300041E+02 -0.54090522499E+02  0.79105785226E+02  0.12391432230E+03  0.00000000000E+00 0.  1.
<mgrwt>
<rscale>  4 0.26266182E+03</rscale>
<asrwt>0</asrwt>
<pdfrwt beam="1">  1       21 0.66783802E-01 0.26266182E+03</pdfrwt>
<pdfrwt beam="2">  1       21 0.22505955E-01 0.26266182E+03</pdfrwt>
<totfact> 0.36763156E+04</totfact>
</mgrwt>
</event>
