<event>
 5    0  0.1911311E+001  0.3566077E+03  0.7546771E-02  0.1059935E+00
         21   -1    0    0  504  501  0.00000000000E+00  0.00000000000E+00  0.47021981578E+03  0.47021981578E+03  0.00000000000E+00 0.  1.
         21   -1    0    0  503  502 -0.00000000000E+00 -0.00000000000E+00 -0.17097227823E+04  0.17097227823E+04  0.00000000000E+00 0.  1.
         25    1    1    2    0    0 -0.30770420426E+03 -0.13500772211E+03 -0.15148582292E+04  0.15567046659E+04  0.12500000000E+03 0.  0.
         21    1    1    2  503  501 -0.67624679821E+01  0.22663383586E+02 -0.11046901587E+03  0.11297240103E+03  0.00000000000E+00 0.  1.
         21    1    1    2  504  502  0.31446667224E+03  0.11234433852E+03  0.38582427853E+03  0.51026553113E+03  0.00000000000E+00 0.  1.
<mgrwt>
<rscale>  4 0.35660771E+03</rscale>
<asrwt>0</asrwt>
<pdfrwt beam="1">  1       21 0.72341509E-01 0.35660771E+03</pdfrwt>
<pdfrwt beam="2">  1       21 0.26303428E+00 0.35660771E+03</pdfrwt>
<totfact> 0.79895645E+01</totfact>
</mgrwt>
</event>
<event>
 5    0  0.1911311E+001  0.2706698E+03  0.7546771E-02  0.1100897E+00
         21   -1    0    0  502  501  0.00000000000E+00  0.00000000000E+00  0.24664496391E+03  0.24664496391E+03  0.00000000000E+00 0. -1.
         21   -1    0    0  504  502 -0.00000000000E+00 -0.00000000000E+00 -0.17774189564E+04  0.17774189564E+04  0.00000000000E+00 0. -1.
         25    1    1    2    0    0  0.27029386938E+03  0.63463568802E+02 -0.74920489864E+01  0.30457762753E+03  0.12500000000E+03 0.  0.
         21    1    1    2  503  501 -0.36444713702E+02 -0.11439663039E+03  0.48573243153E+02  0.12951511940E+03  0.00000000000E+00 0. -1.
         21    1    1    2  504  503 -0.23384915568E+03  0.50933061593E+02 -0.15718551867E+04  0.15899711734E+04  0.00000000000E+00 0. -1.
<mgrwt>
<rscale>  4 0.27066976E+03</rscale>
<asrwt>0</asrwt>
<pdfrwt beam="1">  1       21 0.37945381E-01 0.27066976E+03</pdfrwt>
<pdfrwt beam="2">  1       21 0.27344906E+00 0.27066976E+03</pdfrwt>
<totfact> 0.29585647E+02</totfact>
</mgrwt>
</event>
<event>
 5    0  0.1911311E+001  0.1823625E+03  0.7546771E-02  0.1165536E+00
         21   -1    0    0  504  501  0.00000000000E+00  0.00000000000E+00  0.16432872682E+03  0.16432872682E+03  0.00000000000E+00 0. -1.
         21   -1    0    0  501  502 -0.00000000000E+00 -0.00000000000E+00 -0.35060169006E+03  0.35060169006E+03  0.00000000000E+00 0. -1.
         25    1    1    2    0    0  0.72328941458E+02  0.18919043315E+03 -0.44619282005E+02  0.24215775043E+03  0.12500000000E+03 0.  0.
         21    1    1    2  503  502 -0.83081313803E+02 -0.71947802105E+02 -0.39151750468E+02  0.11666983541E+03  0.00000000000E+00 0. -1.
         21    1    1    2  504  503  0.10752372345E+02 -0.11724263104E+03 -0.10250193077E+03  0.15610283103E+03  0.00000000000E+00 0. -1.
<mgrwt>
<rscale>  4 0.18236250E+03</rscale>
<asrwt>0</asrwt>
<pdfrwt beam="1">  1       21 0.25281343E-01 0.18236250E+03</pdfrwt>
<pdfrwt beam="2">  1       21 0.53938722E-01 0.18236250E+03</pdfrwt>
<totfact> 0.48425380E+04</totfact>
</mgrwt>
</event>
<event>
 5    0  0.1911311E+001  0.3387095E+03  0.7546771E-02  0.1067347E+00
         21   -1    0    0  504  501  0.00000000000E+00  0.00000000000E+00  0.67036440692E+03  0.67036440692E+03  0.00000000000E+00 0. -1.
         21   -1    0    0  503  502 -0.00000000000E+00 -0.00000000000E+00 -0.26874216790E+03  0.26874216790E+03  0.00000000000E+00 0. -1.
         25    1    1    2    0    0  0.27953252479E+03  0.49044971074E+02 -0.19236505406E+02  0.31070707225E+03  0.12500000000E+03 0.  0.
         21    1    1    2  503  501  0.42398348328E+02 -0.85316811940E+01 -0.43872379721E+02  0.61605155850E+02  0.00000000000E+00 0. -1.
         21    1    1    2  504  502 -0.32193087312E+03 -0.40513289880E+02  0.46473112414E+03  0.56679434672E+03  0.00000000000E+00 0. -1.
<mgrwt>
<rscale>  4 0.33870949E+03</rscale>
<asrwt>0</asrwt>
<pdfrwt beam="1">  1       21 0.10313298E+00 0.33870949E+03</pdfrwt>
<pdfrwt beam="2">  1       21 0.41344949E-01 0.33870949E+03</pdfrwt>
<totfact> 0.39227049E+03</totfact>
</mgrwt>
</event>
<event>
 5    0  0.1911311E+001  0.3003980E+03  0.7546771E-02  0.1085042E+00
         21   -1    0    0  502  501  0.00000000000E+00  0.00000000000E+00  0.38970901484E+03  0.38970901484E+03  0.00000000000E+00 0.  1.
         21   -1    0    0  504  502 -0.00000000000E+00 -0.00000000000E+00 -0.52530151004E+03  0.52530151004E+03  0.00000000000E+00 0.  1.
         25    1    1    2    0    0  0.17724574346E+03 -0.15720993712E+03  0.66002167920E+02  0.27588458470E+03  0.12500000000E+03 0.  0.
         21    1    1    2  503  501 -0.22904870229E+03  0.21273319207E+03  0.99931769914E+02  0.32818451771E+03  0.00000000000E+00 0.  1.
         21    1    1    2  504  503  0.51802958821E+02 -0.55523254949E+02 -0.30152643303E+03  0.31094142246E+03  0.00000000000E+00 0.  1.
<mgrwt>
<rscale>  4 0.30039799E+03</rscale>
<asrwt>0</asrwt>
<pdfrwt beam="1">  1       21 0.59955233E-01 0.30039799E+03</pdfrwt>
<pdfrwt beam="2">  1       21 0.80815617E-01 0.30039799E+03</pdfrwt>
<totfact> 0.32426183E+03</totfact>
</mgrwt>
</event>
<event>
 5    0  0.1911311E+001  0.2458891E+03  0.7546771E-02  0.1115931E+00
         21   -1    0    0  502  501  0.00000000000E+00  0.00000000000E+00  0.12554997423E+04  0.12554997423E+04  0.00000000000E+00 0.  1.
         21   -1    0    0  504  502 -0.00000000000E+00 -0.00000000000E+00 -0.52199173664E+02  0.52199173664E+02  0.00000000000E+00 0.  1.
         25    1    1    2    0    0  0.16010809029E+03 -0.13857067005E+03  0.89667521018E+03  0.92977839496E+03  0.12500000000E+03 0.  0.
         21    1    1    2  503  501 -0.20519470258E+02  0.25223267487E+02  0.16177750863E+02  0.36317784973E+02  0.00000000000E+00 0.  1.
         21    1    1    2  504  503 -0.13958862004E+03  0.11334740257E+03  0.29044760762E+03  0.34160273606E+03  0.00000000000E+00 0.  1.
<mgrwt>
<rscale>  4 0.24588906E+03</rscale>
<asrwt>0</asrwt>
<pdfrwt beam="1">  1       21 0.19315378E+00 0.24588906E+03</pdfrwt>
<pdfrwt beam="2">  1       21 0.80306431E-02 0.24588906E+03</pdfrwt>
<totfact> 0.17081594E+04</totfact>
</mgrwt>
</event>
