<event>
 5    0  0.1856407E+000  0.2609326E+03  0.7546771E-02  0.1106584E+00
         21   -1    0    0  502  501  0.00000000000E+00  0.00000000000E+00  0.81396835328E+03  0.81396835328E+03  0.00000000000E+00 0.  1.
         21   -1    0    0  503  502 -0.00000000000E+00 -0.00000000000E+00 -0.15590248983E+03  0.15590248983E+03  0.00000000000E+00 0.  1.
         25    1    1    2    0    0 -0.24268103904E+03  0.39988112299E+01  0.63947519553E+03  0.69531547005E+03  0.12500000000E+03 0.  0.
         21    1    1    2  503  504  0.17678300471E+03 -0.50036245879E+02 -0.21043973067E+02  0.18492892002E+03  0.00000000000E+00 0.  1.
         21    1    1    2  504  501  0.65898034323E+02  0.46037434649E+02  0.39634640993E+02  0.89626453033E+02  0.00000000000E+00 0.  1.
<mgrwt>
<rscale>  4 0.26093262E+03</rscale>
<asrwt>0</asrwt>
<pdfrwt beam="1">  1       21 0.12522590E+00 0.26093262E+03</pdfrwt>
<pdfrwt beam="2">  1       21 0.23984999E-01 0.26093262E+03</pdfrwt>
<totfact> 0.74343619E+03</totfact>
</mgrwt>
</event>
<event>
 5    0  0.1856407E+000  0.2562658E+03  0.7546771E-02  0.1109408E+00
         21   -1    0    0  502  501  0.00000000000E+00  0.00000000000E+00  0.10128337752E+04  0.10128337752E+04  0.00000000000E+00 0. -1.
         21   -1    0    0  503  502 -0.00000000000E+00 -0.00000000000E+00 -0.26750715863E+03  0.26750715863E+03  0.00000000000E+00 0. -1.
         25    1    1    2    0    0  0.48239060095E+02  0.21844944969E+03  0.93744276824E+03  0.97183903643E+03  0.12500000000E+03 0.  0.
         21    1    1    2  503  504  0.44512788754E+01 -0.13477630565E+03 -0.71822000644E+02  0.15278372369E+03  0.00000000000E+00 0. -1.
         21    1    1    2  504  501 -0.52690338971E+02 -0.83673144042E+02 -0.12029415103E+03  0.15571817372E+03  0.00000000000E+00 0. -1.
<mgrwt>
<rscale>  4 0.25626582E+03</rscale>
<asrwt>0</asrwt>
<pdfrwt beam="1">  1       21 0.15582058E+00 0.25626582E+03</pdfrwt>
<pdfrwt beam="2">  1       21 0.41154948E-01 0.25626582E+03</pdfrwt>
<totfact> 0.14524879E+03</totfact>
</mgrwt>
</event>
<event>
 5    0  0.1856407E+000  0.2616371E+03  0.7546771E-02  0.1106164E+00
         21   -1    0    0  502  501  0.00000000000E+00  0.00000000000E+00  0.74406788788E+03  0.74406788788E+03  0.00000000000E+00 0.  1.
         21   -1    0    0  503  502 -0.00000000000E+00 -0.00000000000E+00 -0.66680671926E+03  0.66680671926E+03  0.00000000000E+00 0.  1.
         25    1    1    2    0    0 -0.85036819172E+02 -0.21328403770E+03  0.68537194223E+03  0.73354007426E+03  0.12500000000E+03 0.  0.
         21    1    1    2  503  504 -0.33156462185E+02  0.65887330319E+01 -0.12753895712E+02  0.36130655176E+02  0.00000000000E+00 0. -1.
         21    1    1    2  504  501  0.11819328136E+03  0.20669530466E+03 -0.59535687789E+03  0.64120387770E+03  0.00000000000E+00 0.  1.
<mgrwt>
<rscale>  4 0.26163715E+03</rscale>
<asrwt>0</asrwt>
<pdfrwt beam="1">  1       21 0.11447198E+00 0.26163715E+03</pdfrwt>
<pdfrwt beam="2">  1       21 0.10258565E+00 0.26163715E+03</pdfrwt>
<totfact> 0.42789487E+02</totfact>
</mgrwt>
</event>
<event>
 5    0  0.1856407E+000  0.2357465E+03  0.7546771E-02  0.1122659E+00
         21   -1    0    0  502  501  0.00000000000E+00  0.00000000000E+00  0.87908820467E+03  0.87908820467E+03  0.00000000000E+00 0.  1.
         21   -1    0    0  503  502 -0.00000000000E+00 -0.00000000000E+00 -0.19269138452E+03  0.19269138452E+03  0.00000000000E+00 0. -1.
         25    1    1    2    0    0 -0.13710362920E+02  0.21593209577E+03  0.75837995808E+03  0.79848594530E+03  0.12500000000E+03 0.  0.
         21    1    1    2  503  504 -0.30608877320E+02 -0.14672405864E+03  0.18545723121E+02  0.15102581435E+03  0.00000000000E+00 0. -1.
         21    1    1    2  504  501  0.44319240239E+02 -0.69208037122E+02 -0.90528861039E+02  0.12226782953E+03  0.00000000000E+00 0. -1.
<mgrwt>
<rscale>  4 0.23574648E+03</rscale>
<asrwt>0</asrwt>
<pdfrwt beam="1">  1       21 0.13524434E+00 0.23574648E+03</pdfrwt>
<pdfrwt beam="2">  1       21 0.29644829E-01 0.23574648E+03</pdfrwt>
<totfact> 0.41222602E+03</totfact>
</mgrwt>
</event>
<event>
 5    0  0.1940740E+000  0.3129646E+03  0.7546771E-02  0.1078934E+00
         21   -1    0    0  502  501  0.00000000000E+00  0.00000000000E+00  0.77271073654E+03  0.77271073654E+03  0.00000000000E+00 0. -1.
         21   -1    0    0  503  502 -0.00000000000E+00 -0.00000000000E+00 -0.12595143146E+03  0.12595143146E+03  0.00000000000E+00 0. -1.
         25    1    1    2    0    0 -0.27341742070E+03  0.86975525334E+02  0.32067077779E+03  0.44808099232E+03  0.12500000000E+03 0.  0.
         21    1    1    2  503  504  0.16175928916E+03 -0.17840991874E+01  0.12101345314E+03  0.20202352952E+03  0.00000000000E+00 0. -1.
         21    1    1    2  504  501  0.11165813154E+03 -0.85191426146E+02  0.20507507415E+03  0.24855764616E+03  0.00000000000E+00 0. -1.
<mgrwt>
<rscale>  4 0.31296458E+03</rscale>
<asrwt>0</asrwt>
<pdfrwt beam="1">  1       21 0.11887857E+00 0.31296458E+03</pdfrwt>
<pdfrwt beam="2">  1       21 0.19377144E-01 0.31296458E+03</pdfrwt>
<totfact> 0.12381519E+04</totfact>
</mgrwt>
</event>
<event>
 5    0  0.1856407E+000  0.2373721E+03  0.7546771E-02  0.1121556E+00
         21   -1    0    0  502  501  0.00000000000E+00  0.00000000000E+00  0.19929576524E+04  0.19929576524E+04  0.00000000000E+00 0. -1.
         21   -1    0    0  503  502 -0.00000000000E+00 -0.00000000000E+00 -0.11923163157E+03  0.11923163157E+03  0.00000000000E+00 0. -1.
         25    1    1    2    0    0 -0.13049785462E+03  0.15391829296E+03  0.18802315356E+04  0.18951559721E+04  0.12500000000E+03 0.  0.
         21    1    1    2  503  504  0.97189387467E+02 -0.86737732055E+02  0.29937873777E+02  0.13366184005E+03  0.00000000000E+00 0. -1.
         21    1    1    2  504  501  0.33308467153E+02 -0.67180560903E+02 -0.36443388561E+02  0.83371471842E+02  0.00000000000E+00 0. -1.
<mgrwt>
<rscale>  4 0.23737214E+03</rscale>
<asrwt>0</asrwt>
<pdfrwt beam="1">  1       21 0.30660884E+00 0.23737214E+03</pdfrwt>
<pdfrwt beam="2">  1       21 0.18343329E-01 0.23737214E+03</pdfrwt>
<totfact> 0.80115057E+02</totfact>
</mgrwt>
</event>
